Title
81392
    1CHL1    C3    1   3.204   3.229  10.322  0.6023  0.9467 -0.4318
    1CHL1    H3    2   3.186   3.338  10.313 -1.0223  0.5547 -2.7417
    1CHL1    O3    3   3.183   3.185  10.456 -0.0279  0.1874  0.1654
    1CHL1   H3'    4   3.211   3.093  10.455 -0.0528  0.1550 -1.4514
    1CHL1    C4    5   3.106   3.159  10.228  0.1682 -0.3580 -0.8788
    1CHL1   H4A    6   3.101   3.050  10.252 -0.4915 -0.4450 -1.4082
    1CHL1   H4B    7   3.004   3.198  10.245  0.0004  0.9059 -4.1824
    1CHL1    C5    8   3.155   3.171  10.086 -0.1844  0.0752  0.1406
    1CHL1    C6    9   3.067   3.202   9.985  0.1704  0.2566 -0.0310
    1CHL1    H6   10   2.960   3.217  10.003  0.3605 -0.6933  2.1412
    1CHL1    C7   11   3.106   3.216   9.840  0.1210 -0.0304  0.0588
    1CHL1   H7A   12   3.032   3.173   9.769 -1.0120 -0.3207  1.3632
    1CHL1   H7B   13   3.111   3.323   9.812 -0.9036 -0.4438 -1.8207
    1CHL1    C8   14   3.248   3.157   9.798 -0.2812 -0.1892  0.3447
    1CHL1    H8   15   3.252   3.046   9.795  0.9483 -0.1515 -0.1630
    1CHL1   C14   16   3.301   3.205   9.655 -0.9890  0.0211  0.0941
    1CHL1   H14   17   3.302   3.316   9.665  1.8622  0.1349 -0.6858
    1CHL1   C15   18   3.213   3.187   9.528 -0.7691  0.0575 -0.3595
    1CHL1  H15A   19   3.176   3.082   9.523 -0.1812 -0.0927 -3.0677
    1CHL1  H15B   20   3.128   3.259   9.521 -0.4372  0.4293 -0.6155
    1CHL1   C16   21   3.314   3.221   9.422 -0.6165  0.4436  0.0440
    1CHL1  H16A   22   3.320   3.147   9.340  3.5091  1.9092 -1.2402
    1CHL1  H16B   23   3.285   3.314   9.368 -2.0614  0.6082  1.0553
    1CHL1   C17   24   3.457   3.228   9.484  0.0915 -0.0770  0.1041
    1CHL1   H17   25   3.461   3.336   9.509 -3.1305  0.5493 -1.4941
    1CHL1   C13   26   3.446   3.168   9.617  0.5595  0.1980  0.2692
    1CHL1   C18   27   3.460   3.013   9.600 -0.1414  0.5300 -0.3915
    1CHL1  H18A   28   3.410   2.980   9.507  0.3890  0.0086 -0.4988
    1CHL1  H18B   29   3.566   2.983   9.598  0.0324  0.8475  1.5997
    1CHL1  H18C   30   3.416   2.955   9.685  0.2262  2.5217  1.2539
    1CHL1   C12   31   3.536   3.224   9.734  0.8058 -0.4642 -0.1637
    1CHL1  H12A   32   3.639   3.181   9.740  2.3719  3.1136  1.8824
    1CHL1  H12B   33   3.548   3.334   9.732  1.8970 -0.3748  3.6791
    1CHL1   C11   34   3.491   3.176   9.872 -1.2895  0.3888  0.1672
    1CHL1  H11A   35   3.513   3.067   9.864 -1.1511  0.3222  1.3036
    1CHL1  H11B   36   3.554   3.230   9.947  0.6175 -0.3397 -0.8438
    1CHL1    C9   37   3.346   3.200   9.909 -0.1255 -0.7648  0.3656
    1CHL1    H9   38   3.334   3.310   9.907 -1.4740 -0.8955  0.2989
    1CHL1   C10   39   3.300   3.152  10.049  0.2774 -0.4517  0.9990
    1CHL1   C19   40   3.320   2.998  10.068  0.3264 -0.4888  0.1589
    1CHL1  H19A   41   3.421   2.955  10.082 -0.6065 -3.1959 -0.7835
    1CHL1  H19B   42   3.266   2.968  10.161 -2.7089  1.7070 -0.7312
    1CHL1  H19C   43   3.270   2.950   9.981  1.1890  3.0748 -2.5349
    1CHL1    C1   44   3.382   3.238  10.151 -0.5029  0.2388 -0.6583
    1CHL1   H1A   45   3.492   3.225  10.150 -0.5137 -0.2430 -2.9756
    1CHL1   H1B   46   3.364   3.343  10.121 -0.2098 -0.2741 -2.8653
    1CHL1    C2   47   3.348   3.195  10.296  0.4501  0.3120 -0.5267
    1CHL1   H2A   48   3.410   3.243  10.375  0.2964  2.0745 -1.4230
    1CHL1   H2B   49   3.356   3.085  10.309  1.5848  0.5079  0.7355
    1CHL1   C20   50   3.579   3.197   9.401 -0.0850 -0.1535 -1.0841
    1CHL1   H20   51   3.588   3.086   9.402  0.9563 -0.1886  3.4528
    1CHL1   C21   52   3.707   3.269   9.464 -0.5488  0.8009 -0.2142
    1CHL1  H21A   53   3.800   3.215   9.437 -1.3647 -0.9259  0.2754
    1CHL1  H21B   54   3.699   3.278   9.574  0.7349  2.2584 -0.2054
    1CHL1  H21C   55   3.707   3.377   9.435 -0.0227  0.8954  0.1278
    1CHL1   C22   56   3.560   3.252   9.257 -0.0801  0.0423 -0.3368
    1CHL1  H22A   57   3.463   3.221   9.212 -0.0017 -1.2271  0.3411
    1CHL1  H22B   58   3.550   3.361   9.276 -4.1819  0.1603 -2.1022
    1CHL1   C23   59   3.677   3.231   9.162 -0.4801 -0.2722 -0.0588
    1CHL1  H23A   60   3.667   3.306   9.081 -1.4990  0.1589  0.4459
    1CHL1  H23B   61   3.774   3.247   9.214 -0.7417  0.0781  0.3377
    1CHL1   C24   62   3.680   3.089   9.113 -1.1345 -0.2189 -0.0517
    1CHL1  H24A   63   3.668   3.023   9.202  0.9161 -0.3399  0.1804
    1CHL1  H24B   64   3.586   3.068   9.057 -1.0381 -2.2718  0.4572
    1CHL1   C25   65   3.812   3.040   9.051 -0.0010  0.0751 -0.0158
    1CHL1   H25   66   3.898   3.048   9.122 -0.0252 -1.8430  0.2772
    1CHL1   C26   67   3.808   2.892   9.024  0.1688  0.0638 -0.3053
    1CHL1  H26A   68   3.900   2.858   8.971 -1.5849 -0.4145 -3.3030
    1CHL1  H26B   69   3.798   2.828   9.115  0.2564 -0.5461 -0.7184
    1CHL1  H26C   70   3.728   2.868   8.951  2.3927 -3.1955 -1.9140
    1CHL1   C27   71   3.841   3.119   8.925 -0.0905 -0.1270 -0.3886
    1CHL1  H27A   72   3.866   3.224   8.950 -0.5716 -0.0750 -0.1237
    1CHL1  H27B   73   3.933   3.073   8.881 -0.7844 -2.3491  0.3496
    1CHL1  H27C   74   3.763   3.127   8.846  1.2535 -0.5580 -1.8087
    2CHL1    C3   75   4.669   1.044  10.024 -0.2419 -0.7944  1.1518
    2CHL1    H3   76   4.737   0.975   9.970  0.3820  0.8112 -0.1879
    2CHL1    O3   77   4.712   1.078  10.161 -0.3639 -0.2195 -0.1066
    2CHL1   H3'   78   4.645   1.140  10.189  1.6646  2.2141 -0.2718
    2CHL1    C4   79   4.683   1.172   9.940 -0.3750 -0.5671  0.1511
    2CHL1   H4A   80   4.612   1.246   9.982  0.2565  0.0703  0.1079
    2CHL1   H4B   81   4.775   1.228   9.964 -1.6317  0.8930  1.8342
    2CHL1    C5   82   4.643   1.157   9.794  0.9155 -0.5812  0.3456
    2CHL1    C6   83   4.732   1.180   9.696  0.8238  0.4212 -0.0590
    2CHL1    H6   84   4.836   1.209   9.720 -0.0051  0.5247  4.1255
    2CHL1    C7   85   4.692   1.175   9.551  0.3457 -0.8312 -0.0280
    2CHL1   H7A   86   4.728   1.270   9.505  0.8368 -0.1703  1.6451
    2CHL1   H7B   87   4.749   1.088   9.512  1.9303  0.6681 -1.2237
    2CHL1    C8   88   4.540   1.160   9.522 -0.1699 -0.2988 -0.4813
    2CHL1    H8   89   4.487   1.257   9.533  2.5397  1.3784 -1.3058
    2CHL1   C14   90   4.511   1.102   9.383  0.4030  0.3967 -0.4183
    2CHL1   H14   91   4.569   1.008   9.394  2.5161  1.8007  1.3293
    2CHL1   C15   92   4.572   1.175   9.260 -0.4772  0.4715 -0.0372
    2CHL1  H15A   93   4.565   1.285   9.275 -1.1846  0.7222 -1.9492
    2CHL1  H15B   94   4.682   1.167   9.254 -0.5659 -2.0823  0.5778
    2CHL1   C16   95   4.496   1.107   9.144 -0.6091  0.3115 -0.7653
    2CHL1  H16A   96   4.458   1.190   9.080 -1.2265  1.0166  0.4858
    2CHL1  H16B   97   4.562   1.039   9.086  0.3093 -0.5512  1.1945
    2CHL1   C17   98   4.389   1.012   9.201  0.2162  0.1198 -0.2875
    2CHL1   H17   99   4.436   0.913   9.220  1.3438  0.6053 -0.4722
    2CHL1   C13  100   4.364   1.065   9.346 -0.2164 -0.1347 -0.2586
    2CHL1   C18  101   4.276   1.193   9.348  0.0215 -0.1700 -0.1246
    2CHL1  H18A  102   4.329   1.264   9.282  2.7559 -1.1515  0.8939
    2CHL1  H18B  103   4.170   1.168   9.323 -0.3687  1.7954 -0.5966
    2CHL1  H18C  104   4.263   1.243   9.447 -1.8490 -0.4160 -0.2011
    2CHL1   C12  105   4.313   0.956   9.449  0.1273 -0.3014 -0.5054
    2CHL1  H12A  106   4.205   0.931   9.438  0.2787 -0.5121 -1.6239
    2CHL1  H12B  107   4.376   0.866   9.433  0.9208  0.0249  0.6586
    2CHL1   C11  108   4.340   1.007   9.593  0.4694  0.4847 -1.2376
    2CHL1  H11A  109   4.267   1.090   9.607  0.8822  0.4251  2.0899
    2CHL1  H11B  110   4.315   0.925   9.664  1.0085 -0.3201 -1.9652
    2CHL1    C9  111   4.487   1.052   9.626 -0.5268 -0.6761  0.7319
    2CHL1    H9  112   4.560   0.970   9.608 -0.1058 -0.8439  2.9261
    2CHL1   C10  113   4.503   1.094   9.775 -0.4752 -0.2809  0.0441
    2CHL1   C19  114   4.394   1.196   9.810  0.9107 -1.1603  0.0967
    2CHL1  H19A  115   4.406   1.244   9.910 -0.3536 -1.3344  0.3521
    2CHL1  H19B  116   4.402   1.268   9.726 -0.9606 -4.7526 -3.5273
    2CHL1  H19C  117   4.292   1.151   9.805  0.5443 -0.4016  0.5358
    2CHL1    C1  118   4.500   0.968   9.864 -0.3214  0.3662  1.2110
    2CHL1   H1A  119   4.396   0.929   9.859 -0.9120  2.0111 -1.3520
    2CHL1   H1B  120   4.566   0.884   9.832  0.3533  0.9738  0.9793
    2CHL1    C2  121   4.527   0.989  10.015 -0.6010  0.3822 -0.4565
    2CHL1   H2A  122   4.518   0.894  10.071  0.6583  0.8876  0.6469
    2CHL1   H2B  123   4.453   1.058  10.061  0.9288  0.9771  1.1869
    2CHL1   C20  124   4.268   0.969   9.116  0.0187 -0.3675  0.8611
    2CHL1   H20  125   4.179   1.030   9.141  0.3438  1.4240 -1.8920
    2CHL1   C21  126   4.230   0.824   9.146  0.0217  0.7306 -0.0292
    2CHL1  H21A  127   4.199   0.824   9.253  1.2104 -1.1407  0.3528
    2CHL1  H21B  128   4.309   0.751   9.120 -0.8531  0.2031 -1.2616
    2CHL1  H21C  129   4.141   0.787   9.091 -0.1694 -2.6170  2.2052
    2CHL1   C22  130   4.290   0.997   8.963 -0.1300 -0.0201  0.3560
    2CHL1  H22A  131   4.359   1.079   8.935  0.3641 -0.4375  0.3297
    2CHL1  H22B  132   4.343   0.906   8.926  1.0746  0.9542 -0.3599
    2CHL1   C23  133   4.164   1.030   8.879  0.7915  0.1634  0.7076
    2CHL1  H23A  134   4.082   0.958   8.900 -0.6089  1.5386  0.1566
    2CHL1  H23B  135   4.136   1.133   8.912  2.1405  0.7507  0.1014
    2CHL1   C24  136   4.185   1.039   8.724  1.0239 -0.2600  0.7281
    2CHL1  H24A  137   4.246   1.129   8.703  0.7808  0.2011  1.9077
    2CHL1  H24B  138   4.242   0.958   8.674  0.7326 -0.0138 -0.0316
    2CHL1   C25  139   4.051   1.070   8.637 -0.5843  0.0887 -0.0966
    2CHL1   H25  140   4.001   1.153   8.691  1.2381  0.2243  1.4979
    2CHL1   C26  141   4.097   1.106   8.500  0.0731 -0.0468  0.4340
    2CHL1  H26A  142   4.151   1.013   8.469  0.7754 -0.2218  2.0734
    2CHL1  H26B  143   4.020   1.135   8.426 -1.1622 -0.6974  1.4286
    2CHL1  H26C  144   4.172   1.188   8.498 -0.0448  0.0475 -0.8036
    2CHL1   C27  145   3.964   0.946   8.630 -0.3793 -0.8862  0.4633
    2CHL1  H27A  146   3.866   0.972   8.585 -0.8974 -1.4253  1.2658
    2CHL1  H27B  147   4.013   0.872   8.563  0.1753  0.7799 -1.0622
    2CHL1  H27C  148   3.949   0.909   8.734  0.8877  1.6364  1.6215
    3CHL1    C3  149   4.476   6.181  10.446 -0.0438  0.3357 -0.5456
    3CHL1    H3  150   4.581   6.146  10.453 -0.4156 -0.7877 -0.3951
    3CHL1    O3  151   4.427   6.182  10.581  0.1418  0.6386 -0.0994
    3CHL1   H3'  152   4.332   6.196  10.576  0.5352  3.3940 -1.7401
    3CHL1    C4  153   4.457   6.321  10.386 -0.1857 -0.3821  0.0044
    3CHL1   H4A  154   4.352   6.358  10.387  0.3863  1.3314  0.9494
    3CHL1   H4B  155   4.506   6.390  10.459 -0.0132 -1.2624  0.7319
    3CHL1    C5  156   4.514   6.327  10.245 -0.2022 -0.5359 -0.0519
    3CHL1    C6  157   4.610   6.415  10.218 -0.5934 -0.7986 -0.1229
    3CHL1    H6  158   4.652   6.482  10.294  3.3303 -2.0883 -0.9308
    3CHL1    C7  159   4.682   6.432  10.085  0.2914 -0.4825 -1.0564
    3CHL1   H7A  160   4.718   6.535  10.063 -0.3352  0.3290  1.4300
    3CHL1   H7B  161   4.780   6.381  10.079 -0.0946 -1.4146  0.1780
    3CHL1    C8  162   4.591   6.373   9.972 -0.2794  0.2442 -0.1307
    3CHL1    H8  163   4.513   6.450   9.957 -3.2803 -2.3584  0.9265
    3CHL1   C14  164   4.668   6.362   9.846 -0.6042 -0.1220 -0.3090
    3CHL1   H14  165   4.734   6.275   9.866 -1.1071 -0.0483  1.8949
    3CHL1   C15  166   4.754   6.480   9.805 -0.1246 -0.0405  0.2214
    3CHL1  H15A  167   4.698   6.573   9.829  0.2148 -0.4675  2.9990
    3CHL1  H15B  168   4.850   6.493   9.859 -0.3386  1.5239  0.2798
    3CHL1   C16  169   4.779   6.452   9.656 -0.6941 -0.0883  0.1113
    3CHL1  H16A  170   4.731   6.538   9.605  0.4063 -0.0012 -0.8148
    3CHL1  H16B  171   4.888   6.446   9.635 -0.7660 -1.8579  0.1015
    3CHL1   C17  172   4.698   6.326   9.620 -0.6030 -0.7664 -0.3126
    3CHL1   H17  173   4.765   6.239   9.636 -1.0045 -0.5604  3.2686
    3CHL1   C13  174   4.590   6.316   9.730  0.3283 -0.2978  0.6484
    3CHL1   C18  175   4.468   6.416   9.695 -0.0865  0.7888 -0.1030
    3CHL1  H18A  176   4.409   6.365   9.615 -1.2383 -0.0008  1.2000
    3CHL1  H18B  177   4.401   6.439   9.781 -0.1455  0.0097  0.0702
    3CHL1  H18C  178   4.511   6.515   9.670  1.4670  0.1994  0.0935
    3CHL1   C12  179   4.547   6.171   9.768  0.6597 -0.2912  0.0710
    3CHL1  H12A  180   4.478   6.124   9.695  1.5434 -0.6934 -0.5286
    3CHL1  H12B  181   4.631   6.100   9.786 -0.8563 -1.7102  1.9492
    3CHL1   C11  182   4.468   6.167   9.902 -0.4355  0.0408 -0.3695
    3CHL1  H11A  183   4.373   6.216   9.873 -1.4251 -1.8478 -0.4699
    3CHL1  H11B  184   4.442   6.061   9.923  2.0446 -0.8877 -1.6161
    3CHL1    C9  185   4.539   6.236  10.017  0.4349  0.1253 -0.2874
    3CHL1    H9  186   4.633   6.181  10.041  1.1326  1.7258  0.7610
    3CHL1   C10  187   4.452   6.231  10.144  0.1275  0.0358  0.4183
    3CHL1   C19  188   4.311   6.284  10.122 -0.4585 -0.3221 -0.0142
    3CHL1  H19A  189   4.308   6.383  10.072  0.7757 -0.3423 -0.1587
    3CHL1  H19B  190   4.260   6.218  10.049  0.7923  0.0390 -1.2630
    3CHL1  H19C  191   4.240   6.298  10.206 -0.7791 -0.0045 -0.3338
    3CHL1    C1  192   4.451   6.090  10.208  0.6997 -0.5818  0.3447
    3CHL1   H1A  193   4.382   6.028  10.148 -0.7247  2.2113 -1.0960
    3CHL1   H1B  194   4.557   6.057  10.205  0.1070 -2.6047 -3.0886
    3CHL1    C2  195   4.402   6.075  10.354  0.1447 -0.5283 -0.2037
    3CHL1   H2A  196   4.430   5.974  10.389 -2.9531 -1.9392 -1.3899
    3CHL1   H2B  197   4.291   6.083  10.360  0.1658 -0.1403 -0.3000
    3CHL1   C20  198   4.652   6.311   9.481  0.8013  0.4407  0.6365
    3CHL1   H20  199   4.573   6.388   9.465  0.6017  0.0044 -0.6078
    3CHL1   C21  200   4.607   6.167   9.451  0.2722  0.1097 -0.0684
    3CHL1  H21A  201   4.599   6.141   9.343  0.8742 -1.6935  0.2815
    3CHL1  H21B  202   4.508   6.153   9.499  0.6926  1.4818  1.2885
    3CHL1  H21C  203   4.671   6.089   9.497 -1.4664 -0.8410  0.8278
    3CHL1   C22  204   4.763   6.344   9.371  0.5417 -0.4746 -0.4712
    3CHL1  H22A  205   4.826   6.431   9.398 -0.3417  0.2825 -0.7807
    3CHL1  H22B  206   4.832   6.259   9.354  1.7846  0.5485 -0.7081
    3CHL1   C23  207   4.706   6.372   9.235  0.1011 -0.2722  0.1829
    3CHL1  H23A  208   4.659   6.274   9.209 -0.9298  0.2606 -0.0282
    3CHL1  H23B  209   4.618   6.440   9.231 -0.8674 -1.5417 -3.4109
    3CHL1   C24  210   4.817   6.421   9.127 -0.0632 -0.0165 -0.0039
    3CHL1  H24A  211   4.898   6.345   9.133  1.3151  1.3381 -0.7156
    3CHL1  H24B  212   4.765   6.414   9.028 -1.0056  0.1206  0.4661
    3CHL1   C25  213   4.876   6.562   9.148  0.2544 -0.6587 -0.2811
    3CHL1   H25  214   4.930   6.551   9.244  1.6264  1.6774 -0.6946
    3CHL1   C26  215   4.981   6.603   9.043  0.1867  0.3507  0.1754
    3CHL1  H26A  216   5.054   6.522   9.020 -0.1984 -0.6299  2.1613
    3CHL1  H26B  217   4.933   6.630   8.947 -2.2637 -1.2559  0.8471
    3CHL1  H26C  218   5.030   6.689   9.094  0.1061  0.2881  0.3614
    3CHL1   C27  219   4.772   6.677   9.151  0.7559 -0.2679 -0.5241
    3CHL1  H27A  220   4.694   6.659   9.228 -0.0466 -0.9635 -1.4760
    3CHL1  H27B  221   4.819   6.775   9.177 -1.7909  0.6759  0.8656
    3CHL1  H27C  222   4.712   6.680   9.058 -1.4759 -2.3581  0.7409
    4CHL1    C3  223   5.141   2.886  10.419  0.0355 -0.6067 -0.4040
    4CHL1    H3  224   5.131   2.776  10.401 -0.4132 -0.7408  0.6115
    4CHL1    O3  225   5.157   2.890  10.557 -0.1741  0.0276 -0.4786
    4CHL1   H3'  226   5.252   2.901  10.568  0.0219  1.7008 -2.9712
    4CHL1    C4  227   5.271   2.934  10.347  0.1118  0.5983  0.6522
    4CHL1   H4A  228   5.282   3.037  10.387  0.8930  0.9223 -0.3450
    4CHL1   H4B  229   5.353   2.860  10.361 -0.5241 -1.1921 -3.5680
    4CHL1    C5  230   5.245   2.929  10.196 -0.6065 -0.4113 -0.2449
    4CHL1    C6  231   5.336   2.869  10.109  0.4573 -0.0995 -0.6346
    4CHL1    H6  232   5.425   2.817  10.148 -1.9578 -3.4105  0.9793
    4CHL1    C7  233   5.318   2.889   9.962 -0.3630 -0.5073 -0.0368
    4CHL1   H7A  234   5.415   2.915   9.914 -0.7092  0.5825 -0.1864
    4CHL1   H7B  235   5.301   2.784   9.932 -0.7700 -0.8578  1.3513
    4CHL1    C8  236   5.210   2.989   9.911  0.1391 -0.6936 -0.3640
    4CHL1    H8  237   5.260   3.088   9.909 -0.5620 -0.1993  2.3192
    4CHL1   C14  238   5.167   2.953   9.766 -0.3978  0.0107  0.1837
    4CHL1   H14  239   5.111   2.857   9.767 -1.2840  0.5150  1.0300
    4CHL1   C15  240   5.268   2.928   9.655  0.1869 -0.6848  0.0709
    4CHL1  H15A  241   5.334   3.016   9.645  0.5348 -0.8880  0.5721
    4CHL1  H15B  242   5.323   2.832   9.669 -1.6644 -1.5128  2.5074
    4CHL1   C16  243   5.188   2.920   9.524 -0.3365 -0.7091 -1.0579
    4CHL1  H16A  244   5.235   2.979   9.443  0.4163 -1.7714 -1.4138
    4CHL1  H16B  245   5.171   2.812   9.503 -1.0831 -0.5336 -1.4104
    4CHL1   C17  246   5.050   2.983   9.564  0.1283  1.4549 -0.4655
    4CHL1   H17  247   4.984   2.895   9.581  3.0217 -1.0855 -1.4085
    4CHL1   C13  248   5.067   3.051   9.706  0.3800  0.2599  0.8766
    4CHL1   C18  249   5.131   3.190   9.692 -0.6381 -0.7011  1.0391
    4CHL1  H18A  250   5.217   3.195   9.621 -1.2857 -0.6688  0.2409
    4CHL1  H18B  251   5.059   3.249   9.631  1.1139  1.2319  0.7052
    4CHL1  H18C  252   5.160   3.247   9.783  0.5862  0.3674  0.0317
    4CHL1   C12  253   4.943   3.063   9.798 -0.2784  0.8348 -0.0674
    4CHL1  H12A  254   4.876   3.146   9.768 -0.7906  1.0510  1.5505
    4CHL1  H12B  255   4.894   2.965   9.815  2.2261 -0.2787  1.2038
    4CHL1   C11  256   4.981   3.098   9.948 -0.4509  0.0808  0.0622
    4CHL1  H11A  257   5.010   3.205   9.948 -2.5429  0.7197  2.1082
    4CHL1  H11B  258   4.889   3.080  10.006 -1.4333 -1.1400 -1.7483
    4CHL1    C9  259   5.089   3.002  10.007  0.0960  0.3428  0.3571
    4CHL1    H9  260   5.044   2.900   9.997  1.0700 -0.3130  2.1548
    4CHL1   C10  261   5.120   3.011  10.155  0.1456  0.1213 -0.3392
    4CHL1   C19  262   5.149   3.165  10.188 -0.0470  0.3929 -0.8180
    4CHL1  H19A  263   5.059   3.225  10.163 -0.8397  0.0408  1.0522
    4CHL1  H19B  264   5.174   3.191  10.293  3.0523 -0.7408 -1.1556
    4CHL1  H19C  265   5.231   3.208  10.126 -0.1309  1.2393 -0.3626
    4CHL1    C1  266   4.996   2.967  10.227  0.5218 -0.1059 -0.6063
    4CHL1   H1A  267   4.916   3.040  10.202  0.6780 -0.3479 -1.8488
    4CHL1   H1B  268   4.971   2.865  10.193 -0.1839  0.0201 -0.4791
    4CHL1    C2  269   5.010   2.954  10.380  0.8041 -0.2690  0.2201
    4CHL1   H2A  270   4.928   2.892  10.422 -1.7155  2.1989 -0.7547
    4CHL1   H2B  271   5.008   3.050  10.435 -1.6566 -0.1030 -0.0574
    4CHL1   C20  272   4.997   3.064   9.450 -0.6109 -0.4907  0.3660
    4CHL1   H20  273   5.062   3.149   9.417  0.1200 -0.4777  1.7563
    4CHL1   C21  274   4.858   3.124   9.489  0.2797  0.2333 -0.2060
    4CHL1  H21A  275   4.788   3.054   9.539 -1.0907  2.8122  1.7246
    4CHL1  H21B  276   4.808   3.158   9.396  0.8924  0.1021 -0.5860
    4CHL1  H21C  277   4.878   3.205   9.563  1.4402 -2.5303  2.7743
    4CHL1   C22  278   4.973   2.981   9.324 -0.7384  0.1577  0.4456
    4CHL1  H22A  279   5.032   2.888   9.312 -0.9588 -0.0273  0.7992
    4CHL1  H22B  280   4.873   2.937   9.341 -0.1436 -0.8562  1.4398
    4CHL1   C23  281   4.990   3.065   9.196  1.3541  0.1743 -0.1959
    4CHL1  H23A  282   4.937   3.162   9.205  0.2891 -0.6022  4.4482
    4CHL1  H23B  283   5.099   3.080   9.185  1.6135 -1.2899  0.0903
    4CHL1   C24  284   4.922   2.992   9.077 -0.0139  0.2128 -0.3558
    4CHL1  H24A  285   4.929   2.882   9.091  0.6943  0.4234  1.1484
    4CHL1  H24B  286   4.814   3.017   9.072 -0.0645 -0.3166 -3.1110
    4CHL1   C25  287   4.965   3.037   8.944  0.3834  0.2800 -0.9050
    4CHL1   H25  288   5.067   2.994   8.931  0.5145  0.6059 -0.9637
    4CHL1   C26  289   4.865   2.981   8.836 -0.0535 -0.2399  0.0281
    4CHL1  H26A  290   4.869   2.870   8.841  2.8407 -0.4012 -2.5243
    4CHL1  H26B  291   4.767   3.028   8.857 -1.1040 -2.3579  0.1254
    4CHL1  H26C  292   4.897   3.011   8.733 -0.9151  1.1868  0.1381
    4CHL1   C27  293   4.984   3.190   8.927 -0.1018  0.1547 -0.0938
    4CHL1  H27A  294   5.057   3.230   9.000  0.9750  0.9224 -1.5462
    4CHL1  H27B  295   5.015   3.208   8.822  0.6592  0.7632  0.2285
    4CHL1  H27C  296   4.883   3.232   8.946 -0.7966 -2.0636  1.5689
    5CHL1    C3  297   5.551   6.478  10.332 -0.3462 -0.6672  0.0086
    5CHL1    H3  298   5.648   6.525  10.305 -1.3632  0.9808 -0.9512
    5CHL1    O3  299   5.539   6.500  10.471 -0.4128 -0.0220 -0.3856
    5CHL1   H3'  300   5.446   6.484  10.490 -0.4462  1.4760  0.8667
    5CHL1    C4  301   5.435   6.548  10.259 -0.2576 -0.3036  0.1873
    5CHL1   H4A  302   5.335   6.500  10.268  0.1490 -1.6705 -1.7989
    5CHL1   H4B  303   5.424   6.654  10.289  3.8295  1.3201 -2.9621
    5CHL1    C5  304   5.465   6.526  10.107 -0.2377  0.0988 -0.3246
    5CHL1    C6  305   5.491   6.644  10.046 -0.2754 -0.3812  0.7650
    5CHL1    H6  306   5.474   6.738  10.100  2.4610  1.0750 -0.6561
    5CHL1    C7  307   5.548   6.648   9.904  0.6510 -0.1197 -0.3665
    5CHL1   H7A  308   5.505   6.728   9.842  1.1765  0.9568  0.6199
    5CHL1   H7B  309   5.655   6.674   9.919 -0.1867  3.0817  0.8807
    5CHL1    C8  310   5.535   6.515   9.828  0.2700 -0.4817 -0.0725
    5CHL1    H8  311   5.426   6.502   9.807 -0.7863 -0.2367  4.2107
    5CHL1   C14  312   5.621   6.521   9.707  0.3602  0.2746 -0.5113
    5CHL1   H14  313   5.723   6.526   9.750 -0.2384 -0.5701  1.0655
    5CHL1   C15  314   5.613   6.648   9.615 -0.0532  0.1832  0.7409
    5CHL1  H15A  315   5.506   6.655   9.587 -0.0308 -2.3545 -0.3131
    5CHL1  H15B  316   5.657   6.742   9.655  0.8896 -0.3606  1.0244
    5CHL1   C16  317   5.694   6.603   9.489 -0.2204 -0.3360  0.2634
    5CHL1  H16A  318   5.644   6.643   9.399 -0.1731  0.5953  0.6473
    5CHL1  H16B  319   5.796   6.645   9.487 -0.4520  0.2006 -1.3518
    5CHL1   C17  320   5.709   6.446   9.500  0.4939  0.2692 -0.4270
    5CHL1   H17  321   5.815   6.422   9.525 -0.4181 -3.2147  0.6157
    5CHL1   C13  322   5.621   6.398   9.617 -0.2451 -0.1013  0.1496
    5CHL1   C18  323   5.484   6.362   9.571  0.7018 -0.2747  0.8781
    5CHL1  H18A  324   5.397   6.360   9.640 -0.3153  0.8773 -0.3193
    5CHL1  H18B  325   5.452   6.430   9.490 -0.4288 -0.1673  1.3941
    5CHL1  H18C  326   5.482   6.264   9.519 -3.3722  0.0040  0.1881
    5CHL1   C12  327   5.679   6.287   9.700  0.5111 -0.4233 -0.2696
    5CHL1  H12A  328   5.669   6.191   9.645 -1.2464 -0.4131 -0.0400
    5CHL1  H12B  329   5.782   6.313   9.733 -0.2113 -0.8609  2.6313
    5CHL1   C11  330   5.597   6.272   9.830  0.7015 -0.1195  0.1982
    5CHL1  H11A  331   5.499   6.229   9.801  1.4660 -1.5717 -0.3056
    5CHL1  H11B  332   5.644   6.198   9.899  1.6127  0.3209  0.0660
    5CHL1    C9  333   5.577   6.399   9.919  0.1852 -1.1027 -0.6331
    5CHL1    H9  334   5.679   6.425   9.957 -0.3914 -0.6151  0.6457
    5CHL1   C10  335   5.496   6.386  10.060 -0.0303 -0.6699  0.5222
    5CHL1   C19  336   5.367   6.315  10.040  0.2835  1.0402 -0.0087
    5CHL1  H19A  337   5.307   6.298  10.132  0.6860  0.2227  0.1086
    5CHL1  H19B  338   5.309   6.370   9.963 -2.2711  0.4398  1.3872
    5CHL1  H19C  339   5.379   6.217   9.989 -0.7329  1.5762 -1.3328
    5CHL1    C1  340   5.581   6.308  10.155 -0.1730  0.4323 -0.7977
    5CHL1   H1A  341   5.560   6.199  10.144 -0.1005  0.1330  1.5426
    5CHL1   H1B  342   5.690   6.327  10.153 -0.1305  0.6839  1.4850
    5CHL1    C2  343   5.539   6.328  10.300  0.1389  0.2479 -0.1129
    5CHL1   H2A  344   5.611   6.279  10.370 -0.1466  1.2882  0.9448
    5CHL1   H2B  345   5.435   6.293  10.317  1.0692 -1.6931  2.1106
    5CHL1   C20  346   5.691   6.379   9.357  0.3100  0.4899  0.9129
    5CHL1   H20  347   5.585   6.398   9.330  1.0262 -0.3081 -3.1414
    5CHL1   C21  348   5.704   6.224   9.369 -0.1358 -0.5141  0.0401
    5CHL1  H21A  349   5.793   6.201   9.432 -0.0232  0.5480  0.2910
    5CHL1  H21B  350   5.722   6.175   9.271  1.9070  1.3044 -0.5704
    5CHL1  H21C  351   5.614   6.175   9.412 -0.4998 -0.0202 -0.1522
    5CHL1   C22  352   5.774   6.450   9.246 -0.3910  1.0363  0.6613
    5CHL1  H22A  353   5.728   6.550   9.229 -2.5677 -0.0180 -0.1147
    5CHL1  H22B  354   5.876   6.459   9.289 -0.1703 -1.0697  0.7053
    5CHL1   C23  355   5.783   6.382   9.106  0.6147  1.1727 -0.0654
    5CHL1  H23A  356   5.820   6.278   9.115  0.5615  1.0169 -1.4056
    5CHL1  H23B  357   5.680   6.385   9.065  0.9440 -0.8012 -1.1675
    5CHL1   C24  358   5.882   6.463   9.019 -0.2406 -0.1573  0.7070
    5CHL1  H24A  359   5.858   6.567   9.052  0.2974  0.2081 -0.0339
    5CHL1  H24B  360   5.989   6.444   9.044 -0.5503 -1.8994  0.8603
    5CHL1   C25  361   5.854   6.428   8.873 -0.6391 -0.3026 -0.9133
    5CHL1   H25  362   5.745   6.443   8.856 -1.3032 -1.7501  1.5678
    5CHL1   C26  363   5.937   6.515   8.784 -0.0586 -0.4977  0.2373
    5CHL1  H26A  364   5.946   6.471   8.683 -0.5849 -1.2175  0.4955
    5CHL1  H26B  365   5.892   6.617   8.775  0.3969  0.0539  3.0394
    5CHL1  H26C  366   6.036   6.535   8.831  1.0255 -2.1210 -1.2386
    5CHL1   C27  367   5.877   6.276   8.853 -0.4782 -0.3854  0.6604
    5CHL1  H27A  368   5.865   6.258   8.744 -0.5088  0.4160  0.5264
    5CHL1  H27B  369   5.982   6.254   8.882  1.3202  3.3322 -2.1417
    5CHL1  H27C  370   5.807   6.211   8.909 -2.3048  1.6731  0.8660
    6CHL1    C3  371   3.666   4.056  10.342 -0.2466  0.0902 -0.3565
    6CHL1    H3  372   3.569   4.109  10.346  0.1349  0.8341 -0.7468
    6CHL1    O3  373   3.699   4.010  10.476 -0.1493  0.2529 -0.3718
    6CHL1   H3'  374   3.749   4.083  10.513  0.3147 -0.0940 -0.3037
    6CHL1    C4  375   3.649   3.946  10.239  0.2823  0.7569  0.4509
    6CHL1   H4A  376   3.738   3.880  10.242 -0.2614  0.0222  0.7912
    6CHL1   H4B  377   3.561   3.884  10.269  0.6032 -0.7718 -1.5767
    6CHL1    C5  378   3.634   4.009  10.102  0.3400 -0.0759 -0.3157
    6CHL1    C6  379   3.524   3.981  10.027  0.1600 -0.6647 -0.9217
    6CHL1    H6  380   3.440   3.931  10.077 -1.0425  1.4656 -0.6612
    6CHL1    C7  381   3.495   4.019   9.886 -0.3359  0.6841  0.4423
    6CHL1   H7A  382   3.439   3.935   9.838 -0.0084 -0.0226  1.2718
    6CHL1   H7B  383   3.425   4.105   9.878  1.8279  2.5767  0.9691
    6CHL1    C8  384   3.625   4.066   9.817  0.2100  0.0168 -0.2915
    6CHL1    H8  385   3.690   3.979   9.795  2.2308  1.1652  0.8092
    6CHL1   C14  386   3.602   4.136   9.690  0.0288 -0.2540 -0.0506
    6CHL1   H14  387   3.537   4.224   9.707  0.4735 -0.2960  2.0855
    6CHL1   C15  388   3.538   4.062   9.566 -0.8253  0.5716 -0.5442
    6CHL1  H15A  389   3.590   3.965   9.548 -3.8398 -1.2723  0.0171
    6CHL1  H15B  390   3.439   4.025   9.599 -0.4327  2.1526  2.8108
    6CHL1   C16  391   3.563   4.155   9.454  0.9829 -0.1652  0.5288
    6CHL1  H16A  392   3.598   4.088   9.372  0.0947 -1.0824  0.8749
    6CHL1  H16B  393   3.469   4.204   9.422  1.1763 -1.1689 -1.7403
    6CHL1   C17  394   3.666   4.259   9.491  0.0700  0.7764  0.5172
    6CHL1   H17  395   3.607   4.351   9.512  1.0586  1.3893  0.6708
    6CHL1   C13  396   3.726   4.209   9.621 -0.3211  0.9544  0.1924
    6CHL1   C18  397   3.838   4.111   9.585  0.1419  0.7295 -0.2177
    6CHL1  H18A  398   3.877   4.054   9.672  2.1675  0.8143 -1.0124
    6CHL1  H18B  399   3.798   4.042   9.507 -1.9422  1.9554 -0.3305
    6CHL1  H18C  400   3.930   4.158   9.544  0.8064 -2.1805 -2.3996
    6CHL1   C12  401   3.770   4.315   9.722  1.0419  0.5128 -0.0972
    6CHL1  H12A  402   3.862   4.364   9.682  2.5263 -1.8924  0.1295
    6CHL1  H12B  403   3.692   4.393   9.737  0.4405  0.0464 -0.7371
    6CHL1   C11  404   3.811   4.247   9.855 -0.1438  0.6870  0.5917
    6CHL1  H11A  405   3.905   4.191   9.836  0.7481  2.2217  0.3619
    6CHL1  H11B  406   3.835   4.328   9.926  1.1952  0.6927  0.1511
    6CHL1    C9  407   3.699   4.164   9.911 -0.7850  0.8456 -0.1941
    6CHL1    H9  408   3.624   4.244   9.928  0.3210  1.7668  0.4854
    6CHL1   C10  409   3.735   4.106  10.048  0.3919 -0.0409 -0.9578
    6CHL1   C19  410   3.862   4.024  10.021 -1.0606  0.5287 -0.5159
    6CHL1  H19A  411   3.849   3.951   9.939 -2.2258 -1.9323  1.6955
    6CHL1  H19B  412   3.946   4.091   9.994 -0.0999 -1.7236 -3.7827
    6CHL1  H19C  413   3.884   3.967  10.114 -2.7604  0.8206  0.0866
    6CHL1    C1  414   3.754   4.205  10.158  0.3285 -0.4148  0.2666
    6CHL1   H1A  415   3.848   4.259  10.136  0.2356 -0.1849  0.4331
    6CHL1   H1B  416   3.673   4.280  10.169  1.2767  0.7807 -0.7505
    6CHL1    C2  417   3.772   4.155  10.305  0.0884 -0.9181  0.1121
    6CHL1   H2A  418   3.774   4.251  10.362  0.2341 -0.9141  0.1015
    6CHL1   H2B  419   3.874   4.111  10.302  1.1393  1.4165 -0.8305
    6CHL1   C20  420   3.756   4.292   9.365  0.5602  0.4496  0.3374
    6CHL1   H20  421   3.787   4.193   9.324  1.8479  1.3102 -0.8794
    6CHL1   C21  422   3.864   4.393   9.396  1.0427 -0.2199 -0.2542
    6CHL1  H21A  423   3.924   4.352   9.479  1.9118 -0.4949 -1.0057
    6CHL1  H21B  424   3.826   4.493   9.428 -2.3923 -1.2993 -0.5147
    6CHL1  H21C  425   3.921   4.414   9.303  0.0610  2.3164 -0.3658
    6CHL1   C22  426   3.677   4.347   9.248 -0.1008  0.9471 -0.3123
    6CHL1  H22A  427   3.583   4.289   9.239  0.9490 -0.8808 -0.0491
    6CHL1  H22B  428   3.648   4.452   9.270 -1.2503  0.4859  0.4839
    6CHL1   C23  429   3.756   4.344   9.112 -0.1479 -0.0538 -0.9107
    6CHL1  H23A  430   3.852   4.293   9.136 -0.3030 -0.6632 -1.5315
    6CHL1  H23B  431   3.699   4.278   9.042  2.8157 -2.3562 -1.3653
    6CHL1   C24  432   3.765   4.484   9.050  0.0382  1.1408 -0.1062
    6CHL1  H24A  433   3.667   4.531   9.027  0.6212  1.9670 -1.0382
    6CHL1  H24B  434   3.821   4.551   9.118 -0.2825  2.4050 -1.0381
    6CHL1   C25  435   3.844   4.493   8.910  0.3757  0.5683 -0.0785
    6CHL1   H25  436   3.788   4.429   8.839  0.5655  0.3322 -0.0189
    6CHL1   C26  437   3.830   4.638   8.855 -1.3515 -0.2223  0.7491
    6CHL1  H26A  438   3.875   4.634   8.753 -0.4974 -2.0457  1.1431
    6CHL1  H26B  439   3.721   4.658   8.853 -1.5893 -0.9608 -3.4302
    6CHL1  H26C  440   3.890   4.710   8.915  0.8819 -0.0246 -1.5492
    6CHL1   C27  441   3.986   4.435   8.907 -0.1943 -0.8004 -0.3386
    6CHL1  H27A  442   3.983   4.336   8.957 -0.0794 -0.1299  1.0544
    6CHL1  H27B  443   4.015   4.427   8.800 -3.3347 -4.1661 -1.1297
    6CHL1  H27C  444   4.057   4.496   8.967  0.6668 -2.5219  0.4724
    7CHL1    C3  445   0.377   0.403  10.337  0.1257 -0.9585  1.1099
    7CHL1    H3  446   0.324   0.307  10.318 -1.3134 -0.3396  1.8117
    7CHL1    O3  447   0.397   0.430  10.476 -0.1579  0.4939 -0.2010
    7CHL1   H3'  448   0.453   0.508  10.482 -1.4706  1.6455 -2.0184
    7CHL1    C4  449   0.515   0.389  10.274 -0.2915  0.2971  0.0535
    7CHL1   H4A  450   0.593   0.465  10.299 -0.5794  0.7619 -0.4250
    7CHL1   H4B  451   0.563   0.302  10.323  1.7615  1.3655  0.0654
    7CHL1    C5  452   0.511   0.360  10.121  0.4154  0.9824  0.5972
    7CHL1    C6  453   0.572   0.252  10.067 -0.6655  0.0486 -0.1436
    7CHL1    H6  454   0.631   0.181  10.127 -0.8554  1.0913  1.3304
    7CHL1    C7  455   0.574   0.232   9.914  0.6709  0.3566 -0.2235
    7CHL1   H7A  456   0.673   0.199   9.875 -0.4849 -0.6999 -2.4643
    7CHL1   H7B  457   0.506   0.151   9.880  0.8912 -0.0017  0.1677
    7CHL1    C8  458   0.531   0.359   9.835 -0.7963 -0.3280 -0.4720
    7CHL1    H8  459   0.606   0.440   9.828 -1.5441  0.4001 -0.1849
    7CHL1   C14  460   0.510   0.316   9.692  0.4164  0.7303  1.4766
    7CHL1   H14  461   0.420   0.250   9.695  0.9949 -0.0622  2.0878
    7CHL1   C15  462   0.613   0.238   9.618 -0.1157 -0.1740  0.4944
    7CHL1  H15A  463   0.716   0.279   9.631  0.7842 -1.5383 -1.8169
    7CHL1  H15B  464   0.625   0.130   9.641 -0.4913 -0.5133 -0.8403
    7CHL1   C16  465   0.577   0.253   9.471  0.8883  0.3069 -0.1175
    7CHL1  H16A  466   0.667   0.291   9.418  0.4502  0.0915 -1.0325
    7CHL1  H16B  467   0.549   0.156   9.426 -0.6997  0.3282  0.7549
    7CHL1   C17  468   0.454   0.350   9.466  0.6947  0.1894 -0.2577
    7CHL1   H17  469   0.362   0.287   9.470 -1.9561  3.8030  1.7731
    7CHL1   C13  470   0.470   0.427   9.598 -0.6422 -0.1423 -0.4423
    7CHL1   C18  471   0.583   0.530   9.586  0.5144  0.0644  0.3563
    7CHL1  H18A  472   0.595   0.585   9.681  0.9087  1.2383 -0.3509
    7CHL1  H18B  473   0.680   0.498   9.542  1.2098  2.6464 -0.1144
    7CHL1  H18C  474   0.551   0.612   9.518 -0.8633  1.4837  2.6075
    7CHL1   C12  475   0.341   0.491   9.657 -0.1932  0.2225 -0.2989
    7CHL1  H12A  476   0.329   0.579   9.590  1.8182  0.4803 -0.3723
    7CHL1  H12B  477   0.266   0.409   9.651  0.0373 -0.0248  0.1387
    7CHL1   C11  478   0.359   0.547   9.802 -0.0069  0.1583  0.2367
    7CHL1  H11A  479   0.443   0.620   9.802 -0.3333  0.5405  0.6274
    7CHL1  H11B  480   0.262   0.593   9.831 -0.6318 -0.2014 -1.2155
    7CHL1    C9  481   0.407   0.421   9.896  0.4461  0.4154  0.1738
    7CHL1    H9  482   0.335   0.337   9.903  0.4489  0.2629 -1.2879
    7CHL1   C10  483   0.419   0.462  10.044  0.0042 -0.4974  0.4923
    7CHL1   C19  484   0.505   0.596  10.049 -0.2305 -0.7344  0.1642
    7CHL1  H19A  485   0.511   0.634  10.154 -0.7381 -0.6028  0.1481
    7CHL1  H19B  486   0.611   0.578  10.019 -0.5363  0.4016 -1.6931
    7CHL1  H19C  487   0.482   0.678   9.979  0.2128 -0.5285  0.2544
    7CHL1    C1  488   0.284   0.485  10.113 -0.0659 -1.4438  0.1986
    7CHL1   H1A  489   0.234   0.573  10.066 -1.0869 -0.0129  3.6614
    7CHL1   H1B  490   0.216   0.397  10.107 -2.2020  0.0732  0.9518
    7CHL1    C2  491   0.299   0.520  10.262 -0.6237  0.5136 -0.7454
    7CHL1   H2A  492   0.197   0.530  10.304 -0.6217  0.9192 -0.8428
    7CHL1   H2B  493   0.360   0.612  10.272 -0.6768  0.5045 -0.2963
    7CHL1   C20  494   0.443   0.431   9.335 -0.7010  0.6702 -0.3559
    7CHL1   H20  495   0.546   0.469   9.325  0.5271 -1.5179  2.4010
    7CHL1   C21  496   0.331   0.537   9.329  0.3885 -0.6873 -0.3821
    7CHL1  H21A  497   0.356   0.608   9.411 -0.1985 -2.8778  1.8458
    7CHL1  H21B  498   0.234   0.482   9.332 -0.4889  0.8160 -0.4814
    7CHL1  H21C  499   0.325   0.589   9.231  0.2771 -2.8809 -1.6014
    7CHL1   C22  500   0.420   0.329   9.219 -0.0761  0.6938 -0.4995
    7CHL1  H22A  501   0.504   0.260   9.197 -0.3130  0.4419 -0.6061
    7CHL1  H22B  502   0.329   0.271   9.244  0.5693 -0.0340  0.1876
    7CHL1   C23  503   0.396   0.394   9.080  0.1467  0.1496 -0.4557
    7CHL1  H23A  504   0.292   0.432   9.080 -0.4557 -1.0295 -4.1808
    7CHL1  H23B  505   0.477   0.468   9.061  1.7098 -1.3531  0.0702
    7CHL1   C24  506   0.389   0.288   8.969 -0.4451  0.7042 -0.5966
    7CHL1  H24A  507   0.485   0.234   8.956  0.2517  1.1806  2.0079
    7CHL1  H24B  508   0.308   0.214   8.986  0.7551 -0.2552  1.2841
    7CHL1   C25  509   0.366   0.345   8.832  0.6086  0.4894 -0.3139
    7CHL1   H25  510   0.272   0.403   8.844  0.4659 -0.1691  2.3839
    7CHL1   C26  511   0.478   0.442   8.783 -0.1965  0.3424  0.6105
    7CHL1  H26A  512   0.568   0.383   8.757  0.4221  1.6841 -0.3473
    7CHL1  H26B  513   0.449   0.490   8.687 -1.0726 -1.8254 -0.2895
    7CHL1  H26C  514   0.502   0.530   8.846  2.8529  2.4081 -3.0587
    7CHL1   C27  515   0.351   0.231   8.728  0.3151  0.2206  0.6778
    7CHL1  H27A  516   0.360   0.265   8.623 -0.7030 -1.1104  0.1327
    7CHL1  H27B  517   0.437   0.162   8.743  2.5530  2.7091 -0.0436
    7CHL1  H27C  518   0.256   0.174   8.740  0.5233 -0.4219 -0.6302
    8CHL1    C3  519   5.939   1.830  10.546 -0.6049  1.1558  0.7425
    8CHL1    H3  520   5.875   1.914  10.512 -2.2159 -0.6554 -0.9178
    8CHL1    O3  521   5.975   1.855  10.680  0.2741  0.4614 -0.1021
    8CHL1   H3'  522   6.048   1.797  10.703 -0.0470  0.1062  0.0223
    8CHL1    C4  523   5.879   1.686  10.542 -0.0718 -0.6770 -0.4754
    8CHL1   H4A  524   5.949   1.613  10.587 -0.2834 -0.0489  0.9146
    8CHL1   H4B  525   5.784   1.687  10.598  1.0586 -0.3660  1.5313
    8CHL1    C5  526   5.843   1.665  10.390 -0.1491  0.6429 -0.3130
    8CHL1    C6  527   5.716   1.639  10.350 -0.2051 -0.2101  0.3818
    8CHL1    H6  528   5.633   1.626  10.420 -1.0175 -0.5762 -0.6270
    8CHL1    C7  529   5.679   1.600  10.209  0.5912 -0.6724  0.3598
    8CHL1   H7A  530   5.607   1.516  10.214 -0.4347  0.1050 -0.6111
    8CHL1   H7B  531   5.618   1.683  10.167 -0.5839 -0.9660  1.4387
    8CHL1    C8  532   5.802   1.570  10.119 -0.7062 -0.5146 -0.0933
    8CHL1    H8  533   5.846   1.470  10.143 -0.5980 -0.2681  0.7919
    8CHL1   C14  534   5.764   1.564   9.985  0.4509  0.6225 -0.1088
    8CHL1   H14  535   5.718   1.661   9.956 -1.0323 -0.6435 -2.2225
    8CHL1   C15  536   5.664   1.455   9.945  0.0011  0.6422  0.8254
    8CHL1  H15A  537   5.692   1.361   9.997  1.7092 -1.8371 -3.9678
    8CHL1  H15B  538   5.559   1.485   9.969 -1.1390 -1.8027 -0.7745
    8CHL1   C16  539   5.679   1.431   9.792 -0.3026 -0.5583 -0.1258
    8CHL1  H16A  540   5.691   1.323   9.770  1.6471 -0.2743 -0.6162
    8CHL1  H16B  541   5.587   1.474   9.745 -0.3717  1.0291  1.3834
    8CHL1   C17  542   5.800   1.530   9.752  0.2070 -0.2805 -0.2575
    8CHL1   H17  543   5.754   1.629   9.731  1.5584  0.4870  0.2869
    8CHL1   C13  544   5.879   1.547   9.887  0.1463  0.4316 -0.1929
    8CHL1   C18  545   5.956   1.412   9.909 -0.0132 -0.6754  0.1386
    8CHL1  H18A  546   5.900   1.321   9.881 -0.0502 -0.8679  0.8298
    8CHL1  H18B  547   6.051   1.408   9.851  1.6127 -0.0516  2.6111
    8CHL1  H18C  548   5.979   1.400  10.017  1.9106  1.0862 -0.0193
    8CHL1   C12  549   5.981   1.665   9.893 -1.1363 -0.3110 -0.3973
    8CHL1  H12A  550   6.074   1.635   9.841 -0.4955  1.6577 -0.4620
    8CHL1  H12B  551   5.929   1.759   9.861 -0.5289 -0.6707 -2.6107
    8CHL1   C11  552   6.028   1.669  10.038  0.0701 -0.7275 -0.1001
    8CHL1  H11A  553   6.102   1.589  10.063 -1.1665 -1.3631  1.8123
    8CHL1  H11B  554   6.082   1.764  10.057  1.1115 -1.7975  2.9719
    8CHL1    C9  555   5.913   1.673  10.144 -0.5903 -0.7992 -0.5219
    8CHL1    H9  556   5.860   1.766  10.116  2.1115  0.9967 -0.0398
    8CHL1   C10  557   5.966   1.670  10.285  1.6198  0.3866  0.5511
    8CHL1   C19  558   6.046   1.545  10.314  0.3014 -0.3465 -0.0176
    8CHL1  H19A  559   6.136   1.525  10.252 -2.2055 -1.3762 -3.6432
    8CHL1  H19B  560   6.077   1.549  10.421 -1.0119  1.9112  0.3606
    8CHL1  H19C  561   5.982   1.456  10.295 -2.2056  0.9887  1.4882
    8CHL1    C1  562   6.045   1.802  10.310 -0.1762  0.1169 -0.2466
    8CHL1   H1A  563   6.145   1.795  10.262  1.0589  1.9127  1.8786
    8CHL1   H1B  564   5.995   1.885  10.256 -2.1843 -0.9624 -0.1436
    8CHL1    C2  565   6.069   1.835  10.458  0.2954  0.3596  0.1318
    8CHL1   H2A  566   6.105   1.940  10.450  0.2390  0.2777 -1.6117
    8CHL1   H2B  567   6.140   1.758  10.494 -1.0722 -2.0737 -2.0001
    8CHL1   C20  568   5.862   1.483   9.617  0.0176  1.1906  0.6028
    8CHL1   H20  569   5.921   1.391   9.633  1.5033  1.6257 -1.8770
    8CHL1   C21  570   5.974   1.577   9.569  0.2033 -0.2534  0.6369
    8CHL1  H21A  571   6.068   1.585   9.628  1.5122  1.0114 -1.5020
    8CHL1  H21B  572   5.936   1.681   9.572  1.0452  0.1234 -0.8393
    8CHL1  H21C  573   6.015   1.558   9.468  0.3907 -0.1095  0.6863
    8CHL1   C22  574   5.763   1.440   9.507 -0.1302  0.1011 -0.3104
    8CHL1  H22A  575   5.827   1.404   9.423  0.4746 -0.0248  0.2011
    8CHL1  H22B  576   5.703   1.351   9.538 -0.5132  1.0579  1.8976
    8CHL1   C23  577   5.668   1.545   9.456 -0.4809  0.0104 -0.3526
    8CHL1  H23A  578   5.586   1.559   9.530  0.9020  0.5639  1.1459
    8CHL1  H23B  579   5.735   1.633   9.445 -0.0455 -0.4406 -1.3997
    8CHL1   C24  580   5.612   1.512   9.318 -0.4107  0.6088 -0.1752
    8CHL1  H24A  581   5.703   1.497   9.258 -1.7686 -0.7770 -1.9817
    8CHL1  H24B  582   5.538   1.430   9.311 -2.3429  2.1546  0.8762
    8CHL1   C25  583   5.532   1.626   9.256 -0.7887 -0.3524  0.1577
    8CHL1   H25  584   5.608   1.707   9.244 -0.4585 -0.1469  2.9109
    8CHL1   C26  585   5.476   1.615   9.115 -0.6039  0.1404 -0.2415
    8CHL1  H26A  586   5.561   1.595   9.046  0.8190  0.6867  1.2665
    8CHL1  H26B  587   5.396   1.539   9.108 -1.0640  0.5230  0.5987
    8CHL1  H26C  588   5.422   1.709   9.088  1.2501  1.4854  0.4892
    8CHL1   C27  589   5.413   1.675   9.343  0.2338 -0.2620 -0.2327
    8CHL1  H27A  590   5.321   1.626   9.305  0.5068 -1.3637  0.5027
    8CHL1  H27B  591   5.427   1.656   9.451  0.6664  0.8246 -0.0825
    8CHL1  H27C  592   5.391   1.781   9.318  1.8770  0.2116  0.2011
    9CHL1    C3  593   3.240   3.840  10.450 -0.2249  0.4677  0.4837
    9CHL1    H3  594   3.308   3.919  10.413 -1.1686  1.0320 -0.0892
    9CHL1    O3  595   3.241   3.832  10.593  0.2795 -0.2614 -0.3827
    9CHL1   H3'  596   3.150   3.811  10.618  0.2995 -0.1646 -0.2241
    9CHL1    C4  597   3.098   3.870  10.401 -0.4080  0.3993 -0.3438
    9CHL1   H4A  598   3.021   3.797  10.435 -1.6532  1.9136  0.1720
    9CHL1   H4B  599   3.058   3.967  10.435  0.7357  0.1406  1.9426
    9CHL1    C5  600   3.097   3.867  10.249 -0.0240  0.2934  0.1473
    9CHL1    C6  601   3.067   3.975  10.174  0.1952 -0.0553  0.5919
    9CHL1    H6  602   3.028   4.064  10.225  2.8300  1.2733  0.4864
    9CHL1    C7  603   3.065   3.977  10.026 -0.0896  0.2222  0.4643
    9CHL1   H7A  604   2.974   4.026   9.984 -1.1539 -1.6277  0.5051
    9CHL1   H7B  605   3.162   4.020   9.992  0.2724  0.0732  1.2962
    9CHL1    C8  606   3.056   3.831   9.962  0.4744 -0.1865  0.6921
    9CHL1    H8  607   2.949   3.803   9.972 -0.4451  1.2537 -3.2053
    9CHL1   C14  608   3.103   3.842   9.817 -0.7760 -0.3683  0.0578
    9CHL1   H14  609   3.212   3.860   9.830 -1.0137  0.7228  0.7705
    9CHL1   C15  610   3.048   3.957   9.723 -0.0894 -0.8622 -0.9289
    9CHL1  H15A  611   2.947   3.980   9.762 -0.4566 -1.4712 -1.4866
    9CHL1  H15B  612   3.117   4.043   9.738  1.1967 -2.1132  0.8869
    9CHL1   C16  613   3.046   3.899   9.585 -0.1224 -0.0025  0.7618
    9CHL1  H16A  614   2.942   3.865   9.563  0.1088 -1.8945  2.2650
    9CHL1  H16B  615   3.086   3.965   9.506  0.6973 -1.8935 -0.4848
    9CHL1   C17  616   3.135   3.772   9.600  0.8134 -0.0602  0.3078
    9CHL1   H17  617   3.240   3.807   9.596  0.0915  2.1241 -2.7945
    9CHL1   C13  618   3.096   3.718   9.739 -0.3209  0.8348  0.1069
    9CHL1   C18  619   2.948   3.671   9.744  0.3800 -0.6194 -0.5921
    9CHL1  H18A  620   2.943   3.591   9.667  0.8936 -1.7341  0.4885
    9CHL1  H18B  621   2.919   3.621   9.839  3.2252  0.7370  1.1197
    9CHL1  H18C  622   2.873   3.749   9.722  1.2244  0.6894  0.9551
    9CHL1   C12  623   3.189   3.623   9.804 -0.6853 -0.2777  0.1785
    9CHL1  H12A  624   3.182   3.518   9.767  0.1857 -0.7051  1.1495
    9CHL1  H12B  625   3.293   3.660   9.789 -0.7955  0.1155  0.3635
    9CHL1   C11  626   3.160   3.601   9.957  0.1746 -0.4632 -0.1753
    9CHL1  H11A  627   3.070   3.536   9.955  0.9892 -1.6761 -2.9936
    9CHL1  H11B  628   3.236   3.539  10.010  0.2181  0.3524  0.7517
    9CHL1    C9  629   3.151   3.736  10.030 -0.9896  0.0226  0.4148
    9CHL1    H9  630   3.251   3.785  10.028 -1.1148  0.5308  3.0543
    9CHL1   C10  631   3.139   3.736  10.187 -0.2129 -0.4291 -0.2914
    9CHL1   C19  632   3.021   3.647  10.218 -0.0150 -0.6574  0.7579
    9CHL1  H19A  633   2.929   3.680  10.166  1.4266  0.6529 -1.0742
    9CHL1  H19B  634   3.046   3.548  10.174  0.2143  0.5711 -2.0646
    9CHL1  H19C  635   3.001   3.626  10.326  0.9523 -1.3276  0.8176
    9CHL1    C1  636   3.266   3.680  10.253  0.4086  0.0382  0.4717
    9CHL1   H1A  637   3.281   3.572  10.235  3.3057 -0.0129  2.4112
    9CHL1   H1B  638   3.361   3.724  10.215 -0.6208  1.5007 -0.4954
    9CHL1    C2  639   3.280   3.693  10.409 -0.7289  0.5410  0.5328
    9CHL1   H2A  640   3.384   3.665  10.435 -1.5025 -2.0029  1.1696
    9CHL1   H2B  641   3.221   3.615  10.462  0.6351  0.0688  1.4058
    9CHL1   C20  642   3.120   3.678   9.482  0.0001  0.3953 -0.3829
    9CHL1   H20  643   3.016   3.640   9.482 -1.3707  3.7741 -0.8764
    9CHL1   C21  644   3.221   3.574   9.495 -0.1334  1.4412  0.3750
    9CHL1  H21A  645   3.192   3.500   9.572  0.4338 -0.8329 -1.4705
    9CHL1  H21B  646   3.325   3.602   9.524 -0.1567  1.0380  0.8683
    9CHL1  H21C  647   3.224   3.505   9.408  0.2010 -0.2037  1.6392
    9CHL1   C22  648   3.122   3.748   9.344 -0.4375 -0.4117 -0.6681
    9CHL1  H22A  649   3.081   3.675   9.270 -2.8927  1.9795 -1.8507
    9CHL1  H22B  650   3.040   3.823   9.341 -0.5485 -0.5296 -0.6407
    9CHL1   C23  651   3.259   3.810   9.301  0.0630  0.5737 -0.4816
    9CHL1  H23A  652   3.299   3.871   9.385  0.9696 -1.9954  1.0987
    9CHL1  H23B  653   3.326   3.727   9.269 -0.3324  0.1975 -0.3496
    9CHL1   C24  654   3.256   3.917   9.187  1.0982  0.7044 -0.5819
    9CHL1  H24A  655   3.221   3.865   9.096  3.3105  0.8014 -1.5633
    9CHL1  H24B  656   3.188   4.001   9.213  2.1352  1.8696 -1.5045
    9CHL1   C25  657   3.390   3.983   9.151  0.1969 -0.7121 -0.1559
    9CHL1   H25  658   3.450   3.993   9.244 -0.5219  2.1481  0.0913
    9CHL1   C26  659   3.477   3.907   9.043  0.4899 -0.5715 -0.1675
    9CHL1  H26A  660   3.420   3.900   8.948  1.8170 -0.1553 -1.0192
    9CHL1  H26B  661   3.580   3.935   9.014  0.1335 -1.7225 -2.8023
    9CHL1  H26C  662   3.488   3.803   9.079  1.1247 -0.6291 -0.5161
    9CHL1   C27  663   3.379   4.125   9.101 -0.7632 -0.1518  0.5741
    9CHL1  H27A  664   3.327   4.193   9.173 -2.0894  0.1955 -0.6639
    9CHL1  H27B  665   3.486   4.146   9.079 -0.9006 -1.2658 -1.3797
    9CHL1  H27C  666   3.329   4.123   9.002  0.6268 -0.7843 -0.1460
   10CHL1    C3  667   1.885   2.631  10.107 -0.0144  0.0400 -0.1413
   10CHL1    H3  668   1.919   2.734  10.085 -0.7916 -0.0518 -2.0125
   10CHL1    O3  669   1.875   2.619  10.249 -0.7482  0.2770 -0.1220
   10CHL1   H3'  670   1.893   2.526  10.264 -0.7406  0.4544  1.0504
   10CHL1    C4  671   1.764   2.596  10.039  0.1788 -0.0288  0.0460
   10CHL1   H4A  672   1.722   2.494  10.057  2.4885 -1.3463 -1.5286
   10CHL1   H4B  673   1.689   2.670  10.073  0.7523  0.2859  0.6363
   10CHL1    C5  674   1.792   2.631   9.892  0.0090  0.1640 -0.0525
   10CHL1    C6  675   1.719   2.722   9.823  0.1612 -0.2479  0.2204
   10CHL1    H6  676   1.634   2.772   9.872 -0.1288 -0.2972 -0.2222
   10CHL1    C7  677   1.722   2.743   9.672 -0.1967  0.1853 -0.1244
   10CHL1   H7A  678   1.617   2.755   9.639  0.2661  1.2241 -1.2969
   10CHL1   H7B  679   1.768   2.842   9.652  0.4801 -0.1793 -0.4380
   10CHL1    C8  680   1.805   2.625   9.600  0.5454  0.2772  0.1380
   10CHL1    H8  681   1.733   2.541   9.591 -0.7423  1.2914  0.6261
   10CHL1   C14  682   1.832   2.661   9.455 -0.7150  0.2788  0.5624
   10CHL1   H14  683   1.893   2.753   9.467 -0.2635  0.2694 -1.3219
   10CHL1   C15  684   1.711   2.695   9.365  0.4468  0.4667  0.2488
   10CHL1  H15A  685   1.617   2.636   9.376  1.2763 -0.6770  1.3456
   10CHL1  H15B  686   1.679   2.801   9.374 -1.7673  0.0974 -1.9161
   10CHL1   C16  687   1.764   2.669   9.222 -0.0285  0.4500 -0.2452
   10CHL1  H16A  688   1.706   2.589   9.172 -0.6617  0.6327  0.1885
   10CHL1  H16B  689   1.752   2.754   9.151  2.1314  1.0765  0.0711
   10CHL1   C17  690   1.914   2.617   9.240  0.2891 -1.1035 -0.2321
   10CHL1   H17  691   1.981   2.706   9.238 -0.3830 -0.5943 -1.5261
   10CHL1   C13  692   1.919   2.566   9.388 -0.9007  0.3618 -0.1347
   10CHL1   C18  693   1.853   2.424   9.383  0.1359  0.0800 -0.4786
   10CHL1  H18A  694   1.811   2.384   9.477 -0.3072  0.3965 -0.5359
   10CHL1  H18B  695   1.772   2.431   9.307 -0.4517  2.3937  0.2663
   10CHL1  H18C  696   1.924   2.350   9.343 -1.7941 -2.0837 -0.1051
   10CHL1   C12  697   2.057   2.551   9.459 -0.5609 -0.4377 -0.2622
   10CHL1  H12A  698   2.126   2.479   9.411  1.3840  1.3160 -0.2626
   10CHL1  H12B  699   2.107   2.651   9.459 -1.0234 -0.1920 -1.5431
   10CHL1   C11  700   2.027   2.505   9.604  0.2859  0.3889  0.0491
   10CHL1  H11A  701   2.006   2.396   9.606 -0.4481  0.4882 -1.1213
   10CHL1  H11B  702   2.126   2.515   9.653  1.2437 -0.2840 -1.6551
   10CHL1    C9  703   1.934   2.597   9.676 -0.1291 -0.1454 -0.1101
   10CHL1    H9  704   1.983   2.697   9.682 -1.1621  0.4074 -0.5015
   10CHL1   C10  705   1.899   2.547   9.818  0.9710 -0.2948  0.2750
   10CHL1   C19  706   1.840   2.405   9.814  0.9783  0.6088  0.5676
   10CHL1  H19A  707   1.828   2.361   9.915  0.6277  0.2017  0.3520
   10CHL1  H19B  708   1.747   2.389   9.754  0.8970 -1.1056  1.0955
   10CHL1  H19C  709   1.907   2.325   9.777  1.2142  0.3211  1.6021
   10CHL1    C1  710   2.027   2.548   9.911  1.3195  0.4625 -0.3365
   10CHL1   H1A  711   2.100   2.467   9.887  1.4955  0.6020 -0.2745
   10CHL1   H1B  712   2.075   2.648   9.898 -1.7029  2.1162  0.4361
   10CHL1    C2  713   1.991   2.535  10.067  0.3979  0.3439 -0.2889
   10CHL1   H2A  714   2.078   2.544  10.136 -1.0652  0.1394  1.6512
   10CHL1   H2B  715   1.967   2.429  10.091  0.1955  0.7973  1.6056
   10CHL1   C20  716   1.962   2.525   9.122  0.1614 -0.1967  0.2980
   10CHL1   H20  717   1.916   2.425   9.132  0.5532 -0.3636  0.4171
   10CHL1   C21  718   2.115   2.504   9.127 -0.1326  0.3866  0.0156
   10CHL1  H21A  719   2.150   2.429   9.202 -1.2369  0.0221  0.1921
   10CHL1  H21B  720   2.161   2.601   9.153  1.6163 -0.3095 -0.3439
   10CHL1  H21C  721   2.148   2.481   9.024 -2.0927  2.3618 -1.1220
   10CHL1   C22  722   1.928   2.578   8.975 -0.1694  0.3306  0.3781
   10CHL1  H22A  723   1.958   2.503   8.899  1.8483  2.6355 -1.2774
   10CHL1  H22B  724   1.818   2.574   8.959  0.1344 -0.6436 -1.7060
   10CHL1   C23  725   1.992   2.717   8.944 -0.1545 -0.4061 -0.3647
   10CHL1  H23A  726   1.947   2.784   9.020 -0.1826 -1.6713  0.7708
   10CHL1  H23B  727   2.102   2.711   8.961  0.0095 -2.6030 -1.6855
   10CHL1   C24  728   1.961   2.744   8.793  0.0328  0.6095 -0.5696
   10CHL1  H24A  729   1.856   2.712   8.775  0.4895 -0.3342 -1.7184
   10CHL1  H24B  730   1.958   2.850   8.762  1.9404 -0.0739 -3.4831
   10CHL1   C25  731   2.056   2.672   8.695  0.6972 -0.1429 -0.0502
   10CHL1   H25  732   2.075   2.567   8.726 -1.8109 -0.3072  1.2276
   10CHL1   C26  733   1.983   2.657   8.557 -0.5390 -0.5913 -0.4484
   10CHL1  H26A  734   1.952   2.749   8.503 -1.7188  0.0199  1.1990
   10CHL1  H26B  735   2.035   2.583   8.492 -0.4287 -0.4740 -0.4948
   10CHL1  H26C  736   1.884   2.610   8.573 -1.9288  1.9849 -0.8871
   10CHL1   C27  737   2.188   2.744   8.688 -0.3257  0.1568 -0.0035
   10CHL1  H27A  738   2.260   2.729   8.771 -2.7254 -0.2563  2.1594
   10CHL1  H27B  739   2.237   2.729   8.590  0.0622  1.4989 -0.0356
   10CHL1  H27C  740   2.173   2.854   8.690 -1.2022  0.2915 -4.2074
   11CHL1    C3  741   1.589   6.611  10.051 -0.5890 -0.3746 -0.1987
   11CHL1    H3  742   1.683   6.563  10.016 -1.0455  0.4388 -2.7535
   11CHL1    O3  743   1.576   6.624  10.196 -0.2939 -0.3843 -0.0759
   11CHL1   H3'  744   1.560   6.535  10.227  2.7537 -1.0975 -0.2426
   11CHL1    C4  745   1.601   6.759  10.002 -0.2470  0.6055  0.9959
   11CHL1   H4A  746   1.519   6.817  10.050  0.2280  2.3138 -0.1426
   11CHL1   H4B  747   1.693   6.809  10.041  2.4169 -1.2376 -2.3712
   11CHL1    C5  748   1.592   6.766   9.848  0.0113  0.8171  0.0341
   11CHL1    C6  749   1.686   6.834   9.780 -0.0205 -0.3338  0.0073
   11CHL1    H6  750   1.774   6.869   9.836  1.2340 -1.0779 -1.4088
   11CHL1    C7  751   1.684   6.850   9.629  0.0208 -0.4466 -0.0220
   11CHL1   H7A  752   1.712   6.954   9.601  1.7493 -1.3084 -1.7995
   11CHL1   H7B  753   1.759   6.791   9.572  0.2427  1.2976 -1.6553
   11CHL1    C8  754   1.555   6.814   9.562  0.7823  0.1314  0.7183
   11CHL1    H8  755   1.485   6.900   9.566  1.5613  0.9919 -1.9806
   11CHL1   C14  756   1.575   6.781   9.418 -0.0715 -0.2174  0.4375
   11CHL1   H14  757   1.646   6.696   9.411 -1.9017 -2.0694  2.5425
   11CHL1   C15  758   1.645   6.897   9.347  0.5339 -0.4210 -0.1301
   11CHL1  H15A  759   1.595   6.992   9.372  1.1383 -0.2612  0.5076
   11CHL1  H15B  760   1.752   6.894   9.377  0.0764 -1.4230  1.5230
   11CHL1   C16  761   1.621   6.859   9.198  0.4095 -0.0287 -0.1144
   11CHL1  H16A  762   1.579   6.949   9.147 -1.3548 -0.8850 -0.2436
   11CHL1  H16B  763   1.719   6.840   9.150  1.5173 -0.0182  2.0380
   11CHL1   C17  764   1.524   6.743   9.198  0.1778 -0.8836 -0.8779
   11CHL1   H17  765   1.578   6.647   9.210  0.0596 -0.6273  2.6767
   11CHL1   C13  766   1.453   6.751   9.333  0.0916 -0.2208 -0.4902
   11CHL1   C18  767   1.353   6.868   9.318  0.1011  0.0544  0.1276
   11CHL1  H18A  768   1.273   6.833   9.250  1.0559 -0.6773 -0.6400
   11CHL1  H18B  769   1.305   6.904   9.412  2.1011  1.1360  0.7882
   11CHL1  H18C  770   1.399   6.951   9.260  0.0023  1.1545  1.5601
   11CHL1   C12  771   1.388   6.624   9.392 -0.1933 -0.3842 -0.8347
   11CHL1  H12A  772   1.288   6.598   9.352 -1.1393  1.5868  0.1078
   11CHL1  H12B  773   1.468   6.548   9.378  2.0247  1.6156  0.1726
   11CHL1   C11  774   1.362   6.637   9.543 -0.0250  0.7109 -0.2037
   11CHL1  H11A  775   1.286   6.719   9.543 -1.5726 -0.6285  2.0671
   11CHL1  H11B  776   1.308   6.554   9.593  0.1782  1.4551  1.2964
   11CHL1    C9  777   1.488   6.689   9.626  0.1621  0.0647 -0.2554
   11CHL1    H9  778   1.568   6.614   9.606  0.6577  0.2881  0.8273
   11CHL1   C10  779   1.466   6.703   9.782 -0.3873  0.5298 -0.0287
   11CHL1   C19  780   1.337   6.787   9.814 -0.7957  0.0991  0.0450
   11CHL1  H19A  781   1.325   6.806   9.923 -4.2816  1.4259 -0.4426
   11CHL1  H19B  782   1.334   6.887   9.765 -0.1310 -0.0799 -0.3763
   11CHL1  H19C  783   1.243   6.735   9.786 -0.9760 -0.3476  1.3723
   11CHL1    C1  784   1.456   6.560   9.843 -0.6151 -0.3026  0.2178
   11CHL1   H1A  785   1.361   6.507   9.822  0.3196 -1.3424 -1.6470
   11CHL1   H1B  786   1.531   6.492   9.796  0.8567  2.1710 -1.3009
   11CHL1    C2  787   1.469   6.538   9.994 -0.6072 -0.4114 -0.1666
   11CHL1   H2A  788   1.446   6.433  10.020 -0.4032 -0.9317 -1.9076
   11CHL1   H2B  789   1.389   6.603  10.036 -0.2025 -0.9230  1.4599
   11CHL1   C20  790   1.442   6.742   9.065  0.0085 -0.1827  0.4138
   11CHL1   H20  791   1.376   6.831   9.056  1.2649  0.6864 -0.6248
   11CHL1   C21  792   1.362   6.613   9.054 -0.9801 -0.3154 -0.2310
   11CHL1  H21A  793   1.286   6.614   8.973 -0.7868 -2.4386 -0.5162
   11CHL1  H21B  794   1.313   6.591   9.152  1.5409 -0.9580  0.9665
   11CHL1  H21C  795   1.428   6.529   9.024  0.5753  0.9823 -0.5539
   11CHL1   C22  796   1.539   6.749   8.939  0.1185  0.2858 -0.1966
   11CHL1  H22A  797   1.586   6.850   8.936  1.2336 -0.2305 -0.5826
   11CHL1  H22B  798   1.618   6.672   8.954 -0.4445 -0.6350 -1.8011
   11CHL1   C23  799   1.460   6.714   8.803 -0.4977  0.0397  0.2486
   11CHL1  H23A  800   1.534   6.738   8.723 -0.2545 -5.1177 -1.4141
   11CHL1  H23B  801   1.430   6.608   8.790  1.0333 -0.2647 -1.0762
   11CHL1   C24  802   1.334   6.803   8.778  0.2236 -0.5781  0.7199
   11CHL1  H24A  803   1.246   6.762   8.831  0.0005 -0.7462  0.2238
   11CHL1  H24B  804   1.357   6.907   8.808  3.2145 -0.8569 -0.3065
   11CHL1   C25  805   1.265   6.799   8.637 -0.5772 -0.2503 -0.2296
   11CHL1   H25  806   1.239   6.697   8.600 -1.4445  0.7170 -2.4251
   11CHL1   C26  807   1.139   6.878   8.651  0.3277 -0.1526  0.7883
   11CHL1  H26A  808   1.156   6.981   8.691  1.6492 -0.8182  2.0270
   11CHL1  H26B  809   1.090   6.887   8.552  0.5423 -0.3128  0.6688
   11CHL1  H26C  810   1.064   6.829   8.717 -1.0503  1.1437  0.2556
   11CHL1   C27  811   1.356   6.873   8.529 -0.2095  0.0286  0.0845
   11CHL1  H27A  812   1.302   6.870   8.432  0.9609  0.7311 -0.6131
   11CHL1  H27B  813   1.352   6.981   8.553  0.3851 -0.0942  0.7464
   11CHL1  H27C  814   1.458   6.830   8.520 -0.2921 -0.9739  2.9243
   12CHL1    C3  815   6.217   0.673  10.384  0.0918 -0.0635  0.3977
   12CHL1    H3  816   6.185   0.780  10.382 -1.1369 -0.4115  0.6174
   12CHL1    O3  817   6.182   0.623  10.511  0.2692  0.4251  0.0248
   12CHL1   H3'  818   6.218   0.534  10.503  1.0824  0.8235 -1.0762
   12CHL1    C4  819   6.143   0.607  10.263 -0.8609  0.8606 -0.3760
   12CHL1   H4A  820   6.148   0.496  10.274 -0.3535  0.8600 -0.5824
   12CHL1   H4B  821   6.035   0.631  10.271 -1.1290  0.2705 -1.8415
   12CHL1    C5  822   6.202   0.651  10.131  0.0719  0.1782  0.0621
   12CHL1    C6  823   6.129   0.712  10.039 -0.0277 -0.3691  0.7153
   12CHL1    H6  824   6.021   0.727  10.046 -0.5061 -0.8460 -3.3552
   12CHL1    C7  825   6.181   0.739   9.894 -0.8042  0.0569 -0.1259
   12CHL1   H7A  826   6.112   0.698   9.817  0.8385 -2.5566 -0.3334
   12CHL1   H7B  827   6.190   0.848   9.880  0.7309  0.4818  3.1712
   12CHL1    C8  828   6.321   0.675   9.864  0.1960  0.4466  0.1751
   12CHL1    H8  829   6.300   0.569   9.841 -2.6691  1.2711 -1.4096
   12CHL1   C14  830   6.384   0.743   9.745 -0.3453 -0.0833 -0.4840
   12CHL1   H14  831   6.402   0.850   9.770  0.2904 -0.2006 -0.4108
   12CHL1   C15  832   6.299   0.756   9.613 -0.1382  0.6391  0.1442
   12CHL1  H15A  833   6.245   0.659   9.613 -0.0138  0.5584  1.1446
   12CHL1  H15B  834   6.216   0.829   9.616 -2.2950 -1.6575  3.7240
   12CHL1   C16  835   6.404   0.776   9.509 -0.5619  0.1849  0.3626
   12CHL1  H16A  836   6.382   0.699   9.432  0.8000  0.4861 -0.3651
   12CHL1  H16B  837   6.407   0.876   9.460  0.5876  1.9037  3.5995
   12CHL1   C17  838   6.547   0.751   9.570  1.0695 -0.2479 -0.2912
   12CHL1   H17  839   6.594   0.846   9.603  0.4408  0.0231 -0.1461
   12CHL1   C13  840   6.519   0.678   9.706  0.0906  0.4535  0.6946
   12CHL1   C18  841   6.494   0.532   9.679  0.1943  0.1553  0.4088
   12CHL1  H18A  842   6.468   0.478   9.773 -0.2791 -1.4908 -0.6098
   12CHL1  H18B  843   6.414   0.506   9.606 -1.7339  0.9097  2.1631
   12CHL1  H18C  844   6.591   0.495   9.639  2.4338  3.3887  2.3775
   12CHL1   C12  845   6.624   0.700   9.820 -0.0811 -0.2633  0.5209
   12CHL1  H12A  846   6.726   0.661   9.797  0.4664  1.4210 -0.0359
   12CHL1  H12B  847   6.626   0.811   9.831 -0.2427 -0.2420  0.3329
   12CHL1   C11  848   6.565   0.634   9.946  0.3860  0.1566 -1.1909
   12CHL1  H11A  849   6.565   0.524   9.931  1.6263 -0.3932  1.9354
   12CHL1  H11B  850   6.636   0.659  10.028  0.4922 -0.0631 -1.2162
   12CHL1    C9  851   6.420   0.689   9.980 -0.3371 -0.1166 -0.8134
   12CHL1    H9  852   6.435   0.799   9.993  4.0720 -0.6045 -0.3093
   12CHL1   C10  853   6.352   0.634  10.114 -0.0233  0.1776 -0.3702
   12CHL1   C19  854   6.375   0.483  10.112 -0.3367  0.7325 -0.0251
   12CHL1  H19A  855   6.323   0.425  10.191 -1.6993  1.1784 -0.5578
   12CHL1  H19B  856   6.343   0.449  10.011  1.4686  0.7431 -0.6356
   12CHL1  H19C  857   6.482   0.453  10.118  0.4551  3.0084 -1.5148
   12CHL1    C1  858   6.418   0.699  10.238 -0.7542 -0.0067 -0.2703
   12CHL1   H1A  859   6.528   0.685  10.235 -0.7383 -0.2767  1.0727
   12CHL1   H1B  860   6.400   0.808  10.227  0.5843  0.1206 -1.4233
   12CHL1    C2  861   6.368   0.654  10.379 -0.0939 -0.2745  0.4282
   12CHL1   H2A  862   6.429   0.715  10.449  3.0448 -0.2002 -2.1401
   12CHL1   H2B  863   6.402   0.548  10.377  0.8530  0.0246  0.3006
   12CHL1   C20  864   6.650   0.699   9.467  0.1365  0.1065 -0.4272
   12CHL1   H20  865   6.623   0.601   9.422  1.3286 -0.5547  0.2371
   12CHL1   C21  866   6.783   0.685   9.538 -0.2702  0.1009 -0.0037
   12CHL1  H21A  867   6.797   0.606   9.615  2.6106 -0.5314 -1.0414
   12CHL1  H21B  868   6.815   0.778   9.589 -0.1665 -0.0191  0.1504
   12CHL1  H21C  869   6.860   0.666   9.460  0.9027  1.3550  0.8036
   12CHL1   C22  870   6.657   0.797   9.349  0.0874  0.0360 -0.7666
   12CHL1  H22A  871   6.557   0.809   9.303 -0.1570  0.6933 -0.1004
   12CHL1  H22B  872   6.678   0.900   9.386  1.2122 -0.5266  0.2292
   12CHL1   C23  873   6.752   0.759   9.233 -0.2889 -0.3387  0.0116
   12CHL1  H23A  874   6.859   0.776   9.258 -0.1728  2.1199 -1.8250
   12CHL1  H23B  875   6.747   0.653   9.200  3.5922 -0.2131 -1.4932
   12CHL1   C24  876   6.722   0.841   9.104  0.4563 -0.4326  0.7326
   12CHL1  H24A  877   6.638   0.801   9.044 -0.1788  2.6327 -0.5817
   12CHL1  H24B  878   6.703   0.944   9.142 -2.8907 -0.4710 -0.5595
   12CHL1   C25  879   6.845   0.852   9.011  0.4795  0.0877  0.1548
   12CHL1   H25  880   6.908   0.761   9.013  0.2634 -0.0753  2.9639
   12CHL1   C26  881   6.798   0.863   8.867  0.0955  0.5255  0.8730
   12CHL1  H26A  882   6.728   0.780   8.844  0.2511  0.9110 -1.1447
   12CHL1  H26B  883   6.748   0.958   8.839 -1.9040 -1.1558 -1.7152
   12CHL1  H26C  884   6.886   0.846   8.802  0.8372 -0.0885  1.9873
   12CHL1   C27  885   6.927   0.980   9.038  0.6660 -0.2276  0.3236
   12CHL1  H27A  886   7.021   0.978   8.979 -0.0469 -1.2178 -0.8434
   12CHL1  H27B  887   6.872   1.069   8.999  0.6149  0.4978  1.9927
   12CHL1  H27C  888   6.939   0.985   9.148 -2.2696 -2.8471  0.9168
   13CHL1    C3  889   5.322   3.939  10.313 -0.4597  0.5233 -0.2001
   13CHL1    H3  890   5.275   4.040  10.310  1.8236  1.6408 -0.3791
   13CHL1    O3  891   5.328   3.898  10.452 -0.2269  0.7436 -0.3310
   13CHL1   H3'  892   5.413   3.919  10.492 -1.2082 -0.7219  2.8643
   13CHL1    C4  893   5.243   3.833  10.231 -0.7806  0.1067 -0.4528
   13CHL1   H4A  894   5.294   3.736  10.245  0.2554  0.6396 -0.3961
   13CHL1   H4B  895   5.141   3.824  10.274 -0.7348  0.5001 -0.2506
   13CHL1    C5  896   5.240   3.887  10.093 -0.1068  0.4252 -0.4136
   13CHL1    C6  897   5.122   3.918  10.028 -0.2132 -0.2469 -0.8029
   13CHL1    H6  898   5.031   3.895  10.086 -0.0976  0.3801 -0.3603
   13CHL1    C7  899   5.113   3.967   9.888 -0.4423 -0.4128 -0.1131
   13CHL1   H7A  900   5.017   3.938   9.841 -0.6797 -0.7907  0.5921
   13CHL1   H7B  901   5.109   4.078   9.899  1.0049 -0.1432 -1.8070
   13CHL1    C8  902   5.238   3.945   9.806 -0.0306  0.6177  0.7567
   13CHL1    H8  903   5.235   3.841   9.764 -3.0287  1.1602 -0.6365
   13CHL1   C14  904   5.237   4.027   9.679  0.5387 -0.1301  0.1462
   13CHL1   H14  905   5.241   4.134   9.707 -0.1765  0.4636 -1.8450
   13CHL1   C15  906   5.110   4.016   9.589 -0.1435  0.1870 -0.2753
   13CHL1  H15A  907   5.085   3.909   9.571 -0.7669 -0.0842  1.9859
   13CHL1  H15B  908   5.012   4.055   9.623 -0.0984  0.8062 -0.8371
   13CHL1   C16  909   5.157   4.075   9.457 -0.4697  0.0500  0.5671
   13CHL1  H16A  910   5.132   3.999   9.380  0.5177 -0.1108  0.3983
   13CHL1  H16B  911   5.103   4.171   9.442 -1.2792 -0.1243  2.1345
   13CHL1   C17  912   5.310   4.100   9.468 -0.5814  0.2951 -0.8953
   13CHL1   H17  913   5.311   4.203   9.511  1.3099 -0.3974  0.9193
   13CHL1   C13  914   5.357   4.015   9.585  1.0316  0.6163 -0.2571
   13CHL1   C18  915   5.384   3.867   9.549  0.7087 -0.5168  0.7506
   13CHL1  H18A  916   5.468   3.850   9.479  1.3922  0.2473  1.3591
   13CHL1  H18B  917   5.410   3.808   9.640  1.6172  0.1111  0.9177
   13CHL1  H18C  918   5.295   3.815   9.510  1.3267 -1.4274  0.5368
   13CHL1   C12  919   5.481   4.063   9.668  0.2527  0.3467 -0.3495
   13CHL1  H12A  920   5.579   4.053   9.617  1.0260 -2.2127  1.4446
   13CHL1  H12B  921   5.469   4.170   9.694  1.3588 -0.5495  5.0840
   13CHL1   C11  922   5.492   3.982   9.796 -0.4447  1.2055 -0.7094
   13CHL1  H11A  923   5.538   3.882   9.782 -0.1449  0.7932  2.4954
   13CHL1  H11B  924   5.574   4.026   9.856  1.5057 -1.7244 -0.9924
   13CHL1    C9  925   5.367   3.976   9.883 -0.0755 -0.5417 -0.1327
   13CHL1    H9  926   5.344   4.081   9.912 -2.3128 -0.7381 -0.9881
   13CHL1   C10  927   5.374   3.910  10.021  0.1455  0.2061 -0.7730
   13CHL1   C19  928   5.421   3.764  10.010 -0.9451 -0.2470 -0.2593
   13CHL1  H19A  929   5.348   3.696   9.961 -0.6636 -0.5667 -0.2315
   13CHL1  H19B  930   5.505   3.767   9.937 -0.6038 -1.3828  0.0748
   13CHL1  H19C  931   5.450   3.717  10.106  2.3414 -0.7994 -1.4155
   13CHL1    C1  932   5.480   3.979  10.115  0.1392  0.1077 -0.1468
   13CHL1   H1A  933   5.582   3.946  10.085  0.4469  0.4834  0.4605
   13CHL1   H1B  934   5.485   4.090  10.116  1.4232  0.0777  1.5133
   13CHL1    C2  935   5.471   3.943  10.269  0.3381 -0.1516  0.2279
   13CHL1   H2A  936   5.525   4.007  10.342  0.8266 -1.4547  1.0431
   13CHL1   H2B  937   5.519   3.843  10.277  0.7028  0.0886  1.1112
   13CHL1   C20  938   5.392   4.101   9.334  0.3338 -0.3861 -0.5664
   13CHL1   H20  939   5.497   4.092   9.368  0.4155 -0.8801 -0.9429
   13CHL1   C21  940   5.381   4.246   9.282  0.2481 -0.3204  0.1809
   13CHL1  H21A  941   5.421   4.239   9.178 -2.5905 -1.5001 -0.9564
   13CHL1  H21B  942   5.447   4.311   9.342 -0.1536  2.0253 -1.7469
   13CHL1  H21C  943   5.280   4.291   9.268  0.6357  0.7491  0.7483
   13CHL1   C22  944   5.358   3.990   9.233 -0.4041  0.2315  0.5814
   13CHL1  H22A  945   5.328   3.895   9.282 -0.6851  0.9418  1.8303
   13CHL1  H22B  946   5.269   4.023   9.176 -1.5152 -1.4867  1.2614
   13CHL1   C23  947   5.476   3.967   9.138 -0.0470 -0.0169  0.2941
   13CHL1  H23A  948   5.515   4.062   9.095 -1.3219 -0.4378 -1.9515
   13CHL1  H23B  949   5.549   3.906   9.195 -2.4211 -2.4880  0.8779
   13CHL1   C24  950   5.418   3.900   9.006 -0.3173  0.1446  0.1951
   13CHL1  H24A  951   5.386   3.796   9.028  1.0618  0.1064  2.2252
   13CHL1  H24B  952   5.324   3.950   8.974 -0.9016 -0.1483  1.3975
   13CHL1   C25  953   5.528   3.901   8.884  0.2350  0.0170 -0.5819
   13CHL1   H25  954   5.560   4.008   8.881  2.3430 -0.5937 -1.9932
   13CHL1   C26  955   5.644   3.805   8.907 -0.8689 -0.0826  0.1954
   13CHL1  H26A  956   5.619   3.700   8.930 -2.2267  0.2029  0.0834
   13CHL1  H26B  957   5.707   3.802   8.816 -0.2828  0.7160  0.5569
   13CHL1  H26C  958   5.707   3.853   8.985 -1.2143  3.6911 -1.6171
   13CHL1   C27  959   5.449   3.868   8.755 -0.3736 -0.1279 -0.3165
   13CHL1  H27A  960   5.529   3.863   8.679 -0.5349 -1.4013 -0.4243
   13CHL1  H27B  961   5.396   3.772   8.774  3.1535 -2.1533  0.1022
   13CHL1  H27C  962   5.378   3.951   8.735 -2.6876 -1.2695  2.3355
   14CHL1    C3  963   2.638   1.001  10.370  0.5072  0.1691  0.1000
   14CHL1    H3  964   2.538   1.048  10.366  1.0586  1.2692 -1.7722
   14CHL1    O3  965   2.689   1.028  10.499 -0.1350  0.1110 -0.1384
   14CHL1   H3'  966   2.615   1.008  10.557  0.2178 -0.5019  0.1106
   14CHL1    C4  967   2.629   0.853  10.356  0.3417  0.9989 -0.1424
   14CHL1   H4A  968   2.725   0.797  10.365 -0.5955 -0.4955  1.1231
   14CHL1   H4B  969   2.558   0.821  10.435  0.2353  2.0154  0.1804
   14CHL1    C5  970   2.575   0.814  10.222  0.0282 -0.1441  1.3369
   14CHL1    C6  971   2.462   0.733  10.206  0.5464 -0.8027 -0.6117
   14CHL1    H6  972   2.400   0.707  10.293 -3.2596  0.0926 -2.8273
   14CHL1    C7  973   2.412   0.675  10.069  0.4414  0.6270 -0.8557
   14CHL1   H7A  974   2.386   0.567  10.082  3.2363  0.0723  1.0244
   14CHL1   H7B  975   2.325   0.739  10.044 -0.6312  1.2235  3.5242
   14CHL1    C8  976   2.512   0.703   9.950 -0.0542  0.2653 -0.0087
   14CHL1    H8  977   2.588   0.623   9.960 -0.3294  0.0729  0.5912
   14CHL1   C14  978   2.444   0.682   9.813  0.3222  0.3210 -0.3758
   14CHL1   H14  979   2.375   0.766   9.791 -0.2298 -1.2028 -6.0490
   14CHL1   C15  980   2.358   0.550   9.793 -0.3319  0.4071  0.0874
   14CHL1  H15A  981   2.409   0.472   9.853 -0.3925 -0.4469 -0.9501
   14CHL1  H15B  982   2.253   0.571   9.823  0.0459  0.2413  1.5750
   14CHL1   C16  983   2.367   0.530   9.639  1.0953  0.1234 -0.4313
   14CHL1  H16A  984   2.392   0.424   9.618 -3.4123 -1.1715 -0.3865
   14CHL1  H16B  985   2.266   0.546   9.596  1.0902 -0.4723 -0.6479
   14CHL1   C17  986   2.457   0.644   9.579  0.0738  0.4012 -0.2053
   14CHL1   H17  987   2.386   0.728   9.563  0.4868  0.4922 -1.7498
   14CHL1   C13  988   2.548   0.686   9.700 -0.3300  0.3590  0.1466
   14CHL1   C18  989   2.662   0.579   9.718 -1.0027 -0.3920 -0.1879
   14CHL1  H18A  990   2.633   0.472   9.731  0.6399 -0.9783 -1.0649
   14CHL1  H18B  991   2.738   0.578   9.637  1.7048  0.8803  2.1519
   14CHL1  H18C  992   2.717   0.605   9.811  0.1464  1.4783 -1.3256
   14CHL1   C12  993   2.594   0.832   9.700 -0.2299 -0.0871 -0.8137
   14CHL1  H12A  994   2.664   0.855   9.616  0.1409  2.4730  0.0992
   14CHL1  H12B  995   2.511   0.903   9.683  0.6814  1.1405 -0.2729
   14CHL1   C11  996   2.658   0.874   9.834 -0.0753  0.6030  0.6097
   14CHL1  H11A  997   2.757   0.823   9.835  0.6192  1.8948 -0.0718
   14CHL1  H11B  998   2.673   0.984   9.829 -3.2857  1.1445  0.7651
   14CHL1    C9  999   2.575   0.840   9.961 -0.3862  0.2849  0.6570
   14CHL1    H9 1000   2.490   0.911   9.953 -0.8811 -0.4578 -1.3492
   14CHL1   C10 1001   2.650   0.862  10.094 -0.0841 -0.3028  0.3990
   14CHL1   C19 1002   2.784   0.784  10.094  0.2192 -0.0795 -0.8399
   14CHL1  H19A 1003   2.852   0.823  10.016  0.1083  2.0870  0.0828
   14CHL1  H19B 1004   2.834   0.786  10.193  0.8825 -2.7708 -1.0492
   14CHL1  H19C 1005   2.762   0.677  10.072 -1.9695 -0.3311  2.0035
   14CHL1    C1 1006   2.678   1.016  10.117 -0.6696 -0.7604  0.3065
   14CHL1   H1A 1007   2.762   1.056  10.057 -0.6401 -0.3280  0.6296
   14CHL1   H1B 1008   2.582   1.071  10.109 -0.4127  0.2469  2.9893
   14CHL1    C2 1009   2.732   1.060  10.265 -0.2281 -0.2142  0.5778
   14CHL1   H2A 1010   2.725   1.171  10.277 -0.4145 -0.3248  1.5415
   14CHL1   H2B 1011   2.837   1.031  10.285 -0.0973 -1.2615 -1.3801
   14CHL1   C20 1012   2.519   0.611   9.438  0.2364  0.5952  0.0895
   14CHL1   H20 1013   2.565   0.510   9.447  3.0600  1.8337  0.5548
   14CHL1   C21 1014   2.637   0.709   9.396  0.4968  0.7446 -0.7275
   14CHL1  H21A 1015   2.677   0.691   9.294  1.9270  1.7830 -0.3821
   14CHL1  H21B 1016   2.722   0.695   9.466  2.3387  2.3744 -2.5043
   14CHL1  H21C 1017   2.602   0.814   9.394  0.9295  0.9307  0.6105
   14CHL1   C22 1018   2.407   0.617   9.334 -0.2662  0.4952 -0.6428
   14CHL1  H22A 1019   2.314   0.572   9.373  1.0721 -1.2641  0.6711
   14CHL1  H22B 1020   2.374   0.723   9.322  1.6666  0.9588 -2.3928
   14CHL1   C23 1021   2.453   0.549   9.199 -0.7623  0.2562  0.3755
   14CHL1  H23A 1022   2.540   0.605   9.159 -0.6796  0.0239  0.2357
   14CHL1  H23B 1023   2.495   0.449   9.223  3.1815  1.7326  0.3941
   14CHL1   C24 1024   2.344   0.545   9.100  0.9924  0.9964  0.2297
   14CHL1  H24A 1025   2.245   0.516   9.141  0.5666 -1.6084 -2.2798
   14CHL1  H24B 1026   2.321   0.644   9.055  3.4748  1.1351 -0.9351
   14CHL1   C25 1027   2.372   0.440   8.984 -0.9177  0.2202 -0.1875
   14CHL1   H25 1028   2.352   0.334   9.011  1.5971 -0.9947 -2.7097
   14CHL1   C26 1029   2.283   0.470   8.865 -0.0292  0.6897  0.2803
   14CHL1  H26A 1030   2.307   0.573   8.831  1.0076  0.4355  0.1993
   14CHL1  H26B 1031   2.290   0.392   8.787 -0.2741  2.6056 -1.7619
   14CHL1  H26C 1032   2.177   0.489   8.895  0.5708  3.4325  0.9666
   14CHL1   C27 1033   2.527   0.446   8.945  0.9266  0.2579  0.6461
   14CHL1  H27A 1034   2.594   0.391   9.015  1.7588 -1.3215 -1.2689
   14CHL1  H27B 1035   2.536   0.398   8.845 -0.4300  2.2950 -0.5283
   14CHL1  H27C 1036   2.552   0.552   8.925 -1.0257  1.1813  2.6606
   15CHL1    C3 1037   2.545   4.747  10.195  1.3705 -0.8597 -0.3300
   15CHL1    H3 1038   2.434   4.746  10.189  1.2197  0.1474  1.5102
   15CHL1    O3 1039   2.588   4.729  10.329  0.0141 -0.0990  0.1222
   15CHL1   H3' 1040   2.684   4.725  10.323 -0.0371 -2.6014 -0.3028
   15CHL1    C4 1041   2.600   4.639  10.107 -0.0173 -0.4410 -0.2039
   15CHL1   H4A 1042   2.708   4.619  10.120  0.0470  0.0347 -0.0006
   15CHL1   H4B 1043   2.555   4.548  10.151 -0.6927  1.5607  3.6495
   15CHL1    C5 1044   2.581   4.664   9.957 -0.8711  0.3990 -0.7195
   15CHL1    C6 1045   2.525   4.575   9.872  0.3791  0.3382  0.3394
   15CHL1    H6 1046   2.495   4.479   9.917  1.3503  0.8113  2.0583
   15CHL1    C7 1047   2.494   4.608   9.726  0.1479 -0.1863 -0.4412
   15CHL1   H7A 1048   2.501   4.514   9.666 -0.1746  0.2563 -1.1876
   15CHL1   H7B 1049   2.399   4.656   9.695  1.0201  0.6711 -1.8933
   15CHL1    C8 1050   2.593   4.712   9.674 -0.6583  0.1565 -0.4429
   15CHL1    H8 1051   2.697   4.674   9.663 -0.7832  0.2742 -2.2867
   15CHL1   C14 1052   2.558   4.760   9.533  0.7338 -0.2821 -0.2701
   15CHL1   H14 1053   2.457   4.804   9.550  0.6847 -0.4098 -0.2269
   15CHL1   C15 1054   2.528   4.656   9.416 -0.0157 -0.1441  0.1129
   15CHL1  H15A 1055   2.609   4.580   9.421  0.1782 -0.0865 -1.6976
   15CHL1  H15B 1056   2.428   4.615   9.445 -1.2540  2.4158 -0.2973
   15CHL1   C16 1057   2.532   4.741   9.291 -0.4375 -0.7779 -0.2674
   15CHL1  H16A 1058   2.626   4.702   9.246  1.6718  0.8169  2.3987
   15CHL1  H16B 1059   2.451   4.744   9.216 -0.7354 -0.7696  0.0527
   15CHL1   C17 1060   2.568   4.892   9.332 -0.3819 -0.1778 -1.2338
   15CHL1   H17 1061   2.466   4.931   9.351 -0.1962 -0.7930  1.4871
   15CHL1   C13 1062   2.640   4.875   9.471  0.5743  0.1835 -0.2603
   15CHL1   C18 1063   2.795   4.829   9.448  0.0987 -0.7519 -0.2363
   15CHL1  H18A 1064   2.805   4.750   9.370  1.9716 -0.9724  0.1868
   15CHL1  H18B 1065   2.852   4.920   9.420 -1.1029  0.1799  0.2465
   15CHL1  H18C 1066   2.828   4.797   9.549 -0.8330  0.1995  0.3953
   15CHL1   C12 1067   2.633   5.002   9.558  0.7685 -0.1078 -0.3276
   15CHL1  H12A 1068   2.708   5.065   9.506  1.2078 -0.1193  0.2842
   15CHL1  H12B 1069   2.532   5.046   9.547  1.2028  0.8249 -0.5998
   15CHL1   C11 1070   2.671   4.961   9.705  0.5736  0.1099  0.1226
   15CHL1  H11A 1071   2.776   4.927   9.702  0.4781 -0.2081  0.2599
   15CHL1  H11B 1072   2.664   5.050   9.771 -3.0017  0.4051 -0.4523
   15CHL1    C9 1073   2.592   4.835   9.763  0.5440 -0.3916  0.1903
   15CHL1    H9 1074   2.488   4.874   9.758 -0.0433 -1.7778  0.9995
   15CHL1   C10 1075   2.628   4.803   9.914  0.6596  0.0171 -0.2148
   15CHL1   C19 1076   2.783   4.813   9.919  0.0624  0.7509 -0.3310
   15CHL1  H19A 1077   2.830   4.744   9.992 -2.3246 -1.6350 -0.9263
   15CHL1  H19B 1078   2.836   4.773   9.830 -0.9159 -0.8697 -0.2095
   15CHL1  H19C 1079   2.811   4.919   9.938  1.7826  0.0327  1.5567
   15CHL1    C1 1080   2.568   4.913  10.000 -0.3259  0.4787 -0.3941
   15CHL1   H1A 1081   2.605   5.017   9.981 -1.9238  0.6222 -3.5096
   15CHL1   H1B 1082   2.458   4.913   9.985 -0.1578  0.1462 -1.8137
   15CHL1    C2 1083   2.602   4.886  10.147  0.2171  0.3449 -0.0769
   15CHL1   H2A 1084   2.559   4.965  10.212  1.2990  2.2072 -1.5220
   15CHL1   H2B 1085   2.712   4.894  10.160  0.7195  0.4431 -3.4861
   15CHL1   C20 1086   2.642   4.993   9.235 -0.3277  0.0423  0.6842
   15CHL1   H20 1087   2.685   5.081   9.287 -0.2082  0.4465 -0.0954
   15CHL1   C21 1088   2.522   5.052   9.150 -0.1154 -0.5938 -0.3997
   15CHL1  H21A 1089   2.566   5.118   9.072  1.2217 -0.8968  0.0692
   15CHL1  H21B 1090   2.453   5.122   9.202  1.4622  2.0445 -1.5966
   15CHL1  H21C 1091   2.467   4.974   9.094 -0.5016 -0.4260 -0.2534
   15CHL1   C22 1092   2.754   4.931   9.129 -0.0668  0.0816 -0.7730
   15CHL1  H22A 1093   2.828   4.893   9.203 -1.4178 -0.2625  0.4487
   15CHL1  H22B 1094   2.706   4.850   9.071  1.6113 -0.9230 -0.8233
   15CHL1   C23 1095   2.811   5.025   9.026 -0.1955 -0.4993 -0.7341
   15CHL1  H23A 1096   2.740   5.067   8.952  0.6114  0.9372 -0.7444
   15CHL1  H23B 1097   2.851   5.115   9.078 -1.0313 -1.0119  0.8806
   15CHL1   C24 1098   2.919   4.957   8.944  0.3125  0.6462 -0.4707
   15CHL1  H24A 1099   2.992   4.907   9.012  1.3590  0.2125 -1.8592
   15CHL1  H24B 1100   2.877   4.878   8.878 -0.5239  1.1036 -0.4916
   15CHL1   C25 1101   3.004   5.054   8.859  0.9353 -0.6714  0.1525
   15CHL1   H25 1102   3.009   5.135   8.934  1.6938 -0.3392 -0.2497
   15CHL1   C26 1103   3.134   4.980   8.829 -0.0427  0.0459  0.0613
   15CHL1  H26A 1104   3.117   4.891   8.765  1.0390  0.4010 -0.7431
   15CHL1  H26B 1105   3.197   5.058   8.780 -4.5396  3.4146 -1.0693
   15CHL1  H26C 1106   3.186   4.953   8.924 -0.8057  3.3865  1.6041
   15CHL1   C27 1107   2.931   5.096   8.726 -0.0794 -0.0565 -0.2502
   15CHL1  H27A 1108   3.000   5.163   8.670 -0.0869 -2.0884 -2.9158
   15CHL1  H27B 1109   2.902   5.009   8.662  3.8145 -0.6051 -1.5785
   15CHL1  H27C 1110   2.842   5.154   8.757 -1.3862 -1.9784 -0.2213
   16CHL1    C3 1111   2.863   6.652  10.405 -0.2379  0.1393 -0.3381
   16CHL1    H3 1112   2.763   6.608  10.386  0.3900 -3.5367  3.2916
   16CHL1    O3 1113   2.881   6.679  10.544  0.6226 -0.3325  0.9022
   16CHL1   H3' 1114   2.883   6.775  10.543 -3.5968 -0.0122 -1.4683
   16CHL1    C4 1115   2.965   6.537  10.362  0.3427 -0.1183  0.1053
   16CHL1   H4A 1116   3.070   6.563  10.387  0.5709 -1.4836  0.6929
   16CHL1   H4B 1117   2.936   6.451  10.427  0.5625  0.0802  0.4681
   16CHL1    C5 1118   2.957   6.505  10.212  0.0025  0.3130  0.3885
   16CHL1    C6 1119   2.922   6.381  10.168  0.6957 -0.4727 -0.7768
   16CHL1    H6 1120   2.886   6.306  10.241 -0.0330 -0.2274 -0.8761
   16CHL1    C7 1121   2.914   6.346  10.026 -0.1523 -0.2665 -0.1866
   16CHL1   H7A 1122   2.954   6.244  10.010  2.3753  0.3921  1.4089
   16CHL1   H7B 1123   2.808   6.342   9.992  0.6959 -1.5948 -3.0236
   16CHL1    C8 1124   2.989   6.440   9.930 -0.9572 -0.6247  0.0031
   16CHL1    H8 1125   3.094   6.405   9.931 -0.2636  1.1890 -2.1066
   16CHL1   C14 1126   2.944   6.420   9.786 -0.0095 -0.0656  0.0254
   16CHL1   H14 1127   2.837   6.449   9.776 -0.2074 -0.5073  0.8257
   16CHL1   C15 1128   2.934   6.284   9.722 -0.1570 -0.4909  0.1779
   16CHL1  H15A 1129   3.031   6.230   9.728 -0.3570 -1.1667 -1.6622
   16CHL1  H15B 1130   2.851   6.220   9.759 -1.5163  0.2816 -1.3703
   16CHL1   C16 1131   2.924   6.322   9.569  0.2883 -0.0360 -0.7205
   16CHL1  H16A 1132   2.999   6.255   9.521  2.5165  1.0771  1.0033
   16CHL1  H16B 1133   2.820   6.293   9.543 -1.0796  2.1374  1.8480
   16CHL1   C17 1134   2.942   6.473   9.552  0.3451 -0.7291  0.0174
   16CHL1   H17 1135   2.841   6.521   9.554  0.7405  0.1176  0.1549
   16CHL1   C13 1136   3.009   6.520   9.687  0.3056 -0.3215 -0.5026
   16CHL1   C18 1137   3.167   6.500   9.675 -0.2388 -1.1210 -0.7247
   16CHL1  H18A 1138   3.197   6.415   9.611  2.9311  0.4299 -1.5008
   16CHL1  H18B 1139   3.206   6.593   9.628  0.1609 -0.2776  1.1634
   16CHL1  H18C 1140   3.209   6.495   9.778 -0.8383  2.2534 -0.1755
   16CHL1   C12 1141   2.977   6.664   9.733 -0.2148 -0.1745 -0.2286
   16CHL1  H12A 1142   3.026   6.738   9.666  0.4211 -1.4260 -1.1893
   16CHL1  H12B 1143   2.866   6.664   9.734 -0.3068 -3.3618  0.7274
   16CHL1   C11 1144   3.037   6.687   9.875 -0.3703  0.6717 -0.6137
   16CHL1  H11A 1145   3.146   6.666   9.878 -0.6084 -0.8461 -1.5764
   16CHL1  H11B 1146   3.017   6.788   9.914  0.8794  0.2460  1.2667
   16CHL1    C9 1147   2.967   6.591   9.978  0.1545  0.3742 -0.1213
   16CHL1    H9 1148   2.858   6.607   9.965  0.0308 -0.4220 -0.1541
   16CHL1   C10 1149   2.997   6.617  10.130 -0.2148 -0.4405 -0.2746
   16CHL1   C19 1150   3.142   6.653  10.153 -0.7281 -0.5586 -0.2976
   16CHL1  H19A 1151   3.170   6.671  10.259 -0.5035 -0.5493 -0.3593
   16CHL1  H19B 1152   3.195   6.563  10.113 -0.3728  0.2689 -1.7560
   16CHL1  H19C 1153   3.170   6.744  10.096 -1.1568  1.4205  2.4859
   16CHL1    C1 1154   2.911   6.744  10.167  0.1715  0.0354  0.3391
   16CHL1   H1A 1155   2.948   6.839  10.122  0.6079 -0.8510 -1.2870
   16CHL1   H1B 1156   2.805   6.731  10.136 -0.4104  2.1843  1.3142
   16CHL1    C2 1157   2.901   6.777  10.318 -0.3196  0.4390 -0.4510
   16CHL1   H2A 1158   2.814   6.845  10.331 -1.0108 -0.4349 -0.3800
   16CHL1   H2B 1159   2.990   6.818  10.370 -0.9840  2.4738 -0.7966
   16CHL1   C20 1160   3.010   6.505   9.417  0.3383  0.0240 -0.0447
   16CHL1   H20 1161   3.114   6.468   9.420 -0.0244 -1.0675 -0.4579
   16CHL1   C21 1162   3.011   6.654   9.386 -0.2172 -0.8243 -0.4780
   16CHL1  H21A 1163   3.072   6.704   9.464  0.8250 -2.2845 -0.3237
   16CHL1  H21B 1164   2.910   6.696   9.366  0.8264  2.0766 -0.1751
   16CHL1  H21C 1165   3.068   6.664   9.291  1.7000  0.2767  0.7271
   16CHL1   C22 1166   2.934   6.422   9.303 -0.8204  0.3194 -0.1382
   16CHL1  H22A 1167   2.940   6.315   9.332 -2.2695  0.9167  2.7245
   16CHL1  H22B 1168   2.825   6.439   9.288 -0.5379  0.7839 -1.8971
   16CHL1   C23 1169   2.989   6.449   9.160 -0.0884 -0.5062  0.1293
   16CHL1  H23A 1170   3.008   6.556   9.136  1.5674 -0.3375  1.9733
   16CHL1  H23B 1171   3.090   6.404   9.154  0.5476  1.0032 -1.5350
   16CHL1   C24 1172   2.920   6.379   9.053  0.0641 -0.1129 -0.1822
   16CHL1  H24A 1173   2.912   6.275   9.092 -0.2801 -1.5003 -3.6022
   16CHL1  H24B 1174   2.817   6.411   9.026 -0.1755 -1.1782 -0.5749
   16CHL1   C25 1175   2.985   6.363   8.916 -0.4799  0.3224 -0.2057
   16CHL1   H25 1176   3.096   6.363   8.924 -0.3368  1.4977 -1.6801
   16CHL1   C26 1177   2.942   6.243   8.840 -0.2605 -0.2534 -0.0993
   16CHL1  H26A 1178   2.983   6.151   8.888 -1.2716 -0.8224 -0.3046
   16CHL1  H26B 1179   2.834   6.232   8.817  0.0615 -1.8615 -1.0085
   16CHL1  H26C 1180   2.986   6.245   8.738  1.5613 -4.0388  0.4236
   16CHL1   C27 1181   2.967   6.482   8.827 -0.8244 -0.5496 -0.1611
   16CHL1  H27A 1182   3.011   6.573   8.874 -0.4769  0.2501 -1.9726
   16CHL1  H27B 1183   3.034   6.474   8.739 -0.0301  1.6599  0.1763
   16CHL1  H27C 1184   2.860   6.491   8.798  0.2464  2.1743 -4.1069
   17CHL1    C3 1185   3.417   4.380  10.426 -0.3709  0.0900  0.6959
   17CHL1    H3 1186   3.512   4.346  10.379 -0.8162 -0.9687  0.5327
   17CHL1    O3 1187   3.440   4.378  10.570  0.3242 -0.1333  0.0122
   17CHL1   H3' 1188   3.346   4.382  10.590 -0.7209 -0.5592 -3.9097
   17CHL1    C4 1189   3.394   4.531  10.382  0.0451  0.5516 -0.5675
   17CHL1   H4A 1190   3.303   4.581  10.420  0.4602 -0.3337  1.7695
   17CHL1   H4B 1191   3.486   4.586  10.409  1.9198 -1.8713 -1.5779
   17CHL1    C5 1192   3.395   4.539  10.234 -0.7449  0.5559  0.4956
   17CHL1    C6 1193   3.479   4.615  10.163 -0.8868  0.2547  0.6221
   17CHL1    H6 1194   3.554   4.675  10.217  0.7372 -2.5757  1.7152
   17CHL1    C7 1195   3.482   4.619  10.013  0.7659  0.2714  0.9327
   17CHL1   H7A 1196   3.485   4.723   9.975  0.5439 -0.3740 -0.9394
   17CHL1   H7B 1197   3.576   4.569   9.980 -1.0951 -2.5469 -0.4094
   17CHL1    C8 1198   3.355   4.561   9.948 -0.6707  0.4042 -0.3334
   17CHL1    H8 1199   3.274   4.636   9.961 -0.5998  0.3596  0.4010
   17CHL1   C14 1200   3.372   4.525   9.807 -0.1707 -0.0945  0.4803
   17CHL1   H14 1201   3.442   4.439   9.802  1.0141  0.7707  1.7019
   17CHL1   C15 1202   3.435   4.633   9.713  0.3463  0.1720  0.5253
   17CHL1  H15A 1203   3.376   4.726   9.728  1.4220  0.9637 -0.0783
   17CHL1  H15B 1204   3.540   4.658   9.740  0.7410  0.9864 -1.5778
   17CHL1   C16 1205   3.430   4.580   9.571  0.1692 -0.5172 -1.1550
   17CHL1  H16A 1206   3.398   4.662   9.504 -2.6081 -1.5298 -1.1908
   17CHL1  H16B 1207   3.524   4.546   9.522 -0.3552  1.6939 -3.9171
   17CHL1   C17 1208   3.321   4.469   9.576 -0.1302 -0.2157 -0.2953
   17CHL1   H17 1209   3.380   4.375   9.582  0.5389  0.2920  2.5403
   17CHL1   C13 1210   3.255   4.480   9.717 -0.5131  0.2826  0.0885
   17CHL1   C18 1211   3.140   4.584   9.709 -0.0796  0.0945 -0.1052
   17CHL1  H18A 1212   3.188   4.669   9.655  0.1719  0.4194  0.6158
   17CHL1  H18B 1213   3.050   4.545   9.656  0.8173 -1.5050 -0.5173
   17CHL1  H18C 1214   3.116   4.621   9.811  1.4664 -1.3487  0.8304
   17CHL1   C12 1215   3.206   4.360   9.793  0.3386  0.4250  0.5215
   17CHL1  H12A 1216   3.117   4.316   9.743  0.3830 -1.8336  2.2292
   17CHL1  H12B 1217   3.284   4.283   9.775 -0.2600 -0.1626  0.3888
   17CHL1   C11 1218   3.178   4.375   9.939 -0.5169 -0.5881 -0.6694
   17CHL1  H11A 1219   3.091   4.444   9.946  2.1168  2.8403  3.5552
   17CHL1  H11B 1220   3.153   4.282   9.995 -0.4846 -0.0651  0.2408
   17CHL1    C9 1221   3.298   4.439  10.022  1.0516  0.0680 -0.5621
   17CHL1    H9 1222   3.375   4.359  10.012 -0.1346 -1.0332 -1.0819
   17CHL1   C10 1223   3.284   4.448  10.175  0.8392  0.0717  0.6962
   17CHL1   C19 1224   3.149   4.525  10.204 -0.1607  0.4050  0.2809
   17CHL1  H19A 1225   3.152   4.615  10.139  1.0631 -1.4597 -2.3830
   17CHL1  H19B 1226   3.064   4.461  10.171  0.0109  1.0215 -1.4685
   17CHL1  H19C 1227   3.152   4.543  10.314  1.7030 -0.2604  0.3662
   17CHL1    C1 1228   3.276   4.300  10.229  0.2887 -0.0800 -0.8339
   17CHL1   H1A 1229   3.180   4.247  10.209  0.0720  0.5404 -1.4592
   17CHL1   H1B 1230   3.354   4.231  10.191  0.0462 -2.2130  2.1499
   17CHL1    C2 1231   3.298   4.292  10.387  0.1214 -0.0512  0.6554
   17CHL1   H2A 1232   3.346   4.198  10.423  0.3677  0.6508  2.2727
   17CHL1   H2B 1233   3.205   4.327  10.437 -1.1622 -0.5170 -1.3177
   17CHL1   C20 1234   3.231   4.467   9.453  0.0347 -0.1107 -0.3678
   17CHL1   H20 1235   3.153   4.542   9.478  0.0948 -0.5705  1.3250
   17CHL1   C21 1236   3.170   4.335   9.440 -0.1795 -0.0361 -0.1732
   17CHL1  H21A 1237   3.251   4.261   9.457 -1.4509 -1.3140  0.5222
   17CHL1  H21B 1238   3.121   4.324   9.341  3.3830 -0.8789 -2.0142
   17CHL1  H21C 1239   3.093   4.313   9.517  0.2757  2.5387  1.1157
   17CHL1   C22 1240   3.303   4.497   9.315  0.2604  0.5792 -0.4897
   17CHL1  H22A 1241   3.351   4.597   9.324 -1.7254  1.4950  0.7163
   17CHL1  H22B 1242   3.378   4.416   9.310 -0.1051 -0.1567  3.0541
   17CHL1   C23 1243   3.230   4.504   9.181 -0.3727 -0.4912 -0.4279
   17CHL1  H23A 1244   3.224   4.398   9.149  0.5955 -1.1208  1.3400
   17CHL1  H23B 1245   3.126   4.542   9.193 -0.5482 -0.9215 -0.5587
   17CHL1   C24 1246   3.301   4.591   9.080  0.2009  0.5852  0.3091
   17CHL1  H24A 1247   3.317   4.691   9.124  0.8694  0.5342  0.1997
   17CHL1  H24B 1248   3.406   4.555   9.078 -0.6498 -2.1475 -0.2506
   17CHL1   C25 1249   3.260   4.581   8.930  0.0288 -0.3798  0.0072
   17CHL1   H25 1250   3.324   4.653   8.876 -1.4700  1.3299  0.4006
   17CHL1   C26 1251   3.283   4.442   8.871 -0.4044 -0.5230  0.1849
   17CHL1  H26A 1252   3.221   4.374   8.932  0.9958 -1.5424  0.5075
   17CHL1  H26B 1253   3.258   4.440   8.763 -1.3849  0.1120  0.3825
   17CHL1  H26C 1254   3.388   4.409   8.884 -0.0481 -0.0578 -1.3308
   17CHL1   C27 1255   3.116   4.625   8.894  1.0561  0.0798 -0.8930
   17CHL1  H27A 1256   3.041   4.553   8.932  1.4843  1.1408  2.2102
   17CHL1  H27B 1257   3.098   4.719   8.951  0.6095 -1.8716  2.4014
   17CHL1  H27C 1258   3.092   4.641   8.786 -0.2953  1.5705 -0.4192
   18CHL1    C3 1259   5.948   3.780  10.225  0.0379 -0.4409  0.7083
   18CHL1    H3 1260   6.019   3.865  10.236 -2.0181  1.9622 -2.6440
   18CHL1    O3 1261   5.901   3.734  10.343 -1.1380  0.0890  0.4132
   18CHL1   H3' 1262   5.927   3.794  10.414 -0.0763  1.9896 -1.4672
   18CHL1    C4 1263   5.828   3.838  10.142  0.4602  0.6926  0.2463
   18CHL1   H4A 1264   5.743   3.767  10.149  0.2607  0.8310 -0.6581
   18CHL1   H4B 1265   5.783   3.924  10.196 -0.6824  0.5276 -0.4171
   18CHL1    C5 1266   5.863   3.869   9.999  0.0323  0.3137 -0.1717
   18CHL1    C6 1267   5.848   3.997   9.943  0.0657 -0.2334 -0.2089
   18CHL1    H6 1268   5.796   4.063  10.014  1.6819 -0.2920  1.0809
   18CHL1    C7 1269   5.886   4.037   9.805  0.0405 -0.6999  0.2776
   18CHL1   H7A 1270   5.808   4.098   9.756  1.5494 -0.7269 -2.3383
   18CHL1   H7B 1271   5.984   4.089   9.801  0.3157 -1.2552 -2.5406
   18CHL1    C8 1272   5.908   3.915   9.717  0.5580 -0.1664 -0.6701
   18CHL1    H8 1273   5.810   3.872   9.686  1.7886 -1.0390 -3.7073
   18CHL1   C14 1274   5.974   3.955   9.585  0.7102 -0.2532 -0.2123
   18CHL1   H14 1275   6.072   3.996   9.618  0.7135  0.2816 -0.8655
   18CHL1   C15 1276   5.924   4.071   9.504  0.4363  0.4295 -0.6370
   18CHL1  H15A 1277   5.813   4.069   9.502  0.3543 -0.8901  1.4690
   18CHL1  H15B 1278   5.948   4.168   9.554 -0.4814  0.5706 -0.4364
   18CHL1   C16 1279   5.972   4.052   9.364 -0.3760  0.1190  0.3007
   18CHL1  H16A 1280   5.892   4.034   9.288  1.8174 -3.9604 -1.3481
   18CHL1  H16B 1281   6.022   4.144   9.326 -0.0853 -0.0026  0.3903
   18CHL1   C17 1282   6.052   3.914   9.359 -0.1477 -0.0682  0.3335
   18CHL1   H17 1283   6.160   3.932   9.378  0.1881 -0.0126 -1.4765
   18CHL1   C13 1284   5.991   3.840   9.485 -0.0439 -0.3075  0.1277
   18CHL1   C18 1285   5.862   3.763   9.447 -1.0246  0.6064  0.0441
   18CHL1  H18A 1286   5.804   3.747   9.540 -2.2518  1.1777 -0.6004
   18CHL1  H18B 1287   5.795   3.826   9.385 -1.9288 -1.6410 -1.4021
   18CHL1  H18C 1288   5.891   3.668   9.397 -4.0595 -0.5759  0.2696
   18CHL1   C12 1289   6.093   3.756   9.565  0.5151  0.5601 -0.4688
   18CHL1  H12A 1290   6.111   3.668   9.500  3.2945  1.9880 -1.8382
   18CHL1  H12B 1291   6.184   3.818   9.577  1.1251 -0.0433 -1.7887
   18CHL1   C11 1292   6.046   3.703   9.696 -0.6119  0.5306 -0.9633
   18CHL1  H11A 1293   5.968   3.626   9.679 -0.6717 -0.0220  1.5153
   18CHL1  H11B 1294   6.133   3.655   9.745 -1.5734  0.1878  0.4737
   18CHL1    C9 1295   5.990   3.816   9.794 -0.4994  0.0309  0.4155
   18CHL1    H9 1296   6.088   3.858   9.824 -0.4010 -0.5774  0.9786
   18CHL1   C10 1297   5.935   3.759   9.922  0.8592  0.1220  0.1619
   18CHL1   C19 1298   5.830   3.649   9.893 -0.2386 -0.7588 -0.3807
   18CHL1  H19A 1299   5.867   3.554   9.850 -1.0523 -0.3386 -2.1228
   18CHL1  H19B 1300   5.773   3.626   9.985 -2.1903 -0.9853 -1.5671
   18CHL1  H19C 1301   5.758   3.681   9.814  0.4598 -1.3895 -1.3046
   18CHL1    C1 1302   6.051   3.704  10.009 -0.1406  0.6927  0.9328
   18CHL1   H1A 1303   6.085   3.615   9.950 -2.1179 -0.1196  0.9417
   18CHL1   H1B 1304   6.131   3.781  10.010 -0.8906  1.6177 -1.8300
   18CHL1    C2 1305   6.015   3.664  10.147 -0.2314  0.8119  0.2516
   18CHL1   H2A 1306   6.102   3.615  10.194  1.2196  1.0142 -2.0801
   18CHL1   H2B 1307   5.938   3.586  10.127  0.6324  0.0970 -0.3355
   18CHL1   C20 1308   6.048   3.845   9.225 -0.3095  0.5315 -0.0462
   18CHL1   H20 1309   5.941   3.820   9.214  0.1678 -3.3626  2.4499
   18CHL1   C21 1310   6.140   3.718   9.224  0.4664 -0.0085 -0.5379
   18CHL1  H21A 1311   6.242   3.752   9.255 -0.0485  0.6183  0.5167
   18CHL1  H21B 1312   6.154   3.676   9.122  2.0274  0.3685 -0.5088
   18CHL1  H21C 1313   6.092   3.646   9.295 -1.2299  3.0828  1.6757
   18CHL1   C22 1314   6.087   3.943   9.118 -0.5094 -0.4974  0.1855
   18CHL1  H22A 1315   5.995   3.997   9.085 -0.6537 -0.6782  0.2922
   18CHL1  H22B 1316   6.157   4.023   9.151 -2.3518  2.9041 -3.2305
   18CHL1   C23 1317   6.156   3.890   8.990  0.0024  0.8338  0.3770
   18CHL1  H23A 1318   6.254   3.847   9.019  0.0560  0.6688 -0.0455
   18CHL1  H23B 1319   6.097   3.807   8.947  1.8693 -0.4899  0.2909
   18CHL1   C24 1320   6.169   4.000   8.884  0.0880 -0.9671 -0.3017
   18CHL1  H24A 1321   6.211   4.095   8.924 -1.0865 -0.8378  0.6752
   18CHL1  H24B 1322   6.253   3.970   8.818 -0.5413 -0.2446 -1.4605
   18CHL1   C25 1323   6.044   4.037   8.795 -0.6327 -0.0240 -0.6196
   18CHL1   H25 1324   6.003   3.937   8.769 -1.8982 -0.2640  2.0225
   18CHL1   C26 1325   5.929   4.110   8.863 -0.1538  0.2065  0.1502
   18CHL1  H26A 1326   5.952   4.207   8.913  0.4351  0.4004 -0.4890
   18CHL1  H26B 1327   5.839   4.124   8.799  0.8849 -0.9099 -1.6574
   18CHL1  H26C 1328   5.894   4.038   8.940  1.5308  0.5926  1.3351
   18CHL1   C27 1329   6.096   4.105   8.664 -0.0923  0.0999 -0.3373
   18CHL1  H27A 1330   6.184   4.057   8.616  0.2964  1.5561 -1.1209
   18CHL1  H27B 1331   6.024   4.114   8.580  1.0539 -1.1667 -1.5130
   18CHL1  H27C 1332   6.136   4.205   8.689 -1.0619  0.8835 -1.7820
   19CHL1    C3 1333   1.473   0.464  10.311  1.0689  0.2306  0.1220
   19CHL1    H3 1334   1.511   0.566  10.331  0.8506  0.3919 -0.2770
   19CHL1    O3 1335   1.448   0.390  10.430  0.4519  0.0438 -0.3515
   19CHL1   H3' 1336   1.423   0.309  10.384 -0.8155  0.5741 -0.6394
   19CHL1    C4 1337   1.338   0.479  10.242  0.0084  0.5084 -0.1152
   19CHL1   H4A 1338   1.303   0.375  10.221  0.6515  0.5203 -1.2980
   19CHL1   H4B 1339   1.264   0.532  10.305 -2.3037  0.9101 -2.9134
   19CHL1    C5 1340   1.356   0.557  10.111 -0.4014  0.0286  0.4900
   19CHL1    C6 1341   1.283   0.665  10.079 -0.4608  0.0968 -0.4296
   19CHL1    H6 1342   1.216   0.715  10.150  1.4093  0.8819  0.8906
   19CHL1    C7 1343   1.294   0.724   9.940  0.2092  0.0224 -0.1118
   19CHL1   H7A 1344   1.194   0.750   9.897 -1.0471 -3.9617  0.0094
   19CHL1   H7B 1345   1.358   0.814   9.947  0.0871  0.2706 -1.7257
   19CHL1    C8 1346   1.358   0.630   9.826  0.2115  0.3396 -0.8025
   19CHL1    H8 1347   1.280   0.554   9.803 -0.2573  0.3110  0.7867
   19CHL1   C14 1348   1.391   0.701   9.700 -0.7922 -0.8350  0.1497
   19CHL1   H14 1349   1.477   0.767   9.726  0.4902 -1.9577 -1.0988
   19CHL1   C15 1350   1.281   0.802   9.641 -1.0577  0.5103 -0.3990
   19CHL1  H15A 1351   1.182   0.753   9.628  0.3955 -3.2340  1.0991
   19CHL1  H15B 1352   1.268   0.880   9.719 -0.8584  0.0889  0.0665
   19CHL1   C16 1353   1.340   0.829   9.503  0.5509 -0.8327 -0.6892
   19CHL1  H16A 1354   1.254   0.804   9.437  1.3110 -3.3861 -0.7966
   19CHL1  H16B 1355   1.355   0.938   9.491 -2.2893  0.1931  2.9776
   19CHL1   C17 1356   1.470   0.741   9.485  0.5098 -0.3534  0.2860
   19CHL1   H17 1357   1.563   0.797   9.509  0.7969  0.1820 -1.8346
   19CHL1   C13 1358   1.450   0.621   9.582  0.2984 -0.0967 -0.2102
   19CHL1   C18 1359   1.333   0.535   9.530 -0.6178  0.0223  0.4673
   19CHL1  H18A 1360   1.300   0.447   9.590 -1.6432  0.1249  0.0803
   19CHL1  H18B 1361   1.238   0.591   9.513 -0.5189  0.7431  2.0825
   19CHL1  H18C 1362   1.353   0.494   9.429 -1.6639  1.9445 -0.5846
   19CHL1   C12 1363   1.574   0.552   9.640 -0.1191 -0.7767  0.2403
   19CHL1  H12A 1364   1.613   0.478   9.567 -1.8089  0.4871 -2.0593
   19CHL1  H12B 1365   1.646   0.637   9.645 -2.2550  1.2118 -0.7150
   19CHL1   C11 1366   1.544   0.477   9.770 -0.4122  1.2263 -0.1592
   19CHL1  H11A 1367   1.474   0.397   9.739 -0.7476  0.7698  1.6723
   19CHL1  H11B 1368   1.639   0.441   9.814  0.1783  1.0053 -1.5595
   19CHL1    C9 1369   1.479   0.558   9.884 -0.3711 -0.0436  0.7273
   19CHL1    H9 1370   1.545   0.641   9.915  1.5741  0.1517 -3.2694
   19CHL1   C10 1371   1.449   0.483  10.013  0.3934 -0.4908  0.8829
   19CHL1   C19 1372   1.387   0.342   9.973  0.4784 -0.3560 -0.4809
   19CHL1  H19A 1373   1.293   0.365   9.917  0.5368  1.0795 -0.0245
   19CHL1  H19B 1374   1.460   0.289   9.908 -0.0827  1.2871 -2.5765
   19CHL1  H19C 1375   1.352   0.282  10.060  1.4227  0.1649  0.2793
   19CHL1    C1 1376   1.589   0.459  10.087 -0.2525  0.4244 -0.1198
   19CHL1   H1A 1377   1.644   0.383  10.027 -1.2764 -1.3679  1.0836
   19CHL1   H1B 1378   1.640   0.556  10.100 -2.6751  1.8356 -0.5472
   19CHL1    C2 1379   1.573   0.387  10.223  0.2285 -0.1363  0.5632
   19CHL1   H2A 1380   1.675   0.381  10.266  1.2225  0.3750 -1.5876
   19CHL1   H2B 1381   1.534   0.284  10.209  1.9129 -0.6620 -0.5086
   19CHL1   C20 1382   1.487   0.702   9.338 -0.4289  0.4720 -0.1678
   19CHL1   H20 1383   1.417   0.625   9.298  1.5095 -1.9648  0.8425
   19CHL1   C21 1384   1.621   0.627   9.320  0.0900  0.1100 -0.5683
   19CHL1  H21A 1385   1.634   0.575   9.223 -2.0237 -1.2625 -0.1793
   19CHL1  H21B 1386   1.619   0.543   9.394 -1.4083  0.0563 -0.6437
   19CHL1  H21C 1387   1.704   0.696   9.344 -1.1272  1.1362  0.9104
   19CHL1   C22 1388   1.483   0.826   9.241 -0.0142  0.0781 -0.3075
   19CHL1  H22A 1389   1.383   0.874   9.233  0.1151  0.1461 -1.6520
   19CHL1  H22B 1390   1.559   0.903   9.268  0.3960  0.3286 -2.0921
   19CHL1   C23 1391   1.525   0.799   9.098 -0.4286  0.3081  0.4666
   19CHL1  H23A 1392   1.626   0.753   9.088 -1.2751 -1.2663 -1.7532
   19CHL1  H23B 1393   1.463   0.725   9.043  0.3099  2.7127 -4.0474
   19CHL1   C24 1394   1.509   0.929   9.017  0.3672  1.0779  0.7992
   19CHL1  H24A 1395   1.403   0.962   9.028 -0.3151  0.4000 -2.5253
   19CHL1  H24B 1396   1.585   1.002   9.054  2.2867 -0.0854 -0.6557
   19CHL1   C25 1397   1.543   0.898   8.866  0.1428 -1.2950 -0.6423
   19CHL1   H25 1398   1.517   0.791   8.846 -1.5472 -1.1412  0.5397
   19CHL1   C26 1399   1.471   0.996   8.767 -0.6295 -0.2304 -0.7635
   19CHL1  H26A 1400   1.482   0.950   8.666 -0.1280 -1.6770 -0.0758
   19CHL1  H26B 1401   1.363   1.003   8.789 -0.5340 -1.1887  0.0774
   19CHL1  H26C 1402   1.516   1.097   8.773 -0.1491 -0.5218  0.8562
   19CHL1   C27 1403   1.696   0.930   8.857 -0.1323 -0.7891 -0.0513
   19CHL1  H27A 1404   1.762   0.856   8.908 -0.8143 -0.3229  1.5568
   19CHL1  H27B 1405   1.721   0.928   8.748 -0.0343 -1.5525 -0.0195
   19CHL1  H27C 1406   1.716   1.032   8.895  0.9164 -1.3222  0.8831
   20CHL1    C3 1407   3.869   5.807  10.556  0.1953 -0.3498 -0.5244
   20CHL1    H3 1408   3.774   5.853  10.520 -0.2314 -2.5777 -2.5189
   20CHL1    O3 1409   3.866   5.778  10.697 -0.4148 -0.3922  0.0502
   20CHL1   H3' 1410   3.952   5.735  10.705  0.5316  1.0609 -1.5519
   20CHL1    C4 1411   3.885   5.669  10.477  0.6049 -0.8433  0.6459
   20CHL1   H4A 1412   3.980   5.633  10.521  0.0197 -0.4257  2.3038
   20CHL1   H4B 1413   3.793   5.610  10.494 -0.5429  0.6841  0.0289
   20CHL1    C5 1414   3.899   5.699  10.327  0.7856  0.4429  0.7667
   20CHL1    C6 1415   3.816   5.637  10.232  0.3998 -0.7609  0.1348
   20CHL1    H6 1416   3.736   5.569  10.265 -0.5971 -1.3083 -3.0798
   20CHL1    C7 1417   3.829   5.656  10.079  1.1384 -0.5398 -0.0674
   20CHL1   H7A 1418   3.819   5.555  10.034 -0.6461 -0.0548 -0.8218
   20CHL1   H7B 1419   3.752   5.720  10.032  1.6634  0.3008  0.1918
   20CHL1    C8 1420   3.967   5.717  10.044  0.0733 -0.0515  0.1852
   20CHL1    H8 1421   4.041   5.637  10.066 -0.0072 -0.2382 -0.2078
   20CHL1   C14 1422   3.973   5.756   9.902  0.1352 -0.1352  0.0398
   20CHL1   H14 1423   3.899   5.837   9.883 -0.7600 -1.0738 -0.5593
   20CHL1   C15 1424   3.930   5.652   9.796 -0.3821  0.0866 -0.7854
   20CHL1  H15A 1425   3.963   5.550   9.824 -0.0756  0.1961 -0.7380
   20CHL1  H15B 1426   3.820   5.643   9.782 -0.5168  0.6836 -0.1918
   20CHL1   C16 1427   4.003   5.685   9.669 -0.4095 -0.3549 -1.0432
   20CHL1  H16A 1428   4.079   5.606   9.649  2.1397  0.7621  2.9866
   20CHL1  H16B 1429   3.929   5.691   9.586 -1.0299 -3.0839 -0.8088
   20CHL1   C17 1430   4.083   5.820   9.695  0.0523  0.2828  0.0594
   20CHL1   H17 1431   4.013   5.902   9.671 -1.6498 -1.4794 -1.2870
   20CHL1   C13 1432   4.113   5.812   9.848  0.6378 -0.1405 -0.5566
   20CHL1   C18 1433   4.214   5.702   9.872 -0.5225 -0.1837 -0.4984
   20CHL1  H18A 1434   4.224   5.686   9.981 -0.9258  1.8631 -0.1044
   20CHL1  H18B 1435   4.193   5.607   9.819  2.2658 -1.3994  0.4443
   20CHL1  H18C 1436   4.318   5.721   9.838  0.0830  1.2884  1.9262
   20CHL1   C12 1437   4.123   5.941   9.928 -0.0908  0.3603  0.1733
   20CHL1  H12A 1438   4.220   5.991   9.905  0.1485  0.3745  1.1723
   20CHL1  H12B 1439   4.039   6.007   9.900 -0.5747  0.0325  0.8375
   20CHL1   C11 1440   4.115   5.917  10.081 -0.2339  0.1582 -1.0186
   20CHL1  H11A 1441   4.213   5.875  10.110 -0.5884  1.1159  2.0066
   20CHL1  H11B 1442   4.104   6.018  10.126 -0.8356 -0.9218  1.4540
   20CHL1    C9 1443   3.997   5.833  10.135  0.7060 -0.1420 -0.0160
   20CHL1    H9 1444   3.916   5.907  10.121  1.9217  1.3910  0.7957
   20CHL1   C10 1445   4.006   5.792  10.283 -0.0112 -0.4691  0.2375
   20CHL1   C19 1446   4.144   5.721  10.311  0.1473 -0.7003  0.5581
   20CHL1  H19A 1447   4.154   5.673  10.411  0.8248 -1.0983  0.3044
   20CHL1  H19B 1448   4.162   5.641  10.237 -1.4490 -0.4566 -0.1280
   20CHL1  H19C 1449   4.222   5.798  10.290 -0.3000 -0.6279 -0.9060
   20CHL1    C1 1450   4.000   5.919  10.378  0.4876  0.0467  0.7962
   20CHL1   H1A 1451   4.089   5.978  10.348  0.3737 -0.1563  0.0373
   20CHL1   H1B 1452   3.917   5.980  10.335  0.0717 -0.6739  0.5439
   20CHL1    C2 1453   3.987   5.893  10.529 -0.2315 -0.5703  0.3001
   20CHL1   H2A 1454   3.969   5.990  10.581 -1.0177  0.2335 -1.3949
   20CHL1   H2B 1455   4.082   5.850  10.566  1.4299  1.9139 -0.8006
   20CHL1   C20 1456   4.206   5.847   9.602  0.0570  0.0180  0.4349
   20CHL1   H20 1457   4.294   5.785   9.629  0.6421  0.9203  0.6293
   20CHL1   C21 1458   4.245   5.992   9.617 -0.3292 -0.3056  0.3934
   20CHL1  H21A 1459   4.166   6.070   9.607  0.9735  1.0699  0.4210
   20CHL1  H21B 1460   4.325   6.023   9.546  1.5773  0.8011  2.8918
   20CHL1  H21C 1461   4.298   6.020   9.711  2.8919  0.0738 -1.3729
   20CHL1   C22 1462   4.174   5.810   9.449 -0.3734  0.3906  0.4364
   20CHL1  H22A 1463   4.135   5.707   9.447 -0.3581  0.3851  0.4248
   20CHL1  H22B 1464   4.090   5.879   9.427 -0.0518  1.1748  1.5807
   20CHL1   C23 1465   4.290   5.831   9.351 -0.4320 -0.2692  1.0740
   20CHL1  H23A 1466   4.320   5.938   9.342  0.8106 -0.6217  0.8611
   20CHL1  H23B 1467   4.381   5.776   9.383 -0.8719 -1.5365  0.1982
   20CHL1   C24 1468   4.265   5.780   9.202  0.0421 -0.1885  0.1988
   20CHL1  H24A 1469   4.251   5.670   9.192  0.8012 -0.4141  1.4007
   20CHL1  H24B 1470   4.182   5.842   9.162  1.2439  1.1904 -0.2715
   20CHL1   C25 1471   4.373   5.820   9.099 -0.3810  0.6468 -0.0725
   20CHL1   H25 1472   4.381   5.931   9.099 -1.4179  0.7664  2.0678
   20CHL1   C26 1473   4.507   5.760   9.128  0.1667  0.1706  0.7718
   20CHL1  H26A 1474   4.519   5.650   9.132  1.2301  0.2808  1.3021
   20CHL1  H26B 1475   4.584   5.795   9.056 -0.6620  0.6483  0.0977
   20CHL1  H26C 1476   4.544   5.815   9.218 -1.6068  1.7130  0.6083
   20CHL1   C27 1477   4.331   5.774   8.963  0.4348 -0.7762 -0.0269
   20CHL1  H27A 1478   4.412   5.800   8.891  0.2973 -1.9640 -0.6368
   20CHL1  H27B 1479   4.318   5.664   8.951 -0.5807 -0.4099 -3.5849
   20CHL1  H27C 1480   4.232   5.820   8.942  0.4835  1.4753  3.7502
   21CHL1    C3 1481   2.161   4.771  10.000  0.0252 -1.3067  0.2588
   21CHL1    H3 1482   2.265   4.745   9.971  0.7908  1.7461 -0.0806
   21CHL1    O3 1483   2.150   4.758  10.142 -0.3229  0.4164  0.3220
   21CHL1   H3' 1484   2.057   4.755  10.164  0.0913 -0.2664  2.1179
   21CHL1    C4 1485   2.133   4.914   9.953 -0.1482  0.3789 -0.8436
   21CHL1   H4A 1486   2.039   4.952   9.998 -0.0020  1.0373 -1.0810
   21CHL1   H4B 1487   2.221   4.961  10.001  0.4392 -2.0785  0.6357
   21CHL1    C5 1488   2.132   4.924   9.802  0.6111 -0.1638  0.0657
   21CHL1    C6 1489   2.207   5.020   9.745  1.0440  0.4322  0.4179
   21CHL1    H6 1490   2.276   5.083   9.803  2.4738 -0.7664  0.0851
   21CHL1    C7 1491   2.215   5.039   9.600  0.1491  0.2850  0.1391
   21CHL1   H7A 1492   2.213   5.142   9.558  1.1047  0.1715 -0.2205
   21CHL1   H7B 1493   2.313   5.005   9.559  1.0841  1.2440  1.4826
   21CHL1    C8 1494   2.100   4.967   9.519 -0.0103  0.2041  0.3464
   21CHL1    H8 1495   2.007   5.025   9.538  1.0910  2.5477 -0.9506
   21CHL1   C14 1496   2.121   4.961   9.368  0.7043  0.0403 -0.3105
   21CHL1   H14 1497   2.217   4.906   9.356 -0.8951 -2.2401 -4.4227
   21CHL1   C15 1498   2.150   5.086   9.285 -0.1977 -0.1334  0.1345
   21CHL1  H15A 1499   2.069   5.161   9.293  1.2686  1.4970  0.3209
   21CHL1  H15B 1500   2.246   5.137   9.310  0.2386 -0.6112 -0.5184
   21CHL1   C16 1501   2.135   5.037   9.136  0.4577  0.1716 -0.5736
   21CHL1  H16A 1502   2.050   5.091   9.091  0.2886  0.6571  0.3007
   21CHL1  H16B 1503   2.231   5.055   9.083  0.0377  0.8476 -1.1222
   21CHL1   C17 1504   2.094   4.889   9.143 -0.5008 -0.0760  0.6442
   21CHL1   H17 1505   2.184   4.824   9.135  0.7032  1.6001 -0.2032
   21CHL1   C13 1506   2.025   4.872   9.280 -1.0620 -0.0037 -0.1604
   21CHL1   C18 1507   1.880   4.936   9.276  0.5014  0.2734 -1.1021
   21CHL1  H18A 1508   1.823   4.874   9.203  0.3489 -2.7585  1.3392
   21CHL1  H18B 1509   1.828   4.926   9.374 -1.4466  1.1121 -2.0072
   21CHL1  H18C 1510   1.885   5.044   9.254 -0.7459  0.5086 -0.3096
   21CHL1   C12 1511   2.037   4.731   9.339 -0.1284 -0.0149  0.0284
   21CHL1  H12A 1512   1.973   4.665   9.276 -0.1415  0.4184 -0.4145
   21CHL1  H12B 1513   2.142   4.695   9.333  0.2285  0.9926  0.0156
   21CHL1   C11 1514   1.994   4.730   9.481  0.0029 -0.2011  0.2195
   21CHL1  H11A 1515   1.885   4.749   9.493 -0.8009 -2.2517 -2.6474
   21CHL1  H11B 1516   2.008   4.624   9.512 -0.9543 -0.5143 -0.3476
   21CHL1    C9 1517   2.088   4.820   9.573  0.5089 -0.2720  0.8336
   21CHL1    H9 1518   2.188   4.772   9.569  0.4058 -0.4107 -0.3408
   21CHL1   C10 1519   2.042   4.818   9.723  0.0128  0.0294  0.4036
   21CHL1   C19 1520   1.891   4.847   9.750 -0.1989 -0.1369 -0.0613
   21CHL1  H19A 1521   1.874   4.822   9.857  1.1506 -0.2689  0.1409
   21CHL1  H19B 1522   1.885   4.957   9.736 -0.4097 -0.0152  0.9073
   21CHL1  H19C 1523   1.826   4.784   9.687 -0.1035 -0.6471  0.3418
   21CHL1    C1 1524   2.077   4.677   9.779  0.0800 -0.0364  0.1309
   21CHL1   H1A 1525   2.021   4.588   9.741  0.0389 -0.4255  1.0703
   21CHL1   H1B 1526   2.184   4.665   9.751  0.1439  1.4227 -0.3154
   21CHL1    C2 1527   2.069   4.675   9.935 -0.0357  0.7960  0.0640
   21CHL1   H2A 1528   2.100   4.570   9.956  1.4052  0.9276 -1.3220
   21CHL1   H2B 1529   1.963   4.681   9.968 -0.5722 -2.0680 -0.8465
   21CHL1   C20 1530   2.013   4.861   9.014  0.2999 -0.3327  0.3348
   21CHL1   H20 1531   1.938   4.942   9.013 -0.4730 -0.9617  2.4369
   21CHL1   C21 1532   1.951   4.722   9.016  0.7863  0.0930  0.1631
   21CHL1  H21A 1533   1.866   4.719   9.087  1.9805 -0.5872  1.6085
   21CHL1  H21B 1534   2.017   4.640   9.052 -0.1848 -2.7602 -3.7583
   21CHL1  H21C 1535   1.923   4.703   8.910  1.7584 -2.2596  0.2607
   21CHL1   C22 1536   2.102   4.872   8.885  0.0260  0.1612  0.0659
   21CHL1  H22A 1537   2.034   4.848   8.801  0.9391 -0.2389 -0.5717
   21CHL1  H22B 1538   2.132   4.978   8.878 -0.6588  0.2891 -1.1562
   21CHL1   C23 1539   2.221   4.772   8.883 -0.5308 -0.0463 -0.0941
   21CHL1  H23A 1540   2.301   4.798   8.955 -0.1794 -1.1770 -0.0461
   21CHL1  H23B 1541   2.187   4.672   8.917  3.9713 -1.1625  1.9004
   21CHL1   C24 1542   2.281   4.749   8.746 -0.4494  0.1181 -0.2441
   21CHL1  H24A 1543   2.204   4.749   8.665 -0.4182  0.3606 -0.2728
   21CHL1  H24B 1544   2.336   4.841   8.717 -0.3772  0.3886  0.7211
   21CHL1   C25 1545   2.384   4.623   8.756  0.0084 -0.4363 -0.1116
   21CHL1   H25 1546   2.337   4.542   8.815  1.2399 -0.2640  1.1423
   21CHL1   C26 1547   2.405   4.555   8.612 -0.0444  0.4213 -0.2379
   21CHL1  H26A 1548   2.452   4.630   8.544 -1.8030  1.4230 -0.3911
   21CHL1  H26B 1549   2.462   4.460   8.622 -2.8341 -1.3973 -0.4565
   21CHL1  H26C 1550   2.309   4.531   8.563  0.5119  0.4408 -1.3775
   21CHL1   C27 1551   2.521   4.659   8.807  0.2265 -0.1284 -0.3918
   21CHL1  H27A 1552   2.572   4.746   8.760 -0.4064 -0.2873 -1.4063
   21CHL1  H27B 1553   2.515   4.685   8.915  0.6992 -1.1520 -0.1139
   21CHL1  H27C 1554   2.594   4.576   8.807  1.1899  0.7028 -0.0610
   22CHL1    C3 1555   0.958   3.582  10.006  0.8964  0.7238 -0.5056
   22CHL1    H3 1556   0.871   3.518   9.981  0.8943  0.4554  0.1767
   22CHL1    O3 1557   0.960   3.612  10.140  0.4565 -1.0352 -0.2915
   22CHL1   H3' 1558   0.897   3.549  10.177 -0.0684 -1.8085 -2.3502
   22CHL1    C4 1559   1.090   3.516   9.962 -0.7656  0.0973 -0.3622
   22CHL1   H4A 1560   1.183   3.577   9.974 -1.5666  1.3448 -0.3567
   22CHL1   H4B 1561   1.119   3.422  10.014  0.3661 -0.4433 -1.8886
   22CHL1    C5 1562   1.078   3.478   9.817 -0.0612 -0.0619  0.4622
   22CHL1    C6 1563   1.085   3.356   9.767 -0.2606  0.3400 -0.3181
   22CHL1    H6 1564   1.107   3.266   9.826  0.1833  0.8837  0.3623
   22CHL1    C7 1565   1.094   3.325   9.624 -1.2338  0.4015  0.0707
   22CHL1   H7A 1566   1.183   3.262   9.603 -1.2506 -0.3664  2.1152
   22CHL1   H7B 1567   1.007   3.261   9.596 -0.2874  0.2890 -2.9857
   22CHL1    C8 1568   1.099   3.440   9.531  0.4128 -0.0668  0.1910
   22CHL1    H8 1569   1.206   3.469   9.527  0.5018 -0.2846  0.7813
   22CHL1   C14 1570   1.049   3.402   9.394  0.0958 -0.0961  0.0475
   22CHL1   H14 1571   0.945   3.370   9.418  0.2776 -0.6724  0.0771
   22CHL1   C15 1572   1.099   3.275   9.321  0.3798 -0.1365 -0.2323
   22CHL1  H15A 1573   1.208   3.270   9.298  0.6645  1.4980  0.6010
   22CHL1  H15B 1574   1.073   3.182   9.376 -0.9407  0.2541 -0.1796
   22CHL1   C16 1575   1.030   3.273   9.184 -0.5829  0.4036 -0.0248
   22CHL1  H16A 1576   1.106   3.257   9.104 -0.7891  1.0009 -0.3449
   22CHL1  H16B 1577   0.947   3.200   9.168  0.5859 -0.5072 -2.3788
   22CHL1   C17 1578   0.983   3.417   9.169  1.0034 -0.0808  0.2231
   22CHL1   H17 1579   0.875   3.404   9.192  1.6844 -3.1521  2.3543
   22CHL1   C13 1580   1.038   3.506   9.280  0.6792  0.5896  0.0049
   22CHL1   C18 1581   1.183   3.546   9.229  0.3215 -0.6141 -0.0769
   22CHL1  H18A 1582   1.225   3.601   9.316  1.3648  0.4365 -1.2129
   22CHL1  H18B 1583   1.244   3.455   9.211 -1.5620 -2.3766  1.8464
   22CHL1  H18C 1584   1.176   3.615   9.142  2.7239  0.6394  0.6307
   22CHL1   C12 1585   0.961   3.627   9.334 -0.2216  0.1343 -0.0804
   22CHL1  H12A 1586   0.979   3.709   9.261 -1.0684 -1.1042 -1.7234
   22CHL1  H12B 1587   0.855   3.598   9.352  0.3605 -1.0158  1.8707
   22CHL1   C11 1588   1.013   3.671   9.475 -0.1431 -0.7453 -0.4399
   22CHL1  H11A 1589   1.118   3.707   9.462  0.5549 -2.3720  0.4577
   22CHL1  H11B 1590   0.944   3.754   9.503  1.1378 -0.0268  0.7844
   22CHL1    C9 1591   1.011   3.556   9.582  0.3225  0.3881  0.0711
   22CHL1    H9 1592   0.910   3.509   9.579  0.2825  0.4476  0.4220
   22CHL1   C10 1593   1.042   3.600   9.726 -0.3460  0.2433 -0.3370
   22CHL1   C19 1594   1.166   3.690   9.722  0.2237 -0.6527 -0.4553
   22CHL1  H19A 1595   1.263   3.645   9.691  0.0961 -1.7897  0.6650
   22CHL1  H19B 1596   1.148   3.782   9.663 -0.7979 -1.3254 -1.2266
   22CHL1  H19C 1597   1.186   3.741   9.819 -0.2196 -1.8189  0.2699
   22CHL1    C1 1598   0.917   3.672   9.785  0.2640 -0.4348 -0.0021
   22CHL1   H1A 1599   0.896   3.760   9.720 -0.3119 -1.3455 -1.1031
   22CHL1   H1B 1600   0.836   3.598   9.768 -0.9054  0.6083  0.8098
   22CHL1    C2 1601   0.924   3.710   9.935  0.3935 -0.2243  0.6009
   22CHL1   H2A 1602   0.819   3.730   9.963 -0.3731 -0.5665 -1.8098
   22CHL1   H2B 1603   0.993   3.794   9.960 -1.1682  2.1331 -2.4417
   22CHL1   C20 1604   0.987   3.469   9.025  0.1482 -0.2065  0.6554
   22CHL1   H20 1605   1.091   3.502   9.003 -0.1159 -0.2523 -0.7487
   22CHL1   C21 1606   0.895   3.596   9.020 -0.1500 -0.3242  0.6432
   22CHL1  H21A 1607   0.900   3.644   8.920  1.9650  3.4702  2.3383
   22CHL1  H21B 1608   0.922   3.683   9.084  0.4660  0.2375 -0.3333
   22CHL1  H21C 1609   0.788   3.570   9.033 -0.6098  0.1259 -1.6610
   22CHL1   C22 1610   0.946   3.374   8.911  0.1519 -0.1661 -0.2979
   22CHL1  H22A 1611   0.997   3.275   8.918  1.0789  0.1601 -1.9434
   22CHL1  H22B 1612   0.836   3.358   8.908 -0.0176  0.5736  1.1935
   22CHL1   C23 1613   0.994   3.419   8.768  1.3351  0.2741  0.3040
   22CHL1  H23A 1614   0.938   3.515   8.767  0.7067 -0.0802  0.9518
   22CHL1  H23B 1615   1.100   3.451   8.765  1.7500 -1.1127 -0.9911
   22CHL1   C24 1616   0.972   3.311   8.657  0.2377 -1.1942 -0.0849
   22CHL1  H24A 1617   1.012   3.225   8.714  0.5094  0.8119  2.9939
   22CHL1  H24B 1618   0.863   3.300   8.643 -0.0445  1.1686 -0.1325
   22CHL1   C25 1619   1.039   3.352   8.527 -0.3656  0.2486  0.1264
   22CHL1   H25 1620   1.147   3.369   8.547  0.0131  0.1102 -1.6162
   22CHL1   C26 1621   1.009   3.241   8.422 -0.2849  0.1081  0.1116
   22CHL1  H26A 1622   0.905   3.242   8.384 -0.2593  0.0916  0.0397
   22CHL1  H26B 1623   1.058   3.263   8.324 -2.1362  0.0478 -0.8748
   22CHL1  H26C 1624   1.049   3.140   8.443  1.6341  0.5986 -0.9340
   22CHL1   C27 1625   0.965   3.479   8.469 -0.5873 -0.3239 -0.7401
   22CHL1  H27A 1626   0.966   3.563   8.542 -0.7929 -1.3969  0.5601
   22CHL1  H27B 1627   1.024   3.503   8.379  0.5727 -1.7237 -0.3966
   22CHL1  H27C 1628   0.857   3.454   8.460 -0.5253 -0.7010 -0.4554
   23CHL1    C3 1629   5.033   5.429  10.165 -0.3574 -1.2013 -0.0355
   23CHL1    H3 1630   4.930   5.445  10.127 -0.1763  1.1649  0.3532
   23CHL1    O3 1631   5.033   5.373  10.294  0.4872 -0.7225 -0.5087
   23CHL1   H3' 1632   5.026   5.450  10.351  3.0595  0.4060 -1.5345
   23CHL1    C4 1633   5.103   5.330  10.071 -0.6441 -0.3720  0.4656
   23CHL1   H4A 1634   5.205   5.307  10.107  0.1238 -1.5698 -2.2029
   23CHL1   H4B 1635   5.041   5.238  10.083  0.2773 -1.0990 -0.1951
   23CHL1    C5 1636   5.123   5.376   9.928  0.8490  0.7494 -0.0180
   23CHL1    C6 1637   5.057   5.313   9.828 -0.4487  0.8995  0.3919
   23CHL1    H6 1638   4.998   5.223   9.846  1.9628 -1.2893 -1.7223
   23CHL1    C7 1639   5.067   5.351   9.683 -0.1588 -0.8868  0.5970
   23CHL1   H7A 1640   5.063   5.261   9.618 -1.5237 -0.1167 -0.4248
   23CHL1   H7B 1641   4.972   5.407   9.671 -0.1818 -0.4393  2.5919
   23CHL1    C8 1642   5.182   5.454   9.666 -0.6065 -0.2432 -0.1971
   23CHL1    H8 1643   5.280   5.401   9.663  1.5718  3.4256 -0.9055
   23CHL1   C14 1644   5.157   5.513   9.522  0.1331 -0.2966  0.4319
   23CHL1   H14 1645   5.064   5.573   9.531  1.2596  1.1758  3.8185
   23CHL1   C15 1646   5.143   5.409   9.414 -0.4713  0.6017  0.3434
   23CHL1  H15A 1647   5.223   5.332   9.426  0.7867  1.4558 -1.9956
   23CHL1  H15B 1648   5.044   5.359   9.416  0.1404 -0.6293  0.9219
   23CHL1   C16 1649   5.164   5.481   9.280 -0.0991 -0.4467 -0.4221
   23CHL1  H16A 1650   5.228   5.418   9.214  2.1868  2.3435 -1.0785
   23CHL1  H16B 1651   5.061   5.486   9.238 -0.0205  1.6624 -0.4342
   23CHL1   C17 1652   5.216   5.623   9.329  0.2976 -0.3535  0.5760
   23CHL1   H17 1653   5.127   5.689   9.331 -0.2655 -1.0517 -0.6714
   23CHL1   C13 1654   5.262   5.611   9.475  0.0008  0.2604  0.2224
   23CHL1   C18 1655   5.403   5.548   9.483  0.2549 -0.4251  0.4778
   23CHL1  H18A 1656   5.400   5.460   9.416 -1.6303 -0.0961  0.0920
   23CHL1  H18B 1657   5.476   5.628   9.456  0.3375  0.0206  1.9106
   23CHL1  H18C 1658   5.445   5.513   9.580 -1.7609  1.1907  2.0377
   23CHL1   C12 1659   5.239   5.730   9.575 -0.1396  0.4852 -0.4501
   23CHL1  H12A 1660   5.311   5.811   9.549  1.4191 -1.0054 -1.0267
   23CHL1  H12B 1661   5.137   5.770   9.556 -0.3532 -0.3660 -1.1778
   23CHL1   C11 1662   5.265   5.682   9.721 -0.0992  0.4473 -0.2760
   23CHL1  H11A 1663   5.374   5.660   9.736 -0.5459 -1.7329  0.1862
   23CHL1  H11B 1664   5.242   5.770   9.784  1.9390 -0.0339  1.2508
   23CHL1    C9 1665   5.177   5.565   9.766 -0.1992  0.1264  0.0155
   23CHL1    H9 1666   5.070   5.594   9.756 -0.1426  0.9962  1.6323
   23CHL1   C10 1667   5.192   5.506   9.913  0.4435 -0.0944 -0.4822
   23CHL1   C19 1668   5.343   5.486   9.948 -0.3120  0.5356 -0.5443
   23CHL1  H19A 1669   5.388   5.410   9.879 -0.9518 -0.3854  0.0274
   23CHL1  H19B 1670   5.398   5.582   9.953  0.7107  0.1200 -2.5805
   23CHL1  H19C 1671   5.357   5.454  10.053 -1.2601 -0.8639 -0.8110
   23CHL1    C1 1672   5.120   5.609  10.015  0.4505 -0.0330  0.4153
   23CHL1   H1A 1673   5.163   5.710  10.002  0.9357  0.0082  2.0811
   23CHL1   H1B 1674   5.015   5.627   9.982 -0.3232  3.8912  4.1890
   23CHL1    C2 1675   5.111   5.568  10.161  0.1905  0.1030  0.4378
   23CHL1   H2A 1676   5.045   5.642  10.212  0.8443  2.0102 -1.3075
   23CHL1   H2B 1677   5.210   5.554  10.209 -1.1885 -0.7040  3.2010
   23CHL1   C20 1678   5.323   5.680   9.227  0.5631  0.0063  0.0897
   23CHL1   H20 1679   5.417   5.623   9.242  1.6849  1.5364 -0.8394
   23CHL1   C21 1680   5.357   5.823   9.273  0.0205  0.1658  0.3847
   23CHL1  H21A 1681   5.405   5.824   9.374 -0.5272  1.7093  0.6608
   23CHL1  H21B 1682   5.262   5.881   9.284 -1.5704 -2.1317 -0.3513
   23CHL1  H21C 1683   5.422   5.886   9.210 -0.6126  0.9818  0.5381
   23CHL1   C22 1684   5.285   5.683   9.074 -0.0565  0.8075 -1.2286
   23CHL1  H22A 1685   5.240   5.586   9.041 -1.1768 -0.3419  3.0231
   23CHL1  H22B 1686   5.204   5.755   9.049  0.6989  1.5785 -1.4942
   23CHL1   C23 1687   5.398   5.709   8.980  0.1154 -0.5121 -0.3078
   23CHL1  H23A 1688   5.440   5.806   9.014  0.8041 -0.1545 -2.0327
   23CHL1  H23B 1689   5.470   5.628   9.007 -0.3034 -0.2534  1.7135
   23CHL1   C24 1690   5.359   5.703   8.835 -0.6400  0.3787 -0.4133
   23CHL1  H24A 1691   5.290   5.782   8.798 -0.2728  1.7152  1.5654
   23CHL1  H24B 1692   5.456   5.734   8.792  0.5669 -1.6933  0.6505
   23CHL1   C25 1693   5.322   5.566   8.774  0.3717 -0.1185  0.1119
   23CHL1   H25 1694   5.305   5.494   8.857 -2.7479  0.8890  0.4594
   23CHL1   C26 1695   5.185   5.583   8.710 -0.4858  0.2215 -0.0861
   23CHL1  H26A 1696   5.189   5.655   8.624 -0.9235 -1.1073 -1.2596
   23CHL1  H26B 1697   5.155   5.495   8.650 -4.4060  1.9262 -0.9759
   23CHL1  H26C 1698   5.104   5.606   8.783 -1.6407  1.4693 -1.6604
   23CHL1   C27 1699   5.436   5.528   8.677 -0.5679  0.6211 -0.3836
   23CHL1  H27A 1700   5.403   5.441   8.617 -1.0992 -0.7803  1.8054
   23CHL1  H27B 1701   5.469   5.614   8.614 -1.3845  1.6558  0.5625
   23CHL1  H27C 1702   5.519   5.508   8.748 -1.3745  1.2288  0.7625
   24CHL1    C3 1703   5.955   6.135  10.286 -0.0665  0.0568 -0.2354
   24CHL1    H3 1704   5.851   6.106  10.261  0.4695 -1.1329 -1.2017
   24CHL1    O3 1705   5.962   6.144  10.427  0.0421 -0.0049 -0.4975
   24CHL1   H3' 1706   5.941   6.055  10.457 -0.1853  0.4779  0.8422
   24CHL1    C4 1707   6.056   6.032  10.234 -0.3062  0.6087 -0.8362
   24CHL1   H4A 1708   6.157   6.059  10.272  0.5889 -2.3708 -0.8402
   24CHL1   H4B 1709   6.031   5.929  10.266 -1.6564  1.6761  1.8320
   24CHL1    C5 1710   6.066   6.032  10.087  0.1028  0.1002 -0.5347
   24CHL1    C6 1711   6.051   5.917  10.011 -0.0507 -0.6953  0.5842
   24CHL1    H6 1712   6.025   5.832  10.076 -0.7453  1.3126  3.1156
   24CHL1    C7 1713   6.076   5.905   9.865 -0.2913 -0.2274 -0.2486
   24CHL1   H7A 1714   6.161   5.833   9.856  0.4635  0.5882  0.2365
   24CHL1   H7B 1715   5.983   5.867   9.818 -0.3348 -0.8900  0.3580
   24CHL1    C8 1716   6.125   6.038   9.796  0.3264 -0.2910 -0.3656
   24CHL1    H8 1717   6.234   6.032   9.816  0.2901 -0.6598 -0.2692
   24CHL1   C14 1718   6.106   6.043   9.642  0.2015  0.7835  0.4570
   24CHL1   H14 1719   5.998   6.056   9.622  0.3116  3.4315  1.2095
   24CHL1   C15 1720   6.158   5.924   9.563  0.2955 -0.1533  0.4927
   24CHL1  H15A 1721   6.262   5.902   9.597  0.7128 -0.3864 -0.8845
   24CHL1  H15B 1722   6.096   5.832   9.564  2.5543 -1.7680  0.3134
   24CHL1   C16 1723   6.180   5.977   9.419 -0.3181  0.2748  0.0583
   24CHL1  H16A 1724   6.285   5.966   9.386 -0.3626  1.5943 -0.5846
   24CHL1  H16B 1725   6.121   5.924   9.341 -1.5898 -0.4672  1.4651
   24CHL1   C17 1726   6.146   6.133   9.424  0.2368 -0.0375  0.1985
   24CHL1   H17 1727   6.038   6.146   9.402  1.1662  5.5714 -2.7572
   24CHL1   C13 1728   6.174   6.165   9.575  0.6899  0.0402  0.5447
   24CHL1   C18 1729   6.314   6.168   9.602 -0.0802  0.0315  0.3385
   24CHL1  H18A 1730   6.340   6.152   9.708 -0.2011 -0.0305  0.3589
   24CHL1  H18B 1731   6.371   6.084   9.556  2.0692  0.9868  1.1031
   24CHL1  H18C 1732   6.360   6.265   9.571  1.6041 -0.4269  1.2694
   24CHL1   C12 1733   6.093   6.295   9.630 -0.3973 -0.4596  0.2798
   24CHL1  H12A 1734   6.153   6.386   9.608  1.1701 -1.3641  0.6708
   24CHL1  H12B 1735   5.989   6.310   9.595 -1.4324 -2.7421  2.1159
   24CHL1   C11 1736   6.109   6.299   9.786 -0.5056  0.6109  0.0823
   24CHL1  H11A 1737   6.216   6.315   9.809  0.1558 -2.8542 -0.0656
   24CHL1  H11B 1738   6.045   6.378   9.831  0.0669  1.6762 -0.9142
   24CHL1    C9 1739   6.063   6.160   9.861  0.5373  0.0152  0.5527
   24CHL1    H9 1740   5.956   6.154   9.832  0.7907 -2.1339 -0.1609
   24CHL1   C10 1741   6.085   6.174  10.018 -0.7943 -0.0699 -0.3550
   24CHL1   C19 1742   6.233   6.232  10.045  0.1312 -0.6858 -0.7226
   24CHL1  H19A 1743   6.313   6.176   9.992  0.8060 -1.0757  0.6460
   24CHL1  H19B 1744   6.243   6.338  10.016 -0.7732  0.0843  1.5327
   24CHL1  H19C 1745   6.261   6.236  10.153  0.0388  1.9997 -0.7401
   24CHL1    C1 1746   5.980   6.274  10.066  0.3002  0.3784 -0.1604
   24CHL1   H1A 1747   6.018   6.374  10.033 -0.0740  0.9830  1.1927
   24CHL1   H1B 1748   5.878   6.256  10.026  0.4076 -2.0099  0.4961
   24CHL1    C2 1749   5.974   6.274  10.225  0.2689  0.1653  0.4546
   24CHL1   H2A 1750   5.881   6.328  10.251 -1.5123 -2.1237 -0.8653
   24CHL1   H2B 1751   6.054   6.324  10.285 -0.6637 -0.1595  2.0092
   24CHL1   C20 1752   6.222   6.220   9.313  0.1858  0.3655 -0.2048
   24CHL1   H20 1753   6.326   6.249   9.341  0.4841 -1.2780  0.4568
   24CHL1   C21 1754   6.141   6.349   9.298  0.0447  0.3960  0.8336
   24CHL1  H21A 1755   6.133   6.400   9.396 -0.8808  0.8926  0.5129
   24CHL1  H21B 1756   6.043   6.324   9.252 -0.1665  1.5500  0.6245
   24CHL1  H21C 1757   6.202   6.411   9.229 -0.7699 -0.4136 -0.6890
   24CHL1   C22 1758   6.233   6.148   9.177 -0.1031 -0.6402  0.2871
   24CHL1  H22A 1759   6.263   6.044   9.200  1.8539 -0.4812 -1.3625
   24CHL1  H22B 1760   6.127   6.147   9.143  0.1055 -3.5701 -0.5503
   24CHL1   C23 1761   6.334   6.201   9.079 -0.5569  0.4234  0.5531
   24CHL1  H23A 1762   6.284   6.272   9.010  2.3621 -1.3030 -3.7240
   24CHL1  H23B 1763   6.413   6.257   9.134 -0.8808  0.9537  0.4811
   24CHL1   C24 1764   6.397   6.093   8.989 -0.9321 -0.3432 -0.2617
   24CHL1  H24A 1765   6.489   6.126   8.935  0.3317 -1.1615  1.2950
   24CHL1  H24B 1766   6.421   6.005   9.053 -0.7687  0.6929  1.1615
   24CHL1   C25 1767   6.295   6.043   8.884  0.1948  0.2427  0.3165
   24CHL1   H25 1768   6.196   6.052   8.933 -0.4397  0.9501 -1.0296
   24CHL1   C26 1769   6.286   6.136   8.766 -0.5482 -1.0354 -0.0336
   24CHL1  H26A 1770   6.257   6.241   8.787  1.9137 -0.2866 -0.1028
   24CHL1  H26B 1771   6.386   6.146   8.717 -0.7344 -0.1390 -0.2436
   24CHL1  H26C 1772   6.223   6.097   8.683  0.7178 -1.0938 -0.9926
   24CHL1   C27 1773   6.337   5.901   8.830  0.0632  1.1748 -0.0957
   24CHL1  H27A 1774   6.437   5.910   8.783  0.1840  0.0379 -0.0776
   24CHL1  H27B 1775   6.346   5.827   8.913  0.5235 -0.0088 -1.1671
   24CHL1  H27C 1776   6.265   5.869   8.752  1.0800  0.8600 -0.9210
   25CHL1    C3 1777   6.043   6.728  10.478 -0.2527 -0.2345  0.4165
   25CHL1    H3 1778   6.152   6.711  10.474 -0.1708  0.0386  1.3200
   25CHL1    O3 1779   5.991   6.711  10.601 -0.1376  0.2689 -0.7886
   25CHL1   H3' 1780   5.904   6.752  10.605  0.2063  0.9454  2.5667
   25CHL1    C4 1781   6.007   6.865  10.408 -0.2687  0.0885 -0.2037
   25CHL1   H4A 1782   5.896   6.870  10.404 -0.2356  0.2399 -1.5461
   25CHL1   H4B 1783   6.047   6.953  10.463  0.9081 -0.1033 -0.7298
   25CHL1    C5 1784   6.053   6.875  10.264  0.1503  0.6220  0.0486
   25CHL1    C6 1785   6.128   6.974  10.206 -0.3705 -0.2190  0.5919
   25CHL1    H6 1786   6.163   7.061  10.263 -2.1779 -0.1368  1.6548
   25CHL1    C7 1787   6.170   6.983  10.061  0.1028  0.1011  0.3794
   25CHL1   H7A 1788   6.162   7.092  10.040  1.6097  0.4397  1.4200
   25CHL1   H7B 1789   6.271   6.943  10.041 -0.6375 -0.6371 -2.3196
   25CHL1    C8 1790   6.076   6.899   9.975 -0.5451  0.2736 -0.5363
   25CHL1    H8 1791   5.985   6.960   9.956 -2.0004 -1.5495  0.2928
   25CHL1   C14 1792   6.146   6.891   9.836 -0.2516  0.3275 -0.1408
   25CHL1   H14 1793   6.233   6.828   9.861 -0.4516  1.0470  2.6947
   25CHL1   C15 1794   6.198   7.017   9.769  0.0180 -0.2976 -0.0793
   25CHL1  H15A 1795   6.135   7.104   9.795  1.2079  0.2851  0.9310
   25CHL1  H15B 1796   6.298   7.044   9.808 -0.0184  0.5634 -0.5657
   25CHL1   C16 1797   6.199   6.988   9.622  0.8664  0.3032  0.6580
   25CHL1  H16A 1798   6.128   7.059   9.575 -0.6452  0.0752  2.4821
   25CHL1  H16B 1799   6.298   7.008   9.576  0.3920 -0.5394 -0.8084
   25CHL1   C17 1800   6.154   6.840   9.610  0.1656 -0.2683  0.2005
   25CHL1   H17 1801   6.253   6.790   9.624  0.4308 -0.4065 -1.7963
   25CHL1   C13 1802   6.063   6.819   9.733  0.2529  0.2169 -0.2381
   25CHL1   C18 1803   5.927   6.881   9.704 -0.6307 -1.2955 -0.1372
   25CHL1  H18A 1804   5.880   6.830   9.618  1.0973 -1.1484 -1.2126
   25CHL1  H18B 1805   5.857   6.866   9.789 -0.8846 -0.4079 -0.1828
   25CHL1  H18C 1806   5.934   6.989   9.682 -5.1238 -0.9927 -1.0014
   25CHL1   C12 1807   6.052   6.672   9.790 -0.5350 -0.1149  0.1656
   25CHL1  H12A 1808   5.994   6.603   9.726  0.4337 -3.3835  2.5063
   25CHL1  H12B 1809   6.152   6.623   9.793 -0.1990  0.5150 -0.5334
   25CHL1   C11 1810   5.991   6.666   9.931 -0.1486  0.6100  0.4517
   25CHL1  H11A 1811   5.882   6.678   9.914 -0.3338  0.5382  1.5182
   25CHL1  H11B 1812   6.001   6.561   9.967  3.3552  0.0332 -1.6792
   25CHL1    C9 1813   6.058   6.759  10.034  0.1857 -0.0503  1.1347
   25CHL1    H9 1814   6.161   6.720  10.046  1.0162  1.1558 -1.3221
   25CHL1   C10 1815   6.000   6.759  10.173  0.3968  0.3179  0.1680
   25CHL1   C19 1816   5.852   6.777  10.154 -0.1878 -0.8059  0.9007
   25CHL1  H19A 1817   5.839   6.866  10.089 -0.2731 -0.4120  1.4476
   25CHL1  H19B 1818   5.780   6.701  10.115 -1.8113  1.2054 -0.2044
   25CHL1  H19C 1819   5.811   6.809  10.252 -2.5503  0.1910 -0.3155
   25CHL1    C1 1820   6.021   6.616  10.244  0.4200 -0.1777 -0.3395
   25CHL1   H1A 1821   5.968   6.537  10.186 -0.0403  0.0730 -0.2640
   25CHL1   H1B 1822   6.127   6.583  10.250 -0.6804 -4.0916  1.2265
   25CHL1    C2 1823   5.982   6.609  10.393 -0.3587 -0.2617 -0.0970
   25CHL1   H2A 1824   6.025   6.516  10.436 -0.0714 -0.3901 -0.6539
   25CHL1   H2B 1825   5.871   6.609  10.394 -0.3681 -0.9789 -0.8367
   25CHL1   C20 1826   6.112   6.807   9.464  0.4026  0.4651 -0.5426
   25CHL1   H20 1827   6.009   6.837   9.437  0.1465  0.9661  0.9222
   25CHL1   C21 1828   6.108   6.652   9.455 -0.4059  0.7167  0.2858
   25CHL1  H21A 1829   6.103   6.624   9.347 -0.6552  1.6639  0.0432
   25CHL1  H21B 1830   6.033   6.600   9.518  1.4046 -1.1767  0.9956
   25CHL1  H21C 1831   6.203   6.602   9.482 -0.2694  0.6416 -0.3253
   25CHL1   C22 1832   6.201   6.871   9.347 -0.1047  0.0885  0.1619
   25CHL1  H22A 1833   6.307   6.881   9.379 -0.3133 -0.5094  1.0888
   25CHL1  H22B 1834   6.195   6.806   9.258  2.5645  0.5392 -0.4311
   25CHL1   C23 1835   6.146   7.004   9.287  0.3416 -0.0675 -0.2586
   25CHL1  H23A 1836   6.053   6.980   9.233 -0.5883  3.5705 -0.4908
   25CHL1  H23B 1837   6.132   7.088   9.358 -2.8634 -0.8304  0.1260
   25CHL1   C24 1838   6.248   7.041   9.180  0.4378 -0.6267 -0.3379
   25CHL1  H24A 1839   6.345   7.058   9.231  1.2982 -0.5518 -1.9268
   25CHL1  H24B 1840   6.265   6.957   9.108  1.8424 -2.1191  1.6172
   25CHL1   C25 1841   6.227   7.177   9.097  0.6273  0.0215  0.2182
   25CHL1   H25 1842   6.121   7.211   9.089  0.8676  0.8555  0.5026
   25CHL1   C26 1843   6.304   7.295   9.162  0.4536 -0.2900 -0.4999
   25CHL1  H26A 1844   6.266   7.389   9.115 -0.0731  0.8011  1.9667
   25CHL1  H26B 1845   6.285   7.299   9.271  1.2520  1.3823 -0.3830
   25CHL1  H26C 1846   6.412   7.289   9.134  0.4962 -0.6390 -0.2613
   25CHL1   C27 1847   6.278   7.156   8.955  0.0723  0.0300  0.3528
   25CHL1  H27A 1848   6.221   7.078   8.902 -0.6435 -1.4123  3.0375
   25CHL1  H27B 1849   6.258   7.250   8.899 -2.5766 -0.5344  0.2553
   25CHL1  H27C 1850   6.383   7.120   8.954 -0.6354 -2.1696  0.3920
   26CHL1    C3 1851   1.017   4.142  10.154  1.0270  0.7088  0.1904
   26CHL1    H3 1852   1.098   4.067  10.141  0.3385  0.2125 -1.5106
   26CHL1    O3 1853   0.979   4.137  10.291  0.2358  0.3861  0.1508
   26CHL1   H3' 1854   0.904   4.196  10.290  0.1349  0.2714 -1.5105
   26CHL1    C4 1855   1.083   4.276  10.105  0.1857 -0.1180 -0.0704
   26CHL1   H4A 1856   1.007   4.355  10.121  0.8210  0.6701 -0.8667
   26CHL1   H4B 1857   1.162   4.290  10.182 -1.6486  1.0831  1.6927
   26CHL1    C5 1858   1.125   4.281   9.962  0.3884  0.1175  0.1333
   26CHL1    C6 1859   1.248   4.302   9.919  0.1146  0.2934 -0.4011
   26CHL1    H6 1860   1.330   4.309   9.993 -0.9827 -1.6213  1.0919
   26CHL1    C7 1861   1.290   4.311   9.776  0.1289  0.0124 -0.4849
   26CHL1   H7A 1862   1.353   4.401   9.758  0.3302 -0.2695 -1.2699
   26CHL1   H7B 1863   1.338   4.215   9.748  1.1167  0.5580 -0.7015
   26CHL1    C8 1864   1.165   4.329   9.681 -0.1303  0.6691 -0.0971
   26CHL1    H8 1865   1.135   4.435   9.690 -2.6498  0.2876 -2.6749
   26CHL1   C14 1866   1.197   4.296   9.534 -0.0291 -0.2919 -0.3846
   26CHL1   H14 1867   1.216   4.187   9.528  0.9275 -0.4080  2.8797
   26CHL1   C15 1868   1.320   4.373   9.483  0.0233  0.7407 -0.8163
   26CHL1  H15A 1869   1.317   4.475   9.526  1.2881  0.7644 -0.7435
   26CHL1  H15B 1870   1.411   4.318   9.514 -1.4183 -0.3384  1.8882
   26CHL1   C16 1871   1.299   4.364   9.328 -0.1466  0.5982  0.6007
   26CHL1  H16A 1872   1.308   4.471   9.300 -1.5258  1.1656  2.1635
   26CHL1  H16B 1873   1.376   4.309   9.270 -1.0136  0.3267 -0.3133
   26CHL1   C17 1874   1.154   4.300   9.300 -0.2175 -0.0528  0.2645
   26CHL1   H17 1875   1.170   4.192   9.283  3.2878  0.3191  0.4429
   26CHL1   C13 1876   1.082   4.318   9.432  0.1109 -0.1098 -0.3946
   26CHL1   C18 1877   1.035   4.466   9.434 -0.0193 -0.0603  0.3211
   26CHL1  H18A 1878   0.997   4.506   9.530 -0.4450  0.2867  0.0135
   26CHL1  H18B 1879   1.123   4.531   9.411  0.4136 -0.3237  1.1947
   26CHL1  H18C 1880   0.964   4.484   9.350  0.3387 -0.5148 -0.0876
   26CHL1   C12 1881   0.971   4.218   9.469  0.3291  0.7766 -0.1876
   26CHL1  H12A 1882   0.883   4.235   9.403  0.8122  1.3394 -0.6938
   26CHL1  H12B 1883   1.005   4.113   9.456  2.1749  1.3406 -0.1065
   26CHL1   C11 1884   0.926   4.233   9.618 -0.4206 -0.3461  0.1837
   26CHL1  H11A 1885   0.885   4.336   9.630 -3.8768 -1.5336 -0.2899
   26CHL1  H11B 1886   0.847   4.156   9.633 -1.0417 -0.0001 -1.1568
   26CHL1    C9 1887   1.051   4.236   9.723  0.2294  0.4553  0.8602
   26CHL1    H9 1888   1.096   4.134   9.719  1.6188  1.0736 -1.3717
   26CHL1   C10 1889   1.006   4.258   9.874  0.3723 -0.2845  0.4132
   26CHL1   C19 1890   0.912   4.383   9.875 -0.2320  1.0219  0.0502
   26CHL1  H19A 1891   0.884   4.414   9.978  2.7098 -1.1848  1.6552
   26CHL1  H19B 1892   0.964   4.468   9.826 -0.5518  0.9281 -0.4612
   26CHL1  H19C 1893   0.817   4.361   9.823 -0.2182  0.3126  0.3208
   26CHL1    C1 1894   0.925   4.131   9.917 -0.0168 -0.2319  0.4044
   26CHL1   H1A 1895   0.829   4.120   9.863  0.7819 -0.6962 -0.9498
   26CHL1   H1B 1896   0.976   4.039   9.881  0.1073 -0.3445  0.8584
   26CHL1    C2 1897   0.892   4.120  10.066  0.1313 -0.1873 -0.4051
   26CHL1   H2A 1898   0.849   4.019  10.083 -0.7146  0.2757  0.3271
   26CHL1   H2B 1899   0.813   4.195  10.087  2.2415  2.5797 -1.6555
   26CHL1   C20 1900   1.090   4.348   9.164 -0.0322 -0.5225 -0.4992
   26CHL1   H20 1901   1.067   4.457   9.172 -0.7592 -0.8296  3.1265
   26CHL1   C21 1902   0.962   4.277   9.147 -0.3957  0.2458  0.1930
   26CHL1  H21A 1903   0.917   4.285   9.046 -0.2813  0.7041  0.1748
   26CHL1  H21B 1904   0.887   4.316   9.219 -1.4445 -0.6758 -0.3851
   26CHL1  H21C 1905   0.971   4.168   9.168 -4.5872 -0.6380 -1.7055
   26CHL1   C22 1906   1.178   4.340   9.043  0.6565  0.2226  0.3754
   26CHL1  H22A 1907   1.276   4.389   9.062  0.7670  1.6089 -3.0882
   26CHL1  H22B 1908   1.179   4.230   9.028 -0.6647  0.4760 -1.9459
   26CHL1   C23 1909   1.130   4.412   8.910  0.1678  0.1400  0.0281
   26CHL1  H23A 1910   1.042   4.359   8.869 -0.2177  0.9132 -0.1557
   26CHL1  H23B 1911   1.104   4.514   8.948 -0.1785  0.0051  0.1588
   26CHL1   C24 1912   1.242   4.421   8.804 -0.5324 -0.1421  0.2398
   26CHL1  H24A 1913   1.326   4.490   8.829  2.2322 -2.8948 -0.7518
   26CHL1  H24B 1914   1.297   4.324   8.798 -0.4653 -0.0886 -0.0099
   26CHL1   C25 1915   1.185   4.450   8.668 -0.5387 -0.0011  0.2572
   26CHL1   H25 1916   1.088   4.396   8.665 -0.9283  0.7147 -0.9864
   26CHL1   C26 1917   1.157   4.599   8.644 -0.0468  0.2063  0.6941
   26CHL1  H26A 1918   1.128   4.660   8.732 -0.4014  2.2151 -0.7319
   26CHL1  H26B 1919   1.251   4.647   8.609  0.7089 -1.5282  0.2368
   26CHL1  H26C 1920   1.074   4.621   8.573  0.5416 -1.0522 -0.4460
   26CHL1   C27 1921   1.272   4.389   8.554 -0.3582 -0.0814 -0.3758
   26CHL1  H27A 1922   1.273   4.278   8.561  0.4184 -0.3327 -3.0809
   26CHL1  H27B 1923   1.233   4.436   8.461  0.6485  1.3010 -0.1140
   26CHL1  H27C 1924   1.376   4.427   8.560 -0.7102  0.6834  1.7046
   27CHL1    C3 1925   3.465   6.121  10.370 -0.0795 -0.2216 -0.2431
   27CHL1    H3 1926   3.496   6.227  10.356 -1.4631  0.2263 -0.0337
   27CHL1    O3 1927   3.435   6.093  10.508 -0.5187 -0.0760 -0.0330
   27CHL1   H3' 1928   3.520   6.097  10.552 -0.6214  0.9168  0.0816
   27CHL1    C4 1929   3.334   6.094  10.298  0.0892  0.1401 -0.5753
   27CHL1   H4A 1930   3.287   5.999  10.333  0.0041 -0.2543 -1.7263
   27CHL1   H4B 1931   3.251   6.163  10.324 -0.9503 -0.3807 -2.3198
   27CHL1    C5 1932   3.362   6.091  10.146  0.3950 -0.8201  0.0748
   27CHL1    C6 1933   3.280   6.168  10.067  0.0624 -0.4716  0.3948
   27CHL1    H6 1934   3.207   6.237  10.112 -1.3740 -1.2177 -0.7026
   27CHL1    C7 1935   3.289   6.173   9.918  0.0342  0.0321  0.4538
   27CHL1   H7A 1936   3.194   6.142   9.868  0.7093 -1.7446  0.2027
   27CHL1   H7B 1937   3.311   6.278   9.890 -0.0602 -0.1579 -0.3664
   27CHL1    C8 1938   3.384   6.063   9.858 -0.5634  0.3480 -0.7998
   27CHL1    H8 1939   3.331   5.965   9.849  0.1720 -0.0913 -0.4776
   27CHL1   C14 1940   3.436   6.105   9.720  0.3585 -0.2328 -0.0439
   27CHL1   H14 1941   3.487   6.201   9.743 -1.4240  0.6847  0.2471
   27CHL1   C15 1942   3.318   6.126   9.617  0.2697 -0.3380  0.2121
   27CHL1  H15A 1943   3.245   6.042   9.619  3.7136 -3.7073 -1.4672
   27CHL1  H15B 1944   3.272   6.225   9.639  0.5100 -0.3173  0.6391
   27CHL1   C16 1945   3.394   6.131   9.480 -0.3053 -0.7421  0.6246
   27CHL1  H16A 1946   3.355   6.055   9.408  1.7191  1.0454 -2.6261
   27CHL1  H16B 1947   3.384   6.227   9.425  1.0613 -1.8120 -1.6384
   27CHL1   C17 1948   3.546   6.105   9.512 -1.0858 -0.4017  0.1356
   27CHL1   H17 1949   3.582   6.208   9.528 -2.0277  0.2659 -1.7355
   27CHL1   C13 1950   3.540   6.025   9.642  0.3286  0.3626  0.1020
   27CHL1   C18 1951   3.487   5.886   9.624 -0.0882  0.3079  0.5242
   27CHL1  H18A 1952   3.570   5.829   9.577 -1.0078 -1.1558  0.6259
   27CHL1  H18B 1953   3.464   5.830   9.717 -0.3165  3.7856  2.7313
   27CHL1  H18C 1954   3.394   5.874   9.566  0.3555  2.2701 -0.6843
   27CHL1   C12 1955   3.660   6.012   9.736  0.3863 -0.3082  0.0120
   27CHL1  H12A 1956   3.744   5.955   9.691  2.3946  0.0711  3.0500
   27CHL1  H12B 1957   3.700   6.113   9.753  0.6817 -0.4863  0.3743
   27CHL1   C11 1958   3.621   5.959   9.882  0.0493 -0.1282  0.2501
   27CHL1  H11A 1959   3.585   5.855   9.874  0.9925 -0.3560 -2.3268
   27CHL1  H11B 1960   3.717   5.954   9.938  0.8887 -1.5001 -1.1869
   27CHL1    C9 1961   3.505   6.043   9.954  0.0124  0.0471  0.8154
   27CHL1    H9 1962   3.556   6.141   9.956  3.1278 -1.4173 -0.3685
   27CHL1   C10 1963   3.475   6.003  10.095 -0.1736 -0.1930  1.0390
   27CHL1   C19 1964   3.423   5.859  10.097 -0.4748  0.4175 -0.4881
   27CHL1  H19A 1965   3.335   5.834  10.034 -0.1549 -3.4141  0.2917
   27CHL1  H19B 1966   3.511   5.794  10.074 -0.3953  0.4714 -0.3378
   27CHL1  H19C 1967   3.394   5.830  10.200 -0.8082  2.3448  0.0009
   27CHL1    C1 1968   3.602   6.028  10.185  0.0962  0.5709  0.3001
   27CHL1   H1A 1969   3.676   5.948  10.163  1.2645  1.1668  1.9436
   27CHL1   H1B 1970   3.650   6.124  10.157  1.0298 -0.1952 -0.8149
   27CHL1    C2 1971   3.576   6.017  10.334  0.1223 -0.1106  0.1944
   27CHL1   H2A 1972   3.675   6.038  10.381  0.9517 -2.3492 -0.4296
   27CHL1   H2B 1973   3.551   5.913  10.362  0.2598 -0.0833  0.4200
   27CHL1   C20 1974   3.625   6.047   9.390  0.8665 -0.4032  0.3563
   27CHL1   H20 1975   3.596   5.940   9.376 -0.7428  0.1794 -0.9722
   27CHL1   C21 1976   3.777   6.056   9.418 -0.1525 -0.9196 -0.0314
   27CHL1  H21A 1977   3.820   6.152   9.454 -1.8450 -0.5457  1.0966
   27CHL1  H21B 1978   3.836   6.033   9.326 -0.0223  0.1380 -0.2232
   27CHL1  H21C 1979   3.813   5.983   9.493 -2.5109 -0.8703  1.2413
   27CHL1   C22 1980   3.592   6.110   9.252  0.4773 -0.0293 -0.1802
   27CHL1  H22A 1981   3.658   6.048   9.187  1.2809  1.3556 -0.7277
   27CHL1  H22B 1982   3.487   6.084   9.230  0.7809 -0.8467 -0.7222
   27CHL1   C23 1983   3.615   6.260   9.244  0.0184 -0.5494  0.1169
   27CHL1  H23A 1984   3.567   6.317   9.326  0.6110  2.3114 -1.3866
   27CHL1  H23B 1985   3.722   6.287   9.253  0.0520 -1.0567  1.4303
   27CHL1   C24 1986   3.558   6.307   9.109 -0.1316  0.2854 -0.5207
   27CHL1  H24A 1987   3.595   6.260   9.015 -1.9655 -2.3516 -0.0234
   27CHL1  H24B 1988   3.450   6.283   9.119  0.1948 -0.1075  3.7326
   27CHL1   C25 1989   3.566   6.454   9.082 -0.3405  0.0067 -0.5308
   27CHL1   H25 1990   3.544   6.507   9.177  0.6388  1.5927 -1.1580
   27CHL1   C26 1991   3.704   6.502   9.041  0.2438  0.4914  0.0526
   27CHL1  H26A 1992   3.736   6.447   8.949  1.8603 -0.7202  1.2743
   27CHL1  H26B 1993   3.715   6.611   9.022  0.5893  0.2544 -1.2338
   27CHL1  H26C 1994   3.777   6.478   9.121 -0.3951 -0.8063  0.2709
   27CHL1   C27 1995   3.459   6.489   8.975  0.3313  0.3295 -0.0681
   27CHL1  H27A 1996   3.484   6.427   8.887 -0.6602 -0.8409  0.4488
   27CHL1  H27B 1997   3.359   6.464   9.017 -0.9228  0.6932 -2.6428
   27CHL1  H27C 1998   3.468   6.599   8.957  1.8344 -0.1274 -2.4010
   28CHL1    C3 1999   1.817   5.302   9.954 -0.3072  0.1821  0.5186
   28CHL1    H3 2000   1.917   5.328   9.912 -0.2839 -0.0933  0.4058
   28CHL1    O3 2001   1.820   5.269  10.093  0.1421  0.7087 -0.2170
   28CHL1   H3' 2002   1.726   5.254  10.108  0.7502 -4.0629  0.4234
   28CHL1    C4 2003   1.710   5.407   9.935 -0.2383  0.2030 -0.0931
   28CHL1   H4A 2004   1.608   5.374   9.965  0.3728 -1.1498  0.6396
   28CHL1   H4B 2005   1.730   5.499   9.994 -0.1687  1.9222 -2.6301
   28CHL1    C5 2006   1.708   5.443   9.787 -0.4856 -0.1651  0.3035
   28CHL1    C6 2007   1.741   5.570   9.748  0.4277 -0.3756 -0.2631
   28CHL1    H6 2008   1.763   5.648   9.823  1.2964 -0.0590 -0.8281
   28CHL1    C7 2009   1.736   5.608   9.604  0.3436  0.7295  0.4192
   28CHL1   H7A 2010   1.687   5.706   9.585  2.3921  1.6009 -0.8183
   28CHL1   H7B 2011   1.836   5.631   9.560 -0.7510  2.0036 -1.5416
   28CHL1    C8 2012   1.661   5.509   9.513  0.1944 -0.0422  0.7211
   28CHL1    H8 2013   1.551   5.522   9.524  0.0712  1.2657 -1.4731
   28CHL1   C14 2014   1.712   5.537   9.370  0.5111  0.6763  0.4151
   28CHL1   H14 2015   1.823   5.533   9.367  0.5717  2.2182  0.1265
   28CHL1   C15 2016   1.690   5.676   9.306  0.3190  0.0077 -0.0461
   28CHL1  H15A 2017   1.584   5.703   9.325 -0.2427 -1.1393 -1.3683
   28CHL1  H15B 2018   1.765   5.742   9.354  0.5082 -1.0399  1.1573
   28CHL1   C16 2019   1.720   5.657   9.159  0.2135 -0.6048 -0.4856
   28CHL1  H16A 2020   1.638   5.713   9.109 -1.6250 -2.3658  0.4454
   28CHL1  H16B 2021   1.809   5.722   9.139  0.0838 -0.6380 -1.2110
   28CHL1   C17 2022   1.740   5.510   9.136 -0.3651  0.0991  0.1539
   28CHL1   H17 2023   1.845   5.483   9.159 -0.3522 -1.4119 -1.4511
   28CHL1   C13 2024   1.672   5.439   9.257 -0.1635 -0.4728  0.2368
   28CHL1   C18 2025   1.517   5.449   9.225  0.0192 -0.4625  0.4490
   28CHL1  H18A 2026   1.493   5.367   9.153  1.5775 -0.7153  0.1790
   28CHL1  H18B 2027   1.468   5.434   9.323  1.4307  0.1778  1.2806
   28CHL1  H18C 2028   1.478   5.546   9.189 -0.5676 -1.2858 -1.2425
   28CHL1   C12 2029   1.723   5.300   9.303  0.8064  0.0867  0.1491
   28CHL1  H12A 2030   1.695   5.223   9.228  0.3469  2.2273 -2.0090
   28CHL1  H12B 2031   1.833   5.313   9.299  0.8158 -0.1890 -0.8998
   28CHL1   C11 2032   1.659   5.263   9.435 -0.0642 -0.5319 -0.0238
   28CHL1  H11A 2033   1.548   5.260   9.429 -0.0788  1.1095 -1.6764
   28CHL1  H11B 2034   1.699   5.164   9.465  0.8054 -0.1641  0.0647
   28CHL1    C9 2035   1.704   5.363   9.539 -0.1599 -0.0105 -1.3939
   28CHL1    H9 2036   1.814   5.361   9.529  0.0735  3.8487 -0.9150
   28CHL1   C10 2037   1.671   5.325   9.691 -0.1094  0.2283  0.3799
   28CHL1   C19 2038   1.524   5.282   9.709  0.2477  0.3149 -0.5564
   28CHL1  H19A 2039   1.461   5.369   9.682 -1.1589 -0.2319  0.7934
   28CHL1  H19B 2040   1.509   5.195   9.642  0.8487 -0.4476  0.2754
   28CHL1  H19C 2041   1.496   5.256   9.814  2.0574 -0.0972 -0.1344
   28CHL1    C1 2042   1.762   5.210   9.727  0.5717  0.1763  0.4533
   28CHL1   H1A 2043   1.728   5.119   9.672  0.0724  2.0454 -2.5996
   28CHL1   H1B 2044   1.871   5.227   9.711  0.1670  2.1824 -0.4803
   28CHL1    C2 2045   1.765   5.182   9.876 -0.0064 -0.1823 -0.0380
   28CHL1   H2A 2046   1.835   5.098   9.898  0.1122  0.1487  0.9374
   28CHL1   H2B 2047   1.665   5.157   9.916  0.0526  2.1655  1.8425
   28CHL1   C20 2048   1.716   5.459   8.995  0.7135  0.1564 -1.1064
   28CHL1   H20 2049   1.606   5.464   8.978  0.8023 -1.0260 -2.2358
   28CHL1   C21 2050   1.753   5.306   8.975 -0.6356  0.7544  0.6622
   28CHL1  H21A 2051   1.686   5.244   9.039  0.5893 -1.4574 -0.1008
   28CHL1  H21B 2052   1.862   5.301   8.997  0.0868 -1.8729 -2.8003
   28CHL1  H21C 2053   1.728   5.269   8.874 -3.2362 -1.8874  2.1130
   28CHL1   C22 2054   1.766   5.550   8.879 -0.8622  0.9921  0.9580
   28CHL1  H22A 2055   1.744   5.659   8.894  3.0323  1.9716  0.5533
   28CHL1  H22B 2056   1.877   5.550   8.887 -0.7454 -1.8312  0.0539
   28CHL1   C23 2057   1.724   5.503   8.734  0.1564 -0.2303 -0.0976
   28CHL1  H23A 2058   1.781   5.563   8.660  2.2623 -1.9643  0.0270
   28CHL1  H23B 2059   1.744   5.398   8.704  0.7531  0.5077 -2.4867
   28CHL1   C24 2060   1.573   5.526   8.699 -0.1498 -0.0908 -0.0002
   28CHL1  H24A 2061   1.511   5.460   8.762 -1.8888  1.7896  0.3738
   28CHL1  H24B 2062   1.542   5.632   8.716  0.9241 -0.0638  2.1849
   28CHL1   C25 2063   1.537   5.474   8.556 -0.2287 -0.3563  0.2806
   28CHL1   H25 2064   1.620   5.414   8.511 -1.0936 -1.1634 -0.2661
   28CHL1   C26 2065   1.412   5.379   8.548 -0.4532 -0.4113 -0.1695
   28CHL1  H26A 2066   1.418   5.295   8.621  1.3993 -1.1206 -1.0908
   28CHL1  H26B 2067   1.320   5.439   8.567 -1.2377 -2.1661  2.1492
   28CHL1  H26C 2068   1.388   5.345   8.445 -0.8268  0.9073 -0.5421
   28CHL1   C27 2069   1.513   5.595   8.458  0.1834 -0.7376 -0.6747
   28CHL1  H27A 2070   1.472   5.551   8.365 -4.5289 -0.3038  0.9215
   28CHL1  H27B 2071   1.432   5.657   8.501  1.4256  0.2838  0.2695
   28CHL1  H27C 2072   1.605   5.653   8.435  1.3148 -3.5545 -4.2679
   29CHL1    C3 2073   2.462   3.105   6.755  0.2042  0.6946  0.1196
   29CHL1    H3 2074   2.559   3.158   6.762  0.6176 -0.1377  1.1434
   29CHL1    O3 2075   2.434   3.078   6.622  0.6384 -0.2926 -0.0333
   29CHL1   H3' 2076   2.354   3.025   6.629  0.7621 -0.4231  0.3934
   29CHL1    C4 2077   2.487   2.970   6.820  0.4962 -0.5224 -0.3093
   29CHL1   H4A 2078   2.402   2.904   6.790 -1.7230  2.1663 -0.3382
   29CHL1   H4B 2079   2.580   2.925   6.778  0.3076 -1.6349  0.4053
   29CHL1    C5 2080   2.498   2.990   6.972  0.2135  0.0667  0.3152
   29CHL1    C6 2081   2.595   2.930   7.040  0.1419  0.5236 -0.6643
   29CHL1    H6 2082   2.678   2.874   6.994 -0.4862 -1.2603  0.2579
   29CHL1    C7 2083   2.605   2.928   7.191  0.5481  0.6020  0.9541
   29CHL1   H7A 2084   2.629   2.824   7.222 -0.8309  0.0397  0.2229
   29CHL1   H7B 2085   2.689   2.996   7.216  1.6898 -0.1699 -0.6490
   29CHL1    C8 2086   2.474   2.969   7.266 -0.7390 -0.2148  0.2948
   29CHL1    H8 2087   2.407   2.880   7.259 -1.2806  0.1744  0.4951
   29CHL1   C14 2088   2.507   3.011   7.407  0.2890 -0.3692 -0.3175
   29CHL1   H14 2089   2.585   3.090   7.404  2.0375 -2.0124 -1.0973
   29CHL1   C15 2090   2.574   2.911   7.497  0.1475 -0.1198  0.7601
   29CHL1  H15A 2091   2.522   2.812   7.495  0.4218 -0.2584  0.4665
   29CHL1  H15B 2092   2.681   2.890   7.474 -0.3137  1.2276 -3.2443
   29CHL1   C16 2093   2.560   2.966   7.636  0.5264 -0.2768 -0.1306
   29CHL1  H16A 2094   2.513   2.885   7.695 -0.4953  0.2240 -0.2161
   29CHL1  H16B 2095   2.655   3.006   7.677 -1.2709  3.1560  1.1484
   29CHL1   C17 2096   2.455   3.085   7.627 -0.2982  0.8395  0.0312
   29CHL1   H17 2097   2.510   3.181   7.620  3.1966 -0.8909  1.1021
   29CHL1   C13 2098   2.382   3.064   7.487  0.1674 -0.4083 -0.5637
   29CHL1   C18 2099   2.261   2.963   7.496 -0.2065 -0.4636 -0.0796
   29CHL1  H18A 2100   2.287   2.874   7.557  0.5472 -1.3531 -1.6482
   29CHL1  H18B 2101   2.168   3.014   7.529  0.4374  2.1015 -1.9263
   29CHL1  H18C 2102   2.247   2.918   7.395 -1.3677 -1.2025  0.3868
   29CHL1   C12 2103   2.332   3.187   7.408 -0.3456 -0.1240  0.2174
   29CHL1  H12A 2104   2.232   3.214   7.448 -0.8036 -0.9091 -0.3590
   29CHL1  H12B 2105   2.413   3.262   7.425  1.3396 -1.4759 -1.3780
   29CHL1   C11 2106   2.308   3.161   7.259  0.6291 -0.3631 -0.2598
   29CHL1  H11A 2107   2.212   3.105   7.263 -0.4203  1.3848 -0.1832
   29CHL1  H11B 2108   2.292   3.261   7.214  0.1532 -0.4814 -0.3597
   29CHL1    C9 2109   2.422   3.092   7.192  0.0816  0.5969 -0.5427
   29CHL1    H9 2110   2.506   3.164   7.208 -0.4024  0.8421  1.0867
   29CHL1   C10 2111   2.389   3.069   7.043 -0.2443 -0.3897  0.0073
   29CHL1   C19 2112   2.268   2.983   7.031 -0.1870 -0.1445 -0.5652
   29CHL1  H19A 2113   2.235   2.964   6.926 -1.3528  0.5675 -0.3453
   29CHL1  H19B 2114   2.278   2.886   7.085 -2.4888 -0.2318 -0.1889
   29CHL1  H19C 2115   2.176   3.019   7.082 -0.5240 -0.9012 -0.6150
   29CHL1    C1 2116   2.366   3.199   6.967  0.1976 -0.1057 -0.2186
   29CHL1   H1A 2117   2.272   3.239   7.011  0.4832  2.7436 -1.9283
   29CHL1   H1B 2118   2.447   3.269   6.999 -0.5968  0.9242 -0.4026
   29CHL1    C2 2119   2.347   3.188   6.815  0.4973  0.2606  0.2252
   29CHL1   H2A 2120   2.338   3.289   6.770 -0.4805  1.2285  2.4319
   29CHL1   H2B 2121   2.251   3.137   6.792  2.0884 -1.9251 -2.0434
   29CHL1   C20 2122   2.369   3.097   7.757 -0.0069 -0.6563 -0.2789
   29CHL1   H20 2123   2.314   3.000   7.758  0.2677 -0.8478 -1.5546
   29CHL1   C21 2124   2.262   3.206   7.740  0.5883  0.6334  0.6802
   29CHL1  H21A 2125   2.196   3.216   7.829 -1.7811 -0.9080 -0.7772
   29CHL1  H21B 2126   2.188   3.180   7.662  0.3840  0.5284  0.9066
   29CHL1  H21C 2127   2.316   3.300   7.715  2.1597 -0.6236 -0.9178
   29CHL1   C22 2128   2.448   3.116   7.888  0.8584 -0.5246  0.5105
   29CHL1  H22A 2129   2.531   3.042   7.886  1.3977  0.0339 -2.5499
   29CHL1  H22B 2130   2.493   3.218   7.885 -1.2270  0.4305 -1.6952
   29CHL1   C23 2131   2.364   3.089   8.015 -0.5471  0.1769  0.1348
   29CHL1  H23A 2132   2.275   3.154   8.023 -0.6107  0.1561 -0.3885
   29CHL1  H23B 2133   2.316   2.989   8.004 -2.0986  1.0163 -1.1108
   29CHL1   C24 2134   2.458   3.101   8.140  0.2990  0.5647 -0.8011
   29CHL1  H24A 2135   2.551   3.041   8.124  1.8089  2.7514 -0.6085
   29CHL1  H24B 2136   2.499   3.203   8.151 -1.4969  1.2771 -0.4263
   29CHL1   C25 2137   2.388   3.049   8.269 -0.1605 -0.2994  0.4317
   29CHL1   H25 2138   2.354   2.945   8.254 -0.2119 -0.1778 -0.3514
   29CHL1   C26 2139   2.499   3.046   8.379 -0.0295 -0.2960 -0.1029
   29CHL1  H26A 2140   2.559   3.139   8.374  1.0489 -1.0253 -1.4053
   29CHL1  H26B 2141   2.443   3.029   8.474  0.3818 -0.2487  0.1465
   29CHL1  H26C 2142   2.574   2.965   8.369  2.3519  1.5823  1.4162
   29CHL1   C27 2143   2.266   3.136   8.311 -0.2995  0.3273 -0.3593
   29CHL1  H27A 2144   2.302   3.241   8.313  2.0064 -0.4090 -0.0263
   29CHL1  H27B 2145   2.201   3.116   8.223  1.0897  0.6194 -1.4816
   29CHL1  H27C 2146   2.217   3.103   8.405 -2.2912  0.6136 -1.2437
   30CHL1    C3 2147   4.911   3.154   7.175 -0.1344 -0.1322  0.8010
   30CHL1    H3 2148   4.944   3.064   7.231  0.2908  0.0156  0.7918
   30CHL1    O3 2149   4.821   3.115   7.070  0.2239  0.2873  0.1913
   30CHL1   H3' 2150   4.768   3.038   7.093 -0.3878  0.4857 -0.5083
   30CHL1    C4 2151   4.864   3.265   7.275  0.1972 -0.5016 -0.2727
   30CHL1   H4A 2152   4.839   3.353   7.211 -2.5124 -0.3953  0.8078
   30CHL1   H4B 2153   4.762   3.242   7.313 -0.4574  0.3471 -1.4564
   30CHL1    C5 2154   4.962   3.291   7.378 -0.4038 -0.9805 -0.6183
   30CHL1    C6 2155   4.932   3.286   7.510  0.5128 -0.1657  0.0179
   30CHL1    H6 2156   4.830   3.257   7.540  0.6869  1.1674  2.1053
   30CHL1    C7 2157   5.020   3.315   7.624  0.7841  0.1295 -0.1766
   30CHL1   H7A 2158   4.962   3.378   7.694 -0.4032 -1.1617  0.0414
   30CHL1   H7B 2159   5.055   3.222   7.675  0.8178 -0.0328 -0.4892
   30CHL1    C8 2160   5.153   3.388   7.581  0.2615  0.6302  0.2368
   30CHL1    H8 2161   5.117   3.492   7.571  1.3244  0.9391 -0.6167
   30CHL1   C14 2162   5.267   3.377   7.680  0.4204 -0.1788 -0.2251
   30CHL1   H14 2163   5.309   3.275   7.665 -0.5660 -0.7432  0.7086
   30CHL1   C15 2164   5.232   3.393   7.828 -0.8987 -0.1665  0.0498
   30CHL1  H15A 2165   5.175   3.486   7.850 -1.2518 -0.0699 -1.2255
   30CHL1  H15B 2166   5.178   3.302   7.859  0.7335 -1.5554 -0.9706
   30CHL1   C16 2167   5.364   3.392   7.902 -0.2837  0.0008  0.0650
   30CHL1  H16A 2168   5.364   3.476   7.974 -2.6472 -0.8070  1.1298
   30CHL1  H16B 2169   5.401   3.298   7.948  0.0351  0.6445  1.1675
   30CHL1   C17 2170   5.469   3.425   7.787 -0.1569 -0.6590 -0.4990
   30CHL1   H17 2171   5.507   3.322   7.768 -0.0811 -0.6309 -0.4997
   30CHL1   C13 2172   5.393   3.462   7.658 -0.3098  0.8322  0.0925
   30CHL1   C18 2173   5.361   3.608   7.659  0.0127  0.4355  0.5719
   30CHL1  H18A 2174   5.277   3.648   7.599 -1.3167  0.1213  2.1567
   30CHL1  H18B 2175   5.335   3.637   7.763 -0.5686 -0.0646  0.5675
   30CHL1  H18C 2176   5.456   3.666   7.651  0.8743 -0.7727  1.5355
   30CHL1   C12 2177   5.451   3.397   7.518 -0.4996 -0.1069  0.0259
   30CHL1  H12A 2178   5.540   3.455   7.486 -0.7569 -0.5315 -1.5317
   30CHL1  H12B 2179   5.490   3.297   7.546  0.3899 -0.5103 -2.4257
   30CHL1   C11 2180   5.342   3.395   7.402 -0.4575  0.0251 -0.8421
   30CHL1  H11A 2181   5.324   3.502   7.381  1.1804  0.7027  0.8224
   30CHL1  H11B 2182   5.388   3.341   7.317 -0.0108 -2.6356  0.9572
   30CHL1    C9 2183   5.204   3.332   7.451  0.5492  0.2071  0.6060
   30CHL1    H9 2184   5.232   3.226   7.467  1.0638  0.2568  0.0689
   30CHL1   C10 2185   5.100   3.334   7.330  0.2166  0.1953 -0.0929
   30CHL1   C19 2186   5.087   3.470   7.260  0.3341  0.2966  0.5147
   30CHL1  H19A 2187   5.176   3.494   7.198 -0.6994  0.8637 -0.8074
   30CHL1  H19B 2188   5.003   3.468   7.187 -0.7215 -0.6858  1.6997
   30CHL1  H19C 2189   5.078   3.550   7.336 -3.7168 -1.8055  2.5983
   30CHL1    C1 2190   5.143   3.237   7.217  0.3415  0.5784 -0.9289
   30CHL1   H1A 2191   5.234   3.270   7.162  1.0594  3.3798  1.6923
   30CHL1   H1B 2192   5.180   3.147   7.270 -0.8311  0.6873  0.1164
   30CHL1    C2 2193   5.035   3.211   7.108 -0.2440  0.7693  0.0974
   30CHL1   H2A 2194   5.076   3.142   7.032 -1.8085 -1.7651  1.4262
   30CHL1   H2B 2195   5.012   3.307   7.058  0.0667  0.9142  0.2267
   30CHL1   C20 2196   5.591   3.510   7.828  0.2994 -0.3224  0.0312
   30CHL1   H20 2197   5.560   3.615   7.849 -0.3339 -0.6839  0.9864
   30CHL1   C21 2198   5.693   3.499   7.718  0.0073  0.1506  0.5591
   30CHL1  H21A 2199   5.694   3.390   7.696 -2.1843 -0.8092  4.2859
   30CHL1  H21B 2200   5.797   3.537   7.725  0.0631  0.8235 -2.6694
   30CHL1  H21C 2201   5.648   3.551   7.631 -2.4190  1.8280  2.6418
   30CHL1   C22 2202   5.660   3.468   7.962  0.3945  0.6456  0.6647
   30CHL1  H22A 2203   5.575   3.455   8.032 -0.9071 -0.1661 -1.0125
   30CHL1  H22B 2204   5.694   3.364   7.945 -1.1235  0.1572  0.5294
   30CHL1   C23 2205   5.762   3.563   8.022 -0.0013  0.2683  0.5300
   30CHL1  H23A 2206   5.836   3.585   7.942  0.3051 -0.9498  0.4523
   30CHL1  H23B 2207   5.719   3.659   8.057 -1.2489  0.2818 -0.9074
   30CHL1   C24 2208   5.846   3.486   8.134 -0.1269 -0.2126  0.2038
   30CHL1  H24A 2209   5.788   3.467   8.227 -2.0163  0.3589 -0.8183
   30CHL1  H24B 2210   5.881   3.384   8.106  0.0390  0.2618 -1.4296
   30CHL1   C25 2211   5.966   3.571   8.179  0.3456  1.0815  0.4948
   30CHL1   H25 2212   6.020   3.603   8.088 -1.3063  0.7331 -0.6625
   30CHL1   C26 2213   5.920   3.692   8.258  0.2850 -0.4100 -0.1006
   30CHL1  H26A 2214   5.842   3.656   8.328  0.3640 -2.1780 -0.8703
   30CHL1  H26B 2215   6.007   3.737   8.310  1.1734 -2.2574  0.1172
   30CHL1  H26C 2216   5.873   3.771   8.196 -1.1776  0.4482  2.0045
   30CHL1   C27 2217   6.064   3.478   8.255 -0.0578 -0.5001 -0.1224
   30CHL1  H27A 2218   6.128   3.430   8.180 -0.9074 -0.9185 -0.5946
   30CHL1  H27B 2219   6.111   3.536   8.338 -1.6525 -0.3980  0.7608
   30CHL1  H27C 2220   6.003   3.401   8.308 -1.0147  0.1914 -0.1745
   31CHL1    C3 2221   0.346   3.866   6.861  0.3983  0.8521  0.1850
   31CHL1    H3 2222   0.269   3.810   6.916 -1.0027  2.7790  0.3066
   31CHL1    O3 2223   0.317   3.851   6.723  0.5876 -0.0170 -0.0916
   31CHL1   H3' 2224   0.227   3.885   6.714  0.4620 -0.4068 -0.3740
   31CHL1    C4 2225   0.336   4.014   6.905 -0.2424  0.2948  0.5563
   31CHL1   H4A 2226   0.400   4.068   6.831 -0.5238 -0.0059  0.0835
   31CHL1   H4B 2227   0.232   4.047   6.884 -0.6291 -1.3192 -0.2165
   31CHL1    C5 2228   0.379   4.030   7.045  0.5835 -0.2127  0.3342
   31CHL1    C6 2229   0.295   4.094   7.141 -1.0519  0.4936 -0.4482
   31CHL1    H6 2230   0.191   4.120   7.114 -1.0897  0.2247 -0.5659
   31CHL1    C7 2231   0.335   4.100   7.284 -0.4459  0.5430 -0.4377
   31CHL1   H7A 2232   0.308   4.202   7.318  0.3925  0.5761  0.1552
   31CHL1   H7B 2233   0.288   4.024   7.351  4.0328 -1.1812  1.0937
   31CHL1    C8 2234   0.484   4.079   7.315  0.0919  0.5790 -0.3292
   31CHL1    H8 2235   0.527   4.177   7.286 -2.5259  2.0545  0.4723
   31CHL1   C14 2236   0.518   4.061   7.465  0.5825  0.1724  0.3533
   31CHL1   H14 2237   0.463   3.970   7.498 -0.9424  0.6403 -0.8135
   31CHL1   C15 2238   0.463   4.169   7.565 -0.2810  0.3579 -0.5253
   31CHL1  H15A 2239   0.483   4.269   7.521  0.5737  0.8496  0.9002
   31CHL1  H15B 2240   0.358   4.155   7.598  0.0636  0.0263  0.4567
   31CHL1   C16 2241   0.551   4.152   7.686 -0.0421  0.3608 -0.0080
   31CHL1  H16A 2242   0.614   4.238   7.716  0.4362 -0.0866  0.3037
   31CHL1  H16B 2243   0.504   4.113   7.779 -2.0450 -1.2534 -1.5902
   31CHL1   C17 2244   0.654   4.032   7.657 -0.0981  0.1080 -0.1931
   31CHL1   H17 2245   0.604   3.937   7.688 -3.6135  1.4011 -1.4375
   31CHL1   C13 2246   0.667   4.038   7.503 -0.7807 -0.2815 -0.1815
   31CHL1   C18 2247   0.755   4.155   7.480 -0.9891 -0.1013  0.7447
   31CHL1  H18A 2248   0.738   4.250   7.536  2.5181  0.5631  0.9309
   31CHL1  H18B 2249   0.864   4.135   7.491 -0.6702  0.8006 -0.4998
   31CHL1  H18C 2250   0.765   4.191   7.375 -0.7890  1.7774  1.3530
   31CHL1   C12 2251   0.713   3.912   7.439 -0.1654 -0.0637 -0.2948
   31CHL1  H12A 2252   0.824   3.905   7.441 -0.2143 -1.2109  2.4127
   31CHL1  H12B 2253   0.657   3.822   7.475  0.0060 -0.4459 -0.9584
   31CHL1   C11 2254   0.687   3.917   7.288  0.2897 -0.0349 -0.4060
   31CHL1  H11A 2255   0.755   3.997   7.251  0.0273 -0.1235 -1.0969
   31CHL1  H11B 2256   0.725   3.820   7.248 -1.6654 -1.1268  0.2639
   31CHL1    C9 2257   0.545   3.952   7.237  0.5093 -0.3337 -0.7751
   31CHL1    H9 2258   0.488   3.864   7.275 -1.5987  1.5198  0.5987
   31CHL1   C10 2259   0.515   3.959   7.087 -0.0052 -0.2918  0.1243
   31CHL1   C19 2260   0.627   4.043   7.028  0.4038 -0.0345 -0.8871
   31CHL1  H19A 2261   0.606   4.042   6.918 -0.3135  0.0159 -0.7601
   31CHL1  H19B 2262   0.628   4.146   7.071  0.9207  0.0038 -0.9881
   31CHL1  H19C 2263   0.728   4.000   7.042  0.3659 -0.3743 -1.6008
   31CHL1    C1 2264   0.517   3.810   7.032 -0.3375  0.3438 -0.0786
   31CHL1   H1A 2265   0.620   3.772   7.047  1.2689  4.2604  0.0737
   31CHL1   H1B 2266   0.445   3.758   7.098  0.8812  2.6094  3.3154
   31CHL1    C2 2267   0.485   3.793   6.882 -0.0360 -0.2370 -0.3350
   31CHL1   H2A 2268   0.492   3.692   6.837 -1.7998  0.2388 -1.7862
   31CHL1   H2B 2269   0.562   3.849   6.825 -0.2993  0.8533  0.3483
   31CHL1   C20 2270   0.778   4.053   7.743 -0.1039  0.5896 -0.3632
   31CHL1   H20 2271   0.835   4.140   7.705  0.5683  0.3859  0.1694
   31CHL1   C21 2272   0.877   3.933   7.726 -0.0459 -0.1856  0.3132
   31CHL1  H21A 2273   0.961   3.945   7.797  0.1077 -1.9244  0.4651
   31CHL1  H21B 2274   0.922   3.948   7.626  1.2593  0.0189  0.9167
   31CHL1  H21C 2275   0.820   3.837   7.733 -1.2565  0.3817 -1.1830
   31CHL1   C22 2276   0.757   4.079   7.899  1.0869  0.1200 -0.2226
   31CHL1  H22A 2277   0.861   4.082   7.938  0.6039 -0.1469  1.1486
   31CHL1  H22B 2278   0.701   4.173   7.915 -0.2779 -0.0091 -3.4895
   31CHL1   C23 2279   0.680   3.967   7.961  0.5693  0.4967 -0.5452
   31CHL1  H23A 2280   0.571   3.983   7.945  0.4840  0.4525 -0.0054
   31CHL1  H23B 2281   0.701   3.870   7.911  0.6676 -1.3078  2.7588
   31CHL1   C24 2282   0.706   3.960   8.113 -0.1264 -0.0083  0.4047
   31CHL1  H24A 2283   0.815   3.949   8.132  0.4339  1.0062 -1.8581
   31CHL1  H24B 2284   0.675   4.058   8.155 -2.1634 -0.1516 -0.6686
   31CHL1   C25 2285   0.627   3.845   8.181 -0.6387  0.6584  0.4244
   31CHL1   H25 2286   0.526   3.843   8.136 -0.3168  1.3100 -0.3654
   31CHL1   C26 2287   0.682   3.703   8.138 -0.1809  0.4367 -0.0176
   31CHL1  H26A 2288   0.785   3.685   8.176 -1.0190  0.2022  2.2871
   31CHL1  H26B 2289   0.616   3.626   8.183  2.3512 -2.1440 -0.3631
   31CHL1  H26C 2290   0.679   3.704   8.027 -2.1582 -1.8883 -0.0469
   31CHL1   C27 2291   0.609   3.848   8.332 -0.5727 -0.3722 -0.2531
   31CHL1  H27A 2292   0.540   3.926   8.371  0.1355 -1.2871  3.0891
   31CHL1  H27B 2293   0.705   3.852   8.388 -1.4768 -0.9927  1.3871
   31CHL1  H27C 2294   0.557   3.753   8.356 -1.4809  0.6101  1.9093
   32CHL1    C3 2295   1.264   1.254   6.910  0.8945  0.8783  0.3346
   32CHL1    H3 2296   1.258   1.354   6.958 -1.3874  0.5277  0.8838
   32CHL1    O3 2297   1.262   1.264   6.774  0.0747  0.6878  0.3331
   32CHL1   H3' 2298   1.176   1.227   6.751 -0.4696  1.6886  0.6976
   32CHL1    C4 2299   1.401   1.188   6.935 -0.1650  0.5515 -0.3548
   32CHL1   H4A 2300   1.409   1.094   6.875  0.8361 -0.3030  1.0549
   32CHL1   H4B 2301   1.484   1.251   6.897  0.8523  0.8005  2.0909
   32CHL1    C5 2302   1.433   1.160   7.087 -0.0327  1.1739 -0.0988
   32CHL1    C6 2303   1.541   1.213   7.139 -0.8405 -0.9068 -0.1374
   32CHL1    H6 2304   1.606   1.267   7.069  0.2280 -1.8025  0.1444
   32CHL1    C7 2305   1.568   1.201   7.290 -0.3071  0.2528  0.4950
   32CHL1   H7A 2306   1.672   1.174   7.319 -0.8663 -1.2175  1.2313
   32CHL1   H7B 2307   1.539   1.300   7.333  1.0410  1.3378 -1.0011
   32CHL1    C8 2308   1.472   1.097   7.361  0.2789 -0.4697  0.6608
   32CHL1    H8 2309   1.509   0.994   7.344  1.4591  0.1307 -0.5497
   32CHL1   C14 2310   1.473   1.132   7.510  0.2472  0.7517  0.0999
   32CHL1   H14 2311   1.419   1.228   7.523 -2.0583 -0.6065  1.0372
   32CHL1   C15 2312   1.602   1.152   7.590 -0.9240  0.2388 -0.6450
   32CHL1  H15A 2313   1.674   1.071   7.564 -1.6420 -1.0997  1.3084
   32CHL1  H15B 2314   1.658   1.245   7.565  0.2170 -0.2724 -0.0722
   32CHL1   C16 2315   1.562   1.134   7.724  0.1124  0.0492  0.0505
   32CHL1  H16A 2316   1.619   1.046   7.760  0.7249 -0.7842 -2.7220
   32CHL1  H16B 2317   1.570   1.232   7.775  2.4764  1.4071 -2.6327
   32CHL1   C17 2318   1.410   1.091   7.732  0.4058 -1.0439  0.8064
   32CHL1   H17 2319   1.342   1.178   7.736  0.9345 -0.4918 -0.9928
   32CHL1   C13 2320   1.387   1.034   7.593 -0.2870  0.3132 -0.3013
   32CHL1   C18 2321   1.451   0.889   7.588  0.2099 -0.4930  0.7134
   32CHL1  H18A 2322   1.383   0.812   7.631 -0.4690 -0.4981 -0.3194
   32CHL1  H18B 2323   1.451   0.853   7.483  0.2975 -1.1510  0.9294
   32CHL1  H18C 2324   1.559   0.877   7.609  0.2088 -0.7899  0.5668
   32CHL1   C12 2325   1.242   1.037   7.533 -0.7052  0.0183 -0.1142
   32CHL1  H12A 2326   1.173   0.962   7.579  1.0131 -0.5981  1.5997
   32CHL1  H12B 2327   1.198   1.138   7.548 -2.2658 -0.4737 -1.0914
   32CHL1   C11 2328   1.240   1.005   7.383  0.5586 -0.0775 -0.1442
   32CHL1  H11A 2329   1.280   0.903   7.362 -0.3483 -0.1560 -1.6141
   32CHL1  H11B 2330   1.136   1.017   7.346  0.9207 -1.0225 -1.5498
   32CHL1    C9 2331   1.329   1.110   7.307 -0.6777  1.0365  0.3311
   32CHL1    H9 2332   1.302   1.216   7.328 -0.1932  0.8964  1.7337
   32CHL1   C10 2333   1.314   1.094   7.153  0.2293  0.1034  0.4734
   32CHL1   C19 2334   1.327   0.947   7.111 -0.6553 -0.1910  0.1024
   32CHL1  H19A 2335   1.415   0.901   7.161  0.3775  1.7167  0.1089
   32CHL1  H19B 2336   1.239   0.890   7.147  0.5478 -1.4163  1.2055
   32CHL1  H19C 2337   1.318   0.945   7.000 -1.0033  2.8415  0.0098
   32CHL1    C1 2338   1.173   1.139   7.109  0.3081 -0.2971 -0.2169
   32CHL1   H1A 2339   1.106   1.057   7.142 -0.3180 -0.5798 -2.1120
   32CHL1   H1B 2340   1.146   1.224   7.176 -2.3566 -0.3134 -1.1454
   32CHL1    C2 2341   1.149   1.168   6.961  0.1400  0.3551  0.2407
   32CHL1   H2A 2342   1.052   1.222   6.950 -0.3420 -0.5665 -0.2242
   32CHL1   H2B 2343   1.141   1.073   6.903  0.9849  1.1051 -1.1630
   32CHL1   C20 2344   1.378   1.011   7.862 -0.5425  0.8400  0.1134
   32CHL1   H20 2345   1.443   0.922   7.874 -0.9038  0.4929 -0.4496
   32CHL1   C21 2346   1.232   0.962   7.855  0.8450  0.4469  0.5250
   32CHL1  H21A 2347   1.211   0.898   7.944  1.7388 -0.4411  0.1196
   32CHL1  H21B 2348   1.213   0.904   7.762  1.1101  1.5344 -0.2256
   32CHL1  H21C 2349   1.163   1.049   7.849 -1.1736 -1.0896  0.0910
   32CHL1   C22 2350   1.385   1.106   7.992  0.6685 -0.9141  0.2792
   32CHL1  H22A 2351   1.490   1.140   8.001  1.6478 -3.3681 -0.7956
   32CHL1  H22B 2352   1.312   1.185   7.965  0.6922 -0.9705  0.0445
   32CHL1   C23 2353   1.346   1.051   8.126 -0.5462 -0.4224  0.0501
   32CHL1  H23A 2354   1.323   1.136   8.194  3.3489  3.1482 -2.5942
   32CHL1  H23B 2355   1.255   0.986   8.124 -1.4546  0.7838  0.6932
   32CHL1   C24 2356   1.452   0.964   8.193  0.1677  0.2010 -0.9287
   32CHL1  H24A 2357   1.520   0.916   8.120 -0.4985 -1.1494 -0.6989
   32CHL1  H24B 2358   1.511   1.023   8.267  2.1028 -0.7904 -1.6110
   32CHL1   C25 2359   1.397   0.843   8.279  1.1634 -0.1099  0.4785
   32CHL1   H25 2360   1.327   0.791   8.210 -2.6433  3.2561  1.4132
   32CHL1   C26 2361   1.511   0.744   8.330 -0.7265 -0.1843 -0.0062
   32CHL1  H26A 2362   1.452   0.685   8.403  1.1959  0.4114  2.1354
   32CHL1  H26B 2363   1.554   0.683   8.247  1.0426  1.3262 -0.2678
   32CHL1  H26C 2364   1.582   0.814   8.379 -1.2530  0.2664  0.1150
   32CHL1   C27 2365   1.305   0.905   8.387 -0.6216  0.5884  0.4332
   32CHL1  H27A 2366   1.257   0.822   8.443 -1.0217 -1.1605 -2.2920
   32CHL1  H27B 2367   1.363   0.974   8.452  0.6855  0.9247 -1.0276
   32CHL1  H27C 2368   1.221   0.960   8.338 -1.1776 -1.3568 -0.9371
   33CHL1    C3 2369   0.650   1.488   6.831 -0.7754 -0.1590  1.2915
   33CHL1    H3 2370   0.654   1.598   6.845 -2.9183  0.4294 -1.7780
   33CHL1    O3 2371   0.629   1.470   6.687  0.1646  0.0285  0.3845
   33CHL1   H3' 2372   0.702   1.495   6.631 -0.1848 -1.3146 -0.7487
   33CHL1    C4 2373   0.790   1.427   6.859 -0.3664  0.0773 -0.5450
   33CHL1   H4A 2374   0.788   1.327   6.811 -2.0546  0.4560 -1.3308
   33CHL1   H4B 2375   0.870   1.480   6.803  0.3777 -2.1393 -1.6902
   33CHL1    C5 2376   0.811   1.429   7.011  0.1559  0.2734 -0.1295
   33CHL1    C6 2377   0.917   1.495   7.063 -0.6875  0.4521 -0.2974
   33CHL1    H6 2378   0.984   1.548   6.993 -1.0839 -0.8280 -1.6901
   33CHL1    C7 2379   0.950   1.486   7.209 -0.3760  0.1452  0.1629
   33CHL1   H7A 2380   1.055   1.452   7.219 -0.2689 -0.3917 -2.3568
   33CHL1   H7B 2381   0.931   1.584   7.259  1.1701  1.1394 -1.0979
   33CHL1    C8 2382   0.866   1.368   7.279 -0.0941 -0.1501  0.1561
   33CHL1    H8 2383   0.907   1.279   7.227  0.2270 -1.0561  1.8860
   33CHL1   C14 2384   0.893   1.379   7.426 -0.6720  0.3421  0.2380
   33CHL1   H14 2385   0.855   1.480   7.450  1.3466  0.8897  1.3735
   33CHL1   C15 2386   1.041   1.389   7.480  0.4481  0.1610  0.3143
   33CHL1  H15A 2387   1.082   1.295   7.437 -0.9904 -0.7236  0.7729
   33CHL1  H15B 2388   1.094   1.481   7.448 -0.3707  1.0848  1.5006
   33CHL1   C16 2389   1.019   1.371   7.630  0.4547 -0.0682  0.4523
   33CHL1  H16A 2390   1.095   1.301   7.669  1.3825  0.0481 -1.0718
   33CHL1  H16B 2391   1.031   1.470   7.680  2.2186  0.6693 -1.2994
   33CHL1   C17 2392   0.875   1.318   7.649  0.4732  0.2289  0.1858
   33CHL1   H17 2393   0.817   1.408   7.678 -1.6993 -0.6702 -1.1005
   33CHL1   C13 2394   0.815   1.279   7.508 -0.0011 -0.6969  0.0368
   33CHL1   C18 2395   0.851   1.136   7.469 -1.0372  0.0170  0.3216
   33CHL1  H18A 2396   0.795   1.058   7.525 -1.2671 -0.1881 -0.1866
   33CHL1  H18B 2397   0.832   1.109   7.363  0.9360 -1.2791  0.2436
   33CHL1  H18C 2398   0.959   1.120   7.487 -1.3946 -2.1896  0.8852
   33CHL1   C12 2399   0.662   1.311   7.480  0.2600  0.2004  0.0752
   33CHL1  H12A 2400   0.600   1.244   7.544  2.6609 -2.9222 -0.6101
   33CHL1  H12B 2401   0.638   1.416   7.506 -3.0529  0.8666 -4.4047
   33CHL1   C11 2402   0.632   1.288   7.330 -0.1628  0.0340 -0.0840
   33CHL1  H11A 2403   0.660   1.186   7.295  0.0742  0.5040 -1.3202
   33CHL1  H11B 2404   0.527   1.310   7.304 -0.6918  1.3809  2.7834
   33CHL1    C9 2405   0.724   1.383   7.240  0.4295  0.2692 -0.0269
   33CHL1    H9 2406   0.692   1.486   7.262  0.6762  0.4988 -0.7138
   33CHL1   C10 2407   0.700   1.355   7.087  0.2933 -0.2400 -0.2699
   33CHL1   C19 2408   0.718   1.210   7.052  0.5627  0.5361 -0.4683
   33CHL1  H19A 2409   0.719   1.178   6.946 -0.7157 -0.7925 -0.1221
   33CHL1  H19B 2410   0.814   1.165   7.085  0.3448  1.7909  2.1280
   33CHL1  H19C 2411   0.639   1.144   7.095  1.0358 -0.5340 -1.2005
   33CHL1    C1 2412   0.562   1.410   7.053 -0.0522 -0.1062 -0.3954
   33CHL1   H1A 2413   0.479   1.355   7.102 -1.4528  0.1372 -2.3623
   33CHL1   H1B 2414   0.562   1.516   7.088 -3.1237 -0.6651  1.6518
   33CHL1    C2 2415   0.541   1.422   6.903 -0.1010 -0.6125  0.5246
   33CHL1   H2A 2416   0.454   1.485   6.875  1.0163  1.0739  0.7535
   33CHL1   H2B 2417   0.525   1.322   6.857 -2.9418  0.9888 -2.4400
   33CHL1   C20 2418   0.858   1.223   7.762 -0.1880  0.5157 -0.2131
   33CHL1   H20 2419   0.914   1.131   7.736 -0.6163  0.8792 -2.6188
   33CHL1   C21 2420   0.706   1.171   7.782  0.6639  0.2996  0.0528
   33CHL1  H21A 2421   0.634   1.251   7.809  0.3327  0.2402 -0.6332
   33CHL1  H21B 2422   0.698   1.087   7.855 -1.0765  1.0667  0.8021
   33CHL1  H21C 2423   0.670   1.125   7.688  2.0152  1.4418 -1.0756
   33CHL1   C22 2424   0.917   1.289   7.898 -0.5440 -0.2759  0.2431
   33CHL1  H22A 2425   1.016   1.323   7.861 -1.0329  0.2170 -0.6476
   33CHL1  H22B 2426   0.847   1.371   7.922 -1.4442 -0.2369 -2.2354
   33CHL1   C23 2427   0.922   1.195   8.015 -0.4325 -0.0156 -0.7257
   33CHL1  H23A 2428   0.822   1.183   8.064 -0.8759  0.8918 -1.3703
   33CHL1  H23B 2429   0.967   1.103   7.974 -0.3237  0.4092 -1.5699
   33CHL1   C24 2430   1.008   1.250   8.135 -0.6755 -0.7004  0.3163
   33CHL1  H24A 2431   1.114   1.244   8.103 -0.5548 -0.7528  0.7227
   33CHL1  H24B 2432   0.995   1.360   8.145 -1.8909 -0.9144  1.3751
   33CHL1   C25 2433   0.996   1.174   8.274 -0.1505  0.4057  0.6222
   33CHL1   H25 2434   1.039   1.072   8.263  2.9074  1.6824 -0.4978
   33CHL1   C26 2435   1.096   1.255   8.360  0.2256  0.3600  0.4127
   33CHL1  H26A 2436   1.052   1.356   8.379 -3.3351 -0.6175 -1.6510
   33CHL1  H26B 2437   1.107   1.189   8.448  0.0892 -1.4959 -0.9167
   33CHL1  H26C 2438   1.194   1.256   8.307 -0.4680 -2.3572 -1.0924
   33CHL1   C27 2439   0.862   1.183   8.346 -0.0022 -0.1119  0.1131
   33CHL1  H27A 2440   0.844   1.292   8.360  0.4675 -0.1229  0.8716
   33CHL1  H27B 2441   0.784   1.133   8.286  2.1043 -2.5502 -0.7906
   33CHL1  H27C 2442   0.846   1.126   8.440 -1.0747 -1.1531 -0.6767
   34CHL1    C3 2443   3.438   0.211   7.156  0.3804 -0.2012  0.5144
   34CHL1    H3 2444   3.456   0.320   7.152  3.3425 -0.4841  2.7198
   34CHL1    O3 2445   3.464   0.163   7.021  0.0286 -0.4479 -0.5347
   34CHL1   H3' 2446   3.493   0.074   7.044  3.4635  0.7688  0.4406
   34CHL1    C4 2447   3.535   0.152   7.254 -0.1687  0.1258  0.3175
   34CHL1   H4A 2448   3.529   0.041   7.248  4.3747 -0.3194  0.7795
   34CHL1   H4B 2449   3.637   0.168   7.213 -0.9339  0.5748 -1.5187
   34CHL1    C5 2450   3.521   0.189   7.400 -0.0984 -0.5022 -0.2648
   34CHL1    C6 2451   3.625   0.248   7.459  0.1996 -0.1035  0.0049
   34CHL1    H6 2452   3.724   0.260   7.412 -0.2435  0.1008 -0.9007
   34CHL1    C7 2453   3.614   0.288   7.602  0.1987  0.0665 -0.3968
   34CHL1   H7A 2454   3.709   0.255   7.649  0.9077  2.0713 -0.3208
   34CHL1   H7B 2455   3.605   0.399   7.607 -2.3187 -0.1237  0.8957
   34CHL1    C8 2456   3.493   0.226   7.676  0.1984 -0.4922  0.4322
   34CHL1    H8 2457   3.509   0.118   7.696  2.1739 -0.8044 -2.2734
   34CHL1   C14 2458   3.465   0.306   7.799 -0.1091 -0.3020 -0.3239
   34CHL1   H14 2459   3.429   0.405   7.767 -0.3850  0.1854  1.3963
   34CHL1   C15 2460   3.586   0.331   7.886  0.0351  0.2151 -0.2462
   34CHL1  H15A 2461   3.639   0.234   7.888 -1.7376 -0.8357 -1.0955
   34CHL1  H15B 2462   3.648   0.416   7.851 -1.4987  1.7486  0.5716
   34CHL1   C16 2463   3.526   0.365   8.022 -0.2878  0.3574 -0.1290
   34CHL1  H16A 2464   3.566   0.311   8.110 -1.5072 -1.8759 -0.8685
   34CHL1  H16B 2465   3.540   0.473   8.045 -1.2484  0.1366  1.5905
   34CHL1   C17 2466   3.374   0.356   8.002  0.0415  0.3504 -0.5629
   34CHL1   H17 2467   3.325   0.448   7.965 -0.4299  1.2326  2.0621
   34CHL1   C13 2468   3.351   0.256   7.888 -0.3094  0.5505 -0.1291
   34CHL1   C18 2469   3.387   0.117   7.941 -0.1471  0.8469 -0.1087
   34CHL1  H18A 2470   3.299   0.078   7.996 -0.1367  0.5154 -0.3242
   34CHL1  H18B 2471   3.408   0.039   7.865  0.3416 -0.4615  1.3188
   34CHL1  H18C 2472   3.474   0.111   8.010  1.3862  3.1129 -1.7053
   34CHL1   C12 2473   3.222   0.257   7.805  0.1883  0.2101 -0.5622
   34CHL1  H12A 2474   3.133   0.210   7.853  0.7257  0.9435  1.2091
   34CHL1  H12B 2475   3.188   0.362   7.796  0.2693  0.1963 -1.0411
   34CHL1   C11 2476   3.241   0.182   7.667 -0.1226  0.4378 -1.0130
   34CHL1  H11A 2477   3.249   0.073   7.685  0.7915  0.7118  0.3900
   34CHL1  H11B 2478   3.145   0.209   7.618  0.1095  1.0295 -1.1570
   34CHL1    C9 2479   3.365   0.234   7.586 -0.1237 -0.1716  0.4063
   34CHL1    H9 2480   3.337   0.338   7.560 -1.2744 -1.0697 -2.2673
   34CHL1   C10 2481   3.378   0.165   7.451 -0.2217  0.3408 -0.7522
   34CHL1   C19 2482   3.359   0.011   7.461  0.6661  0.0374 -0.0614
   34CHL1  H19A 2483   3.425  -0.028   7.541 -1.0670 -1.6769  0.6078
   34CHL1  H19B 2484   3.256  -0.026   7.479  0.4860  1.0624  1.2140
   34CHL1  H19C 2485   3.382  -0.036   7.363 -0.4922  0.4047 -0.5272
   34CHL1    C1 2486   3.273   0.228   7.354  0.1681  0.3528  0.6421
   34CHL1   H1A 2487   3.169   0.207   7.385 -0.6205 -1.0946 -2.6246
   34CHL1   H1B 2488   3.288   0.338   7.353  1.3066  0.2796 -3.0238
   34CHL1    C2 2489   3.297   0.182   7.203  0.1037 -0.1486  0.5389
   34CHL1   H2A 2490   3.220   0.235   7.144 -1.1237 -0.6667  1.6201
   34CHL1   H2B 2491   3.272   0.074   7.208  2.7229 -0.7725  2.7790
   34CHL1   C20 2492   3.302   0.336   8.139 -0.2776  0.2260  0.5809
   34CHL1   H20 2493   3.336   0.240   8.184 -3.0594 -1.3197 -0.3353
   34CHL1   C21 2494   3.149   0.330   8.115 -0.4008 -0.0127 -0.1846
   34CHL1  H21A 2495   3.098   0.316   8.213 -0.0040  0.8038  0.1551
   34CHL1  H21B 2496   3.130   0.234   8.063 -0.2835 -1.3251  2.0689
   34CHL1  H21C 2497   3.118   0.417   8.055  0.1579  0.4877  0.2300
   34CHL1   C22 2498   3.331   0.446   8.241 -0.5871  0.0171 -0.1330
   34CHL1  H22A 2499   3.441   0.457   8.241 -0.4934 -0.7266  1.2210
   34CHL1  H22B 2500   3.281   0.542   8.216  0.4598  0.7996  0.6642
   34CHL1   C23 2501   3.280   0.415   8.381 -0.8026  0.6689  0.1796
   34CHL1  H23A 2502   3.172   0.441   8.384 -0.1939  4.0339 -2.3746
   34CHL1  H23B 2503   3.292   0.308   8.409 -0.0683  0.3347 -1.2886
   34CHL1   C24 2504   3.346   0.508   8.486 -0.5989  0.9606  0.0404
   34CHL1  H24A 2505   3.452   0.482   8.505 -0.2444  1.2362 -1.3978
   34CHL1  H24B 2506   3.346   0.610   8.444  1.9373  1.7928  1.8339
   34CHL1   C25 2507   3.270   0.506   8.619  0.0856 -0.2496 -0.1134
   34CHL1   H25 2508   3.166   0.535   8.592  0.8298  0.2459 -2.7620
   34CHL1   C26 2509   3.279   0.378   8.688 -0.2065  0.1768 -0.1918
   34CHL1  H26A 2510   3.216   0.374   8.779  0.0300  1.5995  0.0573
   34CHL1  H26B 2511   3.252   0.293   8.621 -2.3912  1.3637 -0.9123
   34CHL1  H26C 2512   3.387   0.360   8.709  0.4129  1.9578 -1.5409
   34CHL1   C27 2513   3.318   0.626   8.714  0.0021  0.0760  0.8418
   34CHL1  H27A 2514   3.261   0.630   8.810 -0.9046 -0.4580  0.3445
   34CHL1  H27B 2515   3.427   0.629   8.733  0.0934 -2.1463  0.9643
   34CHL1  H27C 2516   3.294   0.720   8.659 -2.9668 -1.9902 -1.7762
   35CHL1    C3 2517   3.744   0.609   7.206  0.5182  0.3367 -0.0523
   35CHL1    H3 2518   3.750   0.513   7.262 -0.5227 -0.7772 -1.7586
   35CHL1    O3 2519   3.781   0.575   7.070  0.1744 -0.2225  0.0045
   35CHL1   H3' 2520   3.809   0.653   7.022  2.3849 -0.2331  1.1591
   35CHL1    C4 2521   3.611   0.690   7.205  0.2849 -0.9321  0.3840
   35CHL1   H4A 2522   3.637   0.784   7.151  2.7180 -2.7335 -1.8380
   35CHL1   H4B 2523   3.540   0.633   7.142 -0.5804  2.0969 -1.6352
   35CHL1    C5 2524   3.561   0.717   7.349  0.8778 -0.3214 -0.4322
   35CHL1    C6 2525   3.441   0.675   7.384 -0.5357 -0.2318  1.2011
   35CHL1    H6 2526   3.379   0.638   7.301  0.5934  0.5292 -0.0257
   35CHL1    C7 2527   3.392   0.673   7.529  0.2997 -0.2526  0.6758
   35CHL1   H7A 2528   3.287   0.706   7.546  1.1001  2.0795  1.4982
   35CHL1   H7B 2529   3.389   0.572   7.575 -0.6509 -1.4454 -1.8085
   35CHL1    C8 2530   3.474   0.770   7.617 -0.1723  0.5977 -0.2201
   35CHL1    H8 2531   3.450   0.874   7.584  0.3922  0.9450  0.4436
   35CHL1   C14 2532   3.433   0.752   7.764 -0.5138 -0.2302  0.2673
   35CHL1   H14 2533   3.468   0.651   7.794  1.6017  0.7002  1.1078
   35CHL1   C15 2534   3.287   0.753   7.815 -0.4781 -0.4974  0.4372
   35CHL1  H15A 2535   3.231   0.841   7.778  0.5525  0.1555  0.3986
   35CHL1  H15B 2536   3.239   0.654   7.797  0.5032 -0.9763  0.3302
   35CHL1   C16 2537   3.297   0.783   7.964 -0.3656 -0.6860 -0.3517
   35CHL1  H16A 2538   3.257   0.886   7.978 -0.9909 -1.2260  2.4814
   35CHL1  H16B 2539   3.244   0.720   8.039 -0.6617  1.5834  1.4450
   35CHL1   C17 2540   3.447   0.797   8.000 -0.1207 -0.1222  0.2698
   35CHL1   H17 2541   3.479   0.695   8.030  1.1024 -0.8383 -3.0582
   35CHL1   C13 2542   3.518   0.832   7.865  0.1097  0.0547 -0.7503
   35CHL1   C18 2543   3.497   0.983   7.849 -0.1625  0.2308  0.4309
   35CHL1  H18A 2544   3.536   1.020   7.751  0.0807  0.1076  0.4831
   35CHL1  H18B 2545   3.391   1.016   7.843  0.1822  1.3038 -0.1559
   35CHL1  H18C 2546   3.558   1.040   7.922  0.2389  0.8460 -0.3735
   35CHL1   C12 2547   3.662   0.791   7.842  0.6625 -0.0362 -0.0212
   35CHL1  H12A 2548   3.722   0.859   7.907  0.5809  3.2370 -3.0334
   35CHL1  H12B 2549   3.674   0.684   7.868  0.1276 -0.0334  0.2716
   35CHL1   C11 2550   3.713   0.820   7.697 -0.0686  0.6578  0.6928
   35CHL1  H11A 2551   3.712   0.929   7.675  2.9434  0.3992 -1.4235
   35CHL1  H11B 2552   3.819   0.789   7.691  0.5109  2.6200  0.1909
   35CHL1    C9 2553   3.627   0.747   7.597 -0.5283  0.4396 -0.7034
   35CHL1    H9 2554   3.642   0.640   7.623  0.5253  0.6254 -0.5002
   35CHL1   C10 2555   3.671   0.761   7.445  0.4718 -0.4082  0.1732
   35CHL1   C19 2556   3.672   0.915   7.410 -1.2141  0.1537  0.1816
   35CHL1  H19A 2557   3.748   0.968   7.472 -1.4094  0.5279  0.1036
   35CHL1  H19B 2558   3.688   0.940   7.304  2.3663  1.0242  0.8215
   35CHL1  H19C 2559   3.574   0.956   7.442 -0.9293  1.1711 -0.2250
   35CHL1    C1 2560   3.817   0.700   7.425  0.1878  0.3935 -0.4571
   35CHL1   H1A 2561   3.892   0.761   7.479 -0.2181 -0.8330  1.5901
   35CHL1   H1B 2562   3.816   0.596   7.464 -0.4522 -0.3049 -2.1944
   35CHL1    C2 2563   3.851   0.691   7.273 -0.4792 -0.2264  0.2700
   35CHL1   H2A 2564   3.949   0.641   7.255  0.1962  1.8238 -2.6082
   35CHL1   H2B 2565   3.844   0.792   7.227 -0.8938  0.3368  1.5330
   35CHL1   C20 2566   3.468   0.891   8.122  0.0142  0.3742  1.2590
   35CHL1   H20 2567   3.422   0.990   8.099  0.3270  0.3500  0.5202
   35CHL1   C21 2568   3.623   0.892   8.156  0.1306 -0.5388 -0.1690
   35CHL1  H21A 2569   3.637   0.952   8.249  2.2443 -1.3990  0.1120
   35CHL1  H21B 2570   3.690   0.937   8.080  0.7409 -2.0318 -0.5433
   35CHL1  H21C 2571   3.657   0.789   8.180  0.5631 -1.6404 -4.6634
   35CHL1   C22 2572   3.396   0.844   8.245  0.6328 -0.3166 -0.3763
   35CHL1  H22A 2573   3.349   0.744   8.233  0.8198 -0.5619  0.8055
   35CHL1  H22B 2574   3.466   0.833   8.330 -0.4082 -2.0368  0.3174
   35CHL1   C23 2575   3.291   0.942   8.297 -0.4587 -0.9526 -0.7849
   35CHL1  H23A 2576   3.322   1.048   8.287 -1.0789 -0.3138  2.7856
   35CHL1  H23B 2577   3.207   0.916   8.229 -0.2446 -2.6533 -0.4594
   35CHL1   C24 2578   3.250   0.914   8.435  0.0496  0.1245 -0.3194
   35CHL1  H24A 2579   3.200   0.815   8.437 -1.2438  0.7628 -0.2866
   35CHL1  H24B 2580   3.337   0.909   8.504  0.0768 -0.0119 -0.3614
   35CHL1   C25 2581   3.145   1.003   8.494  0.2748 -0.8506  0.3288
   35CHL1   H25 2582   3.075   1.013   8.408 -1.0977 -0.6216  1.4564
   35CHL1   C26 2583   3.062   0.935   8.600 -0.2742 -0.4057 -0.2576
   35CHL1  H26A 2584   2.988   0.871   8.548 -0.1656  0.0465 -0.9806
   35CHL1  H26B 2585   3.125   0.885   8.676 -0.0121 -0.0132 -0.2160
   35CHL1  H26C 2586   2.995   1.004   8.655 -1.6147 -1.8044 -0.0582
   35CHL1   C27 2587   3.202   1.142   8.540  0.2872  0.1463 -0.4188
   35CHL1  H27A 2588   3.285   1.117   8.609 -1.1253 -0.5753  1.1014
   35CHL1  H27B 2589   3.125   1.200   8.595  0.9452 -0.2120  0.9231
   35CHL1  H27C 2590   3.256   1.189   8.455  1.1764 -0.1665 -0.0318
   36CHL1    C3 2591   4.762   2.793   7.300  0.2887 -0.7996 -0.3375
   36CHL1    H3 2592   4.677   2.724   7.318 -0.7437  0.3657 -0.5861
   36CHL1    O3 2593   4.769   2.847   7.166 -0.1708  0.0380  0.3802
   36CHL1   H3' 2594   4.788   2.766   7.119  1.8921  0.5122  0.3049
   36CHL1    C4 2595   4.749   2.912   7.399  0.7970 -0.1052  0.2743
   36CHL1   H4A 2596   4.824   2.989   7.370  0.8385  0.2033  1.1670
   36CHL1   H4B 2597   4.653   2.962   7.374  1.7139  0.6782 -1.8342
   36CHL1    C5 2598   4.764   2.876   7.545  0.1178 -0.8240  0.8170
   36CHL1    C6 2599   4.660   2.898   7.631  0.2415 -0.0275  0.6378
   36CHL1    H6 2600   4.571   2.953   7.598  0.9847  0.4723 -0.6173
   36CHL1    C7 2601   4.662   2.865   7.780 -1.4112 -0.0363  0.4326
   36CHL1   H7A 2602   4.638   2.953   7.842  4.0235  1.4261  0.9813
   36CHL1   H7B 2603   4.592   2.781   7.802 -0.1930 -1.1882  0.0774
   36CHL1    C8 2604   4.807   2.828   7.824  0.1898 -0.5878  0.4894
   36CHL1    H8 2605   4.855   2.927   7.840 -1.3514  0.5633 -1.6319
   36CHL1   C14 2606   4.804   2.756   7.957  0.2562 -0.1465  0.0882
   36CHL1   H14 2607   4.763   2.655   7.935  1.2202 -0.2305 -1.5061
   36CHL1   C15 2608   4.706   2.817   8.070 -0.8548  0.5175 -0.0300
   36CHL1  H15A 2609   4.719   2.927   8.066  1.7747  0.2557 -0.9772
   36CHL1  H15B 2610   4.602   2.780   8.059 -1.5023  1.8628  1.2374
   36CHL1   C16 2611   4.771   2.762   8.196 -0.1409 -0.6737 -0.3606
   36CHL1  H16A 2612   4.817   2.835   8.267 -3.1310  0.6270  0.3960
   36CHL1  H16B 2613   4.715   2.686   8.254 -0.7627 -1.3078 -1.7618
   36CHL1   C17 2614   4.895   2.672   8.150 -0.1861 -0.3616 -0.7521
   36CHL1   H17 2615   4.856   2.569   8.135 -0.5581 -0.6318  1.6677
   36CHL1   C13 2616   4.939   2.721   8.018  0.6253  0.1425  0.1492
   36CHL1   C18 2617   5.013   2.858   8.040 -0.0891 -0.0523  0.6448
   36CHL1  H18A 2618   4.950   2.931   8.095  0.2088  0.5760  0.1621
   36CHL1  H18B 2619   5.113   2.834   8.082 -1.9932 -3.3921  3.8439
   36CHL1  H18C 2620   5.030   2.912   7.944  1.4515 -0.8974  0.3994
   36CHL1   C12 2621   5.014   2.629   7.912  0.1869  0.4067 -0.3305
   36CHL1  H12A 2622   5.119   2.608   7.942  0.0963 -0.9215 -0.9019
   36CHL1  H12B 2623   4.955   2.536   7.900  0.0351  0.4075  0.3590
   36CHL1   C11 2624   5.023   2.689   7.772  0.1944  0.4141 -0.3012
   36CHL1  H11A 2625   5.091   2.776   7.781 -1.4284  1.6977  0.2379
   36CHL1  H11B 2626   5.062   2.609   7.706 -1.9883 -1.1741  0.2180
   36CHL1    C9 2627   4.885   2.739   7.722  0.0635  0.4196  1.3856
   36CHL1    H9 2628   4.819   2.650   7.716 -0.3379  0.8076 -0.5085
   36CHL1   C10 2629   4.891   2.814   7.586 -0.9913 -1.2283  0.5979
   36CHL1   C19 2630   4.999   2.921   7.581 -0.6712  0.5755  0.0590
   36CHL1  H19A 2631   4.988   2.996   7.662  0.7079  0.8129  0.0401
   36CHL1  H19B 2632   5.098   2.872   7.593 -1.0037 -0.1518 -0.0868
   36CHL1  H19C 2633   5.006   2.983   7.489 -0.0215 -0.2318 -0.4508
   36CHL1    C1 2634   4.921   2.698   7.479  0.5140 -0.0732 -0.1545
   36CHL1   H1A 2635   5.025   2.662   7.493 -0.4040 -2.9808 -0.1367
   36CHL1   H1B 2636   4.843   2.627   7.516 -0.1341  2.6655  4.6600
   36CHL1    C2 2637   4.901   2.727   7.331  0.6133  1.0391  0.0543
   36CHL1   H2A 2638   4.925   2.639   7.269  3.3842  2.2089 -0.7271
   36CHL1   H2B 2639   4.979   2.793   7.286 -1.5483  3.9189  0.2378
   36CHL1   C20 2640   5.000   2.661   8.261  0.5988  0.3621  1.3214
   36CHL1   H20 2641   5.028   2.765   8.288  0.6344  1.0345 -1.0952
   36CHL1   C21 2642   5.126   2.590   8.214  0.2272 -0.2419 -0.1161
   36CHL1  H21A 2643   5.094   2.502   8.153 -1.6435 -0.4190  1.0510
   36CHL1  H21B 2644   5.169   2.552   8.309 -1.4553 -0.2716  0.6763
   36CHL1  H21C 2645   5.194   2.649   8.149 -0.0282 -0.3280 -0.4705
   36CHL1   C22 2646   4.941   2.593   8.390 -0.5366 -0.7232 -0.0901
   36CHL1  H22A 2647   5.020   2.577   8.467 -0.1592  0.7678 -0.1315
   36CHL1  H22B 2648   4.861   2.656   8.435 -0.3257 -1.4567  1.3769
   36CHL1   C23 2649   4.876   2.451   8.367  0.1090  0.1553 -0.7299
   36CHL1  H23A 2650   4.794   2.456   8.292 -1.1222 -1.5582  0.4296
   36CHL1  H23B 2651   4.962   2.391   8.329 -0.1080  0.0432 -1.0503
   36CHL1   C24 2652   4.820   2.380   8.500  0.1100  0.1914 -0.5736
   36CHL1  H24A 2653   4.908   2.360   8.564 -0.0401 -0.3273 -0.5274
   36CHL1  H24B 2654   4.742   2.445   8.545 -0.1520 -1.0212  0.7891
   36CHL1   C25 2655   4.753   2.241   8.466  0.8097  0.4037 -0.6743
   36CHL1   H25 2656   4.680   2.254   8.383 -0.5167 -4.1782 -0.5449
   36CHL1   C26 2657   4.854   2.131   8.421 -0.4374  0.7158  0.2610
   36CHL1  H26A 2658   4.888   2.149   8.317  2.1566  2.6805  1.3411
   36CHL1  H26B 2659   4.938   2.131   8.494 -0.6239 -1.1038  0.5168
   36CHL1  H26C 2660   4.793   2.038   8.425 -1.8354  1.6111  3.3509
   36CHL1   C27 2661   4.681   2.188   8.591 -0.4945  0.0651  0.3919
   36CHL1  H27A 2662   4.761   2.161   8.663 -1.8917 -0.7807  1.6931
   36CHL1  H27B 2663   4.614   2.263   8.639  0.1350  0.6661  0.3437
   36CHL1  H27C 2664   4.622   2.098   8.565 -2.8028  1.4940  0.3767
   37CHL1    C3 2665   2.551   4.487   6.994  0.2996 -0.0672 -0.8867
   37CHL1    H3 2666   2.614   4.396   6.991 -0.1229 -0.3933 -0.1912
   37CHL1    O3 2667   2.483   4.494   6.874 -0.2936  0.5087  0.2350
   37CHL1   H3' 2668   2.402   4.543   6.887 -0.1768  0.5784  0.7182
   37CHL1    C4 2669   2.453   4.475   7.113  0.5206 -0.3016 -0.6495
   37CHL1   H4A 2670   2.368   4.546   7.109 -0.5194 -1.5359 -1.1271
   37CHL1   H4B 2671   2.405   4.376   7.097 -0.7758  0.1163  0.5339
   37CHL1    C5 2672   2.518   4.491   7.255 -0.0872  0.4330  0.6502
   37CHL1    C6 2673   2.496   4.394   7.345  0.3115 -0.7758 -0.7728
   37CHL1    H6 2674   2.412   4.324   7.337 -0.3092 -0.4642  1.9765
   37CHL1    C7 2675   2.557   4.405   7.488  0.4844 -0.0119  0.7435
   37CHL1   H7A 2676   2.497   4.374   7.576  0.3554 -2.1032 -0.0196
   37CHL1   H7B 2677   2.636   4.328   7.499  0.6111 -0.0206 -0.1951
   37CHL1    C8 2678   2.621   4.540   7.523  0.3234  0.0827  0.8994
   37CHL1    H8 2679   2.543   4.615   7.547  0.9236  1.7724 -1.9761
   37CHL1   C14 2680   2.715   4.532   7.645 -0.0289  0.4309 -0.0572
   37CHL1   H14 2681   2.794   4.461   7.612  0.3654  1.0922 -0.5555
   37CHL1   C15 2682   2.666   4.473   7.776  0.1484  0.2969  0.1702
   37CHL1  H15A 2683   2.557   4.498   7.777 -0.0503 -0.5553  0.9410
   37CHL1  H15B 2684   2.668   4.362   7.768  1.0890  0.1616  1.8407
   37CHL1   C16 2685   2.760   4.525   7.885 -0.2166 -0.7520  0.2085
   37CHL1  H16A 2686   2.697   4.588   7.952  1.8187  1.2973  0.2781
   37CHL1  H16B 2687   2.816   4.455   7.950 -0.4644 -0.2743  0.9538
   37CHL1   C17 2688   2.860   4.621   7.813  0.0657 -0.6405 -0.1980
   37CHL1   H17 2689   2.947   4.558   7.786 -0.1854 -1.3809  0.6858
   37CHL1   C13 2690   2.795   4.660   7.683  0.4857  0.2216 -0.5206
   37CHL1   C18 2691   2.697   4.778   7.711  0.2274 -0.5848  0.4777
   37CHL1  H18A 2692   2.637   4.737   7.795 -0.7193 -0.7646 -0.2580
   37CHL1  H18B 2693   2.755   4.871   7.725  1.6707 -1.3740 -0.0528
   37CHL1  H18C 2694   2.618   4.787   7.633  0.1674  0.4795  0.6597
   37CHL1   C12 2695   2.881   4.689   7.566 -0.3661 -0.3084  0.3376
   37CHL1  H12A 2696   2.942   4.780   7.581  0.7592 -1.3122  2.3440
   37CHL1  H12B 2697   2.959   4.610   7.559  1.7314  1.7172 -0.2066
   37CHL1   C11 2698   2.807   4.704   7.432  0.0992  0.4324  0.0009
   37CHL1  H11A 2699   2.761   4.805   7.432 -2.9825 -0.8752  0.4093
   37CHL1  H11B 2700   2.879   4.711   7.348 -2.4886  3.9343 -2.1642
   37CHL1    C9 2701   2.702   4.587   7.403 -0.3288  0.0798 -0.0442
   37CHL1    H9 2702   2.778   4.510   7.379  0.0955  0.5555 -0.2431
   37CHL1   C10 2703   2.618   4.604   7.276  0.2060 -0.3622  0.0782
   37CHL1   C19 2704   2.534   4.733   7.293  0.2746  0.4019 -0.2149
   37CHL1  H19A 2705   2.483   4.748   7.390 -2.8871  0.5622 -1.7698
   37CHL1  H19B 2706   2.594   4.826   7.293 -0.2939  0.7975  1.1260
   37CHL1  H19C 2707   2.468   4.757   7.207  0.6259  1.0098 -0.3176
   37CHL1    C1 2708   2.703   4.616   7.147 -0.4587  0.6687 -0.1254
   37CHL1   H1A 2709   2.758   4.713   7.150  1.2806 -0.2572 -0.6117
   37CHL1   H1B 2710   2.785   4.540   7.150 -1.0114  0.0828  0.2766
   37CHL1    C2 2711   2.627   4.616   7.010 -0.2121 -0.1987 -0.3868
   37CHL1   H2A 2712   2.712   4.614   6.938  1.1621  0.9688  1.1224
   37CHL1   H2B 2713   2.575   4.710   6.981 -0.7043 -1.0847 -2.5134
   37CHL1   C20 2714   2.909   4.738   7.911  0.2513  0.6163  0.1910
   37CHL1   H20 2715   2.816   4.795   7.934 -0.7615 -0.9896  0.1904
   37CHL1   C21 2716   3.011   4.830   7.839 -0.3605  0.4505 -0.1190
   37CHL1  H21A 2717   3.069   4.884   7.917  1.2787 -0.8187 -0.4194
   37CHL1  H21B 2718   2.960   4.902   7.771  0.5261  3.1360  1.8835
   37CHL1  H21C 2719   3.078   4.775   7.770 -0.4488  0.1604  0.0268
   37CHL1   C22 2720   2.972   4.683   8.045  0.1843  0.4433 -0.7751
   37CHL1  H22A 2721   2.908   4.605   8.092  2.1263 -1.2046 -0.7124
   37CHL1  H22B 2722   3.061   4.620   8.022 -0.8077 -0.1530 -3.4059
   37CHL1   C23 2723   3.017   4.784   8.151  0.6534 -0.0748  0.1256
   37CHL1  H23A 2724   3.107   4.847   8.134  0.7026 -0.1982 -0.0740
   37CHL1  H23B 2725   2.938   4.859   8.173 -0.9053 -1.7953  0.6103
   37CHL1   C24 2726   3.032   4.714   8.284  0.1661 -0.0159  0.1809
   37CHL1  H24A 2727   2.928   4.714   8.323  0.2414  0.2352  0.3878
   37CHL1  H24B 2728   3.065   4.610   8.264 -0.9820  0.1788 -3.5808
   37CHL1   C25 2729   3.118   4.796   8.379 -0.3073 -0.9431 -0.3864
   37CHL1   H25 2730   3.212   4.832   8.333 -1.5928 -1.5349 -3.8143
   37CHL1   C26 2731   3.056   4.927   8.425 -0.3788 -0.2623  0.0250
   37CHL1  H26A 2732   3.135   4.982   8.479  0.6133 -2.0950  0.5169
   37CHL1  H26B 2733   3.024   4.991   8.340 -0.2247  1.1084  0.9622
   37CHL1  H26C 2734   2.972   4.905   8.495 -0.8305 -0.3441 -0.5315
   37CHL1   C27 2735   3.146   4.706   8.498  0.4471 -0.3299 -0.2947
   37CHL1  H27A 2736   3.208   4.754   8.576 -0.9597 -1.3718  1.5209
   37CHL1  H27B 2737   3.054   4.662   8.541 -0.1116  0.8546 -0.2253
   37CHL1  H27C 2738   3.221   4.630   8.468 -0.5137 -0.1888 -3.4278
   38CHL1    C3 2739   0.730   6.532   6.789  0.1369 -0.2378 -0.0512
   38CHL1    H3 2740   0.814   6.604   6.783  0.5957 -0.8342 -1.0634
   38CHL1    O3 2741   0.725   6.472   6.662  0.1015  0.9270 -1.0926
   38CHL1   H3' 2742   0.644   6.420   6.667  0.9909 -0.4808 -0.6401
   38CHL1    C4 2743   0.752   6.416   6.894  0.2910 -0.3716  0.4966
   38CHL1   H4A 2744   0.680   6.334   6.872 -0.9164  0.1694  2.1849
   38CHL1   H4B 2745   0.855   6.381   6.872  0.4410  1.2021 -1.5720
   38CHL1    C5 2746   0.731   6.463   7.041  0.5477 -0.0157 -0.5900
   38CHL1    C6 2747   0.830   6.454   7.127 -0.5274  0.7040  0.0543
   38CHL1    H6 2748   0.924   6.406   7.097 -0.7702  0.8475 -0.9665
   38CHL1    C7 2749   0.825   6.493   7.275 -0.0256 -0.0110 -0.1757
   38CHL1   H7A 2750   0.879   6.425   7.345  0.5329  2.3596  1.7995
   38CHL1   H7B 2751   0.880   6.590   7.277 -1.0795  0.5936 -0.2144
   38CHL1    C8 2752   0.684   6.528   7.326  0.1467 -0.2518  0.6831
   38CHL1    H8 2753   0.633   6.430   7.339 -1.3946  0.6943  2.2167
   38CHL1   C14 2754   0.693   6.603   7.458 -0.4263 -0.2353  0.6741
   38CHL1   H14 2755   0.758   6.691   7.441 -0.6305 -0.2456 -0.1879
   38CHL1   C15 2756   0.745   6.526   7.578  0.1421 -0.0454 -0.4358
   38CHL1  H15A 2757   0.702   6.424   7.578  2.0298 -0.8877  0.0505
   38CHL1  H15B 2758   0.854   6.506   7.574  0.2638  0.3932  0.4565
   38CHL1   C16 2759   0.708   6.619   7.695 -0.7979 -0.2566 -0.0549
   38CHL1  H16A 2760   0.649   6.564   7.771 -0.5590 -1.1178 -0.4759
   38CHL1  H16B 2761   0.794   6.676   7.736 -1.0066 -0.1937  0.2958
   38CHL1   C17 2762   0.615   6.721   7.638 -1.0383  0.1917 -0.2617
   38CHL1   H17 2763   0.680   6.807   7.610  1.7267 -2.1178 -1.4149
   38CHL1   C13 2764   0.564   6.666   7.503 -0.1870  0.1344  0.1746
   38CHL1   C18 2765   0.464   6.550   7.540 -0.6181 -0.7511  0.3872
   38CHL1  H18A 2766   0.496   6.472   7.613  1.9773 -1.2877 -1.1918
   38CHL1  H18B 2767   0.371   6.597   7.577 -0.8902 -0.6196 -0.4655
   38CHL1  H18C 2768   0.436   6.492   7.450 -1.4329  0.4471 -0.1516
   38CHL1   C12 2769   0.518   6.760   7.393  0.0071  0.0071  0.1137
   38CHL1  H12A 2770   0.420   6.806   7.418 -0.5251 -0.7089 -0.6049
   38CHL1  H12B 2771   0.597   6.838   7.385  0.8516 -0.6792  1.3082
   38CHL1   C11 2772   0.491   6.690   7.261 -0.5902  0.0197 -0.4281
   38CHL1  H11A 2773   0.399   6.630   7.276 -0.3680 -0.1745  0.2202
   38CHL1  H11B 2774   0.475   6.769   7.185  0.0794  0.6857  0.1027
   38CHL1    C9 2775   0.615   6.613   7.211 -0.6386 -0.7687 -0.4127
   38CHL1    H9 2776   0.693   6.692   7.203 -1.2040 -0.0213  1.0826
   38CHL1   C10 2777   0.610   6.541   7.080  1.1756  0.3396  0.1079
   38CHL1   C19 2778   0.491   6.431   7.088  0.6853 -0.3166  0.0117
   38CHL1  H19A 2779   0.397   6.459   7.140  1.4960 -1.3751  2.1853
   38CHL1  H19B 2780   0.472   6.395   6.985  0.7227  0.6679 -0.3460
   38CHL1  H19C 2781   0.528   6.338   7.136  1.1697 -0.4534 -0.6077
   38CHL1    C1 2782   0.583   6.648   6.967  0.5596  0.4212  0.0474
   38CHL1   H1A 2783   0.481   6.686   6.990  0.6676  1.3146 -0.8754
   38CHL1   H1B 2784   0.650   6.736   6.984  1.7749 -0.9723  3.0161
   38CHL1    C2 2785   0.596   6.594   6.816  1.0633 -0.6146 -0.3954
   38CHL1   H2A 2786   0.578   6.683   6.752  2.9148  0.5500  0.5958
   38CHL1   H2B 2787   0.514   6.520   6.812 -0.3502  0.8107  0.8839
   38CHL1   C20 2788   0.520   6.767   7.750  0.1875  0.0165 -0.1187
   38CHL1   H20 2789   0.457   6.686   7.793  0.9150 -0.2314  0.5264
   38CHL1   C21 2790   0.424   6.877   7.686 -0.5525  0.3100  0.6387
   38CHL1  H21A 2791   0.487   6.920   7.604  0.7744 -0.6072  1.1389
   38CHL1  H21B 2792   0.390   6.955   7.758  1.2180  1.9479 -0.1970
   38CHL1  H21C 2793   0.335   6.832   7.637 -0.3006  0.3337  0.1556
   38CHL1   C22 2794   0.594   6.820   7.878  0.0778  0.2212 -0.2738
   38CHL1  H22A 2795   0.675   6.750   7.908 -0.4983  0.0698  0.9784
   38CHL1  H22B 2796   0.642   6.915   7.848  2.0290 -1.7965 -4.3599
   38CHL1   C23 2797   0.500   6.832   8.004 -0.2657 -0.6661  0.6767
   38CHL1  H23A 2798   0.439   6.925   8.000 -2.5876 -2.0871  1.5715
   38CHL1  H23B 2799   0.427   6.749   7.997 -0.8812 -0.0119 -1.1092
   38CHL1   C24 2800   0.578   6.845   8.134 -0.8360 -0.0049 -0.2394
   38CHL1  H24A 2801   0.504   6.839   8.216 -0.5560 -1.0244 -0.0462
   38CHL1  H24B 2802   0.635   6.750   8.147  1.6423  1.2773 -1.0333
   38CHL1   C25 2803   0.664   6.974   8.147  0.5081  0.8441 -0.2839
   38CHL1   H25 2804   0.720   6.958   8.053  0.6800 -2.8104  0.3077
   38CHL1   C26 2805   0.589   7.102   8.136 -0.4632 -1.0858 -0.1887
   38CHL1  H26A 2806   0.527   7.107   8.228  0.5097  0.3602  0.4164
   38CHL1  H26B 2807   0.650   7.193   8.155 -2.2979 -0.1659  1.7314
   38CHL1  H26C 2808   0.521   7.121   8.050 -2.4266  2.4983  1.9227
   38CHL1   C27 2809   0.738   6.966   8.273  0.2684 -0.6664 -0.1049
   38CHL1  H27A 2810   0.801   7.057   8.289  1.3244 -1.7027  2.2576
   38CHL1  H27B 2811   0.664   6.955   8.356  1.1726 -0.2464  0.7854
   38CHL1  H27C 2812   0.788   6.867   8.273 -0.5890 -1.1580  1.9134
   39CHL1    C3 2813   0.103   3.033   7.145  1.2027  0.5687  0.7954
   39CHL1    H3 2814   0.004   2.985   7.163  0.5939  1.6003  0.2502
   39CHL1    O3 2815   0.144   3.014   7.014  0.1319  0.2873 -0.3775
   39CHL1   H3' 2816   0.077   3.061   6.965 -0.5616 -0.3466 -0.0578
   39CHL1    C4 2817   0.082   3.186   7.166  0.0080  0.1747 -0.1493
   39CHL1   H4A 2818   0.165   3.254   7.135 -1.9027  2.4194 -0.6108
   39CHL1   H4B 2819   0.004   3.208   7.091 -0.4169 -1.8376 -0.3498
   39CHL1    C5 2820   0.041   3.215   7.313  0.5676  0.1039 -0.2559
   39CHL1    C6 2821  -0.073   3.286   7.334 -0.3041  0.1807  0.1286
   39CHL1    H6 2822  -0.139   3.324   7.254 -0.8330  1.5267  1.1677
   39CHL1    C7 2823  -0.113   3.325   7.471  0.1285  0.1999  0.7470
   39CHL1   H7A 2824  -0.124   3.436   7.467 -2.6635 -0.0497 -0.6557
   39CHL1   H7B 2825  -0.216   3.289   7.491  0.4029 -0.5646  0.8147
   39CHL1    C8 2826  -0.016   3.280   7.589  0.2264 -0.8168  1.0043
   39CHL1    H8 2827   0.058   3.363   7.588 -1.4333  0.7678 -1.4320
   39CHL1   C14 2828  -0.096   3.275   7.713  0.5598  0.4629 -0.2073
   39CHL1   H14 2829  -0.168   3.193   7.690 -1.2447  2.5103 -2.4500
   39CHL1   C15 2830  -0.186   3.399   7.746 -0.3436  0.2095 -0.4997
   39CHL1  H15A 2831  -0.130   3.490   7.715 -1.4355  0.7558 -0.9008
   39CHL1  H15B 2832  -0.283   3.388   7.693 -2.2116 -1.7589  3.0242
   39CHL1   C16 2833  -0.201   3.397   7.899  0.4523  0.0766 -0.5342
   39CHL1  H16A 2834  -0.161   3.494   7.938 -0.9076  1.5328 -2.5451
   39CHL1  H16B 2835  -0.304   3.385   7.939  0.1165 -0.6554 -1.5759
   39CHL1   C17 2836  -0.120   3.267   7.942  0.1178 -0.5530 -0.1193
   39CHL1   H17 2837  -0.192   3.186   7.920  0.9259 -1.3518  0.1410
   39CHL1   C13 2838  -0.013   3.252   7.837  0.0024  0.4175 -0.4180
   39CHL1   C18 2839   0.090   3.367   7.866  0.3911  0.5373 -0.6054
   39CHL1  H18A 2840   0.043   3.465   7.888 -2.9582 -1.2436  0.8844
   39CHL1  H18B 2841   0.154   3.349   7.955  0.2566  1.1434 -0.3818
   39CHL1  H18C 2842   0.168   3.363   7.786  0.7048  0.1488 -0.2866
   39CHL1   C12 2843   0.061   3.118   7.826 -0.0720  0.1686  0.4558
   39CHL1  H12A 2844   0.136   3.098   7.905  1.0640  0.6295 -0.4711
   39CHL1  H12B 2845  -0.013   3.035   7.830 -0.0747  0.0981 -0.7864
   39CHL1   C11 2846   0.132   3.105   7.685 -0.8426  0.3923 -0.0206
   39CHL1  H11A 2847   0.222   3.171   7.685  0.2301 -0.9906 -1.6264
   39CHL1  H11B 2848   0.167   3.000   7.679 -3.4773 -0.5080 -1.0040
   39CHL1    C9 2849   0.050   3.145   7.561  0.1364 -0.7238 -0.5449
   39CHL1    H9 2850  -0.040   3.081   7.551 -0.0527 -0.6285  0.4926
   39CHL1   C10 2851   0.126   3.146   7.420 -0.3001 -0.1480 -0.4339
   39CHL1   C19 2852   0.254   3.231   7.420 -0.3395  0.1256 -0.0586
   39CHL1  H19A 2853   0.304   3.240   7.321  1.2294 -1.4554  0.5270
   39CHL1  H19B 2854   0.232   3.330   7.465  1.3682  0.0145  1.1477
   39CHL1  H19C 2855   0.335   3.186   7.481 -0.9936 -0.7340  0.1975
   39CHL1    C1 2856   0.149   2.998   7.384 -0.1279  0.8268 -0.0259
   39CHL1   H1A 2857   0.224   2.956   7.454  0.4221  1.1885 -0.3894
   39CHL1   H1B 2858   0.061   2.933   7.402 -1.3994  2.4324 -0.1905
   39CHL1    C2 2859   0.203   2.979   7.241 -0.3928 -0.0870  0.3293
   39CHL1   H2A 2860   0.229   2.875   7.214  0.9641  0.4456 -0.5266
   39CHL1   H2B 2861   0.296   3.040   7.228 -0.6368  0.4468  0.9973
   39CHL1   C20 2862  -0.086   3.237   8.087  0.5356  0.9425  0.2289
   39CHL1   H20 2863   0.002   3.171   8.090 -0.8554 -0.9936  2.8817
   39CHL1   C21 2864  -0.191   3.148   8.154  0.8078 -0.0687 -0.4937
   39CHL1  H21A 2865  -0.191   3.055   8.093  1.7246 -0.3244 -0.1203
   39CHL1  H21B 2866  -0.287   3.199   8.133  2.1733  2.1958 -1.7617
   39CHL1  H21C 2867  -0.179   3.118   8.260  1.9266  1.3437 -0.1931
   39CHL1   C22 2868  -0.054   3.361   8.171  0.1166 -0.8800  0.5807
   39CHL1  H22A 2869   0.015   3.430   8.117 -2.1553  1.4523  0.4493
   39CHL1  H22B 2870  -0.149   3.417   8.184 -0.4647 -1.2694 -1.6414
   39CHL1   C23 2871   0.003   3.323   8.308  0.4694 -0.4627  0.0678
   39CHL1  H23A 2872  -0.024   3.227   8.357  0.7354 -1.3004 -1.3832
   39CHL1  H23B 2873   0.112   3.305   8.291  0.3391 -3.7754  1.7998
   39CHL1   C24 2874  -0.018   3.431   8.408  0.6149  0.6400 -0.3239
   39CHL1  H24A 2875   0.036   3.518   8.366 -0.9776  0.6678 -2.5133
   39CHL1  H24B 2876  -0.126   3.459   8.407  1.2208  3.1998 -0.6025
   39CHL1   C25 2877   0.022   3.398   8.555  0.1340 -0.0072  0.1629
   39CHL1   H25 2878   0.120   3.346   8.560 -0.4136 -1.2859 -1.3717
   39CHL1   C26 2879   0.037   3.530   8.636  0.4210  0.3141 -0.1421
   39CHL1  H26A 2880  -0.051   3.596   8.623  0.4541  0.1989 -1.0292
   39CHL1  H26B 2881   0.055   3.511   8.744  1.6797  1.7969 -0.0432
   39CHL1  H26C 2882   0.126   3.573   8.584  0.2363 -0.5840 -1.2286
   39CHL1   C27 2883  -0.086   3.313   8.620  0.6503  0.5030 -0.2635
   39CHL1  H27A 2884  -0.048   3.266   8.713  0.0742  0.4668 -0.0468
   39CHL1  H27B 2885  -0.180   3.371   8.635 -0.7334 -1.4147 -1.0980
   39CHL1  H27C 2886  -0.115   3.232   8.550  1.0002 -0.3485  0.5587
   40CHL1    C3 2887   5.552   2.046   7.145  0.2574 -0.1049 -0.4857
   40CHL1    H3 2888   5.518   1.941   7.159  1.2196 -0.1293  2.3175
   40CHL1    O3 2889   5.518   2.101   7.021  0.7681  0.1107 -0.0609
   40CHL1   H3' 2890   5.531   2.196   7.025 -0.1908  0.2354  0.4202
   40CHL1    C4 2891   5.474   2.118   7.255  0.1105 -0.1392  0.5347
   40CHL1   H4A 2892   5.500   2.222   7.227 -1.8703  0.5019  0.9001
   40CHL1   H4B 2893   5.363   2.110   7.251  0.0370 -0.3057  2.2285
   40CHL1    C5 2894   5.509   2.077   7.398  0.1311 -0.2147 -0.0149
   40CHL1    C6 2895   5.422   2.041   7.493 -0.5705  0.5987 -0.7936
   40CHL1    H6 2896   5.313   2.052   7.479 -0.9148  0.3699  1.3795
   40CHL1    C7 2897   5.461   2.015   7.633  0.2295  0.8425  0.1164
   40CHL1   H7A 2898   5.386   2.060   7.701 -2.1724 -2.4253 -0.1783
   40CHL1   H7B 2899   5.443   1.906   7.643 -0.1286  0.9222  0.3346
   40CHL1    C8 2900   5.608   2.050   7.665  0.6568 -0.0436  1.0843
   40CHL1    H8 2901   5.608   2.160   7.676 -1.3594  0.1659 -0.4726
   40CHL1   C14 2902   5.645   1.980   7.791 -0.4249  0.1442 -0.3125
   40CHL1   H14 2903   5.641   1.872   7.768  3.0690 -0.5646  1.6691
   40CHL1   C15 2904   5.555   1.992   7.911  0.7394 -0.4065 -0.4307
   40CHL1  H15A 2905   5.516   2.096   7.910  1.1478 -0.1011  2.8788
   40CHL1  H15B 2906   5.472   1.921   7.895  0.4045  0.3416 -2.2326
   40CHL1   C16 2907   5.638   1.968   8.034 -0.0106 -0.4154 -0.1018
   40CHL1  H16A 2908   5.653   2.063   8.089  1.6098 -0.5818 -0.1881
   40CHL1  H16B 2909   5.590   1.899   8.106  2.2503 -0.5642  1.3378
   40CHL1   C17 2910   5.775   1.928   7.979 -0.6904  0.0558 -0.6018
   40CHL1   H17 2911   5.763   1.822   7.949 -0.3454  0.3083 -1.6809
   40CHL1   C13 2912   5.789   2.003   7.848 -0.1952 -0.1092 -0.0136
   40CHL1   C18 2913   5.813   2.151   7.875 -0.1879 -0.6530 -0.2710
   40CHL1  H18A 2914   5.787   2.214   7.787 -2.7411 -0.8539  0.2519
   40CHL1  H18B 2915   5.765   2.198   7.964  0.5052  0.5033 -0.4863
   40CHL1  H18C 2916   5.920   2.174   7.892 -0.0746 -0.9970 -0.5169
   40CHL1   C12 2917   5.890   1.954   7.733 -0.4364  0.0700  0.1253
   40CHL1  H12A 2918   5.992   1.974   7.773 -0.9574  0.1866  1.4344
   40CHL1  H12B 2919   5.873   1.845   7.724  0.0669  0.0411 -0.5278
   40CHL1   C11 2920   5.856   2.018   7.594 -0.4322 -0.1711  0.7494
   40CHL1  H11A 2921   5.885   2.125   7.599  0.0281 -0.3162  1.2610
   40CHL1  H11B 2922   5.914   1.965   7.515 -1.2689 -3.2463  2.0428
   40CHL1    C9 2923   5.700   2.008   7.551 -0.0022  0.5908 -0.4416
   40CHL1    H9 2924   5.682   1.899   7.544  0.3146  0.2654  2.5114
   40CHL1   C10 2925   5.664   2.071   7.420  0.4167  0.7766  0.1706
   40CHL1   C19 2926   5.716   2.212   7.435  0.3603 -0.2178 -0.3446
   40CHL1  H19A 2927   5.824   2.223   7.411 -0.0068  2.2543 -1.1829
   40CHL1  H19B 2928   5.668   2.279   7.361 -0.9406  0.6496  1.2055
   40CHL1  H19C 2929   5.706   2.260   7.535  1.2697 -2.3641  0.8481
   40CHL1    C1 2930   5.738   1.999   7.305 -0.0974 -0.3519  0.3138
   40CHL1   H1A 2931   5.848   2.012   7.314 -0.2637  1.7783 -0.0700
   40CHL1   H1B 2932   5.720   1.890   7.304  1.3417 -0.6831 -3.0777
   40CHL1    C2 2933   5.712   2.037   7.160  0.9257 -0.0549  0.4532
   40CHL1   H2A 2934   5.760   1.964   7.092  0.0491 -0.0821 -0.1484
   40CHL1   H2B 2935   5.745   2.142   7.140  2.0249  0.1777  3.0738
   40CHL1   C20 2936   5.898   1.934   8.074 -0.3557 -0.5429  0.3133
   40CHL1   H20 2937   5.962   2.021   8.048 -1.8193 -0.2893 -2.9780
   40CHL1   C21 2938   5.984   1.808   8.051  0.4828 -0.5057  0.0006
   40CHL1  H21A 2939   6.062   1.785   8.128  0.6216 -1.9924 -0.5628
   40CHL1  H21B 2940   6.029   1.814   7.950  2.1309 -0.1374  0.7229
   40CHL1  H21C 2941   5.915   1.722   8.056 -1.4292  0.9821  4.1381
   40CHL1   C22 2942   5.860   1.940   8.221 -0.9532  0.7479  0.0819
   40CHL1  H22A 2943   5.789   2.022   8.243 -0.7422  1.0743 -0.4534
   40CHL1  H22B 2944   5.808   1.844   8.243  0.8793 -0.0942  1.0377
   40CHL1   C23 2945   5.976   1.967   8.329 -0.7083  0.5956  0.4740
   40CHL1  H23A 2946   6.068   1.919   8.290 -0.7288  1.8684 -1.2551
   40CHL1  H23B 2947   5.997   2.076   8.326  2.9790  0.0077  1.1359
   40CHL1   C24 2948   5.938   1.911   8.465  0.2429 -0.5498 -0.4344
   40CHL1  H24A 2949   5.841   1.960   8.489  0.1231 -0.2725 -1.4370
   40CHL1  H24B 2950   5.903   1.807   8.480  0.3331 -0.5352 -0.1114
   40CHL1   C25 2951   6.042   1.945   8.580  0.2004  0.2580 -0.8232
   40CHL1   H25 2952   6.070   2.052   8.573 -0.1591  0.5557  1.4593
   40CHL1   C26 2953   5.982   1.908   8.716 -0.2633 -0.6257 -0.3214
   40CHL1  H26A 2954   5.958   1.799   8.718 -0.7900 -0.5157  1.3413
   40CHL1  H26B 2955   6.061   1.926   8.792  0.4846  0.7020 -1.3790
   40CHL1  H26C 2956   5.896   1.968   8.751  0.3468  0.4966 -0.7146
   40CHL1   C27 2957   6.170   1.865   8.549  0.0288  0.2812  0.3576
   40CHL1  H27A 2958   6.251   1.877   8.625  1.5678 -1.6277 -0.8726
   40CHL1  H27B 2959   6.155   1.755   8.547 -0.6680  0.3357  1.6885
   40CHL1  H27C 2960   6.218   1.908   8.459  1.5295 -0.8887  0.5431
   41CHL1    C3 2961   0.928   2.068   7.000 -0.1170  0.7893 -0.4290
   41CHL1    H3 2962   0.824   2.099   7.019  0.5321  0.8247  4.0872
   41CHL1    O3 2963   0.971   2.080   6.864  0.5864 -0.1869 -0.3306
   41CHL1   H3' 2964   1.055   2.034   6.861  0.5369 -0.4102  0.9231
   41CHL1    C4 2965   1.031   2.148   7.083  0.6037  0.2379  0.4266
   41CHL1   H4A 2966   1.134   2.119   7.052  0.1473  0.3067 -1.3051
   41CHL1   H4B 2967   1.012   2.255   7.064  0.0629 -0.1783 -1.6730
   41CHL1    C5 2968   1.009   2.116   7.231 -0.5888 -0.6104  0.3280
   41CHL1    C6 2969   0.979   2.213   7.317 -0.4051 -0.2928  0.0075
   41CHL1    H6 2970   0.991   2.314   7.274  2.2794 -0.1403  0.9027
   41CHL1    C7 2971   0.959   2.186   7.467  0.1422 -0.1098 -0.5386
   41CHL1   H7A 2972   1.008   2.273   7.516 -0.3063  0.1747 -0.5889
   41CHL1   H7B 2973   0.851   2.195   7.490 -0.0310  0.5134 -1.5248
   41CHL1    C8 2974   1.029   2.057   7.510  0.4934 -0.1843  0.3911
   41CHL1    H8 2975   1.139   2.064   7.495  0.2904  0.5766 -0.9039
   41CHL1   C14 2976   0.996   2.029   7.653 -0.0872 -0.0412 -0.4302
   41CHL1   H14 2977   0.885   2.030   7.662 -0.1460 -0.8085 -0.9890
   41CHL1   C15 2978   1.056   2.133   7.754  0.1128  0.3447  0.1919
   41CHL1  H15A 2979   1.161   2.161   7.734  0.8996  0.0892  3.3973
   41CHL1  H15B 2980   0.996   2.225   7.738  1.4950  1.4734  1.2465
   41CHL1   C16 2981   1.040   2.060   7.888  0.0325  0.0004 -0.3901
   41CHL1  H16A 2982   1.131   2.072   7.950 -0.8209  1.2519  0.6738
   41CHL1  H16B 2983   0.957   2.106   7.946  0.1810  0.1315 -0.2787
   41CHL1   C17 2984   1.010   1.911   7.854 -0.3016  0.1360 -0.2574
   41CHL1   H17 2985   0.901   1.901   7.872 -0.1352  1.7315  2.1109
   41CHL1   C13 2986   1.038   1.891   7.705 -0.0166 -0.7458 -0.0183
   41CHL1   C18 2987   1.190   1.877   7.684  0.6532 -0.2894 -0.5161
   41CHL1  H18A 2988   1.218   1.902   7.580  2.7428  0.9384  0.2714
   41CHL1  H18B 2989   1.242   1.948   7.752  0.5076 -2.1887  1.7085
   41CHL1  H18C 2990   1.229   1.778   7.714 -1.1985 -1.0794 -0.5882
   41CHL1   C12 2991   0.956   1.787   7.622  0.5801  0.3710 -0.2907
   41CHL1  H12A 2992   0.980   1.687   7.664  2.0838  0.6617 -0.4313
   41CHL1  H12B 2993   0.845   1.799   7.629  0.4054  0.3548 -2.3882
   41CHL1   C11 2994   0.994   1.802   7.473  0.8889 -0.0582  0.6318
   41CHL1  H11A 2995   1.101   1.774   7.464  0.5257 -1.0016 -1.1412
   41CHL1  H11B 2996   0.934   1.729   7.415 -1.1319  2.6096 -0.8684
   41CHL1    C9 2997   0.973   1.946   7.415  0.0773  0.2344  0.6853
   41CHL1    H9 2998   0.862   1.960   7.418  0.0925  0.8188 -0.4454
   41CHL1   C10 2999   1.015   1.966   7.266 -1.2326 -0.8732 -1.1677
   41CHL1   C19 3000   1.158   1.908   7.242 -0.0244 -0.4780 -0.6581
   41CHL1  H19A 3001   1.231   1.927   7.323  1.2708 -4.8388 -0.5116
   41CHL1  H19B 3002   1.159   1.797   7.250  0.8775 -0.4837 -0.7423
   41CHL1  H19C 3003   1.211   1.936   7.149  1.7377 -0.4713  0.3129
   41CHL1    C1 3004   0.917   1.890   7.182 -0.6346 -0.0913  1.8212
   41CHL1   H1A 3005   0.937   1.782   7.201  1.6876  0.2584  1.6062
   41CHL1   H1B 3006   0.814   1.925   7.205 -0.3191  0.8587  1.8276
   41CHL1    C2 3007   0.943   1.919   7.030 -0.5033 -0.4172 -0.6067
   41CHL1   H2A 3008   0.865   1.876   6.963 -0.7189 -0.6745 -0.1940
   41CHL1   H2B 3009   1.032   1.871   6.986  0.0356 -2.8311  2.7105
   41CHL1   C20 3010   1.079   1.813   7.953 -1.0788 -0.3307 -0.3308
   41CHL1   H20 3011   1.186   1.839   7.967 -1.3769  0.7487  0.0255
   41CHL1   C21 3012   1.059   1.661   7.911 -0.2186 -0.2692  0.3931
   41CHL1  H21A 3013   0.950   1.638   7.904 -0.4766  0.9479  0.2118
   41CHL1  H21B 3014   1.111   1.594   7.984  0.5948 -1.2734 -1.0685
   41CHL1  H21C 3015   1.109   1.633   7.817 -0.4206 -0.4576  0.3397
   41CHL1   C22 3016   1.033   1.835   8.101 -0.2576  0.9373 -0.5013
   41CHL1  H22A 3017   1.025   1.944   8.118 -0.1503  0.7297  1.0133
   41CHL1  H22B 3018   0.934   1.786   8.110  0.3528 -0.0364  1.4293
   41CHL1   C23 3019   1.112   1.770   8.218 -0.3515 -0.5513 -0.6819
   41CHL1  H23A 3020   1.113   1.659   8.212  1.3527 -0.8017  2.0634
   41CHL1  H23B 3021   1.218   1.799   8.202  0.0692 -1.9626 -0.5755
   41CHL1   C24 3022   1.059   1.808   8.354  0.1225  0.1074 -0.2215
   41CHL1  H24A 3023   1.129   1.784   8.437  0.7876 -1.8345 -1.2762
   41CHL1  H24B 3024   1.046   1.918   8.354 -0.1769  0.0761  0.0979
   41CHL1   C25 3025   0.916   1.758   8.377 -0.3517  0.5226  0.0583
   41CHL1   H25 3026   0.850   1.794   8.295 -0.9805  1.4566  0.9594
   41CHL1   C26 3027   0.905   1.608   8.391  0.0341 -0.0290  0.1602
   41CHL1  H26A 3028   0.967   1.579   8.479  1.0234 -0.0913 -0.5360
   41CHL1  H26B 3029   0.798   1.585   8.407  0.3183 -2.1959 -0.6926
   41CHL1  H26C 3030   0.938   1.559   8.297 -1.8848 -0.8607 -0.1166
   41CHL1   C27 3031   0.867   1.832   8.500  0.0190 -0.7251  0.7284
   41CHL1  H27A 3032   0.878   1.942   8.493 -0.2818 -0.7318  0.0295
   41CHL1  H27B 3033   0.760   1.810   8.524 -0.0878 -0.1398  0.7863
   41CHL1  H27C 3034   0.936   1.806   8.583  1.4675  0.6740  0.0045
   42CHL1    C3 3035   2.191   6.696   7.098  0.6380  0.7259  0.2943
   42CHL1    H3 3036   2.188   6.803   7.127 -1.7497  0.2629  2.1224
   42CHL1    O3 3037   2.203   6.693   6.961  0.1459  0.0820  0.0408
   42CHL1   H3' 3038   2.298   6.696   6.953  0.2230  0.8759  1.0336
   42CHL1    C4 3039   2.314   6.640   7.171 -0.2279  0.9254  0.3603
   42CHL1   H4A 3040   2.332   6.532   7.149 -0.1180  1.0976 -0.4341
   42CHL1   H4B 3041   2.407   6.684   7.129  0.5833 -0.5235  0.5733
   42CHL1    C5 3042   2.317   6.670   7.319 -0.0890  0.1921  0.5009
   42CHL1    C6 3043   2.402   6.744   7.384  0.7019 -0.3666 -0.1819
   42CHL1    H6 3044   2.482   6.787   7.321 -0.3076 -0.4634 -1.5945
   42CHL1    C7 3045   2.402   6.767   7.526 -0.4973  1.0162  0.2696
   42CHL1   H7A 3046   2.509   6.765   7.558 -0.0860 -0.3404 -1.1097
   42CHL1   H7B 3047   2.367   6.868   7.556 -2.0032  0.4613  0.4585
   42CHL1    C8 3048   2.319   6.669   7.612  0.6293  0.2446  0.1775
   42CHL1    H8 3049   2.362   6.567   7.615 -1.8401 -0.8540  1.7874
   42CHL1   C14 3050   2.290   6.724   7.753 -0.7881 -0.9221 -0.1878
   42CHL1   H14 3051   2.247   6.825   7.738  1.4006  0.2658  1.0649
   42CHL1   C15 3052   2.409   6.752   7.845  0.2898 -0.3714  0.2203
   42CHL1  H15A 3053   2.490   6.677   7.833 -0.0844 -0.6370 -0.7145
   42CHL1  H15B 3054   2.453   6.851   7.820  1.1612 -0.2496  2.0775
   42CHL1   C16 3055   2.359   6.769   7.988 -0.4720  0.2122 -0.8098
   42CHL1  H16A 3056   2.413   6.696   8.052  0.2359  0.0552 -1.5689
   42CHL1  H16B 3057   2.368   6.871   8.031 -1.3923 -0.3906  0.8885
   42CHL1   C17 3058   2.203   6.725   7.973  0.4241 -0.5490  1.0933
   42CHL1   H17 3059   2.161   6.827   7.967 -1.0375 -1.1562  0.6873
   42CHL1   C13 3060   2.193   6.647   7.836 -0.1207 -0.1299  0.4368
   42CHL1   C18 3061   2.255   6.510   7.857 -0.5263 -0.3387  0.2148
   42CHL1  H18A 3062   2.190   6.437   7.909  0.1010 -0.0646  1.4202
   42CHL1  H18B 3063   2.289   6.459   7.764 -0.5279  0.3512 -0.1660
   42CHL1  H18C 3064   2.341   6.520   7.927 -1.5501  1.0497  1.3207
   42CHL1   C12 3065   2.057   6.639   7.759 -0.3436 -0.0951 -0.6754
   42CHL1  H12A 3066   1.996   6.572   7.824 -0.6091  2.0764  1.4613
   42CHL1  H12B 3067   2.005   6.737   7.760 -1.3982 -0.6033  1.6973
   42CHL1   C11 3068   2.077   6.572   7.629  1.0063  0.0796  0.0635
   42CHL1  H11A 3069   2.112   6.467   7.641 -1.6718 -0.7479  1.3797
   42CHL1  H11B 3070   1.987   6.560   7.567  0.7648  0.3694  0.3535
   42CHL1    C9 3071   2.178   6.657   7.537 -0.4142 -0.6421  0.0388
   42CHL1    H9 3072   2.123   6.753   7.536 -1.0612 -0.9000  2.4886
   42CHL1   C10 3073   2.190   6.610   7.389  0.5918  0.0559 -0.9440
   42CHL1   C19 3074   2.226   6.457   7.386  0.0231 -0.6281  0.2946
   42CHL1  H19A 3075   2.166   6.389   7.450 -1.3150 -0.0549 -0.3257
   42CHL1  H19B 3076   2.221   6.412   7.284  0.3339  1.5373 -0.7229
   42CHL1  H19C 3077   2.327   6.445   7.432 -0.5991  0.3145  2.0050
   42CHL1    C1 3078   2.059   6.647   7.310  0.0447  0.0889 -0.5727
   42CHL1   H1A 3079   1.970   6.586   7.338  0.3432 -0.5750 -1.0511
   42CHL1   H1B 3080   2.025   6.751   7.330 -1.1295 -0.5141  0.7665
   42CHL1    C2 3081   2.064   6.634   7.155 -0.2303  0.3600  0.3405
   42CHL1   H2A 3082   1.980   6.680   7.099  1.1356 -2.0128 -4.2382
   42CHL1   H2B 3083   2.060   6.527   7.126 -1.8023  1.0752 -2.4863
   42CHL1   C20 3084   2.134   6.661   8.092 -0.1491 -0.3269  0.2763
   42CHL1   H20 3085   2.133   6.552   8.071  1.3084 -0.7702  2.2412
   42CHL1   C21 3086   1.984   6.698   8.110  0.0532  0.2634 -0.1006
   42CHL1  H21A 3087   1.926   6.667   8.021  1.0711  1.1338 -1.0847
   42CHL1  H21B 3088   1.996   6.808   8.100 -1.5390  0.5476  0.7843
   42CHL1  H21C 3089   1.946   6.674   8.212  0.9835  1.1563  0.4825
   42CHL1   C22 3090   2.217   6.672   8.229  0.2379 -0.1753 -0.5353
   42CHL1  H22A 3091   2.160   6.604   8.295 -0.6270  0.8400 -0.2030
   42CHL1  H22B 3092   2.315   6.620   8.216  0.1326 -0.9892  1.5944
   42CHL1   C23 3093   2.229   6.815   8.299 -0.0834  0.5950 -0.1256
   42CHL1  H23A 3094   2.309   6.879   8.254  1.1623  0.5245  1.8565
   42CHL1  H23B 3095   2.140   6.881   8.311 -0.4684 -0.1981  1.6403
   42CHL1   C24 3096   2.269   6.796   8.441 -0.6281  0.1495 -0.2445
   42CHL1  H24A 3097   2.192   6.746   8.504  0.9547 -2.3254 -0.1184
   42CHL1  H24B 3098   2.352   6.722   8.443 -1.8477 -1.3401 -1.5625
   42CHL1   C25 3099   2.308   6.922   8.524  0.1883 -0.6019  0.2560
   42CHL1   H25 3100   2.391   6.973   8.469  1.0883 -0.4069  1.7447
   42CHL1   C26 3101   2.196   7.017   8.541 -0.6038 -0.0422 -0.6443
   42CHL1  H26A 3102   2.238   7.093   8.610 -0.3462 -2.1821  1.7011
   42CHL1  H26B 3103   2.150   7.061   8.450 -2.4540  0.8321  0.6489
   42CHL1  H26C 3104   2.121   6.955   8.595  0.1562  0.6475  1.3046
   42CHL1   C27 3105   2.374   6.884   8.658  0.1546  0.0590  0.4883
   42CHL1  H27A 3106   2.395   6.978   8.714  0.0270 -0.4424  1.3931
   42CHL1  H27B 3107   2.470   6.830   8.647 -0.8319 -1.6076 -0.3998
   42CHL1  H27C 3108   2.304   6.820   8.716  1.0386 -0.1671  1.3252
   43CHL1    C3 3109   4.101   2.375   6.989  0.8537  0.6789  0.3641
   43CHL1    H3 3110   3.991   2.364   6.980  1.0709 -0.1161 -2.2202
   43CHL1    O3 3111   4.129   2.340   6.846  0.2382  0.2786 -0.8741
   43CHL1   H3' 3112   4.199   2.403   6.833  0.4760  0.0999 -0.4902
   43CHL1    C4 3113   4.147   2.523   7.022  0.5061 -1.0641  0.0675
   43CHL1   H4A 3114   4.258   2.526   7.014  0.4419 -1.8680 -1.5939
   43CHL1   H4B 3115   4.099   2.595   6.953  2.0504 -0.4847 -0.4303
   43CHL1    C5 3116   4.107   2.549   7.171 -0.5831 -0.3704  0.8410
   43CHL1    C6 3117   4.023   2.654   7.199 -0.3803  0.0001  0.8006
   43CHL1    H6 3118   3.995   2.729   7.124 -1.2147 -0.3475  0.7620
   43CHL1    C7 3119   3.973   2.696   7.333  0.0729  0.7110  0.0878
   43CHL1   H7A 3120   3.971   2.806   7.350 -0.8702  0.7968 -0.4603
   43CHL1   H7B 3121   3.866   2.668   7.345 -0.4175  2.5875  0.3640
   43CHL1    C8 3122   4.050   2.614   7.442  1.2166 -0.4615 -0.1279
   43CHL1    H8 3123   4.149   2.662   7.458  0.7957 -0.0401  1.4917
   43CHL1   C14 3124   3.973   2.622   7.578  0.2271 -0.0215 -0.0360
   43CHL1   H14 3125   3.877   2.568   7.564 -0.2609  0.3731  1.5970
   43CHL1   C15 3126   3.926   2.764   7.626 -0.1273  0.3976 -0.1969
   43CHL1  H15A 3127   4.007   2.840   7.626  1.2346 -1.0048 -0.1020
   43CHL1  H15B 3128   3.831   2.786   7.572 -0.5563 -0.2746  0.2681
   43CHL1   C16 3129   3.892   2.732   7.774  0.6524  0.6502 -0.0095
   43CHL1  H16A 3130   3.944   2.806   7.839 -1.6521  1.2895  1.2104
   43CHL1  H16B 3131   3.782   2.732   7.786  0.8274  1.2143  1.7491
   43CHL1   C17 3132   3.929   2.581   7.806 -0.7629  0.0741  0.4803
   43CHL1   H17 3133   3.835   2.522   7.793 -1.5026  1.3872 -0.4042
   43CHL1   C13 3134   4.029   2.550   7.690 -0.9335  0.2717 -0.3838
   43CHL1   C18 3135   4.171   2.596   7.737  0.5276 -0.4780  0.2867
   43CHL1  H18A 3136   4.172   2.702   7.772  0.8416 -0.6580  0.8319
   43CHL1  H18B 3137   4.203   2.531   7.821 -3.3176 -1.4103  1.2459
   43CHL1  H18C 3138   4.239   2.574   7.652  1.4715  1.2769  0.5459
   43CHL1   C12 3139   4.041   2.396   7.653 -0.7455 -0.8599  0.2838
   43CHL1  H12A 3140   4.091   2.341   7.736  1.3355 -2.0619 -1.6546
   43CHL1  H12B 3141   3.939   2.357   7.633 -0.9073 -0.8799  1.1001
   43CHL1   C11 3142   4.131   2.387   7.528  0.4677 -0.3400 -0.3625
   43CHL1  H11A 3143   4.236   2.418   7.543  0.5725  0.3053 -2.2147
   43CHL1  H11B 3144   4.149   2.280   7.505  2.0939 -0.1054 -0.2362
   43CHL1    C9 3145   4.071   2.467   7.409  0.1291 -0.9630 -0.2964
   43CHL1    H9 3146   3.972   2.418   7.394  0.2962 -1.5011  0.3151
   43CHL1   C10 3147   4.146   2.446   7.279  0.0664  0.6071  0.3267
   43CHL1   C19 3148   4.304   2.468   7.288 -1.1200  0.2220  0.2118
   43CHL1  H19A 3149   4.332   2.550   7.357  0.3287 -0.7286  0.8086
   43CHL1  H19B 3150   4.352   2.379   7.335  0.1924  1.9969  2.4374
   43CHL1  H19C 3151   4.344   2.481   7.185 -0.7935 -2.4362 -0.0692
   43CHL1    C1 3152   4.107   2.304   7.226  0.4444 -0.5863 -0.3747
   43CHL1   H1A 3153   4.159   2.231   7.293  0.0175 -2.1943 -1.7331
   43CHL1   H1B 3154   3.998   2.290   7.239  0.4469  0.0782  0.4553
   43CHL1    C2 3155   4.152   2.274   7.083  0.0717 -0.9144  0.0460
   43CHL1   H2A 3156   4.123   2.178   7.035  4.9429 -2.5286 -0.2664
   43CHL1   H2B 3157   4.263   2.266   7.077  0.1489 -2.5003  2.2123
   43CHL1   C20 3158   3.961   2.557   7.963 -0.5862  0.3624  0.0884
   43CHL1   H20 3159   4.049   2.610   8.004 -1.6251  2.1272  0.1671
   43CHL1   C21 3160   3.985   2.408   7.980  0.7887  0.9065  0.2673
   43CHL1  H21A 3161   4.083   2.371   7.941  0.1871 -0.8438  0.3327
   43CHL1  H21B 3162   3.901   2.344   7.946  0.6943 -0.1981  2.4291
   43CHL1  H21C 3163   3.996   2.384   8.088 -0.5154  0.2976  0.2843
   43CHL1   C22 3164   3.833   2.600   8.059 -0.2397  0.3253 -0.3085
   43CHL1  H22A 3165   3.786   2.698   8.035 -2.0044 -0.7313 -1.3921
   43CHL1  H22B 3166   3.741   2.541   8.041 -0.6912  0.3870  1.5607
   43CHL1   C23 3167   3.875   2.611   8.205 -0.1894 -0.0785 -0.0558
   43CHL1  H23A 3168   3.907   2.508   8.235  0.8218  0.6930  1.6506
   43CHL1  H23B 3169   3.960   2.681   8.217 -1.9608  2.0891  0.5863
   43CHL1   C24 3170   3.748   2.642   8.292  0.8114 -0.4369  0.0105
   43CHL1  H24A 3171   3.687   2.722   8.246 -1.8821 -1.6460  1.2673
   43CHL1  H24B 3172   3.684   2.551   8.298 -1.0523  0.8654  0.5814
   43CHL1   C25 3173   3.773   2.683   8.441 -0.0728  0.5863 -0.2670
   43CHL1   H25 3174   3.809   2.787   8.433 -1.3207  1.3429  2.6683
   43CHL1   C26 3175   3.641   2.677   8.518 -0.0949 -0.8255 -0.1182
   43CHL1  H26A 3176   3.634   2.744   8.606 -2.8076 -2.7124  1.2517
   43CHL1  H26B 3177   3.567   2.713   8.442  2.5843  0.7315 -2.1605
   43CHL1  H26C 3178   3.607   2.574   8.543  0.5213 -0.6294  1.6540
   43CHL1   C27 3179   3.859   2.585   8.523 -0.1949 -0.2561  0.0195
   43CHL1  H27A 3180   3.954   2.573   8.468 -0.3622 -1.3496 -0.0662
   43CHL1  H27B 3181   3.881   2.623   8.625 -1.9283 -1.1855  0.7975
   43CHL1  H27C 3182   3.816   2.482   8.529 -0.1594 -0.2906 -0.3019
   44CHL1    C3 3183   2.042   1.334   6.883  0.7380 -0.3733 -0.2185
   44CHL1    H3 3184   2.074   1.436   6.850  0.4384 -0.2375 -0.0912
   44CHL1    O3 3185   2.023   1.247   6.773 -0.1025  0.3683  0.2967
   44CHL1   H3' 3186   1.937   1.272   6.739 -1.2193 -1.9144  1.2112
   44CHL1    C4 3187   2.148   1.283   6.987 -0.0132 -0.2024 -0.2784
   44CHL1   H4A 3188   2.121   1.175   6.987 -2.2342  0.3001  0.5057
   44CHL1   H4B 3189   2.245   1.281   6.931  0.9779 -2.4423  1.3799
   44CHL1    C5 3190   2.149   1.345   7.128 -0.7083  0.2002  0.4169
   44CHL1    C6 3191   2.262   1.402   7.181 -0.0651  0.6937  0.3433
   44CHL1    H6 3192   2.352   1.409   7.118 -0.1205  1.4603  0.3432
   44CHL1    C7 3193   2.268   1.453   7.323  0.0810  0.1299 -0.4562
   44CHL1   H7A 3194   2.368   1.440   7.370  0.8078  2.5383 -1.1741
   44CHL1   H7B 3195   2.260   1.564   7.323 -0.3879  0.1425  1.6850
   44CHL1    C8 3196   2.148   1.392   7.406 -0.2411  0.2534 -0.2111
   44CHL1    H8 3197   2.177   1.287   7.430  3.7237  0.7636 -1.9120
   44CHL1   C14 3198   2.145   1.460   7.548 -0.5713 -0.1201 -0.1671
   44CHL1   H14 3199   2.132   1.567   7.520  3.1855  0.3560 -0.5640
   44CHL1   C15 3200   2.269   1.468   7.633 -0.4512  0.7658  0.2874
   44CHL1  H15A 3201   2.313   1.369   7.656 -2.1657  0.7670  4.2526
   44CHL1  H15B 3202   2.347   1.539   7.596 -0.1982 -0.4258 -1.6255
   44CHL1   C16 3203   2.214   1.517   7.768 -0.1472  0.0642  0.2896
   44CHL1  H16A 3204   2.253   1.447   7.844 -0.0775 -0.0913  0.1102
   44CHL1  H16B 3205   2.244   1.622   7.790  0.3056 -0.3524  1.7687
   44CHL1   C17 3206   2.057   1.515   7.763  0.0120  0.1574 -0.4953
   44CHL1   H17 3207   2.030   1.615   7.722  2.1153  0.0172 -2.3790
   44CHL1   C13 3208   2.025   1.419   7.641 -0.0116 -0.4918 -0.2538
   44CHL1   C18 3209   2.031   1.270   7.688  0.1019 -0.2951 -0.6004
   44CHL1  H18A 3210   2.109   1.245   7.763 -1.0873 -1.3503  0.3293
   44CHL1  H18B 3211   1.932   1.239   7.727  0.6486 -2.2672 -0.6630
   44CHL1  H18C 3212   2.056   1.203   7.603  2.2030 -0.4215  0.0588
   44CHL1   C12 3213   1.892   1.447   7.561 -0.0648 -0.1623  1.1118
   44CHL1  H12A 3214   1.800   1.427   7.619  0.1266  1.1845  1.9083
   44CHL1  H12B 3215   1.878   1.552   7.527 -1.3264 -0.3654  0.9374
   44CHL1   C11 3216   1.901   1.363   7.423  0.8557 -0.1568 -0.5317
   44CHL1  H11A 3217   1.924   1.258   7.454  0.8094  0.3829  1.4869
   44CHL1  H11B 3218   1.800   1.363   7.377  1.1804  2.0633 -1.3431
   44CHL1    C9 3219   2.012   1.398   7.326 -0.6096  0.2066 -0.2446
   44CHL1    H9 3220   2.000   1.506   7.302 -1.9169  0.1453  0.0512
   44CHL1   C10 3221   2.011   1.333   7.188  0.3406 -0.1795  0.8059
   44CHL1   C19 3222   1.980   1.183   7.203 -0.6199  0.1609 -0.9336
   44CHL1  H19A 3223   2.059   1.121   7.250 -1.3722 -0.7999 -0.8843
   44CHL1  H19B 3224   1.886   1.180   7.262  0.2878 -0.0991  0.5431
   44CHL1  H19C 3225   1.965   1.125   7.109 -1.0773  0.5090 -1.0810
   44CHL1    C1 3226   1.913   1.405   7.095 -0.2876 -0.3759  0.6730
   44CHL1   H1A 3227   1.809   1.412   7.135 -0.4045  1.0730  0.1729
   44CHL1   H1B 3228   1.942   1.512   7.087  1.8027 -0.9367  0.2834
   44CHL1    C2 3229   1.898   1.343   6.952 -0.5167 -0.2418  0.3596
   44CHL1   H2A 3230   1.832   1.395   6.879  1.1341 -1.1075 -1.8726
   44CHL1   H2B 3231   1.862   1.238   6.954  0.8776 -0.8529 -1.9970
   44CHL1   C20 3232   1.994   1.495   7.907 -0.5259  0.3627 -0.0695
   44CHL1   H20 3233   2.043   1.411   7.961  1.1782  1.0391 -0.4795
   44CHL1   C21 3234   1.844   1.458   7.903 -0.2100  0.0447 -0.0576
   44CHL1  H21A 3235   1.830   1.351   7.876  0.1226 -0.4981  1.7640
   44CHL1  H21B 3236   1.787   1.523   7.834 -2.1452 -0.6877  0.7935
   44CHL1  H21C 3237   1.806   1.480   8.005 -1.7168  0.6677 -0.7286
   44CHL1   C22 3238   2.011   1.632   7.970  0.0991 -0.2823 -0.0310
   44CHL1  H22A 3239   2.117   1.666   7.979 -0.0263 -0.2059  1.5262
   44CHL1  H22B 3240   1.949   1.705   7.914  1.0177  1.3554  0.9915
   44CHL1   C23 3241   1.969   1.644   8.120 -0.3257 -0.2410  0.2203
   44CHL1  H23A 3242   1.858   1.648   8.128 -0.3094 -1.1077  1.0174
   44CHL1  H23B 3243   2.012   1.558   8.175 -0.3217 -0.5052 -0.1946
   44CHL1   C24 3244   2.020   1.772   8.192 -0.6909  0.0282  0.3993
   44CHL1  H24A 3245   2.129   1.787   8.172 -0.2767 -2.8832  0.1223
   44CHL1  H24B 3246   1.982   1.856   8.130 -1.4367  0.9418  2.0335
   44CHL1   C25 3247   1.981   1.777   8.339  1.0353  0.4015 -0.6445
   44CHL1   H25 3248   2.031   1.871   8.371  1.0109 -0.1630  1.1774
   44CHL1   C26 3249   1.828   1.809   8.350 -1.2513  0.3297  0.5923
   44CHL1  H26A 3250   1.820   1.905   8.294  2.8059  1.0370  0.9584
   44CHL1  H26B 3251   1.770   1.725   8.304  2.8340 -0.9774 -2.7988
   44CHL1  H26C 3252   1.790   1.833   8.451 -3.3510  1.6496 -0.4254
   44CHL1   C27 3253   2.046   1.678   8.435  0.2181  0.4844 -0.1295
   44CHL1  H27A 3254   2.001   1.696   8.535  2.4407 -1.9919  1.4528
   44CHL1  H27B 3255   2.020   1.580   8.389  0.2216  0.4899 -0.1436
   44CHL1  H27C 3256   2.157   1.688   8.438  0.1561  3.0901 -2.4809
   45CHL1    C3 3257   0.087   0.367   6.853 -0.1741 -0.6590 -0.6952
   45CHL1    H3 3258   0.168   0.431   6.892  0.1755 -1.2154 -0.4943
   45CHL1    O3 3259   0.099   0.352   6.716 -0.0024 -0.3031  0.3730
   45CHL1   H3' 3260   0.056   0.268   6.700  0.7530 -0.3978 -1.3164
   45CHL1    C4 3261   0.093   0.231   6.934 -0.4123  0.6171 -0.1419
   45CHL1   H4A 3262   0.015   0.166   6.887 -0.2984 -0.7212  1.4282
   45CHL1   H4B 3263   0.185   0.177   6.902 -0.2785  1.4327 -1.1767
   45CHL1    C5 3264   0.069   0.246   7.084 -0.0037  1.0586 -0.1788
   45CHL1    C6 3265   0.153   0.192   7.176  0.1266 -0.4496 -0.2037
   45CHL1    H6 3266   0.240   0.132   7.145 -0.0870 -1.0712  0.3542
   45CHL1    C7 3267   0.119   0.188   7.318 -0.7170  0.0504 -0.0894
   45CHL1   H7A 3268   0.118   0.087   7.364 -1.3254  0.1794  0.1978
   45CHL1   H7B 3269   0.195   0.249   7.372 -0.6216  1.1986 -1.4622
   45CHL1    C8 3270  -0.022   0.233   7.354 -0.1067 -0.9111  0.1857
   45CHL1    H8 3271  -0.090   0.148   7.331  1.5093 -1.9860 -0.8132
   45CHL1   C14 3272  -0.015   0.262   7.501 -0.1913 -0.3427 -0.5778
   45CHL1   H14 3273   0.067   0.336   7.514  0.8081 -1.2053 -1.7045
   45CHL1   C15 3274   0.017   0.153   7.607  0.0910 -0.1064 -0.0929
   45CHL1  H15A 3275  -0.034   0.055   7.597  0.3003 -0.1824 -0.4050
   45CHL1  H15B 3276   0.126   0.134   7.602 -0.2436 -2.2004 -0.1210
   45CHL1   C16 3277  -0.036   0.205   7.741 -0.1635  0.8553  0.5987
   45CHL1  H16A 3278  -0.115   0.136   7.778 -2.4942  3.2994  0.4757
   45CHL1  H16B 3279   0.047   0.230   7.810 -0.1186 -0.0590  0.8834
   45CHL1   C17 3280  -0.108   0.339   7.707  0.1736  0.8309  0.1829
   45CHL1   H17 3281  -0.034   0.421   7.716  0.4615  0.4938  1.0256
   45CHL1   C13 3282  -0.143   0.325   7.558 -0.0670 -0.4849  1.1070
   45CHL1   C18 3283  -0.261   0.228   7.542  0.5629 -0.0329 -0.3235
   45CHL1  H18A 3284  -0.358   0.282   7.549  0.2793 -0.7489  2.7759
   45CHL1  H18B 3285  -0.256   0.162   7.453 -0.9890 -1.7464  0.7720
   45CHL1  H18C 3286  -0.260   0.152   7.623 -0.4664  0.0956 -0.1752
   45CHL1   C12 3287  -0.172   0.458   7.487 -0.1700 -0.6090  0.2907
   45CHL1  H12A 3288  -0.271   0.494   7.521 -0.7882 -1.5953 -0.3807
   45CHL1  H12B 3289  -0.103   0.541   7.513  1.0826 -0.1341 -3.8620
   45CHL1   C11 3290  -0.179   0.444   7.331  0.2493  0.2808 -0.2104
   45CHL1  H11A 3291  -0.268   0.378   7.326 -0.0333  0.4188  2.1088
   45CHL1  H11B 3292  -0.204   0.539   7.279 -2.6064 -0.8808 -1.1394
   45CHL1    C9 3293  -0.055   0.358   7.274 -0.1851  0.2622  0.6462
   45CHL1    H9 3294   0.035   0.421   7.285  1.7198 -2.1828 -0.0349
   45CHL1   C10 3295  -0.062   0.336   7.122 -0.2026  0.4989  0.1029
   45CHL1   C19 3296  -0.191   0.256   7.095  0.8278  0.1554  0.0344
   45CHL1  H19A 3297  -0.219   0.170   7.158 -1.2655  0.4977 -0.3699
   45CHL1  H19B 3298  -0.285   0.315   7.098 -0.0562 -1.2629  2.0214
   45CHL1  H19C 3299  -0.199   0.216   6.992 -2.2732 -2.3442  1.0885
   45CHL1    C1 3300  -0.062   0.468   7.039 -0.0843  0.4560 -0.2167
   45CHL1   H1A 3301  -0.148   0.532   7.069 -0.2041  1.2918 -2.2192
   45CHL1   H1B 3302   0.028   0.524   7.073  0.2210  0.8596 -1.6350
   45CHL1    C2 3303  -0.046   0.445   6.891  0.4096  0.2502  0.1582
   45CHL1   H2A 3304  -0.033   0.545   6.844  1.6261  0.6553  1.2763
   45CHL1   H2B 3305  -0.141   0.401   6.854  1.3070 -0.3002 -1.6185
   45CHL1   C20 3306  -0.224   0.359   7.808 -0.5962 -0.1434 -0.6273
   45CHL1   H20 3307  -0.296   0.274   7.804 -0.3660 -0.2871 -2.2826
   45CHL1   C21 3308  -0.298   0.489   7.780  0.8832 -0.0108  0.3787
   45CHL1  H21A 3309  -0.234   0.566   7.731 -1.3475  1.7963  0.1455
   45CHL1  H21B 3310  -0.330   0.535   7.876 -1.3260  0.1621 -0.3873
   45CHL1  H21C 3311  -0.381   0.467   7.710  1.5770  0.1702 -0.5227
   45CHL1   C22 3312  -0.166   0.375   7.954 -0.5263  0.4730  0.0322
   45CHL1  H22A 3313  -0.083   0.302   7.960  0.6773  1.7943  0.0996
   45CHL1  H22B 3314  -0.117   0.475   7.963  1.4797 -0.4671 -0.0352
   45CHL1   C23 3315  -0.268   0.353   8.072 -0.4866 -0.0446 -0.1152
   45CHL1  H23A 3316  -0.360   0.413   8.058 -0.3406 -0.3439 -2.9820
   45CHL1  H23B 3317  -0.293   0.245   8.068  0.6948 -0.3118 -0.7148
   45CHL1   C24 3318  -0.216   0.374   8.209 -0.3247 -0.2415  0.0322
   45CHL1  H24A 3319  -0.151   0.285   8.228 -0.4625 -0.4310 -0.3720
   45CHL1  H24B 3320  -0.159   0.469   8.211 -1.4735  0.4461  0.5156
   45CHL1   C25 3321  -0.330   0.387   8.313  1.0052 -0.1451 -0.0561
   45CHL1   H25 3322  -0.386   0.478   8.285 -1.7075 -1.3193  1.1370
   45CHL1   C26 3323  -0.421   0.268   8.306  0.5742  0.4824  0.1404
   45CHL1  H26A 3324  -0.479   0.249   8.399  1.2794  0.5266  0.5914
   45CHL1  H26B 3325  -0.501   0.288   8.231  0.2665 -2.7598 -0.5295
   45CHL1  H26C 3326  -0.362   0.180   8.273  0.4027 -0.2823  1.7901
   45CHL1   C27 3327  -0.273   0.407   8.460 -0.6461  0.4169 -0.0833
   45CHL1  H27A 3328  -0.360   0.446   8.517 -1.2554 -2.1263  0.8542
   45CHL1  H27B 3329  -0.247   0.307   8.500  0.5755  1.3626  1.6222
   45CHL1  H27C 3330  -0.186   0.476   8.467  0.8165 -0.6473 -4.5564
   46CHL1    C3 3331   3.595   1.457   7.298 -0.3800  0.2044  0.3552
   46CHL1    H3 3332   3.681   1.526   7.288 -2.4554  3.1595  1.5209
   46CHL1    O3 3333   3.542   1.446   7.171  0.4484 -0.4318  0.5887
   46CHL1   H3' 3334   3.523   1.353   7.157  1.7709 -1.1942  3.1868
   46CHL1    C4 3335   3.624   1.313   7.350  0.0626  0.4152 -0.6222
   46CHL1   H4A 3336   3.533   1.251   7.343 -0.1604  0.9163 -2.6769
   46CHL1   H4B 3337   3.700   1.263   7.286 -0.4742 -1.5435  0.1862
   46CHL1    C5 3338   3.655   1.310   7.500 -0.0754 -0.2860 -0.4443
   46CHL1    C6 3339   3.762   1.247   7.552 -0.7360  0.2470  0.0472
   46CHL1    H6 3340   3.815   1.177   7.486 -0.6519  0.7778 -0.4525
   46CHL1    C7 3341   3.820   1.233   7.700 -0.5283 -0.6913  0.3948
   46CHL1   H7A 3342   3.833   1.130   7.741  3.1969 -0.2797  0.6303
   46CHL1   H7B 3343   3.924   1.269   7.716  0.7915 -4.0507  0.2883
   46CHL1    C8 3344   3.714   1.301   7.794  0.3375 -0.7753  0.4701
   46CHL1    H8 3345   3.630   1.232   7.816 -0.0528  0.0601  1.7165
   46CHL1   C14 3346   3.785   1.340   7.923 -0.2814  0.1987  0.1394
   46CHL1   H14 3347   3.853   1.416   7.879  0.1078 -1.3379 -2.1140
   46CHL1   C15 3348   3.875   1.241   8.001 -0.5495 -0.1198  0.0372
   46CHL1  H15A 3349   3.835   1.138   7.983  0.4060 -0.1966 -1.8067
   46CHL1  H15B 3350   3.972   1.253   7.949 -0.4189  0.2638  0.3694
   46CHL1   C16 3351   3.880   1.298   8.145 -0.1970 -0.4368  0.3700
   46CHL1  H16A 3352   3.830   1.220   8.205 -0.6795  0.2011  0.8127
   46CHL1  H16B 3353   3.986   1.302   8.176  0.6397 -1.3817 -2.0874
   46CHL1   C17 3354   3.795   1.430   8.137 -0.5526 -0.5813 -0.3387
   46CHL1   H17 3355   3.871   1.509   8.118  0.6928 -1.9847 -1.4173
   46CHL1   C13 3356   3.698   1.414   8.020 -0.2346  0.7954  0.4656
   46CHL1   C18 3357   3.575   1.327   8.066 -0.2402  0.5103 -0.8054
   46CHL1  H18A 3358   3.510   1.300   7.981 -0.6322  1.1477 -0.7139
   46CHL1  H18B 3359   3.595   1.232   8.120 -0.1912  1.4402  0.8777
   46CHL1  H18C 3360   3.506   1.385   8.131 -3.7107 -3.2483 -0.6995
   46CHL1   C12 3361   3.655   1.546   7.960  0.6505  0.3741  0.1081
   46CHL1  H12A 3362   3.580   1.586   8.031 -0.1888 -0.4685 -0.2878
   46CHL1  H12B 3363   3.743   1.614   7.947  0.7360  0.1627 -0.4657
   46CHL1   C11 3364   3.573   1.520   7.835 -0.9558 -0.0526  1.0867
   46CHL1  H11A 3365   3.476   1.474   7.863  0.4515 -2.0223  3.1375
   46CHL1  H11B 3366   3.554   1.612   7.776  1.8773 -0.2742 -0.3130
   46CHL1    C9 3367   3.649   1.429   7.723 -0.6006  0.6269 -0.4598
   46CHL1    H9 3368   3.743   1.481   7.694 -0.3271  1.3783  1.5879
   46CHL1   C10 3369   3.569   1.411   7.590  0.3594 -0.3899  0.1975
   46CHL1   C19 3370   3.441   1.338   7.618  0.3568  0.3289 -0.5919
   46CHL1  H19A 3371   3.397   1.300   7.524  1.1768 -1.5475 -0.2541
   46CHL1  H19B 3372   3.454   1.257   7.693  0.1078 -0.7167 -1.6633
   46CHL1  H19C 3373   3.363   1.414   7.641 -1.1671 -2.1377  3.4192
   46CHL1    C1 3374   3.539   1.547   7.521  0.3777 -0.4351  0.0898
   46CHL1   H1A 3375   3.462   1.598   7.582 -2.1289 -0.8123 -2.5315
   46CHL1   H1B 3376   3.634   1.604   7.521 -0.5820  1.2160  0.7336
   46CHL1    C2 3377   3.487   1.536   7.375  0.5015  0.2878 -0.6601
   46CHL1   H2A 3378   3.466   1.633   7.325  0.8750 -0.1479 -1.6843
   46CHL1   H2B 3379   3.393   1.478   7.388  0.5036  0.4407  0.1090
   46CHL1   C20 3380   3.749   1.459   8.279 -0.6150  0.1003 -0.0777
   46CHL1   H20 3381   3.689   1.376   8.323  0.9926  0.1856  2.4676
   46CHL1   C21 3382   3.662   1.582   8.286  0.4336 -0.3885 -0.2697
   46CHL1  H21A 3383   3.567   1.554   8.235  0.7784 -1.8463 -0.1495
   46CHL1  H21B 3384   3.706   1.677   8.246 -0.4708  0.0704 -0.1956
   46CHL1  H21C 3385   3.637   1.601   8.392 -2.9473 -0.4665 -0.9472
   46CHL1   C22 3386   3.864   1.469   8.381  0.3594 -0.4326  0.0898
   46CHL1  H22A 3387   3.826   1.494   8.483 -2.4193  0.4747 -1.0556
   46CHL1  H22B 3388   3.917   1.373   8.393 -1.0790 -1.3659 -0.7307
   46CHL1   C23 3389   3.966   1.587   8.368  0.7574  0.2970  0.3308
   46CHL1  H23A 3390   4.010   1.561   8.270 -1.1263  0.4613 -0.6030
   46CHL1  H23B 3391   3.910   1.682   8.352  1.2884  0.2101 -2.5614
   46CHL1   C24 3392   4.075   1.591   8.480  0.2931 -0.5361 -0.3013
   46CHL1  H24A 3393   4.020   1.590   8.576 -0.7886  2.4523 -0.7839
   46CHL1  H24B 3394   4.137   1.498   8.476 -0.7096 -1.1874 -1.4628
   46CHL1   C25 3395   4.174   1.713   8.478  0.1676  0.6823 -0.2531
   46CHL1   H25 3396   4.103   1.797   8.464 -1.5888 -0.2397  2.2689
   46CHL1   C26 3397   4.248   1.733   8.606 -0.9332 -0.8234 -0.2192
   46CHL1  H26A 3398   4.183   1.768   8.689 -0.4473  2.6007 -1.1276
   46CHL1  H26B 3399   4.307   1.642   8.628 -1.5089 -1.2346 -0.3468
   46CHL1  H26C 3400   4.320   1.818   8.606 -2.4112  0.5002 -1.8647
   46CHL1   C27 3401   4.274   1.685   8.364 -0.2400 -0.4380 -0.0759
   46CHL1  H27A 3402   4.334   1.593   8.383 -1.2572 -0.7208  2.0688
   46CHL1  H27B 3403   4.232   1.693   8.262  1.6406 -0.9832 -0.9345
   46CHL1  H27C 3404   4.353   1.760   8.387  0.4025 -0.5816 -1.7235
   47CHL1    C3 3405   3.604   2.301   6.808 -1.3313  0.0534 -0.3508
   47CHL1    H3 3406   3.535   2.214   6.815 -0.0860 -0.9585 -0.1306
   47CHL1    O3 3407   3.642   2.312   6.672 -0.3532 -0.3617 -0.1948
   47CHL1   H3' 3408   3.738   2.315   6.672 -0.3516 -0.2736 -0.8757
   47CHL1    C4 3409   3.537   2.431   6.854  0.8537  0.0634  0.2840
   47CHL1   H4A 3410   3.602   2.515   6.822  0.4527  0.7449  1.2081
   47CHL1   H4B 3411   3.450   2.430   6.786 -1.0015 -0.2095  2.5280
   47CHL1    C5 3412   3.491   2.430   6.999 -0.0985  0.2242  0.2605
   47CHL1    C6 3413   3.362   2.430   7.035 -0.1283 -0.5520 -0.3062
   47CHL1    H6 3414   3.285   2.429   6.957 -0.5089 -0.3610  0.0597
   47CHL1    C7 3415   3.318   2.432   7.179 -0.2530 -0.6805  0.3763
   47CHL1   H7A 3416   3.240   2.510   7.187 -1.2639 -1.6578  0.2716
   47CHL1   H7B 3417   3.274   2.336   7.212 -1.3043  0.0183  1.0912
   47CHL1    C8 3418   3.433   2.466   7.279  0.1124  0.2735  0.2460
   47CHL1    H8 3419   3.445   2.576   7.278 -1.2083  0.4343  0.4672
   47CHL1   C14 3420   3.395   2.439   7.421 -0.2698  0.4810 -0.5204
   47CHL1   H14 3421   3.356   2.335   7.429 -2.4324  1.3441  1.2676
   47CHL1   C15 3422   3.276   2.511   7.484 -0.3028 -0.5485 -0.2737
   47CHL1  H15A 3423   3.271   2.611   7.437 -0.1203 -1.0643 -1.4416
   47CHL1  H15B 3424   3.181   2.458   7.461  0.9502 -3.6994  1.2063
   47CHL1   C16 3425   3.293   2.515   7.642  0.3564  0.5715  0.4826
   47CHL1  H16A 3426   3.325   2.613   7.683  0.0030  0.6443  0.5907
   47CHL1  H16B 3427   3.200   2.474   7.688 -1.0368  1.0510 -1.7761
   47CHL1   C17 3428   3.421   2.425   7.664  0.2582 -0.2372 -0.1459
   47CHL1   H17 3429   3.391   2.319   7.658 -2.3101  0.5060 -3.9269
   47CHL1   C13 3430   3.507   2.453   7.532 -0.6466  0.6732  0.0198
   47CHL1   C18 3431   3.562   2.593   7.545  0.9250 -0.7808  0.7660
   47CHL1  H18A 3432   3.637   2.598   7.627  0.3795 -1.8002  1.3432
   47CHL1  H18B 3433   3.616   2.618   7.451 -0.7740  0.7059  0.1166
   47CHL1  H18C 3434   3.488   2.675   7.559  1.1487 -0.6438  1.1636
   47CHL1   C12 3435   3.617   2.355   7.490 -0.8676 -0.0818  0.6662
   47CHL1  H12A 3436   3.706   2.345   7.556  0.6123 -1.4867 -1.3982
   47CHL1  H12B 3437   3.561   2.260   7.492  1.1290 -1.3076  0.4580
   47CHL1   C11 3438   3.678   2.386   7.353  0.8089  0.7980  0.1921
   47CHL1  H11A 3439   3.732   2.484   7.348 -0.3500  1.4609  0.4085
   47CHL1  H11B 3440   3.748   2.304   7.325  0.1009  0.6239 -1.1263
   47CHL1    C9 3441   3.558   2.384   7.244 -0.4047 -0.7801  0.1781
   47CHL1    H9 3442   3.514   2.282   7.242  0.7228 -1.2709 -0.7683
   47CHL1   C10 3443   3.608   2.415   7.102 -0.0059  0.4036 -0.0637
   47CHL1   C19 3444   3.684   2.557   7.109 -0.0457 -0.6655  0.2627
   47CHL1  H19A 3445   3.787   2.524   7.136  0.4135 -0.0272 -0.6525
   47CHL1  H19B 3446   3.685   2.602   7.008  0.2715 -2.6944 -0.6882
   47CHL1  H19C 3447   3.634   2.621   7.185 -2.6063 -3.2690  0.9498
   47CHL1    C1 3448   3.706   2.301   7.049  0.3616  0.4125 -0.4962
   47CHL1   H1A 3449   3.806   2.314   7.097  0.1983  1.5748 -0.4453
   47CHL1   H1B 3450   3.670   2.199   7.072 -1.9912  1.0595 -1.0571
   47CHL1    C2 3451   3.733   2.296   6.894 -0.1146 -0.6638 -0.3419
   47CHL1   H2A 3452   3.793   2.204   6.880  2.6385  1.0309 -0.3109
   47CHL1   H2B 3453   3.804   2.378   6.871 -1.2822  0.4549 -0.0679
   47CHL1   C20 3454   3.482   2.442   7.807  0.3426 -0.0880 -0.7385
   47CHL1   H20 3455   3.532   2.541   7.812 -2.2470  1.3222 -0.7500
   47CHL1   C21 3456   3.586   2.334   7.820  0.0604 -0.1418  0.1705
   47CHL1  H21A 3457   3.539   2.233   7.819  0.3874 -0.3072  0.7101
   47CHL1  H21B 3458   3.641   2.352   7.915  0.9799  1.5219 -0.6323
   47CHL1  H21C 3459   3.669   2.350   7.748 -0.3715 -1.1000 -0.5638
   47CHL1   C22 3460   3.379   2.443   7.925 -0.5810 -0.4333  0.4978
   47CHL1  H22A 3461   3.295   2.510   7.898 -0.3741 -0.0680  0.7595
   47CHL1  H22B 3462   3.337   2.340   7.933  0.6449 -0.9635  0.4232
   47CHL1   C23 3463   3.430   2.485   8.070 -0.3559 -0.1630 -0.1457
   47CHL1  H23A 3464   3.506   2.409   8.094  0.8212  0.1940 -2.4103
   47CHL1  H23B 3465   3.468   2.590   8.068  0.5333 -0.4300  1.2731
   47CHL1   C24 3466   3.322   2.472   8.180 -0.6852 -0.6804  0.6602
   47CHL1  H24A 3467   3.251   2.558   8.173  0.5547  0.3761  0.6678
   47CHL1  H24B 3468   3.259   2.380   8.184 -1.6409 -0.0036  3.3734
   47CHL1   C25 3469   3.375   2.511   8.322  0.9465 -0.7958  0.4128
   47CHL1   H25 3470   3.453   2.590   8.309 -1.1920  1.5327  0.9105
   47CHL1   C26 3471   3.262   2.569   8.417 -0.3213 -0.2080 -0.1629
   47CHL1  H26A 3472   3.309   2.571   8.518  2.6779 -2.1377 -1.3599
   47CHL1  H26B 3473   3.228   2.671   8.388  0.4318 -0.0458 -0.5049
   47CHL1  H26C 3474   3.167   2.513   8.410 -1.2391  1.2682  0.1025
   47CHL1   C27 3475   3.422   2.383   8.390 -0.6155  0.5097  0.5922
   47CHL1  H27A 3476   3.477   2.414   8.482 -0.9493  0.4126  0.8284
   47CHL1  H27B 3477   3.333   2.325   8.424 -0.0525  0.0168  1.2513
   47CHL1  H27C 3478   3.478   2.311   8.327 -0.4525 -0.6000  1.9533
   48CHL1    C3 3479   0.898   4.671   6.441  0.0496  0.2641  0.0208
   48CHL1    H3 3480   0.923   4.772   6.480 -0.6804  0.1280  0.8973
   48CHL1    O3 3481   0.912   4.668   6.303 -0.0927 -0.2850 -0.0415
   48CHL1   H3' 3482   0.846   4.733   6.278 -0.7508 -0.4306  1.2502
   48CHL1    C4 3483   1.000   4.577   6.518  0.1471  0.0150  1.1271
   48CHL1   H4A 3484   0.984   4.473   6.484  3.2040 -0.0085 -0.6053
   48CHL1   H4B 3485   1.103   4.599   6.484  0.2781 -0.5276  1.1580
   48CHL1    C5 3486   0.976   4.588   6.670  0.2639  0.3464  0.0013
   48CHL1    C6 3487   1.083   4.615   6.744  0.2076  0.6331  1.0663
   48CHL1    H6 3488   1.180   4.612   6.692 -0.3469  2.0390 -0.1016
   48CHL1    C7 3489   1.083   4.616   6.891  0.0060 -0.2650  0.4107
   48CHL1   H7A 3490   1.165   4.553   6.932  0.0747  1.3265  2.8999
   48CHL1   H7B 3491   1.104   4.721   6.919  2.8996 -1.0293  1.4210
   48CHL1    C8 3492   0.953   4.557   6.960 -0.3349  0.6094  0.1983
   48CHL1    H8 3493   0.963   4.447   6.950 -0.0454  0.7552 -1.2966
   48CHL1   C14 3494   0.942   4.592   7.106 -0.8152 -0.0721  0.8846
   48CHL1   H14 3495   0.931   4.702   7.104  1.2052  0.1506 -1.3662
   48CHL1   C15 3496   1.066   4.573   7.197 -0.2312 -0.1025 -0.1926
   48CHL1  H15A 3497   1.110   4.471   7.195 -2.0022 -0.9006 -0.5744
   48CHL1  H15B 3498   1.143   4.650   7.175  0.5909 -0.2574  1.8943
   48CHL1   C16 3499   1.011   4.606   7.341  0.4602 -0.5521 -0.1113
   48CHL1  H16A 3500   1.048   4.530   7.413  2.6270  1.7966  1.4519
   48CHL1  H16B 3501   1.040   4.702   7.389 -0.2782 -0.4065  0.0549
   48CHL1   C17 3502   0.851   4.596   7.328  0.1110  1.0592 -0.5421
   48CHL1   H17 3503   0.816   4.701   7.340  2.0434  1.6346  0.5323
   48CHL1   C13 3504   0.822   4.534   7.187  0.3051 -0.3563  0.1752
   48CHL1   C18 3505   0.820   4.381   7.190 -0.1639 -0.4890  0.6517
   48CHL1  H18A 3506   0.906   4.338   7.246  0.1510 -0.2184  0.3808
   48CHL1  H18B 3507   0.727   4.334   7.229 -0.5025 -0.3988 -0.0355
   48CHL1  H18C 3508   0.818   4.345   7.085 -0.6897  0.4476  0.3341
   48CHL1   C12 3509   0.701   4.595   7.111 -0.1265  0.1617  0.2176
   48CHL1  H12A 3510   0.608   4.549   7.150 -0.8399  0.3280 -1.1987
   48CHL1  H12B 3511   0.697   4.705   7.124  2.4562  1.0914 -4.4683
   48CHL1   C11 3512   0.698   4.573   6.962  0.4893 -0.0652  0.6538
   48CHL1  H11A 3513   0.659   4.470   6.948  2.5834 -0.7620 -0.5658
   48CHL1  H11B 3514   0.611   4.639   6.938 -1.0725 -1.4314  2.2825
   48CHL1    C9 3515   0.831   4.601   6.886  0.1112 -0.0805  0.2495
   48CHL1    H9 3516   0.836   4.712   6.888 -3.3103  0.1648  1.0376
   48CHL1   C10 3517   0.837   4.567   6.728 -0.4487  0.6448 -0.0257
   48CHL1   C19 3518   0.806   4.412   6.711 -0.4088  0.0810  0.2094
   48CHL1  H19A 3519   0.894   4.354   6.748 -0.0954  0.3588 -0.0837
   48CHL1  H19B 3520   0.718   4.377   6.768  1.4108 -2.3837  1.6693
   48CHL1  H19C 3521   0.789   4.372   6.608  0.2512 -0.7607  0.4152
   48CHL1    C1 3522   0.744   4.652   6.645  0.1799  0.1508 -1.0571
   48CHL1   H1A 3523   0.640   4.642   6.684  0.9323  0.5936  1.1533
   48CHL1   H1B 3524   0.754   4.760   6.671  0.3815  0.0199 -0.6015
   48CHL1    C2 3525   0.759   4.644   6.493 -0.2594  0.0097 -0.1806
   48CHL1   H2A 3526   0.681   4.709   6.447 -1.1280 -1.4299 -0.8090
   48CHL1   H2B 3527   0.731   4.543   6.456 -1.3970 -0.7977  2.6355
   48CHL1   C20 3528   0.793   4.521   7.454  0.3980 -0.2543 -0.1159
   48CHL1   H20 3529   0.836   4.419   7.447  0.3762 -0.2005 -1.1718
   48CHL1   C21 3530   0.636   4.530   7.454 -0.9042  0.1629 -0.2021
   48CHL1  H21A 3531   0.617   4.448   7.527 -0.7274  0.4387  0.1609
   48CHL1  H21B 3532   0.589   4.497   7.359 -2.3083  0.3084  0.4088
   48CHL1  H21C 3533   0.604   4.628   7.496 -0.3059  0.9835 -1.5888
   48CHL1   C22 3534   0.858   4.586   7.584 -0.4432 -0.3759 -0.0169
   48CHL1  H22A 3535   0.967   4.565   7.589 -0.3709  0.1655  0.9277
   48CHL1  H22B 3536   0.849   4.696   7.576  2.9092 -0.0530 -0.8178
   48CHL1   C23 3537   0.798   4.544   7.726  0.2610  0.5200  0.2984
   48CHL1  H23A 3538   0.688   4.553   7.712  0.4524  1.3385 -0.8320
   48CHL1  H23B 3539   0.819   4.438   7.750 -0.5008  0.9594  3.3048
   48CHL1   C24 3540   0.867   4.629   7.837  0.4767 -0.1824  0.2918
   48CHL1  H24A 3541   0.975   4.604   7.836  1.1956  2.5524 -1.1431
   48CHL1  H24B 3542   0.864   4.738   7.816 -3.8084  0.7435  4.2202
   48CHL1   C25 3543   0.808   4.609   7.974  1.1711  0.4261 -0.6413
   48CHL1   H25 3544   0.813   4.499   7.989 -1.1870  0.1859 -1.1117
   48CHL1   C26 3545   0.896   4.681   8.084 -0.4057 -0.1859 -1.2454
   48CHL1  H26A 3546   0.931   4.779   8.046  1.5592 -0.7027 -0.8860
   48CHL1  H26B 3547   0.853   4.706   8.183  2.9127 -1.1466  0.5771
   48CHL1  H26C 3548   0.982   4.613   8.100  1.0016  1.2218 -2.5591
   48CHL1   C27 3549   0.660   4.667   7.988 -0.7498  0.5830  0.1196
   48CHL1  H27A 3550   0.624   4.659   8.093 -0.5331 -3.8800  0.0537
   48CHL1  H27B 3551   0.655   4.768   7.943  0.6324 -0.2005 -1.9575
   48CHL1  H27C 3552   0.594   4.603   7.925 -0.0793 -1.3262  1.2692
   49CHL1    C3 3553   0.030   6.145   6.947 -0.1493  0.4530 -0.0650
   49CHL1    H3 3554   0.109   6.213   6.986 -1.4789  2.6340 -0.9806
   49CHL1    O3 3555   0.045   6.151   6.806  0.1150  0.1099 -0.4198
   49CHL1   H3' 3556  -0.031   6.098   6.779 -0.9048  0.1119  2.1478
   49CHL1    C4 3557   0.063   6.006   7.001  0.1653  0.1572  0.0677
   49CHL1   H4A 3558  -0.004   5.929   6.956  1.0657 -0.8636  0.4092
   49CHL1   H4B 3559   0.167   5.989   6.965  0.5633 -0.2156  1.3143
   49CHL1    C5 3560   0.040   6.009   7.152  0.5930  0.7155  0.8013
   49CHL1    C6 3561   0.132   5.963   7.232 -0.5513 -0.4545  0.4010
   49CHL1    H6 3562   0.230   5.931   7.193 -0.3722 -0.6767  1.0166
   49CHL1    C7 3563   0.108   5.928   7.379 -0.1356  0.1067  0.5353
   49CHL1   H7A 3564   0.137   5.823   7.397  0.4580  0.4714  1.8135
   49CHL1   H7B 3565   0.166   5.996   7.445 -0.7345  0.1297  1.0538
   49CHL1    C8 3566  -0.040   5.943   7.433 -0.3617 -0.0560 -0.1417
   49CHL1    H8 3567  -0.100   5.852   7.410 -1.5245  0.5290  0.4591
   49CHL1   C14 3568  -0.039   5.962   7.586  0.5499 -0.3231  0.0970
   49CHL1   H14 3569   0.010   6.061   7.598  0.1815  0.1330 -1.8002
   49CHL1   C15 3570   0.031   5.847   7.664  0.4017 -0.2006  0.0473
   49CHL1  H15A 3571   0.001   5.747   7.628 -0.2995 -0.0276  0.1212
   49CHL1  H15B 3572   0.142   5.852   7.657  0.5910 -2.3406  0.9100
   49CHL1   C16 3573  -0.024   5.874   7.806  0.1834 -0.3277 -0.3201
   49CHL1  H16A 3574  -0.067   5.776   7.837 -1.8529  0.2376 -1.2110
   49CHL1  H16B 3575   0.056   5.916   7.871  0.5066 -0.0538 -0.8861
   49CHL1   C17 3576  -0.128   5.993   7.792  0.4807 -0.0501 -0.2768
   49CHL1   H17 3577  -0.067   6.084   7.811 -0.1207  0.3115 -0.0261
   49CHL1   C13 3578  -0.176   5.991   7.643  0.6725  0.3647 -0.2160
   49CHL1   C18 3579  -0.278   5.876   7.617  0.5125 -0.1783  0.8936
   49CHL1  H18A 3580  -0.229   5.786   7.659  2.3609  0.5649  0.4237
   49CHL1  H18B 3581  -0.383   5.902   7.645  0.0683  1.4147 -1.8948
   49CHL1  H18C 3582  -0.283   5.851   7.509 -0.0817 -0.4541  0.9810
   49CHL1   C12 3583  -0.228   6.121   7.573  0.1087  0.4420 -0.6094
   49CHL1  H12A 3584  -0.331   6.140   7.609  0.7399 -1.1951  2.4131
   49CHL1  H12B 3585  -0.158   6.203   7.599  0.9345 -0.4844  0.1958
   49CHL1   C11 3586  -0.230   6.110   7.424 -0.1172  0.8078  0.8245
   49CHL1  H11A 3587  -0.311   6.040   7.395  0.7508 -0.1455  0.6925
   49CHL1  H11B 3588  -0.269   6.206   7.382  1.0265  0.3726 -1.3806
   49CHL1    C9 3589  -0.098   6.067   7.361 -0.4909 -0.8898 -0.3983
   49CHL1    H9 3590  -0.032   6.156   7.373 -1.8957  0.1821 -0.2656
   49CHL1   C10 3591  -0.098   6.054   7.206 -0.4166  0.4469 -0.2422
   49CHL1   C19 3592  -0.205   5.945   7.151  0.4918 -0.3161  0.1547
   49CHL1  H19A 3593  -0.211   5.938   7.040 -2.2699 -1.4022  0.3071
   49CHL1  H19B 3594  -0.177   5.847   7.197 -1.1610 -0.0276  1.8684
   49CHL1  H19C 3595  -0.303   5.986   7.181  0.9372  0.9926 -0.1439
   49CHL1    C1 3596  -0.125   6.192   7.146  0.5114 -0.1286 -0.2832
   49CHL1   H1A 3597  -0.222   6.234   7.181 -0.5951 -1.6825 -1.3457
   49CHL1   H1B 3598  -0.044   6.257   7.185  0.5778 -1.0369  1.1653
   49CHL1    C2 3599  -0.114   6.194   6.991 -0.6951  0.4541  0.1027
   49CHL1   H2A 3600  -0.116   6.301   6.962 -0.7424  0.8434  1.4864
   49CHL1   H2B 3601  -0.198   6.132   6.952 -2.4873  1.7088  1.8192
   49CHL1   C20 3602  -0.234   5.994   7.899  0.1604 -0.1339 -0.2717
   49CHL1   H20 3603  -0.290   5.899   7.889  2.2362 -1.5371  0.8004
   49CHL1   C21 3604  -0.322   6.128   7.887  0.4071  0.5007 -0.3886
   49CHL1  H21A 3605  -0.258   6.218   7.882  0.1458  0.6742 -0.6729
   49CHL1  H21B 3606  -0.383   6.133   7.979  1.5268  1.9472  0.3138
   49CHL1  H21C 3607  -0.395   6.117   7.804 -1.4042  1.1286  1.0599
   49CHL1   C22 3608  -0.172   5.996   8.041 -0.4089  0.2533  0.4660
   49CHL1  H22A 3609  -0.091   5.921   8.051 -1.6514 -0.9647  1.9861
   49CHL1  H22B 3610  -0.126   6.092   8.072  2.1716 -1.1182  1.0987
   49CHL1   C23 3611  -0.278   5.961   8.153  0.0147  0.3509  0.1410
   49CHL1  H23A 3612  -0.332   6.055   8.175 -0.7671 -0.3890  1.5605
   49CHL1  H23B 3613  -0.354   5.890   8.115 -3.2714  3.7876 -0.2824
   49CHL1   C24 3614  -0.193   5.907   8.277  0.3648 -0.1326 -0.3023
   49CHL1  H24A 3615  -0.123   5.830   8.237 -0.4025 -0.7956 -0.4004
   49CHL1  H24B 3616  -0.138   5.991   8.323 -1.7110  0.4850  1.2165
   49CHL1   C25 3617  -0.274   5.858   8.392  0.3005  0.3873 -0.6398
   49CHL1   H25 3618  -0.339   5.770   8.371 -0.0961  0.7934 -1.1403
   49CHL1   C26 3619  -0.188   5.818   8.512 -0.2147 -0.0863  0.0892
   49CHL1  H26A 3620  -0.244   5.829   8.607 -1.0133 -3.2017  0.1113
   49CHL1  H26B 3621  -0.153   5.713   8.495 -0.2314  0.0890 -1.1324
   49CHL1  H26C 3622  -0.104   5.890   8.516  2.4987 -3.0215  3.3760
   49CHL1   C27 3623  -0.366   5.970   8.438 -0.0193  0.5608 -0.1283
   49CHL1  H27A 3624  -0.318   6.046   8.504 -1.9033  0.5614  1.3124
   49CHL1  H27B 3625  -0.417   6.021   8.354  1.1448  0.4851 -0.8945
   49CHL1  H27C 3626  -0.442   5.927   8.507  0.5775 -1.8273 -0.8830
   50CHL1    C3 3627   6.701   1.675   6.862 -0.2504  0.0638  0.1228
   50CHL1    H3 3628   6.602   1.705   6.903 -1.1076 -0.1189 -1.6961
   50CHL1    O3 3629   6.719   1.708   6.727  0.4143 -0.1254 -0.2280
   50CHL1   H3' 3630   6.790   1.657   6.688  0.5876  2.2678 -3.3946
   50CHL1    C4 3631   6.822   1.731   6.938  0.3223 -0.4190 -0.0026
   50CHL1   H4A 3632   6.920   1.693   6.903  0.5655  1.3152 -1.2998
   50CHL1   H4B 3633   6.820   1.839   6.913  1.5610 -0.3187  0.2799
   50CHL1    C5 3634   6.803   1.701   7.089  0.0126 -0.1976 -0.0292
   50CHL1    C6 3635   6.816   1.799   7.180  0.4588  0.5116  0.5690
   50CHL1    H6 3636   6.832   1.904   7.150  1.2076  0.3862  0.5068
   50CHL1    C7 3637   6.832   1.777   7.329 -0.2123  0.2893  0.4846
   50CHL1   H7A 3638   6.925   1.830   7.358 -0.9167  2.0274 -0.2517
   50CHL1   H7B 3639   6.753   1.828   7.389 -2.6510  0.1656 -2.3659
   50CHL1    C8 3640   6.839   1.627   7.370 -0.1595  0.1442 -0.3555
   50CHL1    H8 3641   6.950   1.617   7.371  0.3302  4.0088  0.8815
   50CHL1   C14 3642   6.780   1.611   7.512 -0.0994  0.1231  0.6850
   50CHL1   H14 3643   6.674   1.638   7.494 -0.0500 -0.6143 -0.7905
   50CHL1   C15 3644   6.839   1.699   7.622 -0.6269  0.2572 -0.4901
   50CHL1  H15A 3645   6.950   1.704   7.627 -0.5276 -0.1756 -1.8250
   50CHL1  H15B 3646   6.809   1.804   7.602 -0.2559  0.8153  1.6118
   50CHL1   C16 3647   6.784   1.635   7.757 -0.1637 -0.7874  0.3886
   50CHL1  H16A 3648   6.863   1.631   7.834  1.9896 -0.0260 -1.6293
   50CHL1  H16B 3649   6.694   1.696   7.779  0.8398  1.3728 -1.0127
   50CHL1   C17 3650   6.730   1.497   7.718  0.3044  0.2849  1.1169
   50CHL1   H17 3651   6.620   1.510   7.716  0.4132  1.1312 -0.4689
   50CHL1   C13 3652   6.777   1.469   7.572  0.3553 -0.6944 -0.0458
   50CHL1   C18 3653   6.929   1.427   7.575  0.5575  0.2540  0.4815
   50CHL1  H18A 3654   6.986   1.443   7.481 -0.6425  1.2905 -0.0973
   50CHL1  H18B 3655   6.989   1.481   7.652  0.7024 -1.6113  1.7429
   50CHL1  H18C 3656   6.934   1.318   7.594  0.6440  0.1636 -0.0379
   50CHL1   C12 3657   6.698   1.375   7.473  0.0932 -0.3953  0.8211
   50CHL1  H12A 3658   6.700   1.265   7.491 -0.2838 -0.8240 -1.5072
   50CHL1  H12B 3659   6.595   1.414   7.470 -0.0980 -0.7760  1.7845
   50CHL1   C11 3660   6.746   1.394   7.325  0.1192  0.3279 -0.3234
   50CHL1  H11A 3661   6.852   1.360   7.330  0.0122  0.0572  0.1304
   50CHL1  H11B 3662   6.677   1.346   7.252  0.3441  0.7147 -0.8062
   50CHL1    C9 3663   6.750   1.542   7.279  0.5870  0.5507 -0.6733
   50CHL1    H9 3664   6.647   1.575   7.301  1.4886  2.3134  1.2567
   50CHL1   C10 3665   6.787   1.554   7.128 -0.0424  0.0092  0.5170
   50CHL1   C19 3666   6.919   1.486   7.107 -0.1304  0.6067  0.1613
   50CHL1  H19A 3667   6.956   1.505   7.005  0.6651 -0.2829  0.2679
   50CHL1  H19B 3668   6.991   1.498   7.190  0.2746 -0.2659 -0.0473
   50CHL1  H19C 3669   6.896   1.377   7.100 -0.0070  0.3193  3.0454
   50CHL1    C1 3670   6.685   1.491   7.030 -0.1422  0.4850 -0.4193
   50CHL1   H1A 3671   6.698   1.383   7.052 -1.3175  0.3284 -0.4352
   50CHL1   H1B 3672   6.581   1.518   7.058 -0.6525 -0.3670 -1.4124
   50CHL1    C2 3673   6.702   1.523   6.875  0.3877 -0.4416 -0.0315
   50CHL1   H2A 3674   6.610   1.486   6.824 -0.8891 -0.4351  2.1576
   50CHL1   H2B 3675   6.795   1.481   6.831  0.4145  2.1291 -2.7699
   50CHL1   C20 3676   6.761   1.398   7.832  0.0390  0.4062  0.2786
   50CHL1   H20 3677   6.871   1.387   7.840 -0.2095 -4.5890 -0.4113
   50CHL1   C21 3678   6.704   1.259   7.799  0.0136  0.2832 -0.2538
   50CHL1  H21A 3679   6.743   1.209   7.707 -2.8644 -0.8654 -0.9787
   50CHL1  H21B 3680   6.593   1.251   7.801  0.1481 -1.9022  0.6706
   50CHL1  H21C 3681   6.732   1.180   7.872 -0.1981  2.2684  2.0711
   50CHL1   C22 3682   6.706   1.444   7.974  0.1004  0.9897 -0.8134
   50CHL1  H22A 3683   6.763   1.537   7.995 -0.7307  1.1592  0.8419
   50CHL1  H22B 3684   6.596   1.457   7.965 -0.3088 -2.0940 -1.5296
   50CHL1   C23 3685   6.743   1.361   8.094 -1.0481 -0.7856 -0.3571
   50CHL1  H23A 3686   6.701   1.261   8.067 -2.2214 -0.3435 -0.2250
   50CHL1  H23B 3687   6.854   1.355   8.102 -0.8739  0.4194 -1.4836
   50CHL1   C24 3688   6.669   1.413   8.223 -0.4173  0.0111 -0.1624
   50CHL1  H24A 3689   6.667   1.524   8.238  0.3430 -0.0287  0.3124
   50CHL1  H24B 3690   6.565   1.380   8.206  0.3803 -2.9213  0.2274
   50CHL1   C25 3691   6.718   1.359   8.363  0.5498  0.1603 -0.1829
   50CHL1   H25 3692   6.683   1.254   8.367  3.1944 -0.8469 -1.1026
   50CHL1   C26 3693   6.871   1.375   8.375 -0.4040 -0.4525 -0.9772
   50CHL1  H26A 3694   6.913   1.319   8.288 -0.4383  0.5492 -1.6507
   50CHL1  H26B 3695   6.896   1.479   8.347 -1.9068 -0.2448 -1.6833
   50CHL1  H26C 3696   6.919   1.331   8.465 -0.4673 -1.5294 -1.4426
   50CHL1   C27 3697   6.649   1.433   8.486 -0.0503  0.4405  0.2031
   50CHL1  H27A 3698   6.539   1.430   8.471  0.0536 -0.5984 -0.4935
   50CHL1  H27B 3699   6.674   1.386   8.584 -1.6782 -1.1776 -0.0858
   50CHL1  H27C 3700   6.677   1.540   8.491  2.5690 -0.1009 -1.3935
   51CHL1    C3 3701   5.771   5.797   7.004  0.5465  0.4449  0.0349
   51CHL1    H3 3702   5.869   5.805   7.055  0.6476 -1.8953  0.3224
   51CHL1    O3 3703   5.769   5.723   6.882 -0.8516 -0.3432 -0.2648
   51CHL1   H3' 3704   5.681   5.687   6.869 -1.2320  0.0970  1.0460
   51CHL1    C4 3705   5.676   5.730   7.098  0.5006 -0.2060 -0.0965
   51CHL1   H4A 3706   5.577   5.721   7.047  0.7512  2.1201 -1.1257
   51CHL1   H4B 3707   5.711   5.626   7.115 -2.5892 -1.0061  2.4085
   51CHL1    C5 3708   5.650   5.807   7.229  0.1649 -0.5987 -0.6486
   51CHL1    C6 3709   5.656   5.747   7.345 -0.4884  0.0215 -0.8227
   51CHL1    H6 3710   5.668   5.638   7.345  1.3229  0.1082 -3.9529
   51CHL1    C7 3711   5.619   5.822   7.475 -0.5195  0.4456  0.5370
   51CHL1   H7A 3712   5.549   5.759   7.533  0.0236  2.3706  3.4814
   51CHL1   H7B 3713   5.711   5.839   7.535 -0.4144  0.0813  0.4824
   51CHL1    C8 3714   5.542   5.953   7.446 -0.1919  0.5648  1.1335
   51CHL1    H8 3715   5.439   5.927   7.414  0.0946 -0.1258  0.7425
   51CHL1   C14 3716   5.547   6.027   7.573 -0.0317 -0.4184  0.0393
   51CHL1   H14 3717   5.649   6.071   7.581  0.1388 -0.4190 -1.8038
   51CHL1   C15 3718   5.512   5.958   7.710  0.2712 -0.1724  0.3757
   51CHL1  H15A 3719   5.437   5.878   7.695  0.6894 -0.7889  1.4830
   51CHL1  H15B 3720   5.598   5.902   7.751 -0.5943 -0.3617  2.0389
   51CHL1   C16 3721   5.480   6.067   7.809  0.0876 -0.3342 -0.1902
   51CHL1  H16A 3722   5.391   6.048   7.872  0.1705  1.2256  0.4221
   51CHL1  H16B 3723   5.568   6.068   7.876 -1.7023 -2.1572  2.3895
   51CHL1   C17 3724   5.486   6.195   7.717  0.7990  0.2916 -0.6847
   51CHL1   H17 3725   5.594   6.218   7.708  0.6422  1.2710 -0.2719
   51CHL1   C13 3726   5.464   6.153   7.566  0.8019 -0.4367 -0.5970
   51CHL1   C18 3727   5.312   6.115   7.550  0.2860  0.4013 -0.4163
   51CHL1  H18A 3728   5.282   6.078   7.449 -2.8015  2.2767 -0.2935
   51CHL1  H18B 3729   5.288   6.039   7.627  1.0386  2.1810  1.6663
   51CHL1  H18C 3730   5.256   6.206   7.580  1.4975  0.5404  1.5945
   51CHL1   C12 3731   5.530   6.244   7.465 -0.4669  0.1818  0.1920
   51CHL1  H12A 3732   5.484   6.344   7.450  0.8917  0.5947 -1.6356
   51CHL1  H12B 3733   5.634   6.258   7.501 -0.0869 -0.0596 -0.7920
   51CHL1   C11 3734   5.525   6.177   7.325 -0.7648  0.0066  0.6195
   51CHL1  H11A 3735   5.420   6.158   7.295 -1.7296  2.2435  2.2665
   51CHL1  H11B 3736   5.570   6.247   7.252  0.0029  2.6936  3.4474
   51CHL1    C9 3737   5.605   6.040   7.333  0.4717  0.5250  0.3630
   51CHL1    H9 3738   5.711   6.062   7.357  1.0180 -0.2625 -1.1979
   51CHL1   C10 3739   5.613   5.959   7.198 -0.9562  0.0582 -0.6308
   51CHL1   C19 3740   5.471   5.952   7.130 -0.4629  0.5945 -0.2599
   51CHL1  H19A 3741   5.475   5.889   7.039 -1.3807  0.5662 -0.2905
   51CHL1  H19B 3742   5.384   5.927   7.193 -1.6175 -0.9025 -2.3301
   51CHL1  H19C 3743   5.438   6.050   7.088 -1.5480  0.1952 -0.3561
   51CHL1    C1 3744   5.709   6.023   7.101  0.0279 -0.6658 -0.4637
   51CHL1   H1A 3745   5.659   6.119   7.076  0.7526  0.1933  1.2175
   51CHL1   H1B 3746   5.804   6.052   7.151  0.4540 -2.1700 -0.3456
   51CHL1    C2 3747   5.735   5.941   6.970 -0.8747 -0.3567 -0.3065
   51CHL1   H2A 3748   5.820   5.993   6.921 -0.6038 -1.1062 -0.6359
   51CHL1   H2B 3749   5.645   5.955   6.907 -2.4402  0.9549  2.0552
   51CHL1   C20 3750   5.413   6.323   7.765  0.0397  0.6803 -0.8548
   51CHL1   H20 3751   5.370   6.376   7.677 -1.3246 -1.2816 -1.4580
   51CHL1   C21 3752   5.524   6.424   7.809 -0.2649  0.5276 -0.1505
   51CHL1  H21A 3753   5.592   6.442   7.723  0.6676 -0.7015  0.2975
   51CHL1  H21B 3754   5.569   6.390   7.905 -0.5988  1.7532  0.4630
   51CHL1  H21C 3755   5.471   6.519   7.831  1.0979  0.7446  2.7883
   51CHL1   C22 3756   5.300   6.312   7.873 -0.2161 -0.0306  0.3488
   51CHL1  H22A 3757   5.250   6.214   7.860 -0.7731 -0.1989  3.1760
   51CHL1  H22B 3758   5.351   6.297   7.970 -0.3364  0.6009  0.5119
   51CHL1   C23 3759   5.204   6.431   7.880  0.4706 -0.0881 -0.1202
   51CHL1  H23A 3760   5.252   6.528   7.857  0.3990 -0.1478 -0.5293
   51CHL1  H23B 3761   5.123   6.418   7.805 -0.2850  1.7572  0.3201
   51CHL1   C24 3762   5.132   6.449   8.015  0.0486 -0.4352 -0.2075
   51CHL1  H24A 3763   5.208   6.469   8.094  1.4864  3.1442 -2.2490
   51CHL1  H24B 3764   5.063   6.535   8.004 -1.2847 -1.2488  1.3496
   51CHL1   C25 3765   5.054   6.321   8.059  0.3883 -0.4820  0.1599
   51CHL1   H25 3766   5.129   6.241   8.071  0.1768 -0.6229  0.5366
   51CHL1   C26 3767   4.990   6.353   8.195  0.1274  0.5067  0.4979
   51CHL1  H26A 3768   4.925   6.441   8.177 -2.9113 -1.9162 -1.6137
   51CHL1  H26B 3769   4.930   6.266   8.232 -0.0303  0.6316  0.5373
   51CHL1  H26C 3770   5.056   6.379   8.280 -0.9646  0.0220  1.5431
   51CHL1   C27 3771   4.960   6.261   7.955 -0.4384  0.1250  0.1638
   51CHL1  H27A 3772   4.886   6.341   7.935  2.0405  2.5057 -0.1258
   51CHL1  H27B 3773   5.010   6.231   7.861 -2.7104  0.4694 -1.2180
   51CHL1  H27C 3774   4.899   6.171   7.976 -1.9007  1.0768  0.1863
   52CHL1    C3 3775   2.321   0.354   7.039  0.7762  0.5403 -1.2136
   52CHL1    H3 3776   2.350   0.250   7.068  2.0429  0.8913 -1.1726
   52CHL1    O3 3777   2.299   0.348   6.898  0.1175  1.1996  0.2589
   52CHL1   H3' 3778   2.268   0.435   6.874 -0.9563  0.9047  0.5329
   52CHL1    C4 3779   2.189   0.375   7.115 -0.4813  0.5959  0.1848
   52CHL1   H4A 3780   2.133   0.468   7.088 -3.2500 -0.4397  1.9781
   52CHL1   H4B 3781   2.120   0.296   7.078 -1.0926  1.1907  0.0201
   52CHL1    C5 3782   2.212   0.384   7.263 -0.2332 -0.3118 -0.4095
   52CHL1    C6 3783   2.137   0.299   7.332  0.0863 -0.3161  0.2129
   52CHL1    H6 3784   2.063   0.232   7.286  0.5930 -1.3319  0.8366
   52CHL1    C7 3785   2.135   0.318   7.483 -0.1916  0.4392 -0.2238
   52CHL1   H7A 3786   2.029   0.330   7.515 -0.2051  0.4434 -0.2694
   52CHL1   H7B 3787   2.170   0.226   7.535  0.1497  0.4593 -0.4138
   52CHL1    C8 3788   2.216   0.436   7.538 -0.1115 -0.6197  0.1362
   52CHL1    H8 3789   2.152   0.527   7.528  1.4752  0.4016 -1.2104
   52CHL1   C14 3790   2.238   0.408   7.682 -0.3365  0.1632  0.1924
   52CHL1   H14 3791   2.294   0.312   7.684 -1.7051 -0.8022 -3.0692
   52CHL1   C15 3792   2.113   0.379   7.767 -0.7300 -0.4888 -0.3838
   52CHL1  H15A 3793   2.045   0.464   7.745 -0.7841 -0.3988  0.1264
   52CHL1  H15B 3794   2.065   0.281   7.743  0.0872 -0.5392 -1.9529
   52CHL1   C16 3795   2.168   0.382   7.918  0.4922  0.6517  0.4116
   52CHL1  H16A 3796   2.099   0.436   7.987 -0.5433 -1.7353  1.3638
   52CHL1  H16B 3797   2.193   0.287   7.971  0.9002  1.0856  1.0090
   52CHL1   C17 3798   2.319   0.448   7.907  0.7281  0.4567 -0.2002
   52CHL1   H17 3799   2.388   0.361   7.917 -2.6547 -2.2256  1.9460
   52CHL1   C13 3800   2.318   0.514   7.756 -0.6671  0.3952 -0.2474
   52CHL1   C18 3801   2.240   0.648   7.759 -0.0482 -0.8379 -0.3600
   52CHL1  H18A 3802   2.139   0.646   7.805 -0.6505 -1.1224 -1.6509
   52CHL1  H18B 3803   2.305   0.721   7.811  0.9974  0.4849 -3.3091
   52CHL1  H18C 3804   2.230   0.687   7.656 -1.8215  0.0578  0.1135
   52CHL1   C12 3805   2.456   0.539   7.684  0.1226  0.1615 -0.1591
   52CHL1  H12A 3806   2.519   0.622   7.724  0.4257 -1.4461  3.0427
   52CHL1  H12B 3807   2.524   0.452   7.695 -2.3894 -1.7815  0.9622
   52CHL1   C11 3808   2.437   0.556   7.531  0.9787 -0.3448 -0.2540
   52CHL1  H11A 3809   2.395   0.657   7.517  0.4366 -0.6490 -0.8876
   52CHL1  H11B 3810   2.541   0.563   7.491  1.6380  0.0392  1.4707
   52CHL1    C9 3811   2.346   0.455   7.461 -0.3998 -0.2320  0.6261
   52CHL1    H9 3812   2.404   0.361   7.463 -0.0399 -0.2176 -2.7507
   52CHL1   C10 3813   2.320   0.486   7.311  0.3125 -0.9040  0.2363
   52CHL1   C19 3814   2.260   0.628   7.285 -0.3363  0.1380 -0.0834
   52CHL1  H19A 3815   2.224   0.624   7.180  0.2854 -2.2178 -0.2567
   52CHL1  H19B 3816   2.179   0.636   7.361 -1.1156 -2.8162 -0.4697
   52CHL1  H19C 3817   2.339   0.706   7.294 -0.7737  0.5869 -0.0672
   52CHL1    C1 3818   2.451   0.474   7.224 -0.4416  0.2067  0.0048
   52CHL1   H1A 3819   2.522   0.553   7.254  1.1656 -0.6847 -1.2760
   52CHL1   H1B 3820   2.510   0.381   7.241  3.0138  2.3205  0.3783
   52CHL1    C2 3821   2.424   0.461   7.073  0.5983 -0.1562 -0.6323
   52CHL1   H2A 3822   2.520   0.439   7.022  1.0765  0.5310 -0.0429
   52CHL1   H2B 3823   2.384   0.556   7.032  0.9597  1.3855  2.3189
   52CHL1   C20 3824   2.343   0.539   8.020 -0.4388 -0.3219  0.2568
   52CHL1   H20 3825   2.269   0.621   8.014  1.4268  1.3436 -1.4271
   52CHL1   C21 3826   2.483   0.612   8.012 -0.3661 -0.2435 -0.2516
   52CHL1  H21A 3827   2.491   0.684   8.097 -2.5236 -0.1231 -0.1105
   52CHL1  H21B 3828   2.501   0.680   7.926  0.8161  1.2120  1.0730
   52CHL1  H21C 3829   2.570   0.544   8.027  2.9984  3.2727 -1.9577
   52CHL1   C22 3830   2.348   0.455   8.152 -0.0186 -0.2524 -0.2747
   52CHL1  H22A 3831   2.259   0.390   8.153 -0.4712  0.3537 -0.2020
   52CHL1  H22B 3832   2.434   0.385   8.152  0.9934  0.8434 -3.0182
   52CHL1   C23 3833   2.343   0.544   8.280  0.1222  1.0018  0.2258
   52CHL1  H23A 3834   2.337   0.471   8.364  1.4277 -0.2558 -0.7186
   52CHL1  H23B 3835   2.436   0.604   8.292  0.2231  0.6296  1.5148
   52CHL1   C24 3836   2.228   0.652   8.276  0.2413  0.4516  0.5754
   52CHL1  H24A 3837   2.258   0.723   8.196 -1.3278  1.3673  0.7551
   52CHL1  H24B 3838   2.127   0.613   8.249  0.4664 -0.6645  1.2871
   52CHL1   C25 3839   2.207   0.732   8.407  0.0224 -0.1666 -0.5670
   52CHL1   H25 3840   2.126   0.806   8.394 -0.9738 -0.6750  2.0871
   52CHL1   C26 3841   2.151   0.644   8.518  0.6090 -0.3394  0.5143
   52CHL1  H26A 3842   2.061   0.593   8.477 -0.7342  2.1401  0.1576
   52CHL1  H26B 3843   2.221   0.562   8.543  0.5551 -0.7324 -0.5878
   52CHL1  H26C 3844   2.116   0.699   8.609 -2.4223  1.1567 -1.3893
   52CHL1   C27 3845   2.334   0.805   8.460 -0.8928  0.1251  0.4525
   52CHL1  H27A 3846   2.345   0.896   8.397  1.6085  1.1928  2.2980
   52CHL1  H27B 3847   2.327   0.843   8.564 -2.6164 -2.6750  1.4937
   52CHL1  H27C 3848   2.420   0.734   8.460 -1.7854 -1.0004  0.1943
   53CHL1    C3 3849   5.045   4.267   7.261 -0.3981 -0.9310  0.2911
   53CHL1    H3 3850   5.082   4.167   7.292 -0.0322 -1.0643 -0.5434
   53CHL1    O3 3851   4.989   4.259   7.133  0.3501  0.6974  0.3854
   53CHL1   H3' 3852   5.052   4.269   7.062 -0.1721 -0.4614 -0.2763
   53CHL1    C4 3853   4.929   4.309   7.356 -0.5918  0.2230 -0.6249
   53CHL1   H4A 3854   4.910   4.414   7.327  1.6721  0.9771  0.3919
   53CHL1   H4B 3855   4.844   4.240   7.341 -0.2160 -1.0180  2.2624
   53CHL1    C5 3856   4.981   4.312   7.497 -0.5243  0.7921  0.2422
   53CHL1    C6 3857   4.940   4.226   7.586  0.7666  0.2102 -0.4675
   53CHL1    H6 3858   4.852   4.164   7.564  2.1251 -1.9649 -0.0824
   53CHL1    C7 3859   4.988   4.223   7.729  0.0739  0.6784 -0.3331
   53CHL1   H7A 3860   4.901   4.220   7.797 -0.4471 -1.7406 -1.0026
   53CHL1   H7B 3861   5.049   4.131   7.746 -1.2803 -0.0512  0.7455
   53CHL1    C8 3862   5.080   4.345   7.767  0.2882 -0.3168  0.1624
   53CHL1    H8 3863   5.010   4.431   7.771  1.3926  0.5654  1.1992
   53CHL1   C14 3864   5.147   4.324   7.896  0.0029 -0.2024 -1.0449
   53CHL1   H14 3865   5.224   4.247   7.874 -0.2149 -0.9865  0.7259
   53CHL1   C15 3866   5.057   4.284   8.015  0.7171  0.7245  0.7510
   53CHL1  H15A 3867   4.971   4.355   8.016  0.9705  1.0375  1.5251
   53CHL1  H15B 3868   5.023   4.178   8.017  0.3339  0.6582 -2.8631
   53CHL1   C16 3869   5.140   4.326   8.141  0.7488 -0.0275  0.1336
   53CHL1  H16A 3870   5.075   4.401   8.192  0.5301  0.0045 -0.1856
   53CHL1  H16B 3871   5.160   4.243   8.212  1.1128 -1.0260 -1.1089
   53CHL1   C17 3872   5.268   4.398   8.083 -0.0772 -0.2055  0.0485
   53CHL1   H17 3873   5.341   4.316   8.064 -0.1312 -0.2842  0.1775
   53CHL1   C13 3874   5.234   4.443   7.937  0.8046  0.1629 -0.1751
   53CHL1   C18 3875   5.151   4.577   7.952  0.7829 -0.2120 -0.1793
   53CHL1  H18A 3876   5.069   4.563   8.025  2.1217  0.2363  1.4705
   53CHL1  H18B 3877   5.213   4.660   7.992 -1.8538  1.5016  0.5289
   53CHL1  H18C 3878   5.111   4.615   7.856  0.2968 -0.8630 -0.2401
   53CHL1   C12 3879   5.344   4.454   7.830  0.7854  0.5467  0.3544
   53CHL1  H12A 3880   5.412   4.537   7.856 -0.5849  1.6966  0.3542
   53CHL1  H12B 3881   5.405   4.361   7.822 -0.8712 -0.6718  1.2921
   53CHL1   C11 3882   5.280   4.486   7.689 -0.7282 -1.0988 -0.1864
   53CHL1  H11A 3883   5.245   4.591   7.682  1.5261 -0.2941 -0.4199
   53CHL1  H11B 3884   5.370   4.487   7.624  0.5548  1.7377  1.4630
   53CHL1    C9 3885   5.178   4.376   7.651  0.0772  0.2218  0.3841
   53CHL1    H9 3886   5.235   4.281   7.643 -2.6988 -1.6474  1.3419
   53CHL1   C10 3887   5.105   4.397   7.520  0.5484 -0.1627 -0.4546
   53CHL1   C19 3888   5.044   4.538   7.521 -0.1484  0.0383  0.2983
   53CHL1  H19A 3889   5.120   4.618   7.535 -3.0794  2.9810  0.6851
   53CHL1  H19B 3890   5.006   4.580   7.426  0.7476  0.8149  0.2600
   53CHL1  H19C 3891   4.969   4.549   7.602 -1.1550 -3.1400 -0.0802
   53CHL1    C1 3892   5.207   4.389   7.403 -0.6643 -0.0809  0.0212
   53CHL1   H1A 3893   5.276   4.476   7.410 -0.9666  0.0322  2.4939
   53CHL1   H1B 3894   5.280   4.309   7.425  1.3840  2.1285  1.8215
   53CHL1    C2 3895   5.156   4.377   7.257  0.4802  0.4963 -0.6409
   53CHL1   H2A 3896   5.238   4.349   7.187  1.5829  0.4740  0.6006
   53CHL1   H2B 3897   5.100   4.469   7.231 -0.4407  0.9010  2.3355
   53CHL1   C20 3898   5.333   4.506   8.176 -0.1339  0.0414  0.0028
   53CHL1   H20 3899   5.396   4.569   8.110 -2.9031  1.6087 -1.2955
   53CHL1   C21 3900   5.421   4.412   8.268  0.6130  0.1090 -0.1419
   53CHL1  H21A 3901   5.513   4.368   8.224 -0.7344 -1.4259 -1.5589
   53CHL1  H21B 3902   5.356   4.334   8.314  0.2035  0.9170  0.7030
   53CHL1  H21C 3903   5.466   4.479   8.345  1.1046 -0.0578 -0.2825
   53CHL1   C22 3904   5.236   4.590   8.267  0.4469  0.3399  0.1336
   53CHL1  H22A 3905   5.148   4.628   8.211 -1.0310 -2.3709  0.4538
   53CHL1  H22B 3906   5.194   4.527   8.348 -0.3904 -0.0504 -0.5796
   53CHL1   C23 3907   5.294   4.716   8.339  0.4567 -0.1034 -0.0297
   53CHL1  H23A 3908   5.389   4.696   8.392  1.0600 -0.9450 -1.3658
   53CHL1  H23B 3909   5.298   4.799   8.266 -0.6719  0.3787  0.4349
   53CHL1   C24 3910   5.193   4.761   8.447 -0.0718 -0.8683 -0.7833
   53CHL1  H24A 3911   5.106   4.805   8.395  1.5237  1.5234 -1.6106
   53CHL1  H24B 3912   5.153   4.675   8.505 -0.7150 -0.7482 -1.0462
   53CHL1   C25 3913   5.252   4.863   8.559 -0.4198  0.2725  0.6182
   53CHL1   H25 3914   5.343   4.821   8.607 -0.4862 -0.9280 -0.2420
   53CHL1   C26 3915   5.279   5.004   8.504 -1.0457 -0.0728 -0.1958
   53CHL1  H26A 3916   5.315   5.070   8.586  1.1228 -2.9232  1.3041
   53CHL1  H26B 3917   5.373   5.002   8.445 -0.7080  0.9693  0.2796
   53CHL1  H26C 3918   5.192   5.045   8.448 -1.4443  0.0621  0.5072
   53CHL1   C27 3919   5.137   4.867   8.662 -0.3516  0.0759 -0.3117
   53CHL1  H27A 3920   5.044   4.915   8.624 -0.7702 -0.7884 -0.4051
   53CHL1  H27B 3921   5.120   4.761   8.694  3.4251 -0.7422 -0.5412
   53CHL1  H27C 3922   5.160   4.921   8.756 -2.9823  0.4892  0.1712
   54CHL1    C3 3923   5.804   3.456   7.033 -0.2525 -0.1478  0.9643
   54CHL1    H3 3924   5.783   3.562   7.056  0.6404  0.6645 -1.6600
   54CHL1    O3 3925   5.784   3.458   6.895  0.0309  0.2264  0.3359
   54CHL1   H3' 3926   5.785   3.364   6.878 -0.6762 -0.1345  2.1071
   54CHL1    C4 3927   5.958   3.423   7.070 -0.0312 -0.0796  0.9323
   54CHL1   H4A 3928   5.982   3.330   7.014 -1.0721  0.1478  0.0740
   54CHL1   H4B 3929   6.022   3.499   7.019  0.0398 -1.3988 -1.0269
   54CHL1    C5 3930   5.986   3.383   7.219  0.0696  0.2874  0.1616
   54CHL1    C6 3931   6.089   3.442   7.276 -0.7546  0.0247  0.9241
   54CHL1    H6 3932   6.148   3.511   7.215  0.7298 -0.3208  1.9167
   54CHL1    C7 3933   6.125   3.414   7.422 -0.0442  0.5361 -0.4103
   54CHL1   H7A 3934   6.232   3.387   7.428 -0.4324 -0.7649  1.3899
   54CHL1   H7B 3935   6.120   3.507   7.484  0.3027  0.4803 -0.2974
   54CHL1    C8 3936   6.048   3.294   7.480  0.0401  0.0039 -0.4214
   54CHL1    H8 3937   6.108   3.218   7.425  4.0347  2.0911  0.6906
   54CHL1   C14 3938   6.059   3.301   7.631 -0.5529 -0.1646  0.2305
   54CHL1   H14 3939   5.988   3.381   7.660 -0.6179  0.0998 -0.6233
   54CHL1   C15 3940   6.188   3.348   7.698 -0.1147 -0.3511 -0.2576
   54CHL1  H15A 3941   6.278   3.309   7.645  1.7597 -0.4539  2.7356
   54CHL1  H15B 3942   6.198   3.458   7.695 -0.0921 -0.3725 -1.7939
   54CHL1   C16 3943   6.174   3.291   7.836 -0.9974 -0.1867  0.4141
   54CHL1  H16A 3944   6.265   3.259   7.892 -0.3527  1.2786  0.2453
   54CHL1  H16B 3945   6.141   3.374   7.901 -1.3465 -0.5948  0.7690
   54CHL1   C17 3946   6.056   3.202   7.842 -0.0528 -0.5597  0.6912
   54CHL1   H17 3947   5.971   3.267   7.874 -1.7347 -3.1240  1.7259
   54CHL1   C13 3948   6.018   3.172   7.696 -0.4283 -0.3908  0.3450
   54CHL1   C18 3949   6.106   3.059   7.637 -0.9569 -0.0336  0.1178
   54CHL1  H18A 3950   6.059   3.010   7.549 -2.2788 -0.4684  1.0375
   54CHL1  H18B 3951   6.205   3.099   7.605 -0.9961  0.6952  0.8786
   54CHL1  H18C 3952   6.109   2.974   7.709 -0.7594 -0.7499 -0.7155
   54CHL1   C12 3953   5.867   3.153   7.662 -0.3858  0.4808 -0.0757
   54CHL1  H12A 3954   5.848   3.047   7.688  0.9435 -0.2222 -1.8263
   54CHL1  H12B 3955   5.807   3.212   7.735 -1.3387 -0.7386  0.1657
   54CHL1   C11 3956   5.826   3.173   7.515 -0.1225  0.1152 -0.9807
   54CHL1  H11A 3957   5.848   3.077   7.463 -3.5274 -0.8964 -0.7678
   54CHL1  H11B 3958   5.719   3.204   7.510 -0.2007  0.3127  1.1197
   54CHL1    C9 3959   5.898   3.287   7.433 -0.8737  0.3143 -0.0130
   54CHL1    H9 3960   5.851   3.375   7.482 -3.5845 -2.2037  2.2886
   54CHL1   C10 3961   5.880   3.287   7.280 -0.2610  0.4638 -0.2027
   54CHL1   C19 3962   5.890   3.139   7.225  0.1417 -0.1104 -0.1468
   54CHL1  H19A 3963   5.800   3.092   7.271  0.1126 -0.1793 -0.2739
   54CHL1  H19B 3964   5.889   3.128   7.115  1.0273  0.3214 -0.2060
   54CHL1  H19C 3965   5.981   3.097   7.273 -1.0174 -1.2055  1.2174
   54CHL1    C1 3966   5.737   3.340   7.241 -0.0110  0.3699  0.8249
   54CHL1   H1A 3967   5.666   3.274   7.294  0.6491 -0.0753  1.1671
   54CHL1   H1B 3968   5.735   3.443   7.284  2.9796  1.7389 -1.8477
   54CHL1    C2 3969   5.707   3.357   7.093  0.1159  0.8793 -0.4722
   54CHL1   H2A 3970   5.601   3.390   7.092 -0.5950 -1.0474  1.7662
   54CHL1   H2B 3971   5.717   3.267   7.029 -3.4267  0.2680 -0.3376
   54CHL1   C20 3972   6.071   3.093   7.950  0.1268 -0.0332  0.0624
   54CHL1   H20 3973   6.151   3.030   7.906 -0.9015 -1.7848  0.6106
   54CHL1   C21 3974   5.953   3.005   7.956 -0.0190  0.9238 -0.0821
   54CHL1  H21A 3975   5.919   2.965   7.858 -0.1281 -1.2050  0.7798
   54CHL1  H21B 3976   5.870   3.074   7.984  0.2568  1.0356  0.4776
   54CHL1  H21C 3977   5.960   2.915   8.021  0.6684  0.8255 -0.2774
   54CHL1   C22 3978   6.113   3.143   8.096 -0.6994 -0.5023  0.3086
   54CHL1  H22A 3979   6.199   3.213   8.094 -0.0665 -1.2625  0.0838
   54CHL1  H22B 3980   6.027   3.202   8.132 -1.1409 -0.8797 -0.1168
   54CHL1   C23 3981   6.135   3.037   8.206  0.0351 -0.1514  0.3794
   54CHL1  H23A 3982   6.036   2.990   8.225 -0.0742 -0.5850 -1.1551
   54CHL1  H23B 3983   6.205   2.957   8.175 -0.8492  0.1658 -2.8086
   54CHL1   C24 3984   6.175   3.110   8.337  0.1568 -0.9470 -0.0710
   54CHL1  H24A 3985   6.277   3.154   8.332 -0.3220  0.6369  2.2859
   54CHL1  H24B 3986   6.093   3.184   8.343  1.2675  0.4218 -1.2796
   54CHL1   C25 3987   6.185   3.019   8.459  0.0874  1.1868 -0.4419
   54CHL1   H25 3988   6.089   2.963   8.459 -0.5239  2.1921 -1.1571
   54CHL1   C26 3989   6.297   2.916   8.455  0.7832 -0.0823  0.0764
   54CHL1  H26A 3990   6.288   2.843   8.372  1.1821 -0.5092  0.4039
   54CHL1  H26B 3991   6.387   2.980   8.439  0.1464  0.1075 -3.5584
   54CHL1  H26C 3992   6.308   2.867   8.554  2.5677  0.5325  0.2199
   54CHL1   C27 3993   6.180   3.106   8.584  0.7358  0.0120 -0.7109
   54CHL1  H27A 3994   6.175   3.040   8.673 -0.6996  0.8005 -0.1715
   54CHL1  H27B 3995   6.269   3.170   8.600  0.9136  0.0425 -1.7340
   54CHL1  H27C 3996   6.082   3.159   8.579 -0.4779 -2.0849 -0.5130
   55CHL1    C3 3997   5.218   4.855   7.131 -0.2975 -0.1010 -0.2372
   55CHL1    H3 3998   5.118   4.807   7.139 -0.8527  0.7823 -1.4730
   55CHL1    O3 3999   5.272   4.829   7.001  1.1931  0.3767 -0.0539
   55CHL1   H3' 4000   5.257   4.734   6.992 -0.3997  0.4456  1.4164
   55CHL1    C4 4001   5.198   5.009   7.144  0.2109 -0.2878 -0.5452
   55CHL1   H4A 4002   5.293   5.064   7.125 -1.4295  3.2954  0.6407
   55CHL1   H4B 4003   5.129   5.037   7.062 -1.2456  1.2619  1.1143
   55CHL1    C5 4004   5.160   5.037   7.287 -0.7712 -0.2027 -0.2419
   55CHL1    C6 4005   5.054   5.113   7.321 -0.7624  0.0023 -0.0992
   55CHL1    H6 4006   4.982   5.151   7.247  0.0177  0.8249 -0.4646
   55CHL1    C7 4007   5.029   5.155   7.460  0.9289 -0.0045  0.0520
   55CHL1   H7A 4008   4.999   5.263   7.460 -2.8368 -0.9139  0.2341
   55CHL1   H7B 4009   4.939   5.110   7.506  0.6702  0.2434 -0.2040
   55CHL1    C8 4010   5.132   5.124   7.561 -0.6155  0.9871  0.0131
   55CHL1    H8 4011   5.218   5.192   7.547 -0.6760  1.0496 -0.0539
   55CHL1   C14 4012   5.088   5.142   7.708 -0.1699 -0.5469  0.0949
   55CHL1   H14 4013   5.010   5.063   7.718 -0.8076  0.0585 -0.0274
   55CHL1   C15 4014   5.004   5.265   7.743  0.0328 -0.1878  0.2562
   55CHL1  H15A 4015   5.060   5.346   7.691 -2.0405  1.0706 -0.1264
   55CHL1  H15B 4016   4.899   5.257   7.707 -0.3509 -0.0512  1.3170
   55CHL1   C16 4017   5.024   5.277   7.893  0.0207  0.0870  0.6644
   55CHL1  H16A 4018   5.091   5.363   7.914 -0.4368  0.2362  1.5393
   55CHL1  H16B 4019   4.926   5.291   7.942 -0.3726 -0.0081 -0.0805
   55CHL1   C17 4020   5.102   5.154   7.944 -0.1688  0.3172 -0.1589
   55CHL1   H17 4021   5.030   5.070   7.959 -0.2088  0.3022 -0.4203
   55CHL1   C13 4022   5.191   5.120   7.821  0.3491  0.3224  0.1178
   55CHL1   C18 4023   5.304   5.230   7.805 -0.7761 -0.2410 -0.3909
   55CHL1  H18A 4024   5.373   5.242   7.891 -1.4321 -0.1803  0.1386
   55CHL1  H18B 4025   5.356   5.205   7.710 -0.1165 -2.0157  0.3956
   55CHL1  H18C 4026   5.251   5.326   7.789 -2.1709 -0.2388  3.2495
   55CHL1   C12 4027   5.248   4.974   7.806  0.8467 -0.0946  0.0948
   55CHL1  H12A 4028   5.334   4.961   7.875  0.9980 -5.2522 -0.6671
   55CHL1  H12B 4029   5.164   4.906   7.833  0.4624  0.5580  0.5929
   55CHL1   C11 4030   5.297   4.948   7.658 -0.0437  0.4331  0.4388
   55CHL1  H11A 4031   5.392   5.003   7.639  1.0776 -1.9743 -1.5244
   55CHL1  H11B 4032   5.327   4.841   7.648  0.2050  0.4861  0.5906
   55CHL1    C9 4033   5.200   4.989   7.545 -0.2251 -0.4645  0.1125
   55CHL1    H9 4034   5.119   4.913   7.558  0.1515 -0.8533  0.2060
   55CHL1   C10 4035   5.248   4.975   7.399  0.2643 -0.2734  0.3480
   55CHL1   C19 4036   5.385   5.047   7.395 -0.1679  0.2555 -0.6175
   55CHL1  H19A 4037   5.413   5.099   7.301  1.2976  0.5196 -0.0671
   55CHL1  H19B 4038   5.390   5.135   7.462 -2.1370  0.5234 -0.7790
   55CHL1  H19C 4039   5.465   4.980   7.434  0.9409  1.3474 -0.9462
   55CHL1    C1 4040   5.265   4.819   7.372 -0.5457  0.5550 -0.0889
   55CHL1   H1A 4041   5.341   4.779   7.443 -0.9881  1.4453  0.9120
   55CHL1   H1B 4042   5.169   4.765   7.387 -0.4657  0.4713  0.1300
   55CHL1    C2 4043   5.315   4.796   7.233 -0.0155 -0.2726 -0.1549
   55CHL1   H2A 4044   5.328   4.688   7.207 -1.3603 -0.5527  0.2388
   55CHL1   H2B 4045   5.419   4.834   7.225 -0.5798  1.2546 -0.5021
   55CHL1   C20 4046   5.169   5.176   8.076 -0.2775 -0.3635 -0.4761
   55CHL1   H20 4047   5.242   5.259   8.067 -0.5109 -0.0843  0.1440
   55CHL1   C21 4048   5.241   5.046   8.127  0.0429  0.1037 -0.5655
   55CHL1  H21A 4049   5.247   5.044   8.238 -2.7097 -2.7022 -0.3479
   55CHL1  H21B 4050   5.340   5.048   8.076  1.5640  1.6341  2.1861
   55CHL1  H21C 4051   5.191   4.952   8.099  0.6307 -0.2721 -0.3713
   55CHL1   C22 4052   5.069   5.215   8.183  0.4165  0.1973 -0.5785
   55CHL1  H22A 4053   4.993   5.137   8.161 -1.2890  0.7976  2.5745
   55CHL1  H22B 4054   5.108   5.191   8.284 -1.2586  2.8232  0.8071
   55CHL1   C23 4055   5.042   5.367   8.205  0.5500 -0.4480  0.3797
   55CHL1  H23A 4056   5.136   5.413   8.242  0.9276 -0.5812 -0.3825
   55CHL1  H23B 4057   5.008   5.422   8.115  1.7968 -0.0594  0.1199
   55CHL1   C24 4058   4.944   5.399   8.315 -0.4441 -0.0267 -0.7051
   55CHL1  H24A 4059   4.853   5.338   8.295  0.1117 -0.8508 -0.7853
   55CHL1  H24B 4060   4.982   5.353   8.409 -0.9309 -0.6382 -0.7969
   55CHL1   C25 4061   4.916   5.547   8.340  0.1033  1.0862  0.1188
   55CHL1   H25 4062   5.010   5.607   8.342  0.6423  0.2339  1.2555
   55CHL1   C26 4063   4.821   5.615   8.243  0.9180  1.0032 -0.1626
   55CHL1  H26A 4064   4.720   5.576   8.268  0.6002  2.2417  0.6179
   55CHL1  H26B 4065   4.820   5.726   8.249  2.5902  1.1797 -2.1819
   55CHL1  H26C 4066   4.841   5.598   8.135  0.2452 -0.4420 -0.0819
   55CHL1   C27 4067   4.851   5.545   8.479  0.3562  0.5168  0.4811
   55CHL1  H27A 4068   4.921   5.506   8.555 -0.3013 -2.0742 -0.1438
   55CHL1  H27B 4069   4.816   5.647   8.508 -2.8901 -0.5672  0.8544
   55CHL1  H27C 4070   4.760   5.483   8.498  0.7775  0.0385  0.9629
   56CHL1    C3 4071   4.289   5.190   7.008 -0.1313 -0.0342 -0.4594
   56CHL1    H3 4072   4.182   5.159   7.008  0.0527 -0.7930  1.4602
   56CHL1    O3 4073   4.317   5.239   6.876  0.1346 -0.2150 -0.7316
   56CHL1   H3' 4074   4.412   5.248   6.862 -0.0802  2.9375 -0.7720
   56CHL1    C4 4075   4.316   5.300   7.108  0.2810  0.2489  0.0625
   56CHL1   H4A 4076   4.421   5.331   7.087  0.7079 -0.8208  0.5226
   56CHL1   H4B 4077   4.254   5.390   7.085 -1.1288 -0.7754 -0.2765
   56CHL1    C5 4078   4.296   5.264   7.254  0.1939  0.1554 -0.0420
   56CHL1    C6 4079   4.209   5.333   7.332 -1.0049  0.3229 -0.1331
   56CHL1    H6 4080   4.172   5.433   7.304  1.2980  1.3242  0.0939
   56CHL1    C7 4081   4.177   5.286   7.477 -0.1680 -0.4516  0.2516
   56CHL1   H7A 4082   4.143   5.360   7.553 -0.8095 -1.4105  0.9353
   56CHL1   H7B 4083   4.078   5.235   7.469 -1.1252  1.5541 -1.6419
   56CHL1    C8 4084   4.281   5.185   7.533  0.4337 -0.4487 -0.7714
   56CHL1    H8 4085   4.384   5.224   7.544  1.1517 -2.4971  0.2528
   56CHL1   C14 4086   4.228   5.129   7.664  0.0885  0.3233 -0.0803
   56CHL1   H14 4087   4.133   5.080   7.635  1.4328 -2.5912  0.1381
   56CHL1   C15 4088   4.196   5.231   7.777 -0.0016  0.7963  0.3972
   56CHL1  H15A 4089   4.276   5.307   7.786  0.2388  0.8057 -1.4303
   56CHL1  H15B 4090   4.105   5.290   7.753 -1.3918 -0.5067  2.1314
   56CHL1   C16 4091   4.170   5.137   7.892  0.1140  0.1196  0.6303
   56CHL1  H16A 4092   4.215   5.182   7.983 -0.6809 -0.6255  1.4199
   56CHL1  H16B 4093   4.059   5.133   7.900 -0.1149  1.4833 -1.1582
   56CHL1   C17 4094   4.227   4.991   7.860 -0.6523 -0.5783  0.0133
   56CHL1   H17 4095   4.141   4.928   7.828  0.0825 -1.5657 -0.0653
   56CHL1   C13 4096   4.313   5.020   7.737  0.2814 -0.0988  0.5182
   56CHL1   C18 4097   4.448   5.076   7.782  0.6595  0.3739  0.3166
   56CHL1  H18A 4098   4.511   5.108   7.697  1.4884  1.0869  1.1869
   56CHL1  H18B 4099   4.438   5.162   7.851  1.2057  0.6800  0.0193
   56CHL1  H18C 4100   4.513   5.013   7.847  1.4773  2.4379  1.6110
   56CHL1   C12 4101   4.316   4.901   7.632  0.3003  0.1416  0.3513
   56CHL1  H12A 4102   4.376   4.815   7.668  0.5534  0.1257 -0.1136
   56CHL1  H12B 4103   4.216   4.860   7.607  1.0193 -1.3941 -0.1743
   56CHL1   C11 4104   4.386   4.947   7.502  0.4705 -0.0005  0.8180
   56CHL1  H11A 4105   4.493   4.973   7.516  0.5576 -0.8258  1.8908
   56CHL1  H11B 4106   4.375   4.874   7.419 -0.6677  1.8122 -0.7036
   56CHL1    C9 4107   4.302   5.068   7.436 -0.0176 -0.2924 -0.0470
   56CHL1    H9 4108   4.201   5.027   7.414 -0.3290 -0.3499  1.3543
   56CHL1   C10 4109   4.360   5.128   7.302 -0.4915 -0.2226 -0.2895
   56CHL1   C19 4110   4.517   5.157   7.310 -0.3530 -0.2729 -0.5830
   56CHL1  H19A 4111   4.535   5.217   7.402 -2.0692  0.2972 -0.5743
   56CHL1  H19B 4112   4.579   5.065   7.307 -1.8878 -1.3157 -2.3456
   56CHL1  H19C 4113   4.549   5.216   7.221 -1.2767 -0.1318 -0.8381
   56CHL1    C1 4114   4.333   5.019   7.187 -0.3167  0.1997  0.0953
   56CHL1   H1A 4115   4.395   4.929   7.209 -0.4782 -0.2217 -1.0917
   56CHL1   H1B 4116   4.226   4.993   7.168  0.7393 -3.2979 -2.2528
   56CHL1    C2 4117   4.378   5.074   7.047 -0.4379  0.1250 -0.3000
   56CHL1   H2A 4118   4.366   4.999   6.965 -2.8869  1.1774 -0.9947
   56CHL1   H2B 4119   4.480   5.119   7.056 -0.5815  0.0276  3.0210
   56CHL1   C20 4120   4.284   4.914   7.977 -0.2024  0.6125  0.0352
   56CHL1   H20 4121   4.369   4.966   8.026  0.8722 -0.9191 -0.1265
   56CHL1   C21 4122   4.322   4.776   7.929 -0.0982 -0.4827  0.6526
   56CHL1  H21A 4123   4.247   4.734   7.858  0.7796 -0.1921 -0.4826
   56CHL1  H21B 4124   4.359   4.700   8.001  1.2476  0.4090  0.9415
   56CHL1  H21C 4125   4.417   4.785   7.873  0.7859 -0.2117  2.1400
   56CHL1   C22 4126   4.187   4.916   8.093  0.2743 -0.6510 -0.0316
   56CHL1  H22A 4127   4.146   5.016   8.116 -2.1187 -0.7706 -3.0288
   56CHL1  H22B 4128   4.094   4.866   8.057 -0.0145  0.7285 -1.3040
   56CHL1   C23 4129   4.250   4.859   8.222 -0.3580  0.0869  0.1425
   56CHL1  H23A 4130   4.314   4.773   8.191 -0.2867  0.3637 -0.5092
   56CHL1  H23B 4131   4.318   4.938   8.259 -0.8886  0.3686  0.5140
   56CHL1   C24 4132   4.154   4.807   8.332 -0.1001 -0.5761  0.3398
   56CHL1  H24A 4133   4.075   4.885   8.342  0.5736 -0.0946  2.3004
   56CHL1  H24B 4134   4.104   4.710   8.310  0.2767 -0.8590  0.7174
   56CHL1   C25 4135   4.224   4.792   8.471  0.3556 -0.0292 -0.3039
   56CHL1   H25 4136   4.243   4.891   8.519 -0.2856 -0.1269  0.1574
   56CHL1   C26 4137   4.145   4.706   8.566  0.0488  0.0275 -0.0702
   56CHL1  H26A 4138   4.043   4.744   8.585  0.1669 -0.5094  1.8030
   56CHL1  H26B 4139   4.183   4.706   8.671 -1.3122  4.6520  0.6444
   56CHL1  H26C 4140   4.142   4.599   8.538 -1.9717 -0.0583  0.2940
   56CHL1   C27 4141   4.367   4.736   8.445  0.6962 -0.6260 -0.5199
   56CHL1  H27A 4142   4.402   4.702   8.545  0.4542  2.2108  0.6204
   56CHL1  H27B 4143   4.349   4.655   8.371  1.1409 -0.4159 -0.8634
   56CHL1  H27C 4144   4.435   4.813   8.403 -0.2959 -0.2515 -1.4977
   57SAPC     N 4145   4.817   2.507  11.366 -0.5509 -0.2657  0.7985
   57SAPC   C12 4146   4.824   2.576  11.229 -0.0958 -0.1122  0.2375
   57SAPC  H12A 4147   4.902   2.528  11.172 -1.2142 -0.2944 -1.1762
   57SAPC  H12B 4148   4.869   2.670  11.254  2.8713 -1.1401 -0.8612
   57SAPC   C13 4149   4.953   2.495  11.430 -0.1812  0.6491 -0.2358
   57SAPC  H13A 4150   4.944   2.426  11.512 -1.4029 -0.1405 -0.9865
   57SAPC  H13B 4151   5.035   2.468  11.366 -0.5883  0.3681 -0.6478
   57SAPC  H13C 4152   4.976   2.586  11.482 -0.3696  0.8642 -0.5281
   57SAPC   C14 4153   4.723   2.573  11.460  0.6541  0.0944  0.2173
   57SAPC  H14A 4154   4.624   2.577  11.417  1.1315 -0.9297 -1.0381
   57SAPC  H14B 4155   4.709   2.504  11.542 -3.0344 -2.5483 -2.2879
   57SAPC  H14C 4156   4.757   2.672  11.487  0.8855  0.6426 -1.9478
   57SAPC   C15 4157   4.772   2.368  11.349  0.1669 -0.2123 -0.7384
   57SAPC  H15A 4158   4.854   2.304  11.322  1.1126 -0.0570  1.5403
   57SAPC  H15B 4159   4.742   2.334  11.447  1.6993 -1.2337 -0.5992
   57SAPC  H15C 4160   4.692   2.353  11.278  1.2853 -3.3515 -1.4836
   57SAPC   C11 4161   4.703   2.575  11.145  0.1345  0.1578  0.4580
   57SAPC  H11A 4162   4.722   2.647  11.062 -0.5147  1.2914  1.2650
   57SAPC  H11B 4163   4.618   2.612  11.207  1.1404 -0.3746  2.1934
   57SAPC     P 4164   4.691   2.397  10.953 -0.2655 -0.1948 -0.0496
   57SAPC   O13 4165   4.829   2.431  10.922 -0.0105  0.5004  0.1602
   57SAPC   O14 4166   4.652   2.254  10.938 -0.5905  0.3058  0.0315
   57SAPC   O12 4167   4.661   2.443  11.100  0.2471 -0.2523 -0.5816
   57SAPC   O11 4168   4.596   2.477  10.861 -0.1205  0.5486 -0.2270
   57SAPC    C1 4169   4.589   2.428  10.730 -0.3154 -0.0937  0.3527
   57SAPC    HA 4170   4.616   2.322  10.711 -2.3867 -0.2865 -2.1199
   57SAPC    HB 4171   4.480   2.417  10.708 -0.3176 -0.0600  0.3483
   57SAPC    C2 4172   4.658   2.517  10.620 -0.7969  0.3080  0.5621
   57SAPC    HS 4173   4.767   2.498  10.621 -0.6850  0.8265 -0.4827
   57SAPC   O21 4174   4.626   2.656  10.653 -0.3276  0.2872  0.1149
   57SAPC   C21 4175   4.718   2.739  10.621  0.3687 -0.2200  0.1228
   57SAPC   O22 4176   4.827   2.715  10.571  0.1585 -0.1789 -0.1352
   57SAPC   C22 4177   4.676   2.875  10.672 -0.1988  0.7084  0.4476
   57SAPC   H2R 4178   4.573   2.867  10.713 -0.0228  1.7745  1.1275
   57SAPC   H2S 4179   4.731   2.904  10.764 -2.1213  0.7248  1.6399
   57SAPC    C3 4180   4.598   2.490  10.475 -0.5558  0.0167 -0.6265
   57SAPC    HX 4181   4.493   2.526  10.469  0.1307  1.9374 -1.8806
   57SAPC    HY 4182   4.589   2.380  10.462  0.5061 -0.4929  2.1736
   57SAPC   O31 4183   4.669   2.558  10.372  0.7722  0.1057  0.6907
   57SAPC   C31 4184   4.780   2.497  10.336  0.4340 -0.7391 -0.1400
   57SAPC   O32 4185   4.821   2.399  10.395 -0.3054 -0.2948 -0.1372
   57SAPC   C32 4186   4.840   2.572  10.217  0.4536 -0.0363 -0.3850
   57SAPC   H2X 4187   4.919   2.497  10.193 -1.7798 -3.0187  0.8217
   57SAPC   H2Y 4188   4.876   2.672  10.248  0.8282 -0.2290 -0.1958
   57SAPC   C23 4189   4.686   2.993  10.569  0.0475  0.7223  0.1615
   57SAPC   H3R 4190   4.783   3.002  10.516  0.7708  4.1051  1.7606
   57SAPC   H3S 4191   4.680   3.088  10.627 -3.4452  0.1642  0.9496
   57SAPC   C24 4192   4.570   2.997  10.475 -0.3492 -0.9969 -0.4067
   57SAPC   H4R 4193   4.568   3.107  10.461  0.3624 -0.5227  2.5191
   57SAPC   H4S 4194   4.473   2.975  10.525  1.0383 -1.7430  2.1463
   57SAPC   C25 4195   4.587   2.926  10.344 -0.3096 -0.7553 -0.2334
   57SAPC   H5R 4196   4.584   2.817  10.360 -1.5103 -1.0523 -2.0985
   57SAPC   C26 4197   4.606   2.983  10.220 -0.1589 -0.4388  0.6381
   57SAPC   H6R 4198   4.616   2.915  10.134  1.5994  0.5764  0.0044
   57SAPC   C27 4199   4.612   3.129  10.173  0.4052  0.0278  0.1649
   57SAPC   H7R 4200   4.699   3.144  10.106  0.8139  0.8615  0.8555
   57SAPC   H7S 4201   4.643   3.190  10.261 -1.0065 -1.3435  1.6805
   57SAPC   C28 4202   4.472   3.163  10.111 -0.6733  0.0909 -0.6502
   57SAPC   H8R 4203   4.379   3.148  10.169  1.0985 -1.7899  1.9477
   57SAPC   C29 4204   4.459   3.199   9.986 -0.3830  0.3872  0.1128
   57SAPC   H9R 4205   4.360   3.230   9.951 -2.6251 -3.8961  1.8811
   57SAPC  C210 4206   4.568   3.222   9.881 -0.0876 -0.0557  0.7438
   57SAPC  H10R 4207   4.660   3.164   9.899 -0.0905 -0.7312 -1.1767
   57SAPC  H10S 4208   4.606   3.324   9.901 -0.0375  0.1524 -0.3661
   57SAPC  C211 4209   4.518   3.209   9.734 -0.0338 -0.4835 -0.2498
   57SAPC  H11R 4210   4.489   3.307   9.693 -2.2541 -0.1786  1.8020
   57SAPC  C212 4211   4.500   3.098   9.658 -0.0300 -0.2150  0.1834
   57SAPC  H12R 4212   4.466   3.111   9.554  3.2664 -1.3201 -1.1591
   57SAPC  C213 4213   4.523   2.952   9.689 -0.0242 -0.3600  0.8088
   57SAPC  H13R 4214   4.545   2.950   9.797 -2.4057  2.5109  1.4727
   57SAPC  H13S 4215   4.613   2.920   9.632  0.5516 -0.3299  1.6820
   57SAPC  C214 4216   4.420   2.853   9.649 -0.2151  0.1246 -0.2914
   57SAPC  H14R 4217   4.422   2.794   9.557 -1.2285 -0.1134 -0.1726
   57SAPC  C215 4218   4.312   2.826   9.732  0.0145 -0.0477  0.6417
   57SAPC  H15R 4219   4.242   2.751   9.691  0.6990 -0.6849  0.6069
   57SAPC  C216 4220   4.280   2.890   9.862  0.0217  0.2158  0.6480
   57SAPC  H16R 4221   4.213   2.977   9.846  1.7267  1.6295  0.9254
   57SAPC  H16S 4222   4.376   2.920   9.910 -0.1085  0.2007  0.9185
   57SAPC  C217 4223   4.224   2.786   9.958  0.6856 -0.7922  0.3864
   57SAPC  H17R 4224   4.293   2.700   9.972  2.1854  0.5477  1.7161
   57SAPC  H17S 4225   4.126   2.748   9.922  0.0298 -0.3726  1.6406
   57SAPC  C218 4226   4.193   2.839  10.103  0.4123 -1.1855 -0.0369
   57SAPC  H18R 4227   4.125   2.927  10.100  0.8198 -0.8261  0.8373
   57SAPC  H18S 4228   4.283   2.885  10.148 -0.9716  2.0584 -0.2523
   57SAPC  C219 4229   4.136   2.732  10.201 -0.4247  0.4619  0.0588
   57SAPC  H19R 4230   4.212   2.652  10.211  0.2534  1.2869  1.9207
   57SAPC  H19S 4231   4.036   2.694  10.168  0.4459 -1.0087 -1.0233
   57SAPC  C220 4232   4.122   2.791  10.345 -0.8892  0.3808 -0.2712
   57SAPC  H20R 4233   4.041   2.866  10.354  0.2023  1.3951  1.5291
   57SAPC  H20S 4234   4.219   2.818  10.391 -1.5570  0.6815  0.9878
   57SAPC  H20T 4235   4.090   2.703  10.406  2.7238 -0.8765  0.0480
   57SAPC   C33 4236   4.749   2.596  10.101  0.2171 -0.0408  0.8605
   57SAPC   H3X 4237   4.690   2.687  10.125  1.1964  0.5614  1.0382
   57SAPC   H3Y 4238   4.673   2.523  10.067 -0.7442  1.1914  0.2530
   57SAPC   C34 4239   4.833   2.628   9.973 -0.0209  0.2299 -0.3225
   57SAPC   H4X 4240   4.892   2.535   9.961  0.9953  0.8527 -0.3439
   57SAPC   H4Y 4241   4.899   2.714   9.997 -0.4833  0.3747  0.4695
   57SAPC   C35 4242   4.761   2.655   9.845 -0.0215  0.0119  0.0657
   57SAPC   H5X 4243   4.833   2.708   9.777 -1.1748  0.5800 -0.7450
   57SAPC   H5Y 4244   4.675   2.724   9.858 -0.4465 -0.0961 -1.8385
   57SAPC   C36 4245   4.720   2.529   9.764 -0.8653 -0.0368 -0.0004
   57SAPC   H6X 4246   4.652   2.489   9.842 -0.4219 -0.0428  0.3932
   57SAPC   H6Y 4247   4.802   2.460   9.735  0.6765  1.3647  0.8166
   57SAPC   C37 4248   4.649   2.559   9.633  0.3415  0.2145  0.3446
   57SAPC   H7X 4249   4.580   2.644   9.654  1.6458  0.8354  2.4457
   57SAPC   H7Y 4250   4.586   2.473   9.604  1.5760 -0.3812 -0.6368
   57SAPC   C38 4251   4.738   2.598   9.512  0.1907  0.6523  0.1633
   57SAPC   H8X 4252   4.805   2.678   9.552  0.3284  0.4697  0.3028
   57SAPC   H8Y 4253   4.673   2.645   9.436 -0.8644 -1.0442 -0.0371
   57SAPC   C39 4254   4.829   2.494   9.430  0.8260 -0.4744 -0.2230
   57SAPC   H9X 4255   4.759   2.450   9.357 -0.6738  2.7197 -0.8983
   57SAPC   H9Y 4256   4.880   2.420   9.495  0.5873 -1.0764 -0.7125
   57SAPC  C310 4257   4.934   2.564   9.351  0.5746  0.1024 -0.0614
   57SAPC  H10X 4258   4.983   2.646   9.408  1.3412  0.5252 -1.2631
   57SAPC  H10Y 4259   4.895   2.628   9.269 -0.2574 -1.1196 -0.6477
   57SAPC  C311 4260   5.044   2.472   9.303  0.9988  0.7920  0.1748
   57SAPC  H11X 4261   5.003   2.381   9.256 -0.5439  2.0484 -1.0284
   57SAPC  H11Y 4262   5.092   2.433   9.395 -1.0346 -2.6715 -0.0840
   57SAPC  C312 4263   5.138   2.543   9.205  0.9189  0.1696 -0.2385
   57SAPC  H12X 4264   5.237   2.493   9.194  1.7127  0.9810  2.3520
   57SAPC  H12Y 4265   5.163   2.645   9.242 -2.2855  1.5663 -1.4954
   57SAPC  C313 4266   5.060   2.566   9.069 -0.8815  0.6254  0.0880
   57SAPC  H13X 4267   4.998   2.658   9.067 -0.1461  1.1668 -2.8687
   57SAPC  H13Y 4268   4.999   2.474   9.056 -1.8951  1.3158 -0.1796
   57SAPC  C314 4269   5.165   2.574   8.948  0.2779 -0.9495 -0.2399
   57SAPC  H14X 4270   5.232   2.487   8.930  0.0578 -0.7271 -2.4186
   57SAPC  H14Y 4271   5.227   2.665   8.960 -1.9544  0.7823 -1.0473
   57SAPC  C315 4272   5.095   2.613   8.824  0.3897 -0.7780  1.4275
   57SAPC  H15X 4273   5.018   2.692   8.838  0.5015 -0.4527  0.3388
   57SAPC  H15Y 4274   5.038   2.526   8.785 -2.1669  2.0046 -1.7877
   57SAPC  C316 4275   5.189   2.657   8.706  0.0898  0.2920 -0.4280
   57SAPC  H16X 4276   5.121   2.647   8.618  1.9377  0.8495 -1.9820
   57SAPC  H16Y 4277   5.268   2.580   8.693  1.4188  1.7611 -1.4139
   57SAPC  C317 4278   5.246   2.794   8.723  0.1008  0.4606  0.0447
   57SAPC  H17X 4279   5.333   2.784   8.791 -0.1646 -0.1187  0.3101
   57SAPC  H17Y 4280   5.169   2.856   8.774  0.0980 -1.3557  2.4085
   57SAPC  C318 4281   5.278   2.857   8.589  0.3993  0.1920 -0.6573
   57SAPC  H18X 4282   5.352   2.938   8.607 -2.4892  2.4414  2.2924
   57SAPC  H18Y 4283   5.188   2.908   8.548  0.0217  0.8959  0.9726
   57SAPC  H18Z 4284   5.311   2.778   8.519  0.2217 -0.8328  0.3920
   58SAPC     N 4285   0.809   5.677  11.073  0.0558  0.5383  0.5363
   58SAPC   C12 4286   0.775   5.658  10.921  0.3830 -0.4074  0.0203
   58SAPC  H12A 4287   0.691   5.725  10.910  2.0974  1.8664 -0.0356
   58SAPC  H12B 4288   0.732   5.560  10.910 -0.7423 -0.1705  1.8662
   58SAPC   C13 4289   0.820   5.820  11.115  0.3685  0.7881 -0.0422
   58SAPC  H13A 4290   0.906   5.869  11.074 -0.6576  0.6309 -2.5886
   58SAPC  H13B 4291   0.733   5.873  11.079  0.4071  2.2135  1.8262
   58SAPC  H13C 4292   0.810   5.825  11.223 -2.3903  0.8892 -0.2099
   58SAPC   C14 4293   0.709   5.609  11.157 -0.1071 -0.1067 -0.0064
   58SAPC  H14A 4294   0.610   5.646  11.135 -1.5297 -1.2725  3.7684
   58SAPC  H14B 4295   0.701   5.504  11.136  2.0074  0.0627 -2.1998
   58SAPC  H14C 4296   0.725   5.620  11.263 -1.6295  1.1627  0.1158
   58SAPC   C15 4297   0.943   5.623  11.110 -0.1730  0.2032  0.3677
   58SAPC  H15A 4298   0.951   5.520  11.080  2.6840  0.1975  0.8772
   58SAPC  H15B 4299   1.020   5.681  11.061 -1.5617  1.1280 -0.8093
   58SAPC  H15C 4300   0.959   5.620  11.217  2.8846  0.4807  0.0169
   58SAPC   C11 4301   0.883   5.690  10.809  1.1385 -0.5283 -0.7295
   58SAPC  H11A 4302   0.850   5.662  10.707  2.5240 -0.7273 -1.1333
   58SAPC  H11B 4303   0.977   5.638  10.838  2.7459  3.6179  2.6044
   58SAPC     P 4304   0.792   5.941  10.761  0.0992 -0.2046 -0.3569
   58SAPC   O13 4305   0.679   5.950  10.857  0.2340 -0.5335  0.5598
   58SAPC   O14 4306   0.859   6.071  10.738  0.0732 -0.0295  0.0119
   58SAPC   O12 4307   0.894   5.831  10.809  0.6228 -0.2484  0.2197
   58SAPC   O11 4308   0.756   5.879  10.619  0.0274  0.3248 -0.2113
   58SAPC    C1 4309   0.630   5.888  10.572 -0.2976  0.6683  0.4111
   58SAPC    HA 4310   0.592   5.784  10.564 -1.7375  0.9226  2.9466
   58SAPC    HB 4311   0.556   5.939  10.637 -1.2296  0.0661 -0.1578
   58SAPC    C2 4312   0.625   5.947  10.429 -0.0524  0.2867  0.8560
   58SAPC    HS 4313   0.547   5.889  10.374 -1.2934 -1.8624  4.4757
   58SAPC   O21 4314   0.752   5.940  10.362  0.0439  0.1043 -0.7299
   58SAPC   C21 4315   0.778   5.829  10.306 -0.2679 -0.4789  0.3632
   58SAPC   O22 4316   0.715   5.724  10.307 -0.1931 -0.0663 -0.0913
   58SAPC   C22 4317   0.919   5.836  10.239  0.1090  0.2149 -0.2531
   58SAPC   H2R 4318   0.975   5.916  10.291 -0.1406  0.3998 -0.2718
   58SAPC   H2S 4319   0.969   5.737  10.246  0.9220  0.7133  1.7088
   58SAPC    C3 4320   0.579   6.096  10.442 -0.0550 -0.2065 -0.2043
   58SAPC    HX 4321   0.650   6.143  10.512 -2.5335  2.1454  0.9015
   58SAPC    HY 4322   0.480   6.126  10.482 -0.0975  4.0670 -2.7958
   58SAPC   O31 4323   0.574   6.157  10.310 -0.2596 -0.0553  0.0993
   58SAPC   C31 4324   0.669   6.236  10.276  0.2329 -0.0581  0.1121
   58SAPC   O32 4325   0.770   6.253  10.344 -0.2015 -0.1241 -0.7852
   58SAPC   C32 4326   0.656   6.296  10.136 -0.1643 -0.3010 -0.7561
   58SAPC   H2X 4327   0.761   6.319  10.108  0.3232 -1.3038  0.1870
   58SAPC   H2Y 4328   0.594   6.388  10.142 -0.1626 -0.3605  0.4848
   58SAPC   C23 4329   0.925   5.884  10.089 -0.7279  1.0484 -0.1426
   58SAPC   H3R 4330   1.033   5.889  10.064 -0.8247  0.7450 -0.6336
   58SAPC   H3S 4331   0.892   5.988  10.070  0.2012  1.6579  1.3650
   58SAPC   C24 4332   0.848   5.780   9.997 -0.0736 -0.4213  0.7461
   58SAPC   H4R 4333   0.740   5.776  10.023 -0.5298  0.0207 -0.9869
   58SAPC   H4S 4334   0.887   5.677  10.012  1.4416 -0.2293 -1.3785
   58SAPC   C25 4335   0.875   5.826   9.852 -0.2011 -0.3021  0.0488
   58SAPC   H5R 4336   0.976   5.861   9.828 -0.3006 -1.0215 -1.5346
   58SAPC   C26 4337   0.787   5.827   9.751 -0.5497 -0.2239 -0.7718
   58SAPC   H6R 4338   0.810   5.886   9.661  0.7332 -0.4910 -0.6374
   58SAPC   C27 4339   0.651   5.764   9.765  0.6071 -0.0768 -0.0454
   58SAPC   H7R 4340   0.630   5.692   9.847  1.1933 -3.7764 -2.8823
   58SAPC   H7S 4341   0.629   5.701   9.676 -0.3227  0.8101 -0.4568
   58SAPC   C28 4342   0.555   5.876   9.798 -0.7647  0.0374 -0.2040
   58SAPC   H8R 4343   0.584   5.932   9.888  0.4325 -0.8176 -0.0363
   58SAPC   C29 4344   0.461   5.928   9.717  0.1783  0.0641 -0.5372
   58SAPC   H9R 4345   0.424   6.024   9.755  0.4948  0.3048 -0.8312
   58SAPC  C210 4346   0.417   5.892   9.580  0.5750 -0.3925 -0.0035
   58SAPC  H10R 4347   0.496   5.837   9.525 -0.5428 -1.1335 -0.9215
   58SAPC  H10S 4348   0.396   5.988   9.529  0.3980 -0.6150 -0.3549
   58SAPC  C211 4349   0.291   5.807   9.590 -0.4443 -0.3997 -0.3970
   58SAPC  H11R 4350   0.211   5.861   9.642 -0.5926 -0.6473 -0.3629
   58SAPC  C212 4351   0.273   5.680   9.575 -0.0554  0.0020 -0.0465
   58SAPC  H12R 4352   0.171   5.644   9.596 -1.2550  1.9329 -2.1576
   58SAPC  C213 4353   0.368   5.583   9.521 -0.6239  0.3891  0.4586
   58SAPC  H13R 4354   0.372   5.509   9.604 -0.9807  1.5540  1.5408
   58SAPC  H13S 4355   0.468   5.630   9.504  0.0888 -1.6705 -1.7130
   58SAPC  C214 4356   0.312   5.512   9.397 -0.1540 -0.4609  0.5690
   58SAPC  H14R 4357   0.287   5.406   9.412  0.2966 -0.8195 -1.0742
   58SAPC  C215 4358   0.301   5.561   9.271 -0.4631  0.8959 -0.3818
   58SAPC  H15R 4359   0.271   5.492   9.191  1.4365  0.2692 -0.6146
   58SAPC  C216 4360   0.331   5.701   9.216  0.3827  1.1886 -0.1841
   58SAPC  H16R 4361   0.387   5.759   9.293  2.0489  0.4407 -0.7744
   58SAPC  H16S 4362   0.238   5.758   9.197 -1.3820 -1.7135 -1.0582
   58SAPC  C217 4363   0.425   5.696   9.090  0.5277  0.8044  0.2203
   58SAPC  H17R 4364   0.515   5.638   9.120  0.9716  1.6295  0.5258
   58SAPC  H17S 4365   0.461   5.797   9.062 -0.3444  0.4013 -2.6907
   58SAPC  C218 4366   0.356   5.617   8.970  0.1921 -0.2513 -0.4250
   58SAPC  H18R 4367   0.256   5.653   8.940  0.2816  1.1870  0.8650
   58SAPC  H18S 4368   0.332   5.513   9.001 -0.5639 -0.2006 -0.8331
   58SAPC  C219 4369   0.436   5.611   8.846  0.6924  0.5424 -0.1801
   58SAPC  H19R 4370   0.385   5.540   8.777 -0.8729  1.6115 -0.1896
   58SAPC  H19S 4371   0.540   5.573   8.851  1.5554  2.8238  1.1939
   58SAPC  C220 4372   0.438   5.745   8.775 -0.2813  0.3862 -0.0725
   58SAPC  H20R 4373   0.455   5.730   8.666 -1.2187  2.1307 -0.4965
   58SAPC  H20S 4374   0.500   5.822   8.826 -0.1035 -0.2799  0.7514
   58SAPC  H20T 4375   0.335   5.785   8.779  0.0344  1.5046 -2.1196
   58SAPC   C33 4376   0.593   6.207  10.029 -0.6759  0.5707 -0.2283
   58SAPC   H3X 4377   0.483   6.207  10.039 -0.7594  1.3364 -1.0476
   58SAPC   H3Y 4378   0.638   6.106  10.043  0.5244  0.8525 -1.8083
   58SAPC   C34 4379   0.634   6.241   9.883  0.1912  0.1112  0.8088
   58SAPC   H4X 4380   0.591   6.159   9.821  1.5226 -1.2745  1.6192
   58SAPC   H4Y 4381   0.745   6.232   9.881  0.2383  0.6445 -1.5216
   58SAPC   C35 4382   0.588   6.375   9.835  0.3137 -0.4888 -0.1636
   58SAPC   H5X 4383   0.640   6.457   9.890 -0.0355  1.2730 -2.3094
   58SAPC   H5Y 4384   0.478   6.383   9.847  0.2283 -2.2589  0.5821
   58SAPC   C36 4385   0.634   6.416   9.690  0.1903  0.4745 -0.4842
   58SAPC   H6X 4386   0.745   6.420   9.686  0.3077  0.3212  1.5314
   58SAPC   H6Y 4387   0.595   6.519   9.679  1.2539  1.3928  3.0660
   58SAPC   C37 4388   0.580   6.320   9.585 -0.5843  0.2774  0.2138
   58SAPC   H7X 4389   0.471   6.332   9.566 -0.4043  1.4443 -0.1971
   58SAPC   H7Y 4390   0.602   6.214   9.610  1.1976  0.2402 -1.3577
   58SAPC   C38 4391   0.647   6.360   9.460  0.0669 -0.1202  0.6868
   58SAPC   H8X 4392   0.755   6.361   9.486  0.0786  0.8751  0.6117
   58SAPC   H8Y 4393   0.621   6.463   9.431  0.3287 -0.3984 -0.5911
   58SAPC   C39 4394   0.623   6.266   9.343  0.8016  0.0662 -0.2368
   58SAPC   H9X 4395   0.697   6.289   9.264  2.4955 -0.7650  1.0368
   58SAPC   H9Y 4396   0.523   6.287   9.298  0.0804  2.4388  2.2324
   58SAPC  C310 4397   0.625   6.110   9.370 -0.5411 -0.7761 -0.2452
   58SAPC  H10X 4398   0.556   6.080   9.452  0.1963 -0.4675  0.5082
   58SAPC  H10Y 4399   0.728   6.079   9.399 -0.3705  0.3544  0.3931
   58SAPC  C311 4400   0.611   6.019   9.248 -0.0947  0.0197  0.1391
   58SAPC  H11X 4401   0.524   6.054   9.188  0.8396  2.4165  0.0675
   58SAPC  H11Y 4402   0.603   5.910   9.269 -0.3731  0.0274  0.0782
   58SAPC  C312 4403   0.731   6.030   9.147  0.9925 -0.7728 -0.2589
   58SAPC  H12X 4404   0.817   5.980   9.196  0.9404  0.5198  1.2241
   58SAPC  H12Y 4405   0.769   6.134   9.142  0.6335 -0.4360  2.3480
   58SAPC  C313 4406   0.696   5.975   9.011 -0.3095  0.0422  0.4662
   58SAPC  H13X 4407   0.591   6.003   8.985 -0.6229 -1.3751  0.1580
   58SAPC  H13Y 4408   0.710   5.865   9.009 -2.3233 -0.2879 -2.6152
   58SAPC  C314 4409   0.778   6.040   8.901  0.0860  0.6628 -0.2346
   58SAPC  H14X 4410   0.884   6.011   8.920 -0.0916  0.4003  0.3528
   58SAPC  H14Y 4411   0.781   6.151   8.895 -0.5937  0.7220  0.4885
   58SAPC  C315 4412   0.741   5.968   8.765 -0.1917 -0.4274  0.2119
   58SAPC  H15X 4413   0.656   6.023   8.719 -0.5109 -0.4101  0.8201
   58SAPC  H15Y 4414   0.709   5.863   8.783 -2.1928 -0.3009 -2.0590
   58SAPC  C316 4415   0.856   5.969   8.668  0.1020 -0.4427  0.1401
   58SAPC  H16X 4416   0.916   6.060   8.688  1.2879 -1.5725  2.0698
   58SAPC  H16Y 4417   0.822   5.970   8.563 -0.8369 -1.5451  0.4122
   58SAPC  C317 4418   0.934   5.833   8.689 -0.3806 -0.4167  0.5229
   58SAPC  H17X 4419   0.867   5.757   8.643  0.3045 -1.8214  1.7808
   58SAPC  H17Y 4420   0.937   5.797   8.794  0.4352 -3.5007 -0.4497
   58SAPC  C318 4421   1.068   5.824   8.617  0.7159 -0.4637 -0.4703
   58SAPC  H18X 4422   1.081   5.718   8.586 -0.1954 -0.5575 -0.5476
   58SAPC  H18Y 4423   1.155   5.852   8.680  0.0195  0.7472 -0.0290
   58SAPC  H18Z 4424   1.060   5.886   8.525 -0.7288 -1.2712 -0.9267
   59SAPC     N 4425   1.495   0.848  11.414 -0.4825 -0.7794 -0.3252
   59SAPC   C12 4426   1.415   0.929  11.308 -0.2899 -0.5290 -0.4650
   59SAPC  H12A 4427   1.442   1.033  11.313 -0.5610 -0.5040  2.0743
   59SAPC  H12B 4428   1.314   0.937  11.345 -0.7513 -1.3047 -1.5118
   59SAPC   C13 4429   1.423   0.720  11.437  0.4651 -0.6246  0.1781
   59SAPC  H13A 4430   1.488   0.657  11.496  0.8871  1.2750  1.8815
   59SAPC  H13B 4431   1.326   0.720  11.484 -1.1092  1.7860 -2.7234
   59SAPC  H13C 4432   1.409   0.674  11.341 -1.4372 -1.6564  0.9071
   59SAPC   C14 4433   1.630   0.821  11.364  0.4021  0.2926  0.4721
   59SAPC  H14A 4434   1.687   0.755  11.428  0.0937 -1.4568 -0.9718
   59SAPC  H14B 4435   1.628   0.757  11.278  1.6240 -0.5732  1.0628
   59SAPC  H14C 4436   1.691   0.906  11.339 -0.4993  1.2870  1.4826
   59SAPC   C15 4437   1.516   0.929  11.544 -0.2478  0.7959  0.9469
   59SAPC  H15A 4438   1.418   0.944  11.586 -0.7422  1.6168 -0.4195
   59SAPC  H15B 4439   1.575   0.856  11.597  0.6115 -0.9037 -2.1187
   59SAPC  H15C 4440   1.568   1.020  11.517 -0.1319  0.6538  0.6980
   59SAPC   C11 4441   1.409   0.883  11.152  0.4242 -0.5788 -0.1713
   59SAPC  H11A 4442   1.514   0.892  11.114  0.3413 -2.1830 -0.8477
   59SAPC  H11B 4443   1.336   0.954  11.108  1.2964  0.3503 -0.1786
   59SAPC     P 4444   1.222   0.699  11.098 -0.1127  0.0821  0.2634
   59SAPC   O13 4445   1.233   0.552  11.080 -0.4400 -0.3609 -0.2412
   59SAPC   O14 4446   1.115   0.757  11.176 -0.2853 -0.0009 -0.2224
   59SAPC   O12 4447   1.365   0.751  11.145  0.4711  0.2535 -1.1502
   59SAPC   O11 4448   1.215   0.765  10.956 -0.0653 -0.5927  0.0627
   59SAPC    C1 4449   1.315   0.743  10.860 -0.0943 -0.2936 -0.1829
   59SAPC    HA 4450   1.368   0.839  10.846  0.6560 -0.9431 -2.0703
   59SAPC    HB 4451   1.388   0.664  10.887  0.3195  0.1136 -0.0930
   59SAPC    C2 4452   1.270   0.683  10.716 -0.1347 -0.4807 -0.4548
   59SAPC    HS 4453   1.359   0.647  10.660  0.1806 -1.3695  0.5956
   59SAPC   O21 4454   1.199   0.782  10.644 -0.1876  0.1679 -0.3682
   59SAPC   C21 4455   1.275   0.874  10.585 -0.4640 -0.0654  0.1668
   59SAPC   O22 4456   1.395   0.883  10.595  0.0126  0.1193 -0.2494
   59SAPC   C22 4457   1.187   0.967  10.507  0.3587 -0.4614  0.1334
   59SAPC   H2R 4458   1.093   0.994  10.561 -0.0620 -1.2017 -0.2210
   59SAPC   H2S 4459   1.235   1.065  10.486  0.6636 -1.2497 -3.3026
   59SAPC    C3 4460   1.176   0.552  10.742 -0.1139  0.3194  0.0052
   59SAPC    HX 4461   1.094   0.580  10.812 -1.2712  1.0027 -1.5615
   59SAPC    HY 4462   1.241   0.486  10.802  0.8819  0.0854 -1.2915
   59SAPC   O31 4463   1.131   0.487  10.623  0.1636 -0.2205  0.1118
   59SAPC   C31 4464   1.013   0.515  10.577 -0.8783 -0.1746  0.5415
   59SAPC   O32 4465   0.934   0.593  10.618 -0.2966 -0.1600 -0.2629
   59SAPC   C32 4466   0.993   0.429  10.445  1.2273 -0.7566 -0.1521
   59SAPC   H2X 4467   0.907   0.362  10.464  1.5995 -0.7324  1.8804
   59SAPC   H2Y 4468   1.084   0.370  10.420  2.3475  0.2331  1.3575
   59SAPC   C23 4469   1.149   0.912  10.362 -0.0466  0.3836  0.0684
   59SAPC   H3R 4470   1.104   0.813  10.387  0.7067  0.6112  2.6237
   59SAPC   H3S 4471   1.248   0.901  10.313 -0.7905 -1.2724 -1.1775
   59SAPC   C24 4472   1.066   0.997  10.268  0.0446 -0.8628 -0.7186
   59SAPC   H4R 4473   1.105   1.101  10.264 -0.7882 -0.5743 -3.1862
   59SAPC   H4S 4474   0.965   1.011  10.313  0.7320  0.0237  0.6039
   59SAPC   C25 4475   1.054   0.943  10.128 -0.0049  0.6957  0.3041
   59SAPC   H5R 4476   1.002   0.846  10.132  0.2946  0.5266  0.1574
   59SAPC   C26 4477   1.087   0.994  10.004 -0.6586  0.0243  0.2124
   59SAPC   H6R 4478   1.070   0.948   9.905  1.7804  0.8063 -0.6358
   59SAPC   C27 4479   1.140   1.133   9.997  0.0042 -0.3300  0.9258
   59SAPC   H7R 4480   1.163   1.176  10.097  1.4524  0.7748  0.1642
   59SAPC   H7S 4481   1.056   1.201   9.969 -0.1979 -1.4783 -1.5117
   59SAPC   C28 4482   1.257   1.137   9.894 -0.7555  0.2513 -0.5983
   59SAPC   H8R 4483   1.345   1.072   9.905 -1.5560 -0.6382  0.9136
   59SAPC   C29 4484   1.264   1.210   9.780 -0.1947  0.1292  0.2947
   59SAPC   H9R 4485   1.350   1.186   9.717  0.1380  0.3003  0.6801
   59SAPC  C210 4486   1.157   1.306   9.732  0.3305 -0.5013  0.4434
   59SAPC  H10R 4487   1.051   1.276   9.726  0.0989  0.5446 -2.3122
   59SAPC  H10S 4488   1.178   1.318   9.623  0.4971  2.3019  0.6871
   59SAPC  C211 4489   1.157   1.448   9.798  0.2717 -0.4786  0.3378
   59SAPC  H11R 4490   1.176   1.454   9.906  5.4672 -0.0469 -0.3821
   59SAPC  C212 4491   1.119   1.559   9.733  0.3065 -0.1833  0.1325
   59SAPC  H12R 4492   1.121   1.656   9.786 -1.0884 -1.2593  2.2869
   59SAPC  C213 4493   1.070   1.576   9.593  0.2031 -0.3462  0.1148
   59SAPC  H13R 4494   0.991   1.654   9.584 -2.7544 -3.0889  0.3145
   59SAPC  H13S 4495   1.018   1.481   9.568  0.4217 -0.9566  1.8074
   59SAPC  C214 4496   1.172   1.606   9.486 -0.6289  1.1178  0.1989
   59SAPC  H14R 4497   1.280   1.601   9.509 -0.8102 -1.3132  0.8053
   59SAPC  C215 4498   1.145   1.652   9.365  0.2729  0.1825  0.2443
   59SAPC  H15R 4499   1.227   1.687   9.302 -0.1372  0.5986 -0.0694
   59SAPC  C216 4500   1.002   1.666   9.310 -0.2523 -0.2455 -0.1190
   59SAPC  H16R 4501   0.952   1.763   9.332  0.6848  0.0546  0.7680
   59SAPC  H16S 4502   0.937   1.590   9.359 -0.5163  0.6155  0.9195
   59SAPC  C217 4503   0.996   1.644   9.155 -0.3389  0.1551  0.2294
   59SAPC  H17R 4504   0.888   1.635   9.130 -0.4377  0.6411  0.4806
   59SAPC  H17S 4505   1.033   1.543   9.125  2.2062  0.5421  1.7354
   59SAPC  C218 4506   1.069   1.763   9.077 -0.7230 -0.2092  0.1830
   59SAPC  H18R 4507   1.178   1.768   9.101 -1.1833  2.3652  2.2473
   59SAPC  H18S 4508   1.018   1.850   9.123  0.8334  0.5934  0.4537
   59SAPC  C219 4509   1.039   1.769   8.929 -0.2333  0.1853  0.3026
   59SAPC  H19R 4510   1.095   1.856   8.889  0.3131  0.1901  1.0616
   59SAPC  H19S 4511   0.929   1.773   8.915  0.0808  0.3026 -3.0604
   59SAPC  C220 4512   1.086   1.641   8.851  0.5898 -0.0481 -0.4979
   59SAPC  H20R 4513   1.031   1.548   8.877  1.9588 -0.7064  0.1238
   59SAPC  H20S 4514   1.193   1.619   8.869  0.6029  1.7143  1.9938
   59SAPC  H20T 4515   1.066   1.655   8.742 -0.7665  1.0834 -0.1450
   59SAPC   C33 4516   0.958   0.526  10.329  0.0677 -0.1374 -0.4510
   59SAPC   H3X 4517   1.029   0.608  10.307  0.6774  0.2149  2.4459
   59SAPC   H3Y 4518   0.879   0.594  10.366 -0.4096 -1.1121  0.3914
   59SAPC   C34 4519   0.939   0.452  10.194  0.2021 -0.2883 -0.0610
   59SAPC   H4X 4520   0.864   0.371  10.206 -3.1536  2.4626 -0.6632
   59SAPC   H4Y 4521   1.038   0.407  10.172  1.7720  2.5385  0.6504
   59SAPC   C35 4522   0.906   0.548  10.078  0.4456  0.2190  0.4059
   59SAPC   H5X 4523   0.982   0.628  10.081 -1.0848  1.7073  1.8099
   59SAPC   H5Y 4524   0.806   0.591  10.102  0.4684  0.0848  0.7396
   59SAPC   C36 4525   0.896   0.479   9.937  0.3420 -0.3552  0.2268
   59SAPC   H6X 4526   0.845   0.562   9.883  0.3909  1.4792  2.8152
   59SAPC   H6Y 4527   0.822   0.397   9.948 -1.5740  1.4020  1.2018
   59SAPC   C37 4528   1.028   0.424   9.892 -0.1868  0.5848 -0.0857
   59SAPC   H7X 4529   1.059   0.352   9.971  0.5601  2.9186  1.8607
   59SAPC   H7Y 4530   1.104   0.504   9.897  0.0236  0.3212  1.2390
   59SAPC   C38 4531   1.021   0.357   9.756 -0.2608 -0.5181 -0.2997
   59SAPC   H8X 4532   0.962   0.263   9.753  1.6471 -1.8720  1.6645
   59SAPC   H8Y 4533   1.126   0.321   9.753  0.0394  0.3672 -0.6687
   59SAPC   C39 4534   0.985   0.450   9.640 -0.1441  0.0028  0.5209
   59SAPC   H9X 4535   1.058   0.533   9.640  0.1917 -0.2670 -0.7477
   59SAPC   H9Y 4536   0.886   0.493   9.667  0.9827  2.5521  0.7834
   59SAPC  C310 4537   0.985   0.384   9.499  0.5574 -0.3689 -0.2021
   59SAPC  H10X 4538   0.920   0.293   9.500 -0.6731  0.4674  1.2918
   59SAPC  H10Y 4539   1.085   0.339   9.481  0.6931 -0.1495  0.0101
   59SAPC  C311 4540   0.940   0.476   9.380  0.0295 -0.1042 -0.5177
   59SAPC  H11X 4541   0.992   0.573   9.397  2.1723 -1.4657  1.2247
   59SAPC  H11Y 4542   0.831   0.493   9.397  0.2683  0.5048  0.5212
   59SAPC  C312 4543   0.982   0.420   9.245  0.2101 -0.5589 -0.6380
   59SAPC  H12X 4544   0.922   0.481   9.173 -0.0837  0.0484  0.0968
   59SAPC  H12Y 4545   0.955   0.313   9.235 -2.3777 -0.3931  2.5286
   59SAPC  C313 4546   1.136   0.443   9.220 -0.6608 -0.5146  0.1262
   59SAPC  H13X 4547   1.188   0.387   9.301 -0.3400  0.6591  0.7500
   59SAPC  H13Y 4548   1.158   0.552   9.227 -0.2349 -0.4940 -1.1888
   59SAPC  C314 4549   1.179   0.397   9.078 -0.6066 -0.1318 -0.0606
   59SAPC  H14X 4550   1.109   0.434   9.001 -1.1282 -3.8891 -1.6039
   59SAPC  H14Y 4551   1.181   0.286   9.070  3.1150 -0.2376  0.4116
   59SAPC  C315 4552   1.329   0.439   9.045 -0.2661 -0.5140 -0.6317
   59SAPC  H15X 4553   1.393   0.356   9.083  0.4238 -1.0159 -2.7607
   59SAPC  H15Y 4554   1.351   0.535   9.097  1.1673 -1.0008 -0.2792
   59SAPC  C316 4555   1.354   0.444   8.894 -0.4373  0.3924  0.5544
   59SAPC  H16X 4556   1.327   0.350   8.842  0.4539  0.7081 -0.5258
   59SAPC  H16Y 4557   1.465   0.439   8.894 -0.4959 -3.0757  1.0736
   59SAPC  C317 4558   1.301   0.567   8.819 -0.1954  0.3505 -0.3665
   59SAPC  H17X 4559   1.313   0.652   8.890 -0.1334  1.3314 -1.5243
   59SAPC  H17Y 4560   1.192   0.548   8.812  0.0254 -1.1844 -0.0186
   59SAPC  C318 4561   1.364   0.598   8.685  0.4203  0.5396 -0.3418
   59SAPC  H18X 4562   1.369   0.708   8.673  0.7622  0.7990  1.8128
   59SAPC  H18Y 4563   1.309   0.546   8.603 -0.0378  0.4960 -0.0091
   59SAPC  H18Z 4564   1.465   0.552   8.677  0.1481 -0.1780  0.2194
   60SAPC     N 4565   4.150   6.411  11.283 -0.0038 -0.1547 -0.0490
   60SAPC   C12 4566   4.105   6.452  11.142 -0.3377 -0.2697 -0.3908
   60SAPC  H12A 4567   4.179   6.519  11.102 -0.2334  0.2212  0.6079
   60SAPC  H12B 4568   4.017   6.514  11.134 -1.7250 -2.0558  0.1668
   60SAPC   C13 4569   4.214   6.523  11.359  0.6369  0.0914 -0.6432
   60SAPC  H13A 4570   4.292   6.568  11.300 -0.5431  2.6922 -0.3506
   60SAPC  H13B 4571   4.150   6.608  11.382  0.2215  0.1686 -2.0248
   60SAPC  H13C 4572   4.262   6.486  11.449  1.2333  0.2057 -0.9085
   60SAPC   C14 4573   4.026   6.361  11.358  0.0180  0.6495  0.5161
   60SAPC  H14A 4574   3.955   6.443  11.357 -0.1721  0.5617 -2.7427
   60SAPC  H14B 4575   3.980   6.278  11.307 -2.8705  0.6607  2.7811
   60SAPC  H14C 4576   4.039   6.333  11.462  1.2729  0.3162  0.2836
   60SAPC   C15 4577   4.251   6.306  11.282 -0.3739 -0.3974 -0.2149
   60SAPC  H15A 4578   4.331   6.322  11.211  0.0647 -1.4619  0.0083
   60SAPC  H15B 4579   4.303   6.311  11.376  0.2065  1.0841 -0.5919
   60SAPC  H15C 4580   4.218   6.203  11.283 -1.6437 -0.0523  2.3886
   60SAPC   C11 4581   4.080   6.340  11.034 -0.8519 -0.4845 -0.6467
   60SAPC  H11A 4582   4.169   6.278  11.015 -0.3147  0.2726 -0.6460
   60SAPC  H11B 4583   4.076   6.383  10.931  0.6160  0.8358 -0.1794
   60SAPC     P 4584   3.820   6.284  11.037 -0.1259 -0.1996  0.0374
   60SAPC   O13 4585   3.785   6.216  10.912  0.2550 -0.0677 -0.1287
   60SAPC   O14 4586   3.733   6.254  11.154 -0.0737  0.1014  0.3387
   60SAPC   O12 4587   3.972   6.260  11.071 -0.8572  0.1787  0.2327
   60SAPC   O11 4588   3.821   6.444  11.006  0.5782 -0.4938 -0.0287
   60SAPC    C1 4589   3.744   6.498  10.898  0.4750 -0.2762  0.4793
   60SAPC    HA 4590   3.648   6.444  10.889 -1.2698  2.4751  1.3074
   60SAPC    HB 4591   3.712   6.599  10.930  3.8583  0.5372  1.7328
   60SAPC    C2 4592   3.817   6.499  10.770 -0.1581 -0.0281  0.3654
   60SAPC    HS 4593   3.842   6.396  10.735 -0.5989  0.2963 -0.9640
   60SAPC   O21 4594   3.926   6.590  10.779  0.8441  0.1337 -0.2487
   60SAPC   C21 4595   4.037   6.543  10.721 -0.5183 -0.2801  0.4377
   60SAPC   O22 4596   4.048   6.429  10.681  0.1795  0.2906  0.3438
   60SAPC   C22 4597   4.143   6.644  10.729 -0.5862 -0.2550 -0.1189
   60SAPC   H2R 4598   4.108   6.743  10.694  1.4852  0.3121 -0.6929
   60SAPC   H2S 4599   4.171   6.642  10.836  0.7556  1.9433 -0.3826
   60SAPC    C3 4600   3.724   6.534  10.651  0.0378 -0.5281 -0.2369
   60SAPC    HX 4601   3.696   6.641  10.665  0.3549 -0.2751 -1.3770
   60SAPC    HY 4602   3.632   6.471  10.648  1.1998 -2.2438 -0.9408
   60SAPC   O31 4603   3.794   6.536  10.526  0.6427 -0.3284 -0.2587
   60SAPC   C31 4604   3.786   6.430  10.448  0.3343  0.1594 -0.1653
   60SAPC   O32 4605   3.723   6.333  10.474  0.2185 -0.4041  0.0035
   60SAPC   C32 4606   3.882   6.452  10.337  0.0371 -0.4514  0.1289
   60SAPC   H2X 4607   3.980   6.435  10.387 -0.3285  0.6198  1.2424
   60SAPC   H2Y 4608   3.866   6.557  10.305  0.1698 -0.7566 -0.9962
   60SAPC   C23 4609   4.271   6.612  10.651  0.0627 -0.0530 -0.2412
   60SAPC   H3R 4610   4.293   6.503  10.655 -0.3681 -0.1317  0.1659
   60SAPC   H3S 4611   4.354   6.675  10.689  0.2741  0.4639 -1.4986
   60SAPC   C24 4612   4.259   6.650  10.498  0.4604  0.7382 -0.5074
   60SAPC   H4R 4613   4.159   6.608  10.473  0.9094 -1.3531  0.9831
   60SAPC   H4S 4614   4.343   6.595  10.451  0.2088  0.3796 -0.5409
   60SAPC   C25 4615   4.263   6.795  10.470  0.5993  0.5770  0.1772
   60SAPC   H5R 4616   4.290   6.859  10.555  2.6425  1.6235 -1.1716
   60SAPC   C26 4617   4.247   6.850  10.346 -0.1281 -0.2171  0.1067
   60SAPC   H6R 4618   4.264   6.958  10.338  2.5480 -0.5612  0.5160
   60SAPC   C27 4619   4.228   6.771  10.220 -1.3814 -0.3528 -0.1107
   60SAPC   H7R 4620   4.154   6.829  10.161 -0.6696  2.0070  1.1823
   60SAPC   H7S 4621   4.185   6.672  10.246 -0.1359 -1.4838 -2.0863
   60SAPC   C28 4622   4.358   6.727  10.152 -0.4953  0.5247  0.3003
   60SAPC   H8R 4623   4.443   6.724  10.221 -1.3225 -0.3779  1.3112
   60SAPC   C29 4624   4.389   6.716  10.019 -0.0318 -0.1617 -0.1525
   60SAPC   H9R 4625   4.489   6.680   9.989  0.8441  1.5106  0.6089
   60SAPC  C210 4626   4.294   6.739   9.909 -0.7799 -0.4088 -0.4676
   60SAPC  H10R 4627   4.192   6.735   9.952 -0.1966 -2.3923  0.8859
   60SAPC  H10S 4628   4.289   6.645   9.849 -0.5509 -0.7798  0.0882
   60SAPC  C211 4629   4.313   6.871   9.831  0.0278  0.0524 -0.3985
   60SAPC  H11R 4630   4.340   6.960   9.888 -3.5607  1.5867 -0.7763
   60SAPC  C212 4631   4.282   6.894   9.703  0.1172 -0.5443  0.3059
   60SAPC  H12R 4632   4.311   6.992   9.662  0.1972 -0.2558  1.0368
   60SAPC  C213 4633   4.221   6.798   9.598  0.4339 -0.0991 -0.1854
   60SAPC  H13R 4634   4.199   6.863   9.511  1.9664  1.3135  0.4136
   60SAPC  H13S 4635   4.125   6.759   9.638  0.7564  0.0641  0.7812
   60SAPC  C214 4636   4.311   6.680   9.563 -0.1861  0.4617  0.0748
   60SAPC  H14R 4637   4.291   6.588   9.620 -1.2804  1.4826  1.4284
   60SAPC  C215 4638   4.396   6.673   9.463 -1.0221  0.7515 -0.5149
   60SAPC  H15R 4639   4.436   6.576   9.432 -3.0895 -0.2520 -0.1955
   60SAPC  C216 4640   4.428   6.783   9.363  0.5715 -0.0392 -0.5884
   60SAPC  H16R 4641   4.539   6.784   9.353  0.4544 -1.8850 -2.7437
   60SAPC  H16S 4642   4.405   6.887   9.393  0.5494  0.3452 -1.9102
   60SAPC  C217 4643   4.377   6.750   9.219  0.6635  0.2121  0.5164
   60SAPC  H17R 4644   4.410   6.647   9.195 -1.9267 -0.6195  0.2473
   60SAPC  H17S 4645   4.428   6.818   9.147  0.2275  0.0525  0.0523
   60SAPC  C218 4646   4.223   6.750   9.213  0.2967 -0.0620  0.2881
   60SAPC  H18R 4647   4.191   6.856   9.213 -1.2577 -0.5172 -0.1702
   60SAPC  H18S 4648   4.164   6.693   9.288 -2.1666 -1.0327 -2.2548
   60SAPC  C219 4649   4.175   6.695   9.078 -0.4484 -0.2050 -0.1478
   60SAPC  H19R 4650   4.064   6.696   9.074 -0.4851 -2.8994 -2.1478
   60SAPC  H19S 4651   4.200   6.587   9.071 -0.4129 -0.1358 -1.2966
   60SAPC  C220 4652   4.220   6.780   8.960  0.0006  0.2658  0.4875
   60SAPC  H20R 4653   4.330   6.775   8.945 -0.1893  0.0009 -0.8977
   60SAPC  H20S 4654   4.182   6.882   8.979 -2.4192 -0.4837 -0.0395
   60SAPC  H20T 4655   4.167   6.749   8.867  2.2653 -1.0490 -0.4605
   60SAPC   C33 4656   3.871   6.361  10.213  0.3210  0.5684 -0.3337
   60SAPC   H3X 4657   3.772   6.355  10.164  0.4254 -0.1364 -0.4611
   60SAPC   H3Y 4658   3.900   6.262  10.254  1.2142  1.2488  0.7716
   60SAPC   C34 4659   3.956   6.412  10.099  0.1260 -0.1469  0.8541
   60SAPC   H4X 4660   4.058   6.423  10.143  0.5072 -0.9246  0.1995
   60SAPC   H4Y 4661   3.909   6.503  10.057  1.6357 -0.3121 -1.3202
   60SAPC   C35 4662   3.966   6.312   9.978 -0.5042 -0.2660 -0.7999
   60SAPC   H5X 4663   3.868   6.271   9.947 -0.6831  0.3824 -1.0922
   60SAPC   H5Y 4664   4.011   6.220  10.021 -1.7514  0.4976  2.3976
   60SAPC   C36 4665   4.043   6.366   9.852 -0.4891  0.0907  0.2021
   60SAPC   H6X 4666   4.154   6.362   9.866 -0.0990  0.0058 -2.4288
   60SAPC   H6Y 4667   4.008   6.471   9.855  0.1223  0.4729 -3.0387
   60SAPC   C37 4668   4.026   6.291   9.717 -0.7666  0.1989  0.1548
   60SAPC   H7X 4669   3.921   6.288   9.681 -0.2685 -3.1487 -1.4175
   60SAPC   H7Y 4670   4.058   6.186   9.737  0.5287  0.6848  0.7892
   60SAPC   C38 4671   4.115   6.359   9.617  0.8233  0.3151  0.7958
   60SAPC   H8X 4672   4.210   6.326   9.664  1.7325 -0.8858 -1.6870
   60SAPC   H8Y 4673   4.109   6.470   9.624  0.8251  0.3683  0.0972
   60SAPC   C39 4674   4.103   6.319   9.471 -0.0227 -0.6434  0.0162
   60SAPC   H9X 4675   4.014   6.373   9.432 -0.1653 -1.9030 -1.5363
   60SAPC   H9Y 4676   4.084   6.210   9.458 -1.3368 -0.1846 -2.9150
   60SAPC  C310 4677   4.219   6.348   9.378 -0.1289  0.4451 -1.0409
   60SAPC  H10X 4678   4.319   6.309   9.409 -0.0672  1.7561  0.5173
   60SAPC  H10Y 4679   4.233   6.457   9.359 -0.4132  0.6778  0.0281
   60SAPC  C311 4680   4.191   6.280   9.239 -0.5070  0.4591 -0.1296
   60SAPC  H11X 4681   4.097   6.322   9.198  0.5447 -0.1929 -3.4990
   60SAPC  H11Y 4682   4.185   6.170   9.259  1.7012  0.7783  3.0308
   60SAPC  C312 4683   4.314   6.310   9.145  0.3573  0.7032  0.2016
   60SAPC  H12X 4684   4.407   6.277   9.195 -0.0230 -1.1798 -0.2469
   60SAPC  H12Y 4685   4.327   6.420   9.139 -0.6264  0.8636  0.7631
   60SAPC  C313 4686   4.295   6.250   9.008 -0.0066  0.3109  0.0086
   60SAPC  H13X 4687   4.200   6.291   8.967  0.3400  1.4870  0.3254
   60SAPC  H13Y 4688   4.301   6.139   9.001  0.7617  0.4074 -1.1630
   60SAPC  C314 4689   4.408   6.301   8.910  0.1446  0.3317 -0.5239
   60SAPC  H14X 4690   4.504   6.283   8.964  0.0878  1.2306 -0.1138
   60SAPC  H14Y 4691   4.395   6.411   8.900  0.3959  0.3444 -0.7236
   60SAPC  C315 4692   4.405   6.220   8.777  0.8694 -0.0823  0.5083
   60SAPC  H15X 4693   4.301   6.191   8.750  1.0244 -1.2995  1.1097
   60SAPC  H15Y 4694   4.466   6.129   8.795 -0.4604 -1.0779  0.1437
   60SAPC  C316 4695   4.468   6.298   8.658 -0.3264 -0.5943 -0.8988
   60SAPC  H16X 4696   4.559   6.346   8.698 -0.9093  0.5738 -0.9298
   60SAPC  H16Y 4697   4.399   6.382   8.636 -1.8228 -1.5896 -0.2345
   60SAPC  C317 4698   4.489   6.218   8.531 -0.1373  0.2883  0.1992
   60SAPC  H17X 4699   4.398   6.162   8.501 -0.2845  0.6178  0.0360
   60SAPC  H17Y 4700   4.558   6.135   8.558 -0.4789 -0.1345 -0.2165
   60SAPC  C318 4701   4.545   6.296   8.409 -0.1549 -0.2578  0.0599
   60SAPC  H18X 4702   4.490   6.391   8.390  2.1751  1.0772 -0.3396
   60SAPC  H18Y 4703   4.539   6.235   8.316  1.5369  1.2899 -1.1308
   60SAPC  H18Z 4704   4.650   6.320   8.437  0.3561 -3.0990  0.9511
   61SAPC     N 4705   4.275   3.474  11.207  0.3914  0.4279  0.0598
   61SAPC   C12 4706   4.240   3.562  11.086 -0.4212 -0.4094  0.0541
   61SAPC  H12A 4707   4.176   3.645  11.114  1.8471  1.5719 -0.2416
   61SAPC  H12B 4708   4.174   3.503  11.026  1.6145 -2.0920 -0.6651
   61SAPC   C13 4709   4.365   3.370  11.148 -0.0569  0.5193  0.9418
   61SAPC  H13A 4710   4.327   3.308  11.067  2.4798 -1.9408  1.4652
   61SAPC  H13B 4711   4.452   3.416  11.103 -1.6477 -0.0702 -3.2356
   61SAPC  H13C 4712   4.409   3.309  11.225  3.3167  3.1715  1.3416
   61SAPC   C14 4713   4.348   3.553  11.312 -0.0267 -0.6096 -0.2126
   61SAPC  H14A 4714   4.446   3.583  11.279  0.6491 -0.5719  1.7137
   61SAPC  H14B 4715   4.304   3.649  11.335 -0.8467 -0.2071 -3.0937
   61SAPC  H14C 4716   4.369   3.499  11.403  2.2764  0.7041  0.1155
   61SAPC   C15 4717   4.150   3.410  11.268 -0.6779 -0.1068  0.0416
   61SAPC  H15A 4718   4.102   3.337  11.205  1.4239 -0.9569 -0.6595
   61SAPC  H15B 4719   4.178   3.356  11.357  0.8561  0.6720  0.0717
   61SAPC  H15C 4720   4.078   3.483  11.301 -1.8400  0.6190 -3.6241
   61SAPC   C11 4721   4.351   3.613  10.996  0.4989 -0.5092  0.4426
   61SAPC  H11A 4722   4.305   3.654  10.904  2.8689 -0.2349 -0.7038
   61SAPC  H11B 4723   4.413   3.530  10.956 -1.7833 -1.8780 -0.4518
   61SAPC     P 4724   4.399   3.850  11.093 -0.6957 -0.0930 -0.0318
   61SAPC   O13 4725   4.253   3.867  11.102 -0.1161 -0.2380  0.2328
   61SAPC   O14 4726   4.473   3.905  11.204  0.3254  0.3245  0.5549
   61SAPC   O12 4727   4.439   3.701  11.058 -0.5849  0.0118  0.3441
   61SAPC   O11 4728   4.449   3.931  10.961  0.0918 -0.4614  0.0972
   61SAPC    C1 4729   4.588   3.907  10.939 -0.6491 -0.7645  0.3607
   61SAPC    HA 4730   4.655   3.988  10.976  3.6234 -2.4896 -2.7587
   61SAPC    HB 4731   4.629   3.812  10.979 -3.1127 -2.2317 -0.3226
   61SAPC    C2 4732   4.612   3.888  10.791  0.2454 -0.2611  0.4587
   61SAPC    HS 4733   4.719   3.877  10.767 -0.1727 -0.4997 -1.4655
   61SAPC   O21 4734   4.543   3.991  10.709 -0.0005  0.4735  0.7960
   61SAPC   C21 4735   4.575   4.116  10.748 -0.4278 -0.4599  0.4366
   61SAPC   O22 4736   4.673   4.151  10.810 -0.4085  0.1173  0.4940
   61SAPC   C22 4737   4.472   4.213  10.690 -0.1469  0.6878 -0.1835
   61SAPC   H2R 4738   4.465   4.182  10.584  0.7444 -3.7078  0.8079
   61SAPC   H2S 4739   4.371   4.196  10.733 -0.0212  2.1984  0.7834
   61SAPC    C3 4740   4.550   3.747  10.749 -0.1804  0.9315 -0.4814
   61SAPC    HX 4741   4.439   3.754  10.754 -0.3664 -1.7245  0.7265
   61SAPC    HY 4742   4.581   3.671  10.824 -0.9937  1.9845  0.9851
   61SAPC   O31 4743   4.604   3.701  10.625  0.3201  0.5652  0.1406
   61SAPC   C31 4744   4.557   3.585  10.588 -0.2187 -0.2966 -0.4503
   61SAPC   O32 4745   4.474   3.516  10.653 -0.4500 -0.2015 -0.1309
   61SAPC   C32 4746   4.610   3.543  10.452 -0.2345 -0.1353  0.0292
   61SAPC   H2X 4747   4.571   3.616  10.377 -0.7841  1.4112  1.7460
   61SAPC   H2Y 4748   4.557   3.449  10.427 -0.7702  1.0929 -4.2739
   61SAPC   C23 4749   4.505   4.361  10.710 -0.7964  0.0995 -0.4458
   61SAPC   H3R 4750   4.609   4.383  10.677 -0.3375 -0.1326  0.8031
   61SAPC   H3S 4751   4.502   4.387  10.818  2.6188 -1.0679  0.0741
   61SAPC   C24 4752   4.402   4.460  10.656 -0.2057  0.2208 -0.9444
   61SAPC   H4R 4753   4.306   4.426  10.698  0.8458 -1.9391 -0.1475
   61SAPC   H4S 4754   4.384   4.433  10.550 -0.3428 -0.0020 -0.8635
   61SAPC   C25 4755   4.426   4.611  10.692 -0.5115  0.5139  0.7193
   61SAPC   H5R 4756   4.456   4.623  10.797 -0.9720 -0.3646  0.9619
   61SAPC   C26 4757   4.425   4.718  10.615 -0.1919  0.4869  0.4937
   61SAPC   H6R 4758   4.456   4.816  10.654  1.0155 -0.5890  2.4072
   61SAPC   C27 4759   4.389   4.718  10.468 -0.4364  0.5182 -1.0785
   61SAPC   H7R 4760   4.339   4.624  10.435  1.4812 -0.7046 -0.6255
   61SAPC   H7S 4761   4.484   4.730  10.412  0.4204  0.1790  0.2548
   61SAPC   C28 4762   4.282   4.816  10.427 -0.2662  0.1008  0.0057
   61SAPC   H8R 4763   4.205   4.840  10.502  0.2775 -1.3476  1.0884
   61SAPC   C29 4764   4.266   4.876  10.305 -0.2245  0.5257 -1.1781
   61SAPC   H9R 4765   4.183   4.947  10.294 -2.0726 -1.2276  0.4747
   61SAPC  C210 4766   4.356   4.874  10.179  1.4301  0.1952 -0.4531
   61SAPC  H10R 4767   4.439   4.948  10.182 -0.2262  2.1035  0.5214
   61SAPC  H10S 4768   4.286   4.894  10.095  1.0813  0.1884 -0.1645
   61SAPC  C211 4769   4.417   4.743  10.143 -0.0553  0.1536  0.5213
   61SAPC  H11R 4770   4.413   4.671  10.226 -2.1194 -2.2206 -1.4542
   61SAPC  C212 4771   4.459   4.699  10.019  0.5620 -0.6722 -1.1780
   61SAPC  H12R 4772   4.506   4.599  10.020 -0.5949 -1.2654  0.7450
   61SAPC  C213 4773   4.472   4.777   9.889 -1.4084  0.1947 -0.2810
   61SAPC  H13R 4774   4.570   4.829   9.896 -1.6054  0.4170  1.2362
   61SAPC  H13S 4775   4.409   4.869   9.885  0.1089  1.2439 -3.1693
   61SAPC  C214 4776   4.455   4.693   9.760  0.1610  0.2650  0.1990
   61SAPC  H14R 4777   4.438   4.584   9.765  1.2314 -0.0210 -1.3551
   61SAPC  C215 4778   4.465   4.737   9.634 -0.0989 -0.0990  0.6841
   61SAPC  H15R 4779   4.444   4.658   9.561 -0.2355 -0.3129  0.9495
   61SAPC  C216 4780   4.497   4.881   9.592  0.2772  0.6509  0.6051
   61SAPC  H16R 4781   4.604   4.901   9.569 -0.3435  1.5989 -1.8522
   61SAPC  H16S 4782   4.451   4.954   9.662  0.6718  0.8038  0.7080
   61SAPC  C217 4783   4.426   4.910   9.450 -0.5345  0.0628  0.6915
   61SAPC  H17R 4784   4.424   5.020   9.435 -0.2131 -0.2061 -1.7571
   61SAPC  H17S 4785   4.330   4.858   9.429 -0.8966  1.4478 -1.4108
   61SAPC  C218 4786   4.518   4.857   9.338  0.6376  0.1584  1.0335
   61SAPC  H18R 4787   4.518   4.746   9.347  2.0275  0.0471  0.1678
   61SAPC  H18S 4788   4.621   4.897   9.351  0.4403  0.2534  2.4444
   61SAPC  C219 4789   4.473   4.893   9.195  0.1118  0.0622 -0.7517
   61SAPC  H19R 4790   4.363   4.885   9.183  0.2577 -1.7634 -1.0889
   61SAPC  H19S 4791   4.518   4.817   9.128  0.7450 -1.2207  1.0563
   61SAPC  C220 4792   4.528   5.029   9.160  0.0565  0.2428 -0.3124
   61SAPC  H20R 4793   4.494   5.109   9.229 -1.1553 -1.4129  1.1126
   61SAPC  H20S 4794   4.490   5.057   9.060  2.8041  0.4692 -1.3636
   61SAPC  H20T 4795   4.639   5.033   9.163 -0.0110  2.3177  0.4307
   61SAPC   C33 4796   4.765   3.542  10.431  0.9622  0.1205  0.0133
   61SAPC   H3X 4797   4.815   3.457  10.483 -1.9466 -1.9234 -0.3158
   61SAPC   H3Y 4798   4.816   3.631  10.474  1.5947 -0.5929  0.7769
   61SAPC   C34 4799   4.801   3.527  10.280  0.3074  0.5931 -0.1350
   61SAPC   H4X 4800   4.744   3.604  10.225 -1.5276 -0.0151  0.8275
   61SAPC   H4Y 4801   4.772   3.429  10.235  1.4529  0.7236 -1.1989
   61SAPC   C35 4802   4.952   3.547  10.254  0.2128 -0.4180 -0.4420
   61SAPC   H5X 4803   5.015   3.457  10.261  4.3675  2.2627 -0.0580
   61SAPC   H5Y 4804   4.992   3.620  10.328 -0.1708  0.2295 -0.8599
   61SAPC   C36 4805   4.987   3.606  10.116  0.2377  0.6186 -0.4167
   61SAPC   H6X 4806   5.097   3.616  10.122  0.4497 -1.4468 -0.2932
   61SAPC   H6Y 4807   4.947   3.708  10.095 -0.9944 -0.2276 -2.5454
   61SAPC   C37 4808   4.948   3.530   9.992 -0.1814 -0.1345  0.3603
   61SAPC   H7X 4809   4.837   3.524   9.997 -0.1679  0.1696  1.2082
   61SAPC   H7Y 4810   4.978   3.423   9.989  1.7837  0.3645 -2.7041
   61SAPC   C38 4811   4.997   3.603   9.863 -0.2929 -0.3428 -0.3437
   61SAPC   H8X 4812   5.106   3.621   9.874 -0.3977  0.1096 -0.0173
   61SAPC   H8Y 4813   4.955   3.705   9.867  1.2054  0.2995 -0.4326
   61SAPC   C39 4814   4.956   3.526   9.735  0.3010 -0.1691  0.0426
   61SAPC   H9X 4815   4.915   3.429   9.770 -2.4530  0.8851 -0.0219
   61SAPC   H9Y 4816   5.040   3.518   9.662 -1.2862 -0.5971 -1.7958
   61SAPC  C310 4817   4.845   3.602   9.656  0.6478 -0.0978  0.3278
   61SAPC  H10X 4818   4.888   3.678   9.588  0.8536 -1.6497 -1.3546
   61SAPC  H10Y 4819   4.780   3.661   9.724 -0.6284 -1.1699  0.0979
   61SAPC  C311 4820   4.759   3.509   9.568  0.3775 -0.4470  0.5220
   61SAPC  H11X 4821   4.712   3.427   9.627 -1.2559 -0.9315 -1.3312
   61SAPC  H11Y 4822   4.814   3.464   9.482 -0.0622  0.1088 -0.0573
   61SAPC  C312 4823   4.634   3.580   9.510 -0.3913 -0.5276 -0.1528
   61SAPC  H12X 4824   4.654   3.682   9.470 -1.3438 -0.7223 -1.2083
   61SAPC  H12Y 4825   4.563   3.602   9.592  2.0266 -1.8284  2.4482
   61SAPC  C313 4826   4.556   3.490   9.419 -0.4015  0.2879 -0.2623
   61SAPC  H13X 4827   4.453   3.528   9.409  0.0336  1.1392 -1.8765
   61SAPC  H13Y 4828   4.554   3.385   9.457  0.3033  0.7322  1.0878
   61SAPC  C314 4829   4.605   3.478   9.275  0.1074 -0.2670 -0.2590
   61SAPC  H14X 4830   4.558   3.388   9.230  1.2942 -0.5520 -0.9858
   61SAPC  H14Y 4831   4.715   3.465   9.267  0.3435  1.4785 -0.2050
   61SAPC  C315 4832   4.569   3.600   9.187  0.6810  0.2891  0.2384
   61SAPC  H15X 4833   4.641   3.611   9.103 -0.1517 -1.7752 -0.8255
   61SAPC  H15Y 4834   4.566   3.694   9.246  2.3490  1.0297 -0.7975
   61SAPC  C316 4835   4.431   3.570   9.116  0.6430 -0.5099  0.4562
   61SAPC  H16X 4836   4.362   3.537   9.196  0.2441 -1.7442 -0.3823
   61SAPC  H16Y 4837   4.442   3.490   9.039  3.4656  1.5195 -1.4713
   61SAPC  C317 4838   4.372   3.702   9.048  0.0407  0.5160  0.1144
   61SAPC  H17X 4839   4.371   3.782   9.125  0.2313 -1.9029  2.8167
   61SAPC  H17Y 4840   4.267   3.679   9.016 -0.3995 -0.7241  2.2548
   61SAPC  C318 4841   4.439   3.752   8.923 -1.3797 -0.2970  0.2634
   61SAPC  H18X 4842   4.447   3.671   8.847  3.3345  0.0722  0.0652
   61SAPC  H18Y 4843   4.541   3.794   8.936 -1.1209  1.0800 -4.3735
   61SAPC  H18Z 4844   4.381   3.835   8.876  0.0578  0.7064  0.2215
   62SAPC     N 4845   1.818   2.633  10.862  0.1595  0.1221 -1.2589
   62SAPC   C12 4846   1.890   2.507  10.839  0.3320  0.0274  0.5406
   62SAPC  H12A 4847   1.850   2.432  10.906  0.3629 -1.2899 -0.8801
   62SAPC  H12B 4848   1.995   2.513  10.864  0.1483 -0.6889  1.5449
   62SAPC   C13 4849   1.818   2.689  10.998  0.3983  0.2910 -0.0685
   62SAPC  H13A 4850   1.781   2.630  11.080 -3.1296  1.5534 -0.5687
   62SAPC  H13B 4851   1.921   2.713  11.018  0.5744 -1.2008  0.9559
   62SAPC  H13C 4852   1.771   2.787  10.994 -0.5939 -0.1708 -0.1896
   62SAPC   C14 4853   1.863   2.726  10.755  0.6754  0.1417 -0.2521
   62SAPC  H14A 4854   1.790   2.805  10.745  0.2320 -0.1665  0.4869
   62SAPC  H14B 4855   1.952   2.783  10.777 -0.2186  1.2483  0.5824
   62SAPC  H14C 4856   1.870   2.679  10.658 -0.1117 -1.7377  0.5459
   62SAPC   C15 4857   1.667   2.623  10.836  0.1253  0.1290  0.4075
   62SAPC  H15A 4858   1.621   2.720  10.845  0.1516  0.1941 -0.1188
   62SAPC  H15B 4859   1.660   2.580  10.737  0.6743 -2.4629  1.3987
   62SAPC  H15C 4860   1.614   2.566  10.911  0.1160  1.8382  1.7598
   62SAPC   C11 4861   1.883   2.446  10.694  0.2961  0.1990 -1.0642
   62SAPC  H11A 4862   1.950   2.358  10.692 -0.1266 -0.1334 -0.7956
   62SAPC  H11B 4863   1.920   2.524  10.623 -1.5063  1.7964 -0.3547
   62SAPC     P 4864   1.705   2.256  10.664  0.0945 -0.1606  0.0395
   62SAPC   O13 4865   1.810   2.172  10.599 -0.2846 -0.5175  0.6348
   62SAPC   O14 4866   1.668   2.228  10.805 -0.1370  0.2871 -0.1556
   62SAPC   O12 4867   1.752   2.401  10.659  0.8679 -0.1990 -0.0638
   62SAPC   O11 4868   1.572   2.261  10.577 -0.1373 -0.1469 -0.5466
   62SAPC    C1 4869   1.468   2.345  10.625  0.6158 -0.1221 -0.3067
   62SAPC    HA 4870   1.430   2.314  10.725 -0.4676  0.1883 -0.6031
   62SAPC    HB 4871   1.505   2.449  10.635 -1.5232  0.8945 -1.9418
   62SAPC    C2 4872   1.354   2.361  10.514 -0.5596  0.2080  0.1599
   62SAPC    HS 4873   1.306   2.260  10.516  0.2168 -0.1967 -0.7115
   62SAPC   O21 4874   1.406   2.394  10.377  0.7465  0.3794 -0.5474
   62SAPC   C21 4875   1.435   2.289  10.310  0.2882 -0.4486  0.0389
   62SAPC   O22 4876   1.399   2.176  10.326 -0.0746 -0.5710 -0.5362
   62SAPC   C22 4877   1.525   2.334  10.187  0.1370 -0.6071  0.1528
   62SAPC   H2R 4878   1.486   2.425  10.136 -1.5614 -0.4782  1.5743
   62SAPC   H2S 4879   1.626   2.358  10.228 -0.6734  1.0410  1.3048
   62SAPC    C3 4880   1.255   2.464  10.550  0.3151 -0.3677  0.3402
   62SAPC    HX 4881   1.306   2.561  10.535 -0.4417 -0.1421 -0.9028
   62SAPC    HY 4882   1.233   2.460  10.659  0.9505 -2.1622  0.4269
   62SAPC   O31 4883   1.133   2.475  10.466 -0.0082  0.5147 -0.1581
   62SAPC   C31 4884   1.048   2.371  10.477 -0.3857  0.8396 -0.2581
   62SAPC   O32 4885   1.050   2.276  10.562 -0.2253  0.7410  0.0418
   62SAPC   C32 4886   0.924   2.391  10.380  0.0691  0.9235 -0.3300
   62SAPC   H2X 4887   0.847   2.457  10.425  1.1038  1.4799  0.6992
   62SAPC   H2Y 4888   0.878   2.292  10.364 -0.3809  1.1193 -0.2470
   62SAPC   C23 4889   1.548   2.231  10.080  0.4648 -0.5205  0.6016
   62SAPC   H3R 4890   1.613   2.150  10.120 -0.1312 -1.9109 -1.0814
   62SAPC   H3S 4891   1.618   2.271  10.004  1.1676 -0.0941  1.4669
   62SAPC   C24 4892   1.428   2.165  10.017  1.0042  0.1491 -0.9396
   62SAPC   H4R 4893   1.361   2.234   9.962  1.6577  0.3614 -1.4844
   62SAPC   H4S 4894   1.374   2.122  10.104  1.1202  1.6601 -0.1073
   62SAPC   C25 4895   1.459   2.053   9.926 -0.5076 -0.4986  0.0519
   62SAPC   H5R 4896   1.448   1.956   9.978 -4.6592 -0.8162 -1.0583
   62SAPC   C26 4897   1.478   2.055   9.797  0.4584  0.1633 -0.4257
   62SAPC   H6R 4898   1.487   1.958   9.747 -1.4048 -0.1468 -0.2314
   62SAPC   C27 4899   1.499   2.169   9.694  0.2830 -0.2835  0.0157
   62SAPC   H7R 4900   1.509   2.262   9.754  0.2190  0.4588 -1.0941
   62SAPC   H7S 4901   1.404   2.190   9.639 -0.1130 -1.5248  0.1941
   62SAPC   C28 4902   1.623   2.144   9.611  0.3081 -0.7684  0.4363
   62SAPC   H8R 4903   1.720   2.149   9.662 -0.3293 -1.2275  1.7475
   62SAPC   C29 4904   1.608   2.152   9.477  0.2733  0.0959 -0.5668
   62SAPC   H9R 4905   1.687   2.124   9.406  0.1973 -1.3239 -0.1221
   62SAPC  C210 4906   1.481   2.167   9.392  0.6330 -0.1374 -0.1523
   62SAPC  H10R 4907   1.394   2.138   9.455  1.0003  0.2215  0.5223
   62SAPC  H10S 4908   1.494   2.096   9.307 -0.1354  2.6116 -2.7717
   62SAPC  C211 4909   1.471   2.305   9.338 -0.2952 -0.0937  0.6047
   62SAPC  H11R 4910   1.473   2.380   9.419  0.2423  0.0195  0.4956
   62SAPC  C212 4911   1.477   2.357   9.212 -0.5946  0.4039  0.1108
   62SAPC  H12R 4912   1.474   2.467   9.208 -0.8122  0.4393  1.0225
   62SAPC  C213 4913   1.473   2.296   9.076 -0.1009 -0.7622 -0.2808
   62SAPC  H13R 4914   1.429   2.194   9.080 -2.6525  0.2494 -0.8575
   62SAPC  H13S 4915   1.578   2.286   9.039 -0.5358 -1.4996 -1.3532
   62SAPC  C214 4916   1.379   2.374   8.994  0.1053  0.2137  0.0599
   62SAPC  H14R 4917   1.271   2.364   9.008 -0.3294  0.6609 -2.4831
   62SAPC  C215 4918   1.432   2.430   8.883  1.0931 -0.4665 -0.6074
   62SAPC  H15R 4919   1.360   2.483   8.819  0.5194 -0.5648 -0.0411
   62SAPC  C216 4920   1.576   2.446   8.847 -0.1664 -0.1187 -0.3831
   62SAPC  H16R 4921   1.641   2.462   8.935 -1.5661  1.4184  0.4342
   62SAPC  H16S 4922   1.573   2.545   8.798  2.4799  0.5565  0.6910
   62SAPC  C217 4923   1.630   2.343   8.752  0.0775  0.3244 -0.2255
   62SAPC  H17R 4924   1.554   2.287   8.693  0.6993 -0.0386 -0.6842
   62SAPC  H17S 4925   1.656   2.263   8.825 -0.8374 -0.8187 -1.1113
   62SAPC  C218 4926   1.755   2.382   8.663  0.3210  0.1287  0.0814
   62SAPC  H18R 4927   1.812   2.460   8.717  1.6978  1.2134 -2.7575
   62SAPC  H18S 4928   1.712   2.427   8.571 -1.4642 -1.0507  0.2878
   62SAPC  C219 4929   1.858   2.270   8.636 -0.2775 -0.4958  0.2907
   62SAPC  H19R 4930   1.904   2.233   8.729 -0.5434  0.2562  0.7336
   62SAPC  H19S 4931   1.944   2.322   8.589 -0.9787  0.8012  0.3910
   62SAPC  C220 4932   1.825   2.158   8.540  0.3663 -0.9584 -0.1712
   62SAPC  H20R 4933   1.916   2.096   8.527  0.7846 -0.5078  0.5253
   62SAPC  H20S 4934   1.791   2.210   8.448 -1.9021 -0.0149  1.0969
   62SAPC  H20T 4935   1.733   2.106   8.574 -2.0405  1.6080 -2.2772
   62SAPC   C33 4936   0.973   2.445  10.242  0.2759 -0.2496  0.7654
   62SAPC   H3X 4937   1.040   2.368  10.198 -1.8456 -1.4607 -0.5131
   62SAPC   H3Y 4938   1.035   2.536  10.257  2.4009 -1.9158  2.8681
   62SAPC   C34 4939   0.859   2.484  10.154  0.0993 -0.3358 -0.3581
   62SAPC   H4X 4940   0.894   2.562  10.083  0.5190  0.3866  0.6232
   62SAPC   H4Y 4941   0.777   2.540  10.202 -0.6495 -1.0857 -0.7275
   62SAPC   C35 4942   0.811   2.370  10.070  0.8812 -0.0523 -0.0352
   62SAPC   H5X 4943   0.745   2.296  10.121 -0.0061 -0.5541 -1.8101
   62SAPC   H5Y 4944   0.904   2.319  10.037  1.9712  1.6416  0.3049
   62SAPC   C36 4945   0.741   2.422   9.937  0.4418  0.5047  0.3744
   62SAPC   H6X 4946   0.810   2.480   9.872 -0.0073 -1.0988 -1.6498
   62SAPC   H6Y 4947   0.656   2.486   9.969  0.4439 -0.0969  1.6614
   62SAPC   C37 4948   0.686   2.307   9.848  0.3076  0.2378 -0.4603
   62SAPC   H7X 4949   0.616   2.251   9.914  0.8947  0.6800  0.5582
   62SAPC   H7Y 4950   0.777   2.247   9.824 -0.1235 -0.1540 -1.1443
   62SAPC   C38 4951   0.627   2.337   9.709  0.2372 -0.4777 -0.3639
   62SAPC   H8X 4952   0.532   2.393   9.719 -0.2228 -1.5186  1.6548
   62SAPC   H8Y 4953   0.592   2.237   9.676 -0.3678 -0.1397 -0.7576
   62SAPC   C39 4954   0.725   2.399   9.607  0.5006 -0.2077 -0.1177
   62SAPC   H9X 4955   0.817   2.342   9.581  0.5031  0.5815 -2.0285
   62SAPC   H9Y 4956   0.766   2.489   9.658 -0.6971 -0.1208  0.7423
   62SAPC  C310 4957   0.656   2.444   9.478 -0.1642  0.5225  0.0863
   62SAPC  H10X 4958   0.575   2.517   9.498 -1.2412  0.2292 -2.7589
   62SAPC  H10Y 4959   0.599   2.360   9.434 -0.3522  0.4296  0.4974
   62SAPC  C311 4960   0.750   2.504   9.378 -0.0243 -0.2330  0.1930
   62SAPC  H11X 4961   0.855   2.476   9.401 -0.7540 -1.8717  1.7970
   62SAPC  H11Y 4962   0.738   2.614   9.376 -0.1869 -0.2584 -1.3918
   62SAPC  C312 4963   0.725   2.462   9.229 -0.3556  0.5950  0.4924
   62SAPC  H12X 4964   0.765   2.359   9.215 -0.4488  0.7716 -1.3096
   62SAPC  H12Y 4965   0.782   2.532   9.165  2.3816 -0.5437  1.5271
   62SAPC  C313 4966   0.586   2.459   9.169  0.4010 -0.0583  0.2261
   62SAPC  H13X 4967   0.551   2.561   9.141  0.0105 -1.2910 -4.7665
   62SAPC  H13Y 4968   0.514   2.419   9.243  1.0505 -0.8048  0.4783
   62SAPC  C314 4969   0.574   2.377   9.044 -0.1428 -1.6122 -0.3345
   62SAPC  H14X 4970   0.606   2.273   9.068  1.8758 -0.9121  0.2663
   62SAPC  H14Y 4971   0.643   2.422   8.969 -0.3349 -1.0904 -0.2072
   62SAPC  C315 4972   0.432   2.378   8.986  0.0313  0.1782  0.5113
   62SAPC  H15X 4973   0.431   2.320   8.891 -0.0574  1.8246 -0.5287
   62SAPC  H15Y 4974   0.399   2.482   8.966 -0.7281  0.3274  2.3018
   62SAPC  C316 4975   0.317   2.326   9.082 -0.5864 -0.3523 -0.1438
   62SAPC  H16X 4976   0.299   2.412   9.149  1.5837  1.6489 -1.9426
   62SAPC  H16Y 4977   0.347   2.247   9.155 -0.3535 -0.3912 -0.2793
   62SAPC  C317 4978   0.182   2.304   9.013 -0.5057 -0.0519 -0.5768
   62SAPC  H17X 4979   0.196   2.221   8.940  0.7732 -0.0871 -0.3198
   62SAPC  H17Y 4980   0.156   2.390   8.948 -3.1570 -0.2672  0.0999
   62SAPC  C318 4981   0.068   2.267   9.108 -0.2302  0.0707 -0.4386
   62SAPC  H18X 4982  -0.031   2.287   9.062  0.5386  2.6772 -1.1025
   62SAPC  H18Y 4983   0.059   2.323   9.203  1.3296  0.8359 -0.7149
   62SAPC  H18Z 4984   0.076   2.158   9.131  0.1287  0.1204 -0.3188
   63SAPC     N 4985   5.650   2.428   6.276  1.0709 -0.5189  0.7879
   63SAPC   C12 4986   5.744   2.445   6.392 -0.7412  1.1168 -0.0578
   63SAPC  H12A 4987   5.731   2.540   6.441 -0.4961  1.5133 -0.7505
   63SAPC  H12B 4988   5.845   2.451   6.354 -0.2603  1.5814  1.2145
   63SAPC   C13 4989   5.697   2.322   6.178  0.4961 -1.1990 -0.2787
   63SAPC  H13A 4990   5.786   2.360   6.131 -0.1547  0.6107 -0.1047
   63SAPC  H13B 4991   5.725   2.238   6.240 -2.8851 -1.8328  0.5633
   63SAPC  H13C 4992   5.619   2.284   6.114  1.2889 -1.3034 -1.2183
   63SAPC   C14 4993   5.519   2.390   6.328 -0.0453  0.0845  0.0896
   63SAPC  H14A 4994   5.517   2.290   6.370  0.3229  0.3839  0.8458
   63SAPC  H14B 4995   5.479   2.471   6.388 -2.2310 -1.0742  0.3221
   63SAPC  H14C 4996   5.445   2.397   6.250 -0.5831  2.7772  0.7343
   63SAPC   C15 4997   5.642   2.557   6.197  0.3500  0.5519  0.1744
   63SAPC  H15A 4998   5.579   2.630   6.247 -0.3371 -0.2589  0.5122
   63SAPC  H15B 4999   5.739   2.601   6.179  1.5627 -2.3040 -0.7503
   63SAPC  H15C 5000   5.603   2.535   6.098  1.2689 -1.7204  0.2764
   63SAPC   C11 5001   5.758   2.325   6.488  0.2472 -0.6146 -0.2863
   63SAPC  H11A 5002   5.668   2.261   6.481 -0.0756  0.0298 -2.8518
   63SAPC  H11B 5003   5.761   2.373   6.588 -0.9511 -1.6640  0.2789
   63SAPC     P 5004   5.876   2.096   6.453  0.6486  0.1303  0.0002
   63SAPC   O13 5005   5.815   2.042   6.326 -0.1868  0.6408  0.0659
   63SAPC   O14 5006   6.018   2.064   6.471  0.3131 -0.0104 -1.1750
   63SAPC   O12 5007   5.875   2.253   6.460 -0.5888 -0.6750  0.2859
   63SAPC   O11 5008   5.790   2.065   6.584  0.5106  0.1226 -0.4848
   63SAPC    C1 5009   5.827   2.092   6.716  0.6337 -0.0941  0.1269
   63SAPC    HA 5010   5.866   2.196   6.720 -0.4694  0.3091  0.9534
   63SAPC    HB 5011   5.734   2.096   6.776 -0.6576 -1.2386 -1.7067
   63SAPC    C2 5012   5.928   1.991   6.773 -0.0878  0.4217 -0.8232
   63SAPC    HS 5013   6.009   1.976   6.698 -1.9232 -0.5638 -2.7219
   63SAPC   O21 5014   5.847   1.874   6.803 -0.2814 -0.0429 -0.3656
   63SAPC   C21 5015   5.919   1.762   6.797 -0.6708 -0.9076  0.4535
   63SAPC   O22 5016   6.028   1.743   6.749  0.2709 -0.1469 -0.3382
   63SAPC   C22 5017   5.846   1.654   6.870 -0.7754  0.7000 -0.3845
   63SAPC   H2R 5018   5.738   1.672   6.887 -0.7877 -0.0241  0.3569
   63SAPC   H2S 5019   5.846   1.564   6.805 -2.3594  2.3092 -2.7979
   63SAPC    C3 5020   5.988   2.038   6.908 -0.4458 -1.1692 -0.0301
   63SAPC    HX 5021   5.907   2.080   6.972 -1.6549 -0.9168 -1.6576
   63SAPC    HY 5022   6.057   2.121   6.884 -0.0051 -0.9363  1.9098
   63SAPC   O31 5023   6.059   1.930   6.977 -0.2510 -0.3242 -0.2451
   63SAPC   C31 5024   6.189   1.922   6.960 -1.0676  0.8372  0.1957
   63SAPC   O32 5025   6.246   1.979   6.868 -0.0360  0.1768 -0.5240
   63SAPC   C32 5026   6.259   1.836   7.069 -0.0903 -0.3489  0.7955
   63SAPC   H2X 5027   6.361   1.815   7.032 -0.8507 -1.7810 -0.6473
   63SAPC   H2Y 5028   6.205   1.739   7.068  0.5227 -0.7124 -0.7537
   63SAPC   C23 5029   5.922   1.621   7.003  0.2431 -0.2437 -0.0039
   63SAPC   H3R 5030   5.957   1.718   7.043  0.4813 -0.7348  1.0183
   63SAPC   H3S 5031   6.009   1.564   6.966  0.3450 -1.8737  2.4691
   63SAPC   C24 5032   5.842   1.543   7.105  0.1538  0.1937  0.4710
   63SAPC   H4R 5033   5.808   1.454   7.047  0.7571 -0.7515  1.5295
   63SAPC   H4S 5034   5.760   1.605   7.148 -0.5448  1.4604 -2.4359
   63SAPC   C25 5035   5.939   1.493   7.210  0.1036 -0.0707  0.7803
   63SAPC   H5R 5036   6.021   1.433   7.168 -1.0783 -0.9279 -0.4089
   63SAPC   C26 5037   5.954   1.528   7.335  0.4628  0.0579 -0.2140
   63SAPC   H6R 5038   6.037   1.479   7.388  0.8466  2.5800  1.7126
   63SAPC   C27 5039   5.872   1.624   7.413 -0.1383 -0.5089  0.4908
   63SAPC   H7R 5040   5.792   1.670   7.351  1.3466 -1.4948 -2.3285
   63SAPC   H7S 5041   5.946   1.707   7.427  0.1742 -0.5974 -0.5898
   63SAPC   C28 5042   5.820   1.587   7.548 -0.1217  0.3220 -1.0033
   63SAPC   H8R 5043   5.713   1.607   7.564  0.2761  1.0843  1.1062
   63SAPC   C29 5044   5.880   1.506   7.639  0.4733 -0.7121  0.6918
   63SAPC   H9R 5045   5.834   1.495   7.738  1.3959 -3.9259  0.8547
   63SAPC  C210 5046   6.026   1.468   7.640 -0.2517 -0.4072 -0.1283
   63SAPC  H10R 5047   6.096   1.552   7.618  1.0989 -0.8359  2.2481
   63SAPC  H10S 5048   6.042   1.382   7.572  0.7596 -0.0514 -0.3732
   63SAPC  C211 5049   6.082   1.429   7.776  0.7277 -0.2388 -0.1616
   63SAPC  H11R 5050   6.014   1.439   7.862 -0.7819 -2.2922 -1.0207
   63SAPC  C212 5051   6.199   1.371   7.803  0.1738 -0.5019  0.2351
   63SAPC  H12R 5052   6.233   1.374   7.907 -0.0713 -0.8979  0.3299
   63SAPC  C213 5053   6.315   1.333   7.709  0.6588  0.1902  0.4276
   63SAPC  H13R 5054   6.402   1.301   7.771  1.8851  1.6184 -0.4828
   63SAPC  H13S 5055   6.328   1.418   7.639 -1.4498 -1.3374 -1.9664
   63SAPC  C214 5056   6.290   1.209   7.635 -0.8756  0.0986 -0.3922
   63SAPC  H14R 5057   6.255   1.128   7.702  0.4368  0.6811  1.0538
   63SAPC  C215 5058   6.302   1.176   7.509 -0.2798 -0.1620  0.2153
   63SAPC  H15R 5059   6.285   1.077   7.464  0.9961 -0.4732  0.3641
   63SAPC  C216 5060   6.346   1.280   7.409  0.0202  0.6813  0.4189
   63SAPC  H16R 5061   6.450   1.243   7.395 -0.2209  0.1201  0.0543
   63SAPC  H16S 5062   6.363   1.381   7.451  1.2899  0.2258  1.0694
   63SAPC  C217 5063   6.274   1.288   7.273 -0.3383  0.7609 -0.0299
   63SAPC  H17R 5064   6.173   1.324   7.302 -0.1282  0.0880  1.6306
   63SAPC  H17S 5065   6.265   1.184   7.236  1.6786  0.3488  0.5194
   63SAPC  C218 5066   6.356   1.374   7.175  0.7920  0.4524 -0.3880
   63SAPC  H18R 5067   6.452   1.323   7.150  0.4924 -0.0266 -0.5681
   63SAPC  H18S 5068   6.391   1.468   7.223  0.4420 -0.1797  1.1730
   63SAPC  C219 5069   6.280   1.403   7.042 -0.7550  0.6272 -0.1489
   63SAPC  H19R 5070   6.347   1.447   6.966  2.9006 -2.8895  0.6994
   63SAPC  H19S 5071   6.205   1.474   7.085  1.4328  1.6375  2.2899
   63SAPC  C220 5072   6.203   1.279   6.984  0.5385 -0.5663 -0.2776
   63SAPC  H20R 5073   6.117   1.247   7.047  1.3554 -1.3082  0.4975
   63SAPC  H20S 5074   6.275   1.196   6.967  1.5388  0.0780  0.6805
   63SAPC  H20T 5075   6.154   1.309   6.889 -2.7391 -0.8498  1.1876
   63SAPC   C33 5076   6.256   1.903   7.209 -0.2419 -0.1799 -0.6593
   63SAPC   H3X 5077   6.150   1.934   7.222  0.1892  1.2955 -0.5361
   63SAPC   H3Y 5078   6.328   1.987   7.216  0.5540 -0.9437  0.7409
   63SAPC   C34 5079   6.313   1.797   7.308  0.5500 -0.8427  0.0438
   63SAPC   H4X 5080   6.422   1.798   7.289  0.5646 -0.1112  0.1028
   63SAPC   H4Y 5081   6.268   1.702   7.273  1.8482 -0.7007 -2.2310
   63SAPC   C35 5082   6.282   1.825   7.455  0.5725  0.3308 -0.1698
   63SAPC   H5X 5083   6.173   1.807   7.465  0.5983 -0.1185 -0.6526
   63SAPC   H5Y 5084   6.311   1.929   7.483  0.5429 -0.0026  1.1771
   63SAPC   C36 5085   6.354   1.723   7.545  0.0384 -0.5671 -0.4610
   63SAPC   H6X 5086   6.465   1.731   7.552  0.1805 -0.5896 -2.3015
   63SAPC   H6Y 5087   6.333   1.628   7.492  1.0493 -2.2858  2.0222
   63SAPC   C37 5088   6.306   1.716   7.688 -0.4659 -1.1886 -0.0429
   63SAPC   H7X 5089   6.329   1.613   7.723  0.9877 -1.0906 -0.6328
   63SAPC   H7Y 5090   6.196   1.734   7.695 -0.2911  0.1684 -0.4734
   63SAPC   C38 5091   6.386   1.802   7.786 -0.4002 -0.0277  0.0342
   63SAPC   H8X 5092   6.382   1.911   7.763 -1.0684 -0.1502 -0.4554
   63SAPC   H8Y 5093   6.494   1.778   7.773 -0.0267  1.5409 -0.0409
   63SAPC   C39 5094   6.349   1.788   7.938  0.5603  0.3209 -0.0539
   63SAPC   H9X 5095   6.240   1.772   7.955  0.5327  0.1017 -0.4291
   63SAPC   H9Y 5096   6.382   1.889   7.972  2.5666 -0.4520  0.3965
   63SAPC  C310 5097   6.424   1.680   8.016  0.6743  0.5521  0.3435
   63SAPC  H10X 5098   6.530   1.712   8.028 -0.1430  3.3329  1.0467
   63SAPC  H10Y 5099   6.422   1.585   7.960  2.7182  0.1306  0.8994
   63SAPC  C311 5100   6.360   1.666   8.157  0.6766  0.0482  0.1233
   63SAPC  H11X 5101   6.404   1.577   8.206 -0.6922  0.0899  1.5271
   63SAPC  H11Y 5102   6.255   1.630   8.144  0.9191 -1.5601  2.1580
   63SAPC  C312 5103   6.350   1.787   8.242 -0.0157  0.4774 -0.3154
   63SAPC  H12X 5104   6.285   1.759   8.327  0.1778  0.5119 -0.1539
   63SAPC  H12Y 5105   6.300   1.866   8.183 -2.0939 -0.4955  0.0695
   63SAPC  C313 5106   6.493   1.825   8.295 -0.7420  0.0763  0.0980
   63SAPC  H13X 5107   6.497   1.934   8.276 -2.8964 -0.0273 -1.4111
   63SAPC  H13Y 5108   6.581   1.787   8.239  0.5028  1.4168  1.0863
   63SAPC  C314 5109   6.510   1.789   8.445  0.1659  0.8883  0.1532
   63SAPC  H14X 5110   6.522   1.679   8.452 -0.9936  0.7606  0.4136
   63SAPC  H14Y 5111   6.418   1.811   8.504  0.3897 -2.1543  1.7974
   63SAPC  C315 5112   6.636   1.850   8.512 -0.2634  0.3084 -0.2505
   63SAPC  H15X 5113   6.730   1.845   8.452 -0.4420 -1.3883 -0.4505
   63SAPC  H15Y 5114   6.649   1.780   8.597 -0.2667  0.5109 -0.0824
   63SAPC  C316 5115   6.614   1.990   8.564  0.4997  0.1340 -0.5180
   63SAPC  H16X 5116   6.516   1.997   8.616  0.3144  4.6999 -1.0948
   63SAPC  H16Y 5117   6.620   2.063   8.480  0.7070 -0.4414 -1.0069
   63SAPC  C317 5118   6.719   2.038   8.669 -0.3421  0.3168  0.2475
   63SAPC  H17X 5119   6.705   1.989   8.768  1.0022 -0.3394  0.1437
   63SAPC  H17Y 5120   6.714   2.143   8.706  2.5634  0.5335  0.2606
   63SAPC  C318 5121   6.868   2.029   8.627  0.0411  0.6743  0.2352
   63SAPC  H18X 5122   6.879   2.067   8.523  0.7475 -1.3496 -0.4859
   63SAPC  H18Y 5123   6.901   1.923   8.636 -1.2809  0.2987  0.9036
   63SAPC  H18Z 5124   6.933   2.090   8.694  1.7698 -0.2052 -0.5692
   64SAPC     N 5125   3.342   2.131   5.941 -0.9935  0.0996 -0.0277
   64SAPC   C12 5126   3.259   2.257   5.978  0.2092  0.0942  0.0024
   64SAPC  H12A 5127   3.162   2.216   6.003  1.4233 -2.3828  1.0859
   64SAPC  H12B 5128   3.241   2.317   5.890 -2.6171 -0.5772  0.0251
   64SAPC   C13 5129   3.473   2.175   5.879  0.4604 -1.3294 -0.0374
   64SAPC  H13A 5130   3.526   2.089   5.841  0.1315 -1.1021 -1.0291
   64SAPC  H13B 5131   3.461   2.246   5.799 -1.4104 -1.7456 -0.1673
   64SAPC  H13C 5132   3.533   2.215   5.960 -0.4883  2.1536 -0.8803
   64SAPC   C14 5133   3.358   2.043   6.057  0.0929 -0.2149 -0.6540
   64SAPC  H14A 5134   3.406   2.098   6.136 -1.8273  1.1812 -0.3998
   64SAPC  H14B 5135   3.263   2.016   6.102  0.9010 -0.1304  1.1877
   64SAPC  H14C 5136   3.414   1.951   6.047  2.1592  0.9517 -0.2488
   64SAPC   C15 5137   3.270   2.051   5.848 -0.1907 -0.2608 -0.4650
   64SAPC  H15A 5138   3.325   1.960   5.832  0.1394 -0.3184  0.9115
   64SAPC  H15B 5139   3.172   2.025   5.887 -1.3995  1.6161 -2.0679
   64SAPC  H15C 5140   3.259   2.106   5.756 -0.4104  0.0726 -0.2411
   64SAPC   C11 5141   3.310   2.334   6.095  0.5385 -0.9548 -0.3179
   64SAPC  H11A 5142   3.248   2.426   6.099 -1.4091 -2.2102 -0.1204
   64SAPC  H11B 5143   3.414   2.367   6.074 -0.3401 -0.1212 -4.2787
   64SAPC     P 5144   3.163   2.253   6.294  0.4089  0.3782 -0.0328
   64SAPC   O13 5145   3.062   2.204   6.199 -0.3083  0.1269  0.4103
   64SAPC   O14 5146   3.176   2.170   6.418 -0.2745 -0.4470 -0.0106
   64SAPC   O12 5147   3.306   2.260   6.216  0.5755  0.2593 -0.4053
   64SAPC   O11 5148   3.127   2.404   6.326 -0.5584 -0.1096  0.3339
   64SAPC    C1 5149   3.198   2.476   6.425 -0.8104 -0.2901 -0.4614
   64SAPC    HA 5150   3.269   2.410   6.478  0.5417  2.5172  1.4869
   64SAPC    HB 5151   3.265   2.558   6.391 -2.8179  1.5445 -0.2089
   64SAPC    C2 5152   3.100   2.539   6.531 -0.0036 -0.9713  0.1771
   64SAPC    HS 5153   3.158   2.573   6.619 -0.2359  1.6735 -0.6056
   64SAPC   O21 5154   3.009   2.438   6.578  0.0336  0.0240 -0.2731
   64SAPC   C21 5155   3.067   2.354   6.661 -0.0926 -0.2876  0.2581
   64SAPC   O22 5156   3.184   2.349   6.696  0.1922 -0.6763  0.1086
   64SAPC   C22 5157   2.956   2.267   6.724 -0.9207  0.1529 -0.3272
   64SAPC   H2R 5158   2.865   2.330   6.740  0.6334  1.8005  3.0934
   64SAPC   H2S 5159   2.930   2.189   6.649 -1.1008  0.4583 -0.5832
   64SAPC    C3 5160   3.027   2.664   6.471 -0.0240 -0.1130 -0.4498
   64SAPC    HX 5161   2.930   2.641   6.423 -2.2816  2.8150  2.2541
   64SAPC    HY 5162   3.100   2.705   6.398 -0.7695 -1.1614 -1.8285
   64SAPC   O31 5163   3.004   2.761   6.580 -0.8991 -0.2715  0.8041
   64SAPC   C31 5164   2.912   2.861   6.546  0.6232  0.5163 -0.0079
   64SAPC   O32 5165   2.874   2.873   6.431  0.7066 -0.2432  0.1593
   64SAPC   C32 5166   2.866   2.943   6.672 -0.2621 -0.2027 -0.1763
   64SAPC   H2X 5167   2.894   2.875   6.755 -1.2036  1.3211  1.4597
   64SAPC   H2Y 5168   2.757   2.965   6.666 -0.0171  0.6605 -3.3234
   64SAPC   C23 5169   2.996   2.211   6.866 -0.6753 -0.0334 -0.6112
   64SAPC   H3R 5170   3.015   2.302   6.927 -0.4748  0.1308 -0.9177
   64SAPC   H3S 5171   3.085   2.145   6.861  0.5747  1.6037 -0.9302
   64SAPC   C24 5172   2.883   2.127   6.941  0.2954  0.7131  0.6051
   64SAPC   H4R 5173   2.944   2.057   7.002 -0.8834  0.4570  1.5243
   64SAPC   H4S 5174   2.828   2.056   6.875 -1.8301  2.2800  0.5875
   64SAPC   C25 5175   2.781   2.203   7.010 -0.0341  0.2630 -0.1523
   64SAPC   H5R 5176   2.714   2.264   6.948  1.8413  1.1815 -1.3556
   64SAPC   C26 5177   2.760   2.211   7.144  0.2450 -0.3465  0.3988
   64SAPC   H6R 5178   2.695   2.290   7.182  0.6167 -0.2921  0.9331
   64SAPC   C27 5179   2.838   2.128   7.245 -0.3816 -0.2197 -0.4567
   64SAPC   H7R 5180   2.856   2.023   7.213  1.2533 -0.6373  1.5788
   64SAPC   H7S 5181   2.778   2.124   7.339  0.6622  1.8339  0.3603
   64SAPC   C28 5182   2.985   2.185   7.271  0.3047 -0.5082  0.6563
   64SAPC   H8R 5183   3.040   2.196   7.176  1.3565  1.1292  1.4129
   64SAPC   C29 5184   3.050   2.215   7.384  0.4135 -0.1186  0.5638
   64SAPC   H9R 5185   3.147   2.266   7.375  0.7383 -0.4507  1.9472
   64SAPC  C210 5186   2.997   2.199   7.523 -0.0773  0.6525 -0.5587
   64SAPC  H10R 5187   2.886   2.195   7.525 -0.0552 -1.4057 -0.9357
   64SAPC  H10S 5188   3.030   2.282   7.589  1.1920  0.4796 -0.9425
   64SAPC  C211 5189   3.047   2.071   7.581  0.0562  0.6027 -0.0422
   64SAPC  H11R 5190   3.035   1.979   7.521 -0.3784  0.3089  0.4885
   64SAPC  C212 5191   3.098   2.052   7.708  0.2907  0.3447 -0.3697
   64SAPC  H12R 5192   3.135   1.950   7.725 -1.2998  0.0029  1.4250
   64SAPC  C213 5193   3.109   2.151   7.822 -0.6519  0.3699 -0.7796
   64SAPC  H13R 5194   3.039   2.234   7.798 -1.2529 -0.0930 -0.6439
   64SAPC  H13S 5195   3.213   2.191   7.826  1.3470 -4.1721  4.2140
   64SAPC  C214 5196   3.075   2.084   7.958  0.2802 -0.2340  0.1626
   64SAPC  H14R 5197   3.164   2.052   8.014 -0.7714 -2.0130  0.9221
   64SAPC  C215 5198   2.957   2.055   8.020  0.6971 -0.6497 -0.5063
   64SAPC  H15R 5199   2.966   2.007   8.118  1.6752  0.3457 -0.0944
   64SAPC  C216 5200   2.820   2.096   7.969  0.0868  0.0708  0.3528
   64SAPC  H16R 5201   2.793   2.023   7.890  1.6866 -0.2622  0.0824
   64SAPC  H16S 5202   2.819   2.195   7.918  1.2009  1.5150  2.9374
   64SAPC  C217 5203   2.724   2.096   8.084  0.0501 -0.0442 -0.2367
   64SAPC  H17R 5204   2.694   1.996   8.122 -0.3141 -0.2744 -1.1079
   64SAPC  H17S 5205   2.628   2.141   8.051 -0.4756  0.0098  1.2896
   64SAPC  C218 5206   2.761   2.172   8.211 -0.0355  0.3428  0.1883
   64SAPC  H18R 5207   2.811   2.267   8.181 -1.0827  0.2789 -1.9619
   64SAPC  H18S 5208   2.840   2.123   8.271  0.7237  2.0920  0.6627
   64SAPC  C219 5209   2.645   2.203   8.307 -0.0185  0.5690  0.0461
   64SAPC  H19R 5210   2.557   2.249   8.257  0.3978  0.6225 -0.6578
   64SAPC  H19S 5211   2.680   2.275   8.383  2.0849  0.5315 -0.8247
   64SAPC  C220 5212   2.597   2.082   8.383 -0.4833 -0.6870  0.9563
   64SAPC  H20R 5213   2.688   2.040   8.431 -0.7908 -0.3203  1.8773
   64SAPC  H20S 5214   2.534   2.025   8.311 -0.9362  0.8993  0.0483
   64SAPC  H20T 5215   2.522   2.117   8.457 -0.4596  0.2880  0.5341
   64SAPC   C33 5216   2.956   3.070   6.678 -0.0766 -0.4623 -0.1263
   64SAPC   H3X 5217   2.955   3.122   6.580 -2.2972  2.0371  1.0805
   64SAPC   H3Y 5218   3.063   3.041   6.678  0.2800  0.7705 -0.4455
   64SAPC   C34 5219   2.912   3.169   6.789  0.3982 -0.4692 -0.7530
   64SAPC   H4X 5220   2.807   3.204   6.778  0.0418 -1.8530 -2.0884
   64SAPC   H4Y 5221   2.971   3.262   6.773 -0.5493  0.2446 -0.1794
   64SAPC   C35 5222   2.932   3.117   6.929  0.5005 -0.8296  0.4799
   64SAPC   H5X 5223   3.035   3.074   6.930  0.7989 -0.1948 -0.9067
   64SAPC   H5Y 5224   2.861   3.034   6.947 -1.6629  1.1308  1.4974
   64SAPC   C36 5225   2.925   3.219   7.041  0.3988  0.3986  0.4659
   64SAPC   H6X 5226   2.826   3.270   7.035  0.6846  0.8088 -1.2707
   64SAPC   H6Y 5227   2.999   3.295   7.009 -2.3154  3.0884  0.0629
   64SAPC   C37 5228   2.954   3.150   7.169 -0.1012 -0.4698 -0.8941
   64SAPC   H7X 5229   3.061   3.118   7.180 -1.0449 -3.8341 -0.2228
   64SAPC   H7Y 5230   2.891   3.060   7.187 -0.9160 -0.3563 -3.0154
   64SAPC   C38 5231   2.916   3.242   7.286  0.1669  0.0465  0.1838
   64SAPC   H8X 5232   2.807   3.262   7.276 -0.3129 -2.5784 -0.7344
   64SAPC   H8Y 5233   2.979   3.333   7.281  1.4889 -0.8247  0.4668
   64SAPC   C39 5234   2.937   3.185   7.419 -0.0574 -0.7799  0.5448
   64SAPC   H9X 5235   3.043   3.152   7.425 -0.4371 -2.3929 -0.9143
   64SAPC   H9Y 5236   2.872   3.095   7.423 -1.5637  0.2561  0.2951
   64SAPC  C310 5237   2.887   3.260   7.543  0.3966  0.3467  0.7021
   64SAPC  H10X 5238   2.780   3.283   7.528  0.5226 -0.8412 -3.0210
   64SAPC  H10Y 5239   2.943   3.356   7.529  2.8028 -1.1587 -0.7477
   64SAPC  C311 5240   2.905   3.172   7.669  0.5108 -0.0496  0.2878
   64SAPC  H11X 5241   3.013   3.148   7.672  0.3865 -0.5971  0.3371
   64SAPC  H11Y 5242   2.853   3.074   7.667  0.2800  0.0759 -1.6148
   64SAPC  C312 5243   2.865   3.242   7.807  0.1596  0.3400 -0.0830
   64SAPC  H12X 5244   2.755   3.256   7.817 -0.0667 -2.0564  1.4273
   64SAPC  H12Y 5245   2.912   3.342   7.822  1.3727  0.0940 -1.9296
   64SAPC  C313 5246   2.888   3.148   7.923 -0.2534 -0.1567 -0.1068
   64SAPC  H13X 5247   2.998   3.145   7.939 -0.1470  0.6814 -0.6185
   64SAPC  H13Y 5248   2.845   3.052   7.887  0.3683  0.1182 -1.6273
   64SAPC  C314 5249   2.801   3.201   8.046 -0.1387 -0.0708 -0.4622
   64SAPC  H14X 5250   2.701   3.229   8.006 -0.2287 -0.4724 -0.5265
   64SAPC  H14Y 5251   2.849   3.295   8.079  1.5232 -1.0752  0.1143
   64SAPC  C315 5252   2.804   3.100   8.165 -0.2577 -0.2841  0.1379
   64SAPC  H15X 5253   2.778   2.998   8.129  0.2031 -0.2796 -0.2201
   64SAPC  H15Y 5254   2.730   3.146   8.233  1.0578 -0.5729  1.8154
   64SAPC  C316 5255   2.941   3.078   8.231 -0.6161  0.2442 -0.4600
   64SAPC  H16X 5256   2.966   3.173   8.282 -1.9178  1.3248 -1.7625
   64SAPC  H16Y 5257   3.016   3.054   8.153 -1.0830  0.5612 -1.0160
   64SAPC  C317 5258   2.925   2.959   8.324  0.0634 -0.5309  0.4644
   64SAPC  H17X 5259   2.863   2.877   8.281 -0.2538 -0.6391  1.1154
   64SAPC  H17Y 5260   2.880   2.993   8.420  0.4773  0.6152  0.2664
   64SAPC  C318 5261   3.062   2.905   8.370  0.1914  0.3402  0.4700
   64SAPC  H18X 5262   3.125   2.871   8.285  1.9195 -0.0362  1.8577
   64SAPC  H18Y 5263   3.061   2.815   8.436  0.9506  0.7544  1.0591
   64SAPC  H18Z 5264   3.112   2.988   8.422  0.1956 -0.0676  1.1268
   65SAPC     N 5265   2.236   4.095   5.896  0.0747  0.2574  0.9756
   65SAPC   C12 5266   2.107   4.141   5.961  0.3723 -0.5803  0.0616
   65SAPC  H12A 5267   2.078   4.230   5.907  0.5752  0.7603  2.0609
   65SAPC  H12B 5268   2.119   4.171   6.064  1.4304 -2.5004  0.5602
   65SAPC   C13 5269   2.283   3.964   5.959 -0.1245 -0.6622  0.7710
   65SAPC  H13A 5270   2.374   3.929   5.914  0.5784 -2.6199  3.4465
   65SAPC  H13B 5271   2.301   3.979   6.065  0.9270  0.2423  0.4847
   65SAPC  H13C 5272   2.218   3.879   5.942 -0.9840  0.0976  0.1747
   65SAPC   C14 5273   2.213   4.070   5.747 -0.5673 -1.1108 -0.4635
   65SAPC  H14A 5274   2.156   3.980   5.727  0.5623 -1.9301 -0.0992
   65SAPC  H14B 5275   2.156   4.152   5.707  2.0174  2.1636  2.0168
   65SAPC  H14C 5276   2.305   4.052   5.693  0.4911 -1.0209  1.2276
   65SAPC   C15 5277   2.346   4.194   5.917  0.1485  0.8818  0.0147
   65SAPC  H15A 5278   2.340   4.283   5.856 -0.5155  0.7897 -0.0634
   65SAPC  H15B 5279   2.356   4.216   6.022 -1.5754  0.2810  0.3374
   65SAPC  H15C 5280   2.440   4.145   5.894 -0.5226 -0.4182 -0.0786
   65SAPC   C11 5281   1.984   4.056   5.947  0.2998  0.8403  0.5004
   65SAPC  H11A 5282   1.957   4.034   5.842 -0.1686 -0.6122  0.8940
   65SAPC  H11B 5283   1.890   4.108   5.976 -0.8523 -1.2326  0.6884
   65SAPC     P 5284   1.982   3.922   6.173  0.1603  0.1213  0.3940
   65SAPC   O13 5285   1.986   3.782   6.219 -0.4243  0.3290  0.7152
   65SAPC   O14 5286   2.082   4.006   6.242 -0.8861  0.2127  0.0951
   65SAPC   O12 5287   1.993   3.929   6.017 -0.1900  0.1464 -0.1454
   65SAPC   O11 5288   1.838   3.979   6.200  0.1440  0.6182  0.3270
   65SAPC    C1 5289   1.807   4.109   6.235  0.4909  0.2478  0.1833
   65SAPC    HA 5290   1.871   4.181   6.181  0.9744 -0.5125 -0.2648
   65SAPC    HB 5291   1.702   4.126   6.203  0.9231 -1.1694 -2.2457
   65SAPC    C2 5292   1.805   4.132   6.391  0.0396  0.1609  0.2670
   65SAPC    HS 5293   1.913   4.121   6.413 -0.0030 -0.2084  0.2965
   65SAPC   O21 5294   1.731   4.017   6.456 -0.1975 -0.2889 -0.0446
   65SAPC   C21 5295   1.774   3.982   6.578 -1.0233  0.5868  0.3994
   65SAPC   O22 5296   1.881   4.018   6.627  0.5070  0.2882  0.6887
   65SAPC   C22 5297   1.669   3.890   6.645 -0.3187 -0.2583 -0.6490
   65SAPC   H2R 5298   1.613   3.841   6.563  0.5760  0.2975 -1.6091
   65SAPC   H2S 5299   1.728   3.809   6.694  0.2547  0.4561 -0.1353
   65SAPC    C3 5300   1.746   4.267   6.434 -0.4527 -0.2383 -0.1883
   65SAPC    HX 5301   1.637   4.257   6.415 -0.5550 -0.0139  0.2741
   65SAPC    HY 5302   1.803   4.333   6.364  0.8236 -1.2969 -0.1959
   65SAPC   O31 5303   1.778   4.287   6.577 -0.4057  0.9247 -0.3982
   65SAPC   C31 5304   1.896   4.359   6.600 -1.0798 -0.3903  1.0183
   65SAPC   O32 5305   1.975   4.391   6.511  0.3962  0.2751  0.2263
   65SAPC   C32 5306   1.932   4.365   6.744  0.0218 -0.8150  0.2260
   65SAPC   H2X 5307   2.039   4.395   6.751 -0.3372  0.2266  1.5134
   65SAPC   H2Y 5308   1.904   4.272   6.798 -1.4934 -0.7745 -0.4533
   65SAPC   C23 5309   1.582   3.955   6.763 -0.1943 -0.1314  0.9167
   65SAPC   H3R 5310   1.499   3.888   6.795 -0.0785 -0.6749  0.1196
   65SAPC   H3S 5311   1.533   4.043   6.718 -1.9072 -1.7837 -0.6439
   65SAPC   C24 5312   1.662   3.997   6.884 -0.1482  0.1762  0.1090
   65SAPC   H4R 5313   1.609   4.069   6.950 -1.9374 -0.8505 -0.1449
   65SAPC   H4S 5314   1.744   4.063   6.849  0.6560 -0.2802  1.1020
   65SAPC   C25 5315   1.710   3.876   6.966 -0.7685 -0.9322 -0.2656
   65SAPC   H5R 5316   1.770   3.804   6.908  1.1100  0.7858 -0.5357
   65SAPC   C26 5317   1.690   3.862   7.101 -0.0896 -0.1238  0.1441
   65SAPC   H6R 5318   1.706   3.761   7.143  3.1943  0.0280 -0.4844
   65SAPC   C27 5319   1.632   3.954   7.203  0.0304 -0.6576 -0.6078
   65SAPC   H7R 5320   1.527   3.933   7.230  0.4363 -0.4847  1.2276
   65SAPC   H7S 5321   1.624   4.058   7.165  0.4340 -0.3249  0.1922
   65SAPC   C28 5322   1.718   3.981   7.325  0.5365  0.1521 -0.2463
   65SAPC   H8R 5323   1.815   4.021   7.293  0.8877  0.9008  1.6343
   65SAPC   C29 5324   1.688   3.946   7.453 -0.1786 -0.0603  0.2045
   65SAPC   H9R 5325   1.764   3.971   7.529  0.7765 -3.3197  0.4875
   65SAPC  C210 5326   1.562   3.887   7.503 -0.1301  0.4588  0.3256
   65SAPC  H10R 5327   1.475   3.895   7.435  0.7117 -1.7245 -1.1031
   65SAPC  H10S 5328   1.535   3.944   7.595  0.2465 -2.6435  2.5196
   65SAPC  C211 5329   1.585   3.744   7.547 -0.3308  0.6368  0.2566
   65SAPC  H11R 5330   1.531   3.669   7.487  1.6281  0.3143 -1.2105
   65SAPC  C212 5331   1.636   3.701   7.663  0.8184  0.0160 -0.4800
   65SAPC  H12R 5332   1.641   3.593   7.681  0.8923  0.2722  1.1680
   65SAPC  C213 5333   1.693   3.788   7.775 -0.6944  0.4628  0.9053
   65SAPC  H13R 5334   1.719   3.883   7.723 -1.1273 -0.6226 -1.4162
   65SAPC  H13S 5335   1.777   3.728   7.818 -0.8212 -0.8913 -0.6355
   65SAPC  C214 5336   1.583   3.801   7.876  0.2181 -0.0345 -0.1656
   65SAPC  H14R 5337   1.501   3.860   7.834  0.3641  2.0044  2.1803
   65SAPC  C215 5338   1.577   3.750   8.002 -0.0623 -0.2397  0.4015
   65SAPC  H15R 5339   1.485   3.766   8.060 -0.1687  0.1264  0.1392
   65SAPC  C216 5340   1.684   3.665   8.063  0.1714 -0.9432  0.0578
   65SAPC  H16R 5341   1.782   3.681   8.012 -0.5607 -0.1545 -1.1671
   65SAPC  H16S 5342   1.661   3.556   8.068 -0.1644 -1.2635 -4.2523
   65SAPC  C217 5343   1.714   3.701   8.208 -0.2116 -0.4095 -0.4627
   65SAPC  H17R 5344   1.622   3.697   8.270  0.5515  1.1456  0.8532
   65SAPC  H17S 5345   1.771   3.795   8.227  1.2423 -1.3904  0.2507
   65SAPC  C218 5346   1.800   3.591   8.277  0.3654  0.7479  0.1191
   65SAPC  H18R 5347   1.888   3.564   8.215 -0.0548 -1.3460  0.3523
   65SAPC  H18S 5348   1.737   3.500   8.293  0.0556  0.8749 -0.3736
   65SAPC  C219 5349   1.875   3.643   8.401 -0.6580  0.1277  0.3662
   65SAPC  H19R 5350   1.950   3.716   8.364 -1.8818  0.6193 -1.2818
   65SAPC  H19S 5351   1.940   3.572   8.457  2.3508  3.9847  2.2237
   65SAPC  C220 5352   1.781   3.725   8.497 -0.4500 -0.3445 -0.8526
   65SAPC  H20R 5353   1.847   3.791   8.558 -1.4123  1.9453 -2.1391
   65SAPC  H20S 5354   1.723   3.645   8.547 -0.4296 -0.4929 -1.0661
   65SAPC  H20T 5355   1.711   3.792   8.441  1.1181  1.7067 -0.4912
   65SAPC   C33 5356   1.847   4.473   6.816 -0.0124 -0.0639 -0.4273
   65SAPC   H3X 5357   1.742   4.470   6.779 -0.6526 -0.6434  1.3208
   65SAPC   H3Y 5358   1.882   4.573   6.783  2.5805 -0.9030 -0.4530
   65SAPC   C34 5359   1.859   4.477   6.973  0.0812 -0.2850  0.9881
   65SAPC   H4X 5360   1.806   4.566   7.012 -2.4224 -1.7455  1.1035
   65SAPC   H4Y 5361   1.964   4.485   7.010  0.3325  1.8654 -0.0574
   65SAPC   C35 5362   1.782   4.366   7.047  0.0453 -0.8162 -0.0919
   65SAPC   H5X 5363   1.825   4.266   7.026  0.0966 -0.2695 -2.9838
   65SAPC   H5Y 5364   1.677   4.370   7.010  0.1918 -0.5962 -0.4887
   65SAPC   C36 5365   1.778   4.402   7.197  0.3136  0.2513 -0.0524
   65SAPC   H6X 5366   1.784   4.513   7.200  0.3936  0.4998 -3.9995
   65SAPC   H6Y 5367   1.868   4.362   7.250  0.6889  0.2314 -0.6954
   65SAPC   C37 5368   1.661   4.351   7.272  0.3697  0.7670 -0.1858
   65SAPC   H7X 5369   1.635   4.249   7.235  1.5844  0.9779 -1.6960
   65SAPC   H7Y 5370   1.573   4.418   7.259  0.0342  0.5200  0.7517
   65SAPC   C38 5371   1.694   4.343   7.427  0.3379  0.8753  0.7635
   65SAPC   H8X 5372   1.713   4.451   7.445 -1.3200  1.6979 -1.9252
   65SAPC   H8Y 5373   1.788   4.284   7.441 -0.4922 -0.7382 -0.2162
   65SAPC   C39 5374   1.579   4.298   7.521 -0.1282  0.2375 -0.2927
   65SAPC   H9X 5375   1.545   4.194   7.503  1.7981  0.1551 -4.6480
   65SAPC   H9Y 5376   1.499   4.370   7.490 -0.0826 -0.9126 -3.4971
   65SAPC  C310 5377   1.620   4.307   7.669 -0.1221  0.1530 -0.0142
   65SAPC  H10X 5378   1.536   4.271   7.731 -0.2876 -1.0801 -0.9350
   65SAPC  H10Y 5379   1.639   4.415   7.691  0.5962 -0.1535  0.9548
   65SAPC  C311 5380   1.736   4.216   7.698  0.3441 -0.4813 -0.6114
   65SAPC  H11X 5381   1.833   4.242   7.650  1.5008 -1.6511  0.9717
   65SAPC  H11Y 5382   1.696   4.114   7.676 -1.4472 -0.5273  2.4102
   65SAPC  C312 5383   1.791   4.200   7.842  0.5214  0.1437  0.4600
   65SAPC  H12X 5384   1.716   4.133   7.888  0.6054  0.3316  0.8746
   65SAPC  H12Y 5385   1.793   4.298   7.895 -0.0209 -0.7244  2.1439
   65SAPC  C313 5386   1.925   4.127   7.851  0.0522  0.0730 -0.6031
   65SAPC  H13X 5387   1.990   4.183   7.781  0.6674  2.0463  1.4492
   65SAPC  H13Y 5388   1.910   4.024   7.811 -1.2718 -0.4633  1.1557
   65SAPC  C314 5389   1.982   4.125   7.993 -0.1462 -0.0601 -0.1356
   65SAPC  H14X 5390   2.051   4.207   8.021  1.0369 -0.8892 -0.5418
   65SAPC  H14Y 5391   2.047   4.035   7.997  1.1602  0.8986  1.2068
   65SAPC  C315 5392   1.876   4.097   8.106 -0.0999 -0.3803  0.5496
   65SAPC  H15X 5393   1.804   4.025   8.063 -1.7905  1.1485  0.6847
   65SAPC  H15Y 5394   1.825   4.195   8.117  1.5387  0.6080 -0.2423
   65SAPC  C316 5395   1.932   4.043   8.231  0.7667 -0.4898  0.0638
   65SAPC  H16X 5396   1.954   3.935   8.220  0.3800 -0.5115 -0.5463
   65SAPC  H16Y 5397   1.852   4.042   8.308  1.3399  0.6036  0.7022
   65SAPC  C317 5398   2.054   4.124   8.282  0.1535 -0.2642  0.4135
   65SAPC  H17X 5399   2.029   4.232   8.293 -0.6521 -0.1402 -2.0098
   65SAPC  H17Y 5400   2.133   4.123   8.204  1.2332 -0.1873  1.4717
   65SAPC  C318 5401   2.110   4.071   8.408  0.3836  0.0653 -1.2589
   65SAPC  H18X 5402   2.183   4.149   8.441 -2.3150  1.9073  0.8128
   65SAPC  H18Y 5403   2.159   3.976   8.378  0.3503  0.6948 -3.4827
   65SAPC  H18Z 5404   2.034   4.062   8.489 -0.0593  1.8010 -1.4304
   66SAPC     N 5405   1.598   3.237   5.767  0.0024  0.8516 -0.4841
   66SAPC   C12 5406   1.727   3.313   5.785 -0.1090 -0.3961  0.3842
   66SAPC  H12A 5407   1.708   3.419   5.784  1.2421 -0.1342  0.1343
   66SAPC  H12B 5408   1.779   3.303   5.691  1.4854 -2.3163  1.3997
   66SAPC   C13 5409   1.512   3.231   5.888  0.1770  0.1538 -0.2856
   66SAPC  H13A 5410   1.437   3.153   5.878 -0.2306  0.4651  0.2967
   66SAPC  H13B 5411   1.566   3.208   5.979 -1.4307 -2.8762  0.0273
   66SAPC  H13C 5412   1.461   3.325   5.900 -0.9612 -0.3385 -1.1234
   66SAPC   C14 5413   1.509   3.293   5.657  0.2034  0.4178 -0.0392
   66SAPC  H14A 5414   1.452   3.382   5.683  0.7797 -0.0784  3.4906
   66SAPC  H14B 5415   1.570   3.296   5.568 -0.6861 -1.0302 -0.7219
   66SAPC  H14C 5416   1.425   3.227   5.643 -0.3496  0.8922  0.8758
   66SAPC   C15 5417   1.628   3.096   5.720 -0.4093 -0.1128  0.1426
   66SAPC  H15A 5418   1.665   3.034   5.800 -2.3399 -4.4072 -1.9953
   66SAPC  H15B 5419   1.547   3.035   5.682 -0.4003 -0.3035  0.4243
   66SAPC  H15C 5420   1.697   3.093   5.637 -0.6780 -0.6790 -0.0671
   66SAPC   C11 5421   1.831   3.277   5.894 -0.2386 -0.0816  0.6925
   66SAPC  H11A 5422   1.915   3.350   5.891 -0.4722  0.1843  0.5944
   66SAPC  H11B 5423   1.890   3.185   5.875 -0.9221 -0.0978 -1.6981
   66SAPC     P 5424   1.778   3.394   6.116 -0.0046 -0.0692  0.0583
   66SAPC   O13 5425   1.903   3.470   6.102 -0.2882 -0.1236  0.1521
   66SAPC   O14 5426   1.654   3.469   6.092 -0.2735 -0.9251  0.0264
   66SAPC   O12 5427   1.779   3.266   6.024  0.0765 -0.6799  0.1509
   66SAPC   O11 5428   1.768   3.322   6.260  0.3624 -0.2546 -0.6935
   66SAPC    C1 5429   1.651   3.248   6.284  0.3027 -0.7007  0.4749
   66SAPC    HA 5430   1.561   3.313   6.281  0.9584  0.2395 -2.0821
   66SAPC    HB 5431   1.629   3.173   6.205 -0.0022 -1.7642  1.5514
   66SAPC    C2 5432   1.662   3.175   6.422  0.9412  0.0856 -0.4788
   66SAPC    HS 5433   1.560   3.134   6.433  0.6230  1.1803  0.8089
   66SAPC   O21 5434   1.698   3.264   6.531 -0.3307  0.7284  0.3681
   66SAPC   C21 5435   1.628   3.365   6.559  0.3160 -0.4198 -0.3999
   66SAPC   O22 5436   1.512   3.380   6.529  0.2639  0.4335  0.2416
   66SAPC   C22 5437   1.710   3.475   6.634 -0.3115  0.0150  0.3435
   66SAPC   H2R 5438   1.814   3.479   6.595 -0.1269  1.4141  0.9405
   66SAPC   H2S 5439   1.652   3.568   6.620 -0.8949 -0.3515  0.2863
   66SAPC    C3 5440   1.764   3.069   6.406 -0.2850 -0.1487 -0.4678
   66SAPC    HX 5441   1.864   3.115   6.390 -0.9283  0.9069 -1.6163
   66SAPC    HY 5442   1.734   3.019   6.311 -1.1027 -0.5751  0.0050
   66SAPC   O31 5443   1.756   2.985   6.523 -0.1543  0.4454  0.2109
   66SAPC   C31 5444   1.846   3.001   6.610 -0.3115 -0.2308 -0.8406
   66SAPC   O32 5445   1.954   3.056   6.592 -0.8862 -0.2323  0.8981
   66SAPC   C32 5446   1.801   2.938   6.737  0.0174 -0.6493  0.7738
   66SAPC   H2X 5447   1.775   2.835   6.705 -0.1886 -0.1696 -0.6333
   66SAPC   H2Y 5448   1.707   2.989   6.768  1.1659  1.9455  0.2241
   66SAPC   C23 5449   1.706   3.445   6.788  0.0897  0.2831  0.4783
   66SAPC   H3R 5450   1.604   3.439   6.832  0.3984  1.8597  1.5399
   66SAPC   H3S 5451   1.740   3.546   6.821 -1.4800  0.4489  1.7474
   66SAPC   C24 5452   1.794   3.340   6.844 -0.4352  0.0656 -0.0555
   66SAPC   H4R 5453   1.747   3.240   6.828  1.4259 -0.8276 -0.1798
   66SAPC   H4S 5454   1.803   3.338   6.954 -0.0150  0.4179 -0.0799
   66SAPC   C25 5455   1.935   3.335   6.790  0.8631  0.0650 -0.6529
   66SAPC   H5R 5456   1.941   3.287   6.691  2.2628  0.0403 -0.5678
   66SAPC   C26 5457   2.047   3.389   6.849  0.0390 -0.5613  0.0465
   66SAPC   H6R 5458   2.142   3.363   6.800 -1.0428 -0.5701 -2.1618
   66SAPC   C27 5459   2.049   3.462   6.980 -0.3711 -0.2799  0.4401
   66SAPC   H7R 5460   2.144   3.440   7.033 -1.8146 -1.9871  2.4998
   66SAPC   H7S 5461   1.973   3.419   7.049  0.5627  0.9650  2.3538
   66SAPC   C28 5462   2.046   3.612   6.982 -0.2439  0.3046 -0.9803
   66SAPC   H8R 5463   2.044   3.658   6.882  2.4813  1.8900 -0.4055
   66SAPC   C29 5464   2.043   3.683   7.097  1.1261  0.0796  0.0632
   66SAPC   H9R 5465   2.050   3.792   7.086 -1.9877  0.2997 -0.7469
   66SAPC  C210 5466   2.041   3.626   7.233 -0.1323 -0.0725  0.0671
   66SAPC  H10R 5467   2.144   3.628   7.273  0.1843  0.0951 -0.7510
   66SAPC  H10S 5468   2.027   3.516   7.240  1.6857 -0.2185  2.5447
   66SAPC  C211 5469   1.940   3.695   7.322 -0.0897  0.2460 -0.3062
   66SAPC  H11R 5470   1.839   3.692   7.277 -0.0925 -0.8825 -0.2392
   66SAPC  C212 5471   1.956   3.738   7.445  0.6438 -0.6484 -0.6023
   66SAPC  H12R 5472   1.871   3.783   7.498 -0.6650 -2.6692 -0.8429
   66SAPC  C213 5473   2.082   3.735   7.523  0.2678 -0.1788  0.2068
   66SAPC  H13R 5474   2.070   3.815   7.599 -0.0517  0.2596 -0.2946
   66SAPC  H13S 5475   2.164   3.779   7.463  0.3749  0.4189  0.7759
   66SAPC  C214 5476   2.141   3.607   7.578  0.0831 -0.1339 -0.4596
   66SAPC  H14R 5477   2.193   3.537   7.511 -1.2887 -0.1219 -1.5956
   66SAPC  C215 5478   2.140   3.571   7.710 -0.2515 -0.4260  0.0909
   66SAPC  H15R 5479   2.172   3.469   7.734  4.6228  0.7390 -0.2981
   66SAPC  C216 5480   2.084   3.633   7.830 -0.3261  0.0041 -0.0456
   66SAPC  H16R 5481   2.019   3.562   7.886 -1.0835 -2.2967 -3.5288
   66SAPC  H16S 5482   2.027   3.727   7.809  1.8043  1.4567  0.3813
   66SAPC  C217 5483   2.200   3.694   7.917  0.0191 -0.0002  0.8530
   66SAPC  H17R 5484   2.160   3.755   8.001 -0.3853 -1.8371  2.0367
   66SAPC  H17S 5485   2.263   3.755   7.848 -2.5888  0.0668 -1.6380
   66SAPC  C218 5486   2.286   3.587   7.982  0.1241 -0.0024  0.3730
   66SAPC  H18R 5487   2.288   3.495   7.920 -1.9747 -1.4245  2.2282
   66SAPC  H18S 5488   2.230   3.557   8.074 -1.7962  3.1443  0.3430
   66SAPC  C219 5489   2.428   3.628   8.029 -0.5654 -0.1065  0.4159
   66SAPC  H19R 5490   2.422   3.707   8.106 -0.3040 -0.5318  0.8813
   66SAPC  H19S 5491   2.482   3.661   7.938 -1.6971 -0.8849 -0.5638
   66SAPC  C220 5492   2.501   3.496   8.077  0.2079 -0.3842 -0.2465
   66SAPC  H20R 5493   2.514   3.432   7.987 -1.4993  2.1202 -2.4503
   66SAPC  H20S 5494   2.438   3.451   8.156  1.0213 -1.2992 -0.1067
   66SAPC  H20T 5495   2.604   3.519   8.110  0.5423 -0.2423 -1.3424
   66SAPC   C33 5496   1.902   2.939   6.850  0.0057 -0.3014  0.1291
   66SAPC   H3X 5497   1.917   3.046   6.877  1.8628 -0.0937 -1.5321
   66SAPC   H3Y 5498   1.996   2.901   6.807 -0.5534 -1.0410 -0.4636
   66SAPC   C34 5499   1.858   2.846   6.963 -0.3438 -0.1182  0.3926
   66SAPC   H4X 5500   1.858   2.744   6.920 -0.2497  0.5383 -1.2415
   66SAPC   H4Y 5501   1.752   2.870   6.988 -0.7133 -0.9422 -0.3001
   66SAPC   C35 5502   1.929   2.852   7.098  0.0194  0.7451 -0.2347
   66SAPC   H5X 5503   1.952   2.959   7.118 -0.1424  0.6825  0.3088
   66SAPC   H5Y 5504   2.025   2.797   7.093 -0.7432 -0.6148 -0.3760
   66SAPC   C36 5505   1.847   2.794   7.211 -0.1357  0.0410  0.7399
   66SAPC   H6X 5506   1.835   2.686   7.187  1.7099 -0.0994  0.3006
   66SAPC   H6Y 5507   1.746   2.841   7.208 -0.0381  0.2324  0.4542
   66SAPC   C37 5508   1.902   2.818   7.355  0.5562  0.0413  0.9516
   66SAPC   H7X 5509   1.901   2.928   7.370  1.8038  0.5155 -1.9449
   66SAPC   H7Y 5510   2.009   2.788   7.361  0.5475  0.0208  1.0126
   66SAPC   C38 5511   1.812   2.753   7.465  0.2328 -0.3062  0.1080
   66SAPC   H8X 5512   1.814   2.642   7.454  1.8002 -0.2125 -0.7126
   66SAPC   H8Y 5513   1.710   2.785   7.435 -0.1767 -0.6856  1.0655
   66SAPC   C39 5514   1.835   2.805   7.614  0.0002  0.2155  0.3017
   66SAPC   H9X 5515   1.758   2.772   7.686  1.2204 -0.9771  1.1064
   66SAPC   H9Y 5516   1.817   2.914   7.627 -0.5305  0.1166  0.4025
   66SAPC  C310 5517   1.972   2.772   7.664 -0.3219 -0.5579  0.3780
   66SAPC  H10X 5518   2.051   2.812   7.596 -0.3923 -0.9127  0.0882
   66SAPC  H10Y 5519   1.968   2.662   7.655 -1.2651 -0.4175 -1.6091
   66SAPC  C311 5520   2.009   2.818   7.800  0.2797  0.2993 -0.3033
   66SAPC  H11X 5521   1.926   2.787   7.867 -1.5879  1.7633 -1.8325
   66SAPC  H11Y 5522   2.016   2.929   7.803  1.1075  0.2435  0.2670
   66SAPC  C312 5523   2.142   2.768   7.861 -0.7895 -0.1254  0.2250
   66SAPC  H12X 5524   2.139   2.804   7.965  1.5935  0.0766  0.2700
   66SAPC  H12Y 5525   2.227   2.808   7.802 -0.7639 -0.2329  0.1881
   66SAPC  C313 5526   2.155   2.619   7.864 -0.1554 -0.2226 -0.2896
   66SAPC  H13X 5527   2.153   2.574   7.762  0.2400 -1.2636  0.1407
   66SAPC  H13Y 5528   2.069   2.577   7.921 -0.9859  2.6102  0.6947
   66SAPC  C314 5529   2.288   2.570   7.928  0.7696 -0.4708  0.1836
   66SAPC  H14X 5530   2.365   2.618   7.863  0.1935  0.6805  0.3232
   66SAPC  H14Y 5531   2.290   2.459   7.935 -5.1741 -0.8989 -0.3445
   66SAPC  C315 5532   2.312   2.624   8.068  0.0417  0.5058  0.4110
   66SAPC  H15X 5533   2.226   2.596   8.132  0.7126 -0.5393  0.8963
   66SAPC  H15Y 5534   2.302   2.735   8.063 -0.5289  0.4134 -0.7448
   66SAPC  C316 5535   2.455   2.597   8.115  0.2973  0.4063  0.1261
   66SAPC  H16X 5536   2.531   2.626   8.039  0.4324  2.8954  1.1162
   66SAPC  H16Y 5537   2.465   2.488   8.136  0.2353  0.0609 -1.5502
   66SAPC  C317 5538   2.487   2.677   8.239  0.1261 -0.1947 -0.7914
   66SAPC  H17X 5539   2.494   2.782   8.204 -2.1281  0.2802  0.0300
   66SAPC  H17Y 5540   2.589   2.659   8.278  0.8438  3.1217 -0.8767
   66SAPC  C318 5541   2.382   2.675   8.351  0.0933 -0.7115  0.0622
   66SAPC  H18X 5542   2.368   2.577   8.401 -0.5644  0.5033  2.4295
   66SAPC  H18Y 5543   2.281   2.708   8.318 -0.0292 -1.6607 -0.5262
   66SAPC  H18Z 5544   2.415   2.748   8.429 -0.0125  1.4710 -1.8049
   67SAPC     N 5545   2.268   5.301   6.648  0.2344  0.4584  0.2440
   67SAPC   C12 5546   2.270   5.357   6.508 -0.3497 -0.5876  0.2205
   67SAPC  H12A 5547   2.358   5.317   6.459 -0.1824 -1.8089  1.4561
   67SAPC  H12B 5548   2.263   5.464   6.504 -1.2664 -0.6570 -0.1211
   67SAPC   C13 5549   2.125   5.281   6.695 -0.1291  0.4086  0.2730
   67SAPC  H13A 5550   2.126   5.264   6.801 -1.1632  3.1782  0.7961
   67SAPC  H13B 5551   2.078   5.377   6.681 -0.8857  0.1875  1.2369
   67SAPC  H13C 5552   2.072   5.204   6.641 -2.2678 -0.4907  3.4212
   67SAPC   C14 5553   2.330   5.163   6.643  0.3706 -1.1753  0.3021
   67SAPC  H14A 5554   2.319   5.121   6.742 -1.4767 -0.1386  0.5920
   67SAPC  H14B 5555   2.273   5.101   6.576 -2.1763 -1.1644  2.3034
   67SAPC  H14C 5556   2.428   5.175   6.598  0.5190  0.7319  1.0365
   67SAPC   C15 5557   2.353   5.395   6.732 -0.2667  0.0336 -0.0017
   67SAPC  H15A 5558   2.348   5.351   6.830 -4.1395 -0.6838 -0.3866
   67SAPC  H15B 5559   2.449   5.391   6.682 -1.1340 -0.1885 -1.7251
   67SAPC  H15C 5560   2.318   5.497   6.725 -0.4779 -0.0844 -0.7291
   67SAPC   C11 5561   2.158   5.312   6.413 -0.3748  0.4001  0.1938
   67SAPC  H11A 5562   2.149   5.202   6.416 -3.0575  0.5660  1.3276
   67SAPC  H11B 5563   2.194   5.327   6.309 -0.0620 -0.1509  0.2166
   67SAPC     P 5564   1.942   5.443   6.338 -0.0418  0.3341  0.0734
   67SAPC   O13 5565   1.958   5.587   6.351  0.0164 -0.0581 -0.0526
   67SAPC   O14 5566   1.970   5.386   6.202  0.2479 -0.7375 -0.0700
   67SAPC   O12 5567   2.032   5.375   6.443 -0.2495 -0.7152  0.5415
   67SAPC   O11 5568   1.790   5.408   6.381  0.7617  0.1441  0.2611
   67SAPC    C1 5569   1.765   5.290   6.454 -0.6972  0.2387  0.0521
   67SAPC    HA 5570   1.711   5.220   6.386 -0.4424 -1.7809  1.8085
   67SAPC    HB 5571   1.858   5.233   6.477 -0.9370 -0.1021  0.1908
   67SAPC    C2 5572   1.702   5.322   6.589  0.4295 -0.7815  0.2163
   67SAPC    HS 5573   1.609   5.375   6.558  0.3436  0.1913  2.0395
   67SAPC   O21 5574   1.791   5.412   6.666 -0.0114  0.0101 -0.3163
   67SAPC   C21 5575   1.725   5.514   6.721  0.3461  0.1675  0.2493
   67SAPC   O22 5576   1.608   5.540   6.702 -0.0253 -0.1823  0.0920
   67SAPC   C22 5577   1.825   5.597   6.801 -0.2296 -0.2950  0.3407
   67SAPC   H2R 5578   1.887   5.522   6.855  1.7327  0.7612 -0.3688
   67SAPC   H2S 5579   1.895   5.644   6.729 -1.0726  1.8533  0.8608
   67SAPC    C3 5580   1.649   5.202   6.680 -0.5659 -0.0653  0.4717
   67SAPC    HX 5581   1.730   5.127   6.691  0.4354  0.8112 -0.6622
   67SAPC    HY 5582   1.568   5.159   6.618 -1.6927  3.2244 -0.5297
   67SAPC   O31 5583   1.590   5.250   6.804 -0.0080 -0.0941 -0.8251
   67SAPC   C31 5584   1.576   5.157   6.898  0.6414 -0.3861 -0.0584
   67SAPC   O32 5585   1.589   5.037   6.889 -0.0373 -0.5173  0.4548
   67SAPC   C32 5586   1.514   5.232   7.018 -0.1475 -0.0702  0.7961
   67SAPC   H2X 5587   1.405   5.233   6.998 -0.2260  2.5440  0.9890
   67SAPC   H2Y 5588   1.558   5.334   7.019  0.6560 -0.3958  0.0936
   67SAPC   C23 5589   1.757   5.706   6.892  0.2439  0.0076  0.5573
   67SAPC   H3R 5590   1.688   5.780   6.845 -2.8078 -2.0488  1.5208
   67SAPC   H3S 5591   1.832   5.768   6.946 -0.4846  0.1859  1.3695
   67SAPC   C24 5592   1.659   5.641   6.987 -0.6521  0.1253  0.0166
   67SAPC   H4R 5593   1.705   5.550   7.030  0.7984  0.5455 -0.5772
   67SAPC   H4S 5594   1.568   5.603   6.936  1.0691  0.0113 -3.2009
   67SAPC   C25 5595   1.625   5.726   7.105  0.3722  0.7343 -0.5098
   67SAPC   H5R 5596   1.548   5.803   7.095  0.5049  0.6714 -2.3213
   67SAPC   C26 5597   1.693   5.714   7.225 -0.2011 -0.9943  0.0789
   67SAPC   H6R 5598   1.656   5.770   7.312  1.3597  0.6171 -0.2390
   67SAPC   C27 5599   1.810   5.628   7.270  0.3250 -0.2959  0.3119
   67SAPC   H7R 5600   1.870   5.695   7.335  1.3344 -1.3842  0.5431
   67SAPC   H7S 5601   1.879   5.606   7.186  0.2757 -1.0108  0.4520
   67SAPC   C28 5602   1.782   5.505   7.353 -0.3480  0.9454  0.1087
   67SAPC   H8R 5603   1.737   5.423   7.295  1.3307  0.2600 -0.2677
   67SAPC   C29 5604   1.781   5.494   7.485 -0.3527 -0.2151 -0.5762
   67SAPC   H9R 5605   1.748   5.401   7.534 -1.0733  1.5865  2.6782
   67SAPC  C210 5606   1.801   5.602   7.587 -0.6846  0.5249  0.2512
   67SAPC  H10R 5607   1.835   5.702   7.552 -0.1434  1.7331  3.8212
   67SAPC  H10S 5608   1.893   5.578   7.644 -0.9477 -0.1702  0.3939
   67SAPC  C211 5609   1.690   5.610   7.694  0.0978 -0.7075  0.1262
   67SAPC  H11R 5610   1.683   5.519   7.755 -0.1802 -0.5980  0.2583
   67SAPC  C212 5611   1.608   5.713   7.721 -0.1186  0.3559  0.6186
   67SAPC  H12R 5612   1.527   5.687   7.790  3.3254 -0.0217  4.9970
   67SAPC  C213 5613   1.605   5.843   7.655 -0.7390 -0.0277 -0.4051
   67SAPC  H13R 5614   1.651   5.834   7.554 -0.5062 -0.8805 -0.2266
   67SAPC  H13S 5615   1.659   5.919   7.715 -1.0062  1.8345 -2.3662
   67SAPC  C214 5616   1.464   5.873   7.634 -0.0582 -0.5056  0.8151
   67SAPC  H14R 5617   1.393   5.827   7.704 -2.0621  1.3122  0.0698
   67SAPC  C215 5618   1.407   5.958   7.547 -0.3370  0.5951  0.9466
   67SAPC  H15R 5619   1.298   5.960   7.562 -0.1580  0.5283  2.4225
   67SAPC  C216 5620   1.471   6.031   7.432  0.0100 -0.5453 -0.7418
   67SAPC  H16R 5621   1.578   6.011   7.410  0.7906  0.6601  1.6156
   67SAPC  H16S 5622   1.484   6.139   7.455 -1.5062 -0.2999 -0.9409
   67SAPC  C217 5623   1.403   6.024   7.295 -0.3637  0.6166 -1.1906
   67SAPC  H17R 5624   1.311   6.085   7.304 -0.9065 -0.0668 -2.0149
   67SAPC  H17S 5625   1.383   5.917   7.278  0.2918  0.6479 -2.2811
   67SAPC  C218 5626   1.491   6.049   7.169 -0.0755  0.4339  0.0430
   67SAPC  H18R 5627   1.584   5.989   7.166 -0.7547 -0.6735  0.4230
   67SAPC  H18S 5628   1.510   6.158   7.162 -1.7378  0.6445 -3.2213
   67SAPC  C219 5629   1.413   6.015   7.044  0.0671  0.4792 -0.1904
   67SAPC  H19R 5630   1.309   6.054   7.055 -0.3825 -0.5276 -0.7959
   67SAPC  H19S 5631   1.403   5.906   7.028  2.2836 -0.3672  3.1610
   67SAPC  C220 5632   1.467   6.071   6.919 -0.4443 -0.9206 -0.0608
   67SAPC  H20R 5633   1.416   6.032   6.829  0.0124 -2.1687  0.2066
   67SAPC  H20S 5634   1.574   6.050   6.895 -0.4627  0.8353 -1.9502
   67SAPC  H20T 5635   1.451   6.181   6.918  0.0767 -0.7676  2.3339
   67SAPC   C33 5636   1.549   5.174   7.153  0.0818 -0.8931  0.0905
   67SAPC   H3X 5637   1.510   5.072   7.172  1.8966 -2.1941 -2.5489
   67SAPC   H3Y 5638   1.512   5.245   7.230  0.6223 -2.1274  1.5343
   67SAPC   C34 5639   1.703   5.169   7.174  0.6379 -0.7129  0.1281
   67SAPC   H4X 5640   1.747   5.270   7.160  0.3022 -0.4632  0.8448
   67SAPC   H4Y 5641   1.752   5.109   7.094 -0.5138  0.1010 -1.2499
   67SAPC   C35 5642   1.728   5.119   7.314 -0.6618  0.0058  0.7693
   67SAPC   H5X 5643   1.669   5.027   7.333 -3.7870  1.6303 -0.4695
   67SAPC   H5Y 5644   1.680   5.185   7.388 -2.7278 -0.7732  0.1853
   67SAPC   C36 5645   1.879   5.105   7.349 -0.9996  0.7772 -0.0093
   67SAPC   H6X 5646   1.928   5.201   7.320 -1.3345 -0.2386 -4.7902
   67SAPC   H6Y 5647   1.924   5.020   7.294  0.5917  0.0057  2.3741
   67SAPC   C37 5648   1.925   5.080   7.498  0.5694 -0.0397 -0.0817
   67SAPC   H7X 5649   1.912   5.182   7.539  0.7821 -0.9288  2.3490
   67SAPC   H7Y 5650   2.028   5.042   7.515 -0.4712 -2.4396  1.4370
   67SAPC   C38 5651   1.826   4.988   7.567 -0.0786  0.2079  0.4089
   67SAPC   H8X 5652   1.825   4.891   7.513  0.7836  0.6273 -0.3766
   67SAPC   H8Y 5653   1.725   5.035   7.575  0.3641  0.9956  1.6637
   67SAPC   C39 5654   1.861   4.960   7.718 -0.2725  0.3053  0.0964
   67SAPC   H9X 5655   1.868   5.058   7.771  0.6049 -0.4545  1.4221
   67SAPC   H9Y 5656   1.966   4.926   7.720  0.4881  2.4000  3.8241
   67SAPC  C310 5657   1.760   4.874   7.794  0.1139  0.6852  0.1153
   67SAPC  H10X 5658   1.772   4.787   7.726  1.6946 -0.1849  1.4310
   67SAPC  H10Y 5659   1.656   4.911   7.784 -0.1017 -0.2475 -1.5353
   67SAPC  C311 5660   1.808   4.829   7.934 -0.3453 -0.4237  0.6241
   67SAPC  H11X 5661   1.787   4.904   8.013 -0.5078 -0.6822  0.8318
   67SAPC  H11Y 5662   1.917   4.813   7.925 -0.5672 -1.3843 -0.6708
   67SAPC  C312 5663   1.730   4.708   7.978 -0.0796  0.2993 -1.0335
   67SAPC  H12X 5664   1.761   4.637   7.898  2.7011  1.4465 -1.0561
   67SAPC  H12Y 5665   1.625   4.745   7.975 -0.2724  0.0310  1.0636
   67SAPC  C313 5666   1.783   4.649   8.112  0.0422 -0.5517  0.7600
   67SAPC  H13X 5667   1.799   4.734   8.181 -0.7950  0.9064 -0.7836
   67SAPC  H13Y 5668   1.882   4.600   8.099 -0.0802 -0.5983 -0.0509
   67SAPC  C314 5669   1.679   4.548   8.168  0.0645 -0.5182 -0.4558
   67SAPC  H14X 5670   1.692   4.445   8.128  3.8863 -0.4698  0.2990
   67SAPC  H14Y 5671   1.583   4.595   8.138 -0.0396 -1.2332 -1.2710
   67SAPC  C315 5672   1.665   4.546   8.323  0.0677  0.4377 -0.4741
   67SAPC  H15X 5673   1.567   4.501   8.348  0.6595 -1.0388 -0.6956
   67SAPC  H15Y 5674   1.663   4.654   8.347 -1.5480  0.3717 -0.2207
   67SAPC  C316 5675   1.773   4.472   8.401  0.2353  0.0141  0.0882
   67SAPC  H16X 5676   1.792   4.371   8.358  1.0122 -0.5272  1.6377
   67SAPC  H16Y 5677   1.746   4.467   8.509 -0.2061 -0.4471 -0.0391
   67SAPC  C317 5678   1.907   4.546   8.396  0.2324 -0.0145  0.3499
   67SAPC  H17X 5679   1.893   4.655   8.410 -0.3597 -0.0602  0.1444
   67SAPC  H17Y 5680   1.955   4.521   8.299 -0.4671 -0.7988  0.1810
   67SAPC  C318 5681   1.998   4.513   8.517  1.1370  0.1649  0.4916
   67SAPC  H18X 5682   2.015   4.403   8.522  0.1644  0.0002  0.4121
   67SAPC  H18Y 5683   1.944   4.553   8.606 -3.1419 -2.2469 -0.7154
   67SAPC  H18Z 5684   2.094   4.569   8.518  1.1638  0.1428  2.0214
   68SAPC     N 5685   0.315   4.592   6.202  0.5477 -0.4870 -0.3109
   68SAPC   C12 5686   0.411   4.617   6.310 -0.5024  0.0345  0.3376
   68SAPC  H12A 5687   0.487   4.685   6.273 -0.4948  0.3339  0.8972
   68SAPC  H12B 5688   0.462   4.523   6.324  0.7096  0.6850  0.3744
   68SAPC   C13 5689   0.232   4.712   6.166 -0.7195  0.2971  0.0799
   68SAPC  H13A 5690   0.294   4.793   6.131  0.6379 -0.5786  0.3964
   68SAPC  H13B 5691   0.166   4.689   6.084 -2.5627  2.4807  0.8536
   68SAPC  H13C 5692   0.186   4.741   6.259  0.2490  1.0868  0.3309
   68SAPC   C14 5693   0.379   4.565   6.065  0.0758  0.1620  0.0929
   68SAPC  H14A 5694   0.441   4.477   6.053  1.5177  1.2567 -0.9292
   68SAPC  H14B 5695   0.302   4.549   5.991 -1.3322  0.4649  1.4425
   68SAPC  H14C 5696   0.432   4.649   6.024 -0.8975  0.7259 -0.0173
   68SAPC   C15 5697   0.220   4.479   6.248 -0.8071 -0.2259  1.1317
   68SAPC  H15A 5698   0.293   4.402   6.271 -0.2924 -0.2429 -0.4302
   68SAPC  H15B 5699   0.160   4.502   6.335 -0.9460  0.9581  0.7512
   68SAPC  H15C 5700   0.157   4.443   6.168  0.5954  2.4384 -1.3754
   68SAPC   C11 5701   0.370   4.687   6.444 -0.2177  0.6598  0.6500
   68SAPC  H11A 5702   0.458   4.696   6.511  0.2177  2.6220 -0.1098
   68SAPC  H11B 5703   0.291   4.628   6.494  0.3685 -0.6436  0.0757
   68SAPC     P 5704   0.412   4.949   6.402  0.2402 -0.0328  0.1088
   68SAPC   O13 5705   0.484   4.932   6.277 -0.4599 -0.3259 -0.4851
   68SAPC   O14 5706   0.325   5.073   6.399 -0.9212 -0.1169 -0.1529
   68SAPC   O12 5707   0.325   4.816   6.431  0.1487  0.0633  0.7255
   68SAPC   O11 5708   0.513   4.953   6.522 -0.6467  0.1928  0.2008
   68SAPC    C1 5709   0.463   4.955   6.657 -0.2912 -0.3284 -0.4592
   68SAPC    HA 5710   0.355   4.976   6.666 -0.2174 -0.3283  0.6027
   68SAPC    HB 5711   0.480   4.859   6.710  0.3639  0.0832  0.1017
   68SAPC    C2 5712   0.546   5.061   6.729 -0.9221  0.4400  0.5730
   68SAPC    HS 5713   0.647   5.045   6.687 -1.0480 -1.4743  0.9129
   68SAPC   O21 5714   0.549   5.026   6.868  0.3662 -0.2425 -0.2745
   68SAPC   C21 5715   0.614   5.086   6.958 -0.9307 -0.2045  0.6623
   68SAPC   O22 5716   0.693   5.176   6.947 -0.3066  0.0474  0.4567
   68SAPC   C22 5717   0.584   4.998   7.078  0.4378  0.0710  0.0644
   68SAPC   H2R 5718   0.504   4.923   7.061  0.2540  0.1343  0.6180
   68SAPC   H2S 5719   0.668   4.937   7.116  0.5814  0.1471 -0.1367
   68SAPC    C3 5720   0.498   5.203   6.692 -0.0606  0.1844 -0.5725
   68SAPC    HX 5721   0.475   5.202   6.583 -0.9000 -2.3483 -0.4361
   68SAPC    HY 5722   0.576   5.275   6.726  0.6939 -1.0884  0.5106
   68SAPC   O31 5723   0.377   5.227   6.770  0.0980 -0.4490  0.4241
   68SAPC   C31 5724   0.340   5.356   6.752 -0.6521  0.2511  0.6102
   68SAPC   O32 5725   0.407   5.441   6.697  0.3601 -0.1223 -0.2396
   68SAPC   C32 5726   0.207   5.375   6.811 -0.1378 -0.4686 -0.0504
   68SAPC   H2X 5727   0.199   5.334   6.914 -1.7251  1.4280  0.6544
   68SAPC   H2Y 5728   0.136   5.310   6.755 -1.4255 -0.7980  1.8462
   68SAPC   C23 5729   0.530   5.098   7.191  0.5518 -0.3465  0.0633
   68SAPC   H3R 5730   0.439   5.150   7.153  3.4829  4.5381 -1.2859
   68SAPC   H3S 5731   0.607   5.170   7.228 -0.1976 -0.1791  1.3539
   68SAPC   C24 5732   0.483   5.014   7.309  0.8238 -0.8320 -0.6467
   68SAPC   H4R 5733   0.567   4.946   7.337  1.3202 -0.3242 -0.8759
   68SAPC   H4S 5734   0.402   4.942   7.284 -0.5601  0.3610  0.2472
   68SAPC   C25 5735   0.435   5.095   7.427 -0.3384 -0.2087  0.1804
   68SAPC   H5R 5736   0.357   5.165   7.393 -0.3072 -1.5669 -2.9886
   68SAPC   C26 5737   0.485   5.075   7.550 -0.0035  0.1551  0.0924
   68SAPC   H6R 5738   0.449   5.134   7.636  0.2457 -0.2399  0.4769
   68SAPC   C27 5739   0.591   4.983   7.601 -0.5930  0.2768 -0.0184
   68SAPC   H7R 5740   0.583   4.881   7.560  2.6792  0.2231 -0.8041
   68SAPC   H7S 5741   0.592   4.966   7.711  0.7374 -1.0057 -0.2073
   68SAPC   C28 5742   0.730   5.032   7.561  0.5039 -0.2944  0.4029
   68SAPC   H8R 5743   0.760   4.995   7.462 -0.4087 -0.2629  0.1049
   68SAPC   C29 5744   0.818   5.099   7.636  0.3682  0.9532  0.3060
   68SAPC   H9R 5745   0.906   5.145   7.588  0.2687  1.9955  1.1009
   68SAPC  C210 5746   0.795   5.136   7.783 -0.3004  0.1337 -0.3517
   68SAPC  H10R 5747   0.692   5.120   7.823  0.2778 -2.4404  0.3056
   68SAPC  H10S 5748   0.792   5.246   7.790  1.0140  0.0859  1.7006
   68SAPC  C211 5749   0.893   5.082   7.885  0.2398  0.2941  0.9880
   68SAPC  H11R 5750   0.973   5.014   7.850 -0.9880 -0.3487 -0.7069
   68SAPC  C212 5751   0.886   5.114   8.014 -0.4743  0.6078  0.4648
   68SAPC  H12R 5752   0.973   5.091   8.078  1.6500  0.4772 -2.2787
   68SAPC  C213 5753   0.784   5.196   8.094 -0.2411  0.0070 -0.1458
   68SAPC  H13R 5754   0.708   5.235   8.021 -0.0776 -1.2176 -0.9932
   68SAPC  H13S 5755   0.830   5.280   8.150 -0.9401 -0.6791  1.5102
   68SAPC  C214 5756   0.718   5.123   8.205  0.4870  0.2340  0.0521
   68SAPC  H14R 5757   0.752   5.019   8.221  1.9424  0.7772  0.5983
   68SAPC  C215 5758   0.640   5.183   8.302 -0.1641  0.2817 -0.6577
   68SAPC  H15R 5759   0.598   5.115   8.378 -1.5485  0.9965 -0.7565
   68SAPC  C216 5760   0.594   5.324   8.304 -0.6024 -0.7647 -0.2705
   68SAPC  H16R 5761   0.496   5.335   8.356  1.2147  1.4164  3.0722
   68SAPC  H16S 5762   0.586   5.370   8.204 -2.7893  0.8697  0.5971
   68SAPC  C217 5763   0.676   5.414   8.406 -1.4457 -0.5193  0.6749
   68SAPC  H17R 5764   0.633   5.516   8.403 -2.1551 -0.7946  1.2320
   68SAPC  H17S 5765   0.780   5.427   8.369 -2.1414  2.4928 -0.5302
   68SAPC  C218 5766   0.685   5.364   8.552  1.2482 -0.3507  0.0147
   68SAPC  H18R 5767   0.732   5.264   8.565  0.8178 -0.4564  0.8764
   68SAPC  H18S 5768   0.581   5.356   8.591  0.3176 -0.0035 -2.2521
   68SAPC  C219 5769   0.758   5.467   8.646  0.7056 -0.4341 -0.0562
   68SAPC  H19R 5770   0.686   5.540   8.688 -0.2125 -0.9278 -0.7299
   68SAPC  H19S 5771   0.829   5.528   8.587 -1.6226  1.5361 -0.9758
   68SAPC  C220 5772   0.831   5.408   8.767  0.6482  0.0198  0.2884
   68SAPC  H20R 5773   0.754   5.362   8.832  0.4002 -0.5076 -0.3661
   68SAPC  H20S 5774   0.888   5.487   8.820 -0.8441  0.0526  1.9349
   68SAPC  H20T 5775   0.892   5.318   8.746  0.2006  0.1369 -1.7299
   68SAPC   C33 5776   0.161   5.519   6.823  0.6048 -0.3086  0.2703
   68SAPC   H3X 5777   0.069   5.509   6.884  0.9981 -0.7116  0.8015
   68SAPC   H3Y 5778   0.105   5.544   6.730 -2.3011 -0.8168  1.7385
   68SAPC   C34 5779   0.250   5.625   6.892 -0.3668 -0.2655 -0.7128
   68SAPC   H4X 5780   0.185   5.715   6.897 -0.3889 -0.3599  2.4593
   68SAPC   H4Y 5781   0.334   5.645   6.822  0.5521  0.2133  0.4913
   68SAPC   C35 5782   0.315   5.593   7.028 -1.1553 -0.1599  0.6619
   68SAPC   H5X 5783   0.368   5.687   7.056 -0.7970 -0.7671  2.0779
   68SAPC   H5Y 5784   0.404   5.531   7.005 -0.3675  0.8550  0.8854
   68SAPC   C36 5785   0.224   5.548   7.146 -0.4230  0.3866 -0.4050
   68SAPC   H6X 5786   0.146   5.480   7.106 -0.7047  0.0996  0.5998
   68SAPC   H6Y 5787   0.180   5.642   7.186 -0.4680 -0.4733  1.7026
   68SAPC   C37 5788   0.294   5.474   7.266 -0.6877  0.0358  0.8602
   68SAPC   H7X 5789   0.372   5.539   7.312 -0.8482 -0.3499  1.6979
   68SAPC   H7Y 5790   0.350   5.385   7.231  0.0047 -0.2898  2.6610
   68SAPC   C38 5791   0.200   5.439   7.373  0.2425  0.4182  0.2883
   68SAPC   H8X 5792   0.150   5.345   7.341  0.4996 -0.0369  1.1910
   68SAPC   H8Y 5793   0.114   5.509   7.372 -0.1092 -0.0074 -0.6298
   68SAPC   C39 5794   0.273   5.420   7.501 -0.2197  0.1121  0.3222
   68SAPC   H9X 5795   0.380   5.403   7.479  0.4116  0.8058  2.6212
   68SAPC   H9Y 5796   0.226   5.335   7.556 -2.1304  0.6858 -0.3220
   68SAPC  C310 5797   0.272   5.546   7.585 -0.2277 -0.3529  0.3676
   68SAPC  H10X 5798   0.167   5.581   7.585 -0.2397 -0.3163  2.2696
   68SAPC  H10Y 5799   0.341   5.621   7.540  1.8572 -1.8506  0.9095
   68SAPC  C311 5800   0.307   5.520   7.734  0.3096 -0.8274 -0.0476
   68SAPC  H11X 5801   0.417   5.528   7.752 -0.0637  0.0523  2.2550
   68SAPC  H11Y 5802   0.278   5.414   7.753 -1.2111 -0.9107 -2.4299
   68SAPC  C312 5803   0.237   5.615   7.841 -0.1772 -0.0569  0.4038
   68SAPC  H12X 5804   0.130   5.593   7.822  0.3337  0.1519 -3.4511
   68SAPC  H12Y 5805   0.261   5.720   7.813 -3.4955  1.1005  1.5098
   68SAPC  C313 5806   0.288   5.568   7.984  0.0013  0.2476  0.2186
   68SAPC  H13X 5807   0.399   5.570   7.993  0.0094  2.4346  0.4040
   68SAPC  H13Y 5808   0.246   5.470   8.014 -0.1887  0.8670  2.1451
   68SAPC  C314 5809   0.231   5.661   8.090 -0.1892  0.1635  0.6317
   68SAPC  H14X 5810   0.123   5.670   8.067  0.3762  0.1069 -2.4941
   68SAPC  H14Y 5811   0.277   5.762   8.086 -0.8065  0.4110 -0.3747
   68SAPC  C315 5812   0.266   5.605   8.234  0.2329  0.4581 -0.0563
   68SAPC  H15X 5813   0.371   5.639   8.246  1.9242 -4.5245  2.4010
   68SAPC  H15Y 5814   0.265   5.494   8.239 -0.6976  0.3548 -1.9413
   68SAPC  C316 5815   0.173   5.665   8.346  0.3429  0.0003 -0.5050
   68SAPC  H16X 5816   0.071   5.629   8.322 -0.1236  1.0562 -0.1683
   68SAPC  H16Y 5817   0.185   5.773   8.323  1.5994 -0.2616 -1.2136
   68SAPC  C317 5818   0.206   5.626   8.494 -0.2728 -0.4775  0.0606
   68SAPC  H17X 5819   0.147   5.696   8.558  0.7694  0.1853  0.3174
   68SAPC  H17Y 5820   0.313   5.648   8.515 -1.0247  3.6826  0.5371
   68SAPC  C318 5821   0.183   5.477   8.539  0.0786  1.0556  0.2832
   68SAPC  H18X 5822   0.075   5.455   8.531  0.5665 -1.0701 -1.4590
   68SAPC  H18Y 5823   0.205   5.453   8.645  0.2134  0.6813  0.1727
   68SAPC  H18Z 5824   0.245   5.414   8.471 -2.3271  0.2597 -1.2961
   69SLPC     N 5825   6.378   3.615  10.861  0.2184 -0.1384  0.4044
   69SLPC   C13 5826   6.506   3.577  10.785  0.4101  0.4179 -0.0006
   69SLPC  H13A 5827   6.571   3.662  10.775  1.3961  0.0011  2.1689
   69SLPC  H13B 5828   6.562   3.501  10.838  1.1065  0.3888 -0.7679
   69SLPC  H13C 5829   6.479   3.546  10.685 -0.4489 -0.0004  0.3545
   69SLPC   C14 5830   6.412   3.683  10.988  0.3728 -0.0650 -0.1608
   69SLPC  H14A 5831   6.472   3.771  10.967 -0.8940  0.3563 -2.3482
   69SLPC  H14B 5832   6.321   3.716  11.036 -0.3495 -0.9513 -0.8801
   69SLPC  H14C 5833   6.468   3.617  11.051 -3.1392 -0.6698  2.6374
   69SLPC   C15 5834   6.310   3.483  10.895 -0.4546 -0.1466 -0.0753
   69SLPC  H15A 5835   6.223   3.489  10.959 -0.5483  0.5779 -0.2650
   69SLPC  H15B 5836   6.284   3.425  10.808  0.9032  0.2699 -0.8020
   69SLPC  H15C 5837   6.388   3.434  10.952  1.2133  1.8987 -0.4667
   69SLPC   C12 5838   6.306   3.717  10.772  0.4320 -0.4037 -0.3695
   69SLPC  H12A 5839   6.292   3.671  10.675  1.1610 -1.1481 -0.1300
   69SLPC  H12B 5840   6.372   3.801  10.756 -0.2161 -0.2155 -2.4313
   69SLPC   C11 5841   6.162   3.760  10.824  0.5938 -0.2308 -0.1265
   69SLPC  H11A 5842   6.098   3.671  10.841  0.3478 -0.2351 -1.0285
   69SLPC  H11B 5843   6.116   3.818  10.742  0.0528 -0.2456  0.1664
   69SLPC     P 5844   6.253   3.979  10.953 -0.0738  0.5195 -0.2666
   69SLPC   O13 5845   6.184   4.052  11.068 -0.8348  0.1749  0.6868
   69SLPC   O14 5846   6.399   3.965  10.975 -0.2768  0.3946  0.3361
   69SLPC   O12 5847   6.171   3.839  10.944  0.3656 -0.1633 -0.1558
   69SLPC   O11 5848   6.231   4.051  10.815 -0.7879 -0.0163  0.0336
   69SLPC    C1 5849   6.102   4.098  10.772 -0.7654  0.2696  0.1346
   69SLPC    HA 5850   6.018   4.031  10.797  2.3049 -3.4280  1.5105
   69SLPC    HB 5851   6.088   4.200  10.815  0.2690  1.6118 -2.4551
   69SLPC    C2 5852   6.083   4.101  10.612  0.9788  0.7343 -0.5165
   69SLPC    HS 5853   6.054   4.000  10.577  1.0813  0.1488  1.0120
   69SLPC   O21 5854   6.205   4.144  10.542 -0.4523 -0.0102  0.7348
   69SLPC   C21 5855   6.217   4.111  10.416 -0.0132  0.1258  0.2960
   69SLPC   O22 5856   6.148   4.028  10.358 -0.0374 -0.8646 -0.1733
   69SLPC   C22 5857   6.341   4.179  10.369  0.6796  0.0085 -0.1241
   69SLPC   H2R 5858   6.336   4.284  10.404  0.7339  0.4651 -1.4303
   69SLPC   H2S 5859   6.434   4.130  10.405  0.5545  1.2234  2.0423
   69SLPC    C3 5860   5.971   4.212  10.587 -0.0632  0.2213 -0.8965
   69SLPC    HX 5861   6.016   4.304  10.628 -0.1559 -0.3443  0.5345
   69SLPC    HY 5862   5.873   4.190  10.635 -0.0596 -0.0700 -1.0222
   69SLPC   O31 5863   5.948   4.228  10.451 -0.0370 -0.3561 -0.0283
   69SLPC   C31 5864   5.852   4.156  10.400 -0.4036 -0.1700 -0.3695
   69SLPC   O32 5865   5.792   4.072  10.459  0.2175  0.1801 -0.0118
   69SLPC   C32 5866   5.844   4.187  10.253 -0.5554  0.5211 -0.8829
   69SLPC   H2X 5867   5.752   4.137  10.216 -0.0470 -1.5694  0.4886
   69SLPC   H2Y 5868   5.926   4.139  10.196  0.7747  0.7501  0.7464
   69SLPC   C23 5869   6.335   4.191  10.216  0.1038 -0.8181 -0.1894
   69SLPC   H3R 5870   6.413   4.264  10.185  1.3752 -1.0751  2.1936
   69SLPC   H3S 5871   6.233   4.223  10.185 -0.5262 -2.7924 -0.3357
   69SLPC   C24 5872   6.369   4.061  10.139  0.1744 -0.4809  0.0458
   69SLPC   H4R 5873   6.291   3.987  10.165 -0.3063  0.5155  1.6496
   69SLPC   H4S 5874   6.462   4.016  10.179  1.1617  1.7502  0.4397
   69SLPC   C25 5875   6.369   4.074   9.985 -0.0690  0.2762  0.0939
   69SLPC   H5R 5876   6.430   4.154   9.939 -0.2812  0.5192  0.2358
   69SLPC   H5S 5877   6.265   4.075   9.946 -0.1351  0.0631  0.2601
   69SLPC   C26 5878   6.433   3.941   9.932  0.7417 -0.6649  0.7595
   69SLPC   H6R 5879   6.381   3.855   9.980  1.6353  1.4662  6.2594
   69SLPC   H6S 5880   6.540   3.945   9.962  0.2075  0.1739  2.6520
   69SLPC   C27 5881   6.429   3.917   9.782  0.7893 -0.4625  0.9592
   69SLPC   H7R 5882   6.420   4.014   9.729  0.2740  0.1625  2.1548
   69SLPC   H7S 5883   6.336   3.856   9.777 -0.5939  1.1357  4.3643
   69SLPC   C28 5884   6.546   3.840   9.734  0.1460  0.7036 -0.2622
   69SLPC   H8R 5885   6.540   3.735   9.770  2.1106 -0.1768 -2.2443
   69SLPC   H8S 5886   6.643   3.871   9.778  0.4099 -0.8367  0.2797
   69SLPC   C29 5887   6.556   3.841   9.585 -0.0682  0.0396  0.1970
   69SLPC   H9R 5888   6.613   3.929   9.553  1.0035 -0.4799  0.6429
   69SLPC  C210 5889   6.502   3.753   9.499 -0.4666 -0.4182  0.5168
   69SLPC  H10R 5890   6.507   3.774   9.391  2.2955  0.6188  0.7740
   69SLPC  C211 5891   6.412   3.636   9.530  0.0741 -0.2290  0.4309
   69SLPC  H11R 5892   6.322   3.629   9.465  0.3869 -1.7557  0.1325
   69SLPC  H11S 5893   6.372   3.640   9.634 -1.0339 -0.6788  0.0430
   69SLPC  C212 5894   6.483   3.508   9.509  0.1361 -0.4787 -0.1425
   69SLPC  H12R 5895   6.530   3.492   9.411  0.2011 -2.6907  0.1857
   69SLPC  C213 5896   6.485   3.400   9.585 -0.5003  0.4890 -0.1970
   69SLPC  H13R 5897   6.537   3.310   9.550 -2.0063 -0.8023  0.8031
   69SLPC  C214 5898   6.409   3.377   9.713  0.5126 -0.8299 -0.4038
   69SLPC  H14R 5899   6.351   3.282   9.716 -0.0168 -0.4969  0.2373
   69SLPC  H14S 5900   6.337   3.459   9.732  0.7787 -0.5304 -0.6893
   69SLPC  C215 5901   6.513   3.367   9.822 -0.7819  0.4377 -0.1599
   69SLPC  H15R 5902   6.581   3.454   9.834 -1.1003  0.3393  3.7348
   69SLPC  H15S 5903   6.577   3.278   9.804 -1.9233 -0.7744  1.4573
   69SLPC  C216 5904   6.451   3.354   9.959 -0.2355  0.2627 -0.7910
   69SLPC  H16R 5905   6.520   3.301  10.028  0.4227 -2.0509 -3.0639
   69SLPC  H16S 5906   6.357   3.295   9.952 -1.1896  1.7440 -1.0058
   69SLPC  C217 5907   6.422   3.493  10.017  0.0507  0.1143  0.1312
   69SLPC  H17R 5908   6.355   3.547   9.946  2.5698  1.4484 -1.3976
   69SLPC  H17S 5909   6.513   3.556  10.032  0.1493 -0.0660  0.2890
   69SLPC  C218 5910   6.353   3.475  10.155  0.1351 -0.6857  0.2802
   69SLPC  H18R 5911   6.258   3.417  10.150  0.5829 -1.4277  0.3501
   69SLPC  H18S 5912   6.326   3.580  10.180  2.4497  0.2109 -0.7323
   69SLPC  H18T 5913   6.420   3.438  10.235  0.8759  0.6246  0.2902
   69SLPC   C33 5914   5.851   4.340  10.220 -0.4271 -1.3349  0.2757
   69SLPC   H3X 5915   5.945   4.379  10.263 -1.2007 -1.8782  2.6385
   69SLPC   H3Y 5916   5.765   4.395  10.264  0.1889  0.5499 -0.7705
   69SLPC   C34 5917   5.839   4.368  10.070  0.1441 -0.0192  0.3202
   69SLPC   H4X 5918   5.898   4.283  10.029  1.4533  1.4849 -1.0656
   69SLPC   H4Y 5919   5.885   4.457  10.022 -1.7938  0.0138 -1.6762
   69SLPC   C35 5920   5.693   4.369  10.021 -0.7454 -0.0111 -0.0364
   69SLPC   H5X 5921   5.643   4.466  10.044 -0.1727 -0.1794  2.1784
   69SLPC   H5Y 5922   5.635   4.296  10.081 -0.1662 -0.1537  0.3630
   69SLPC   C36 5923   5.677   4.341   9.867  0.3579 -0.3172  0.4328
   69SLPC   H6X 5924   5.567   4.329   9.853  0.4169 -2.2164  1.3680
   69SLPC   H6Y 5925   5.715   4.238   9.853  2.4312  0.3048  1.0701
   69SLPC   C37 5926   5.731   4.445   9.768 -0.8268  0.0509 -0.4347
   69SLPC   H7X 5927   5.840   4.431   9.785 -0.9322  0.1776  0.4150
   69SLPC   H7Y 5928   5.695   4.550   9.773 -0.1181  0.2742  3.2782
   69SLPC   C38 5929   5.705   4.412   9.622 -0.6407  0.0735  0.1841
   69SLPC   H8X 5930   5.597   4.423   9.600 -0.4186 -0.6722 -1.4563
   69SLPC   H8Y 5931   5.733   4.306   9.602  1.8035  0.9110 -1.3237
   69SLPC   C39 5932   5.791   4.509   9.544 -0.1029  0.5558 -0.1861
   69SLPC   H9X 5933   5.899   4.483   9.550 -1.1361 -4.8642  0.2727
   69SLPC   H9Y 5934   5.785   4.615   9.574  0.3411  0.7284 -0.6774
   69SLPC  C310 5935   5.765   4.495   9.394 -0.3914 -0.1528 -0.2298
   69SLPC  H10X 5936   5.818   4.580   9.346  1.9940 -0.7264  1.2669
   69SLPC  H10Y 5937   5.654   4.500   9.379 -0.3868 -1.8496 -1.1134
   69SLPC  C311 5938   5.816   4.368   9.315  0.0970 -0.2222 -0.5661
   69SLPC  H11X 5939   5.753   4.282   9.347 -0.5176  0.6571  0.6898
   69SLPC  H11Y 5940   5.919   4.350   9.354  0.2844  1.9483  0.0858
   69SLPC  C312 5941   5.809   4.382   9.159 -0.7991 -0.8204 -0.5426
   69SLPC  H12X 5942   5.857   4.290   9.119  0.6514 -0.8690  1.1466
   69SLPC  H12Y 5943   5.890   4.451   9.126 -0.2195 -1.1265  0.1934
   69SLPC  C313 5944   5.678   4.422   9.093 -0.5373  0.3165 -0.2739
   69SLPC  H13X 5945   5.648   4.517   9.144  2.2766  1.8040 -1.1430
   69SLPC  H13Y 5946   5.614   4.332   9.107  1.6077 -2.1840 -4.4960
   69SLPC  C314 5947   5.690   4.456   8.947 -0.0097 -0.2046  0.6278
   69SLPC  H14X 5948   5.722   4.364   8.894 -0.6020  0.7048 -1.4261
   69SLPC  H14Y 5949   5.762   4.540   8.932 -1.0755  0.7255  0.6177
   69SLPC  C315 5950   5.555   4.483   8.884 -0.0637  0.8582 -0.1896
   69SLPC  H15X 5951   5.583   4.468   8.777  1.6239  0.9426  0.2289
   69SLPC  H15Y 5952   5.509   4.585   8.888 -0.3277  0.7789 -0.9410
   69SLPC  C316 5953   5.449   4.378   8.913 -0.4411  0.4112 -0.1592
   69SLPC  H16X 5954   5.400   4.393   9.012 -1.4202 -0.1441 -0.5560
   69SLPC  H16Y 5955   5.499   4.279   8.923 -0.1225  0.5040 -0.7850
   69SLPC  C317 5956   5.344   4.367   8.805  0.0324  0.0977 -0.9507
   69SLPC  H17X 5957   5.391   4.342   8.707  1.7022 -1.0438  0.0731
   69SLPC  H17Y 5958   5.289   4.463   8.799 -1.0944 -0.2843  1.7989
   69SLPC  C318 5959   5.246   4.250   8.829  1.2027 -0.2898 -0.0933
   69SLPC  H18X 5960   5.307   4.162   8.801  2.1973  0.5857 -0.7432
   69SLPC  H18Y 5961   5.157   4.262   8.764  2.4444 -2.9242 -2.4890
   69SLPC  H18Z 5962   5.220   4.259   8.937 -0.2038  0.5984 -0.4690
   70SLPC     N 5963   5.016   6.182  11.181  0.3556 -0.2595 -0.4270
   70SLPC   C13 5964   4.958   6.275  11.287  0.1743 -0.1483  0.4590
   70SLPC  H13A 5965   5.027   6.321  11.356 -0.0219  0.7273  0.0847
   70SLPC  H13B 5966   4.891   6.354  11.253  0.8119  0.8300  1.4123
   70SLPC  H13C 5967   4.892   6.212  11.344  0.3467 -0.4188  0.3607
   70SLPC   C14 5968   4.897   6.105  11.120 -0.4622  0.2700  0.0569
   70SLPC  H14A 5969   4.945   6.041  11.047 -0.3626 -1.1387  1.2913
   70SLPC  H14B 5970   4.841   6.040  11.186  1.4566 -0.5589  0.9397
   70SLPC  H14C 5971   4.833   6.172  11.064 -1.2946 -1.4537 -1.1540
   70SLPC   C15 5972   5.114   6.086  11.248  0.3635 -0.8399  0.1025
   70SLPC  H15A 5973   5.191   6.143  11.299  1.3192 -0.9941 -1.1421
   70SLPC  H15B 5974   5.058   6.037  11.327  0.0548 -1.5703 -0.5535
   70SLPC  H15C 5975   5.160   6.015  11.181  0.2799 -0.6211 -0.1882
   70SLPC   C12 5976   5.093   6.264  11.075 -0.1236  0.0438  0.3769
   70SLPC  H12A 5977   5.147   6.197  11.010 -1.2840 -0.3773 -0.1824
   70SLPC  H12B 5978   5.165   6.331  11.120 -1.6432  2.1781 -0.1629
   70SLPC   C11 5979   5.010   6.364  10.995 -0.1560 -0.4047  0.0484
   70SLPC  H11A 5980   5.076   6.438  10.945 -2.1147  1.1578 -0.3178
   70SLPC  H11B 5981   4.950   6.424  11.067  1.4101 -0.5529  1.5477
   70SLPC     P 5982   4.776   6.352  10.862 -0.0104  0.4224 -0.4209
   70SLPC   O13 5983   4.708   6.249  10.785  0.2031  0.2773 -0.1550
   70SLPC   O14 5984   4.713   6.391  10.990  0.1738  0.0127 -0.1547
   70SLPC   O12 5985   4.924   6.305  10.895  0.4095 -0.1131  0.1249
   70SLPC   O11 5986   4.792   6.476  10.762  0.4718 -0.1317  0.7197
   70SLPC    C1 5987   4.903   6.558  10.746 -0.3702  0.1113 -0.6428
   70SLPC    HA 5988   4.906   6.643  10.818  0.7648 -1.3487  1.1406
   70SLPC    HB 5989   4.987   6.489  10.770 -1.2754 -1.1692 -1.0292
   70SLPC    C2 5990   4.916   6.601  10.603  0.1961 -0.2461  0.0417
   70SLPC    HS 5991   5.002   6.672  10.604 -1.2599  1.6246  0.6949
   70SLPC   O21 5992   4.795   6.671  10.571 -0.3746 -0.1313 -0.1546
   70SLPC   C21 5993   4.795   6.796  10.610  0.4014 -0.0343 -0.3649
   70SLPC   O22 5994   4.889   6.860  10.659  0.2587 -0.2026  0.0532
   70SLPC   C22 5995   4.658   6.851  10.574 -0.4490 -0.4886 -1.3701
   70SLPC   H2R 5996   4.585   6.768  10.561  0.0900 -1.1959 -0.1205
   70SLPC   H2S 5997   4.621   6.908  10.661  2.0484  2.0661 -1.8525
   70SLPC    C3 5998   4.924   6.484  10.504  0.1123  0.6012 -0.5973
   70SLPC    HX 5999   4.846   6.407  10.521  1.7550 -0.6441  1.7873
   70SLPC    HY 6000   5.018   6.435  10.536 -0.2034  1.9736  2.8504
   70SLPC   O31 6001   4.929   6.526  10.367  0.5279 -0.4620 -0.2179
   70SLPC   C31 6002   5.045   6.588  10.330 -0.2426  0.0327 -1.3230
   70SLPC   O32 6003   5.149   6.586  10.398 -0.8623  0.3172 -1.0209
   70SLPC   C32 6004   5.013   6.666  10.205 -0.3354  0.5225 -0.8220
   70SLPC   H2X 6005   5.024   6.775  10.225 -0.3728  0.5203 -0.7873
   70SLPC   H2Y 6006   4.910   6.643  10.170  0.1210 -1.3155 -1.0764
   70SLPC   C23 6007   4.665   6.949  10.460  0.2838 -0.4883 -0.0852
   70SLPC   H3R 6008   4.728   7.040  10.473  0.3982 -0.6995  0.9032
   70SLPC   H3S 6009   4.559   6.976  10.438  0.1077 -0.1273  1.1267
   70SLPC   C24 6010   4.730   6.876  10.339  0.4683 -0.2466 -0.4155
   70SLPC   H4R 6011   4.688   6.776  10.316 -1.9039  0.4939  0.4261
   70SLPC   H4S 6012   4.839   6.858  10.353  0.2695 -0.8334  0.4094
   70SLPC   C25 6013   4.701   6.959  10.216  0.0974 -0.2135  1.1036
   70SLPC   H5R 6014   4.760   7.053  10.219 -0.3856  0.1410 -0.1105
   70SLPC   H5S 6015   4.594   6.986  10.219  0.1962  0.1685  3.2272
   70SLPC   C26 6016   4.749   6.882  10.096 -0.3458 -1.0378  0.5340
   70SLPC   H6R 6017   4.703   6.781  10.096 -1.7139 -0.4428  1.0690
   70SLPC   H6S 6018   4.859   6.872  10.097  0.2302  3.1458  2.5717
   70SLPC   C27 6019   4.706   6.956   9.961  0.1275  0.6466 -0.3732
   70SLPC   H7R 6020   4.736   7.063   9.968  0.9270  0.4547 -0.7316
   70SLPC   H7S 6021   4.596   6.955   9.949  0.1699 -0.5485 -0.8485
   70SLPC   C28 6022   4.757   6.880   9.839 -0.2828 -0.3258  0.5317
   70SLPC   H8R 6023   4.781   6.776   9.868 -1.1414 -0.8460 -0.5148
   70SLPC   H8S 6024   4.851   6.934   9.816 -0.7831  0.4918  0.3581
   70SLPC   C29 6025   4.661   6.867   9.720 -0.4574  0.3666 -0.4115
   70SLPC   H9R 6026   4.571   6.805   9.737  0.4045 -1.0652 -0.9190
   70SLPC  C210 6027   4.679   6.926   9.603  0.2724 -0.2596  0.2538
   70SLPC  H10R 6028   4.615   6.884   9.525 -0.2432 -0.0841  0.5747
   70SLPC  C211 6029   4.790   7.021   9.550 -0.1406 -0.3850 -0.5699
   70SLPC  H11R 6030   4.834   7.060   9.644 -1.7087 -0.5836  0.2790
   70SLPC  H11S 6031   4.759   7.108   9.489  2.9333 -0.4531 -2.4410
   70SLPC  C212 6032   4.885   6.934   9.473 -0.9728 -0.1970 -0.8399
   70SLPC  H12R 6033   4.889   6.827   9.497  0.2783  0.3331  1.5753
   70SLPC  C213 6034   4.977   6.983   9.387 -0.9525 -0.2203  1.0321
   70SLPC  H13R 6035   5.061   6.925   9.346 -0.3743  1.4761 -0.2690
   70SLPC  C214 6036   5.006   7.129   9.358  0.4332  0.0116 -0.6370
   70SLPC  H14R 6037   4.995   7.180   9.457  2.0328 -0.1866 -0.3400
   70SLPC  H14S 6038   4.946   7.185   9.283 -0.3965 -0.1830 -0.1382
   70SLPC  C215 6039   5.151   7.158   9.310 -0.4111  0.5729  0.0404
   70SLPC  H15R 6040   5.222   7.109   9.379 -2.3224  0.4844  2.0493
   70SLPC  H15S 6041   5.160   7.268   9.301 -0.2477  0.5559 -0.0006
   70SLPC  C216 6042   5.167   7.100   9.164 -0.3990  0.7633 -0.1363
   70SLPC  H16R 6043   5.094   7.133   9.088  2.1635 -0.5458 -3.4499
   70SLPC  H16S 6044   5.155   6.990   9.180 -2.3830  0.9438 -0.2362
   70SLPC  C217 6045   5.313   7.131   9.112  0.3965  0.2584 -0.1317
   70SLPC  H17R 6046   5.387   7.057   9.148 -0.9078 -1.0374 -0.0208
   70SLPC  H17S 6047   5.351   7.228   9.151  0.9516  0.3133 -0.7905
   70SLPC  C218 6048   5.319   7.137   8.959  0.2098  0.0813 -0.5706
   70SLPC  H18R 6049   5.272   7.227   8.913  1.0385  0.0001 -1.6263
   70SLPC  H18S 6050   5.272   7.043   8.923 -0.3249 -0.5275  1.5931
   70SLPC  H18T 6051   5.425   7.134   8.926  0.7301  0.1967  0.9929
   70SLPC   C33 6052   5.117   6.635  10.094 -0.3004  0.5812  0.5405
   70SLPC   H3X 6053   5.123   6.524  10.089  0.6040  0.6797 -2.7005
   70SLPC   H3Y 6054   5.223   6.660  10.115 -0.7017  0.4879  3.1108
   70SLPC   C34 6055   5.071   6.686   9.962  0.0492 -1.2744  0.1414
   70SLPC   H4X 6056   5.056   6.795   9.954  0.5862 -1.2006  0.1193
   70SLPC   H4Y 6057   4.970   6.649   9.936 -0.7206  0.9983 -0.3274
   70SLPC   C35 6058   5.161   6.641   9.846 -0.1766  0.4234  0.0480
   70SLPC   H5X 6059   5.189   6.533   9.852  1.0507  0.7820  1.3296
   70SLPC   H5Y 6060   5.260   6.687   9.863 -0.3184  0.4644  0.7711
   70SLPC   C36 6061   5.107   6.675   9.713 -0.2151 -0.2884  0.2832
   70SLPC   H6X 6062   5.088   6.783   9.694 -1.7575 -0.1885  2.0257
   70SLPC   H6Y 6063   5.004   6.634   9.699 -0.4475  1.1396 -3.5316
   70SLPC   C37 6064   5.199   6.622   9.599 -0.2289 -0.1877 -0.5019
   70SLPC   H7X 6065   5.195   6.511   9.600 -1.4460 -0.1568 -1.0884
   70SLPC   H7Y 6066   5.295   6.661   9.640 -0.4368  0.1349 -0.3152
   70SLPC   C38 6067   5.167   6.682   9.459 -0.2909 -0.3569  0.1075
   70SLPC   H8X 6068   5.168   6.790   9.485  1.5397 -0.8364  2.3453
   70SLPC   H8Y 6069   5.062   6.666   9.426 -0.7901  4.0063 -0.9641
   70SLPC   C39 6070   5.273   6.635   9.356 -0.2058  0.2191  0.4050
   70SLPC   H9X 6071   5.237   6.537   9.321  0.7202 -0.0946  0.3022
   70SLPC   H9Y 6072   5.374   6.639   9.402  0.5798  2.3203 -1.2946
   70SLPC  C310 6073   5.284   6.721   9.230 -0.1329  0.0158  0.5637
   70SLPC  H10X 6074   5.322   6.823   9.250  0.2724 -0.1177  0.4783
   70SLPC  H10Y 6075   5.182   6.737   9.189  0.2592 -2.0687 -1.4479
   70SLPC  C311 6076   5.366   6.657   9.121  0.3545 -0.0339 -0.1062
   70SLPC  H11X 6077   5.339   6.549   9.114  1.0538 -0.2017 -0.2953
   70SLPC  H11Y 6078   5.474   6.658   9.145  0.1249 -2.1310  1.2038
   70SLPC  C312 6079   5.329   6.731   8.988 -0.0670 -0.4452  0.3546
   70SLPC  H12X 6080   5.337   6.840   9.006  0.6055 -0.2492 -1.0168
   70SLPC  H12Y 6081   5.227   6.716   8.947  0.8758 -0.2586 -2.1984
   70SLPC  C313 6082   5.439   6.703   8.883 -0.7914  0.3731 -0.0045
   70SLPC  H13X 6083   5.449   6.596   8.852 -3.6103  0.2524 -0.7762
   70SLPC  H13Y 6084   5.540   6.737   8.913 -0.7269  0.1672  0.0145
   70SLPC  C314 6085   5.406   6.787   8.752 -0.0376 -0.3008  0.4217
   70SLPC  H14X 6086   5.349   6.879   8.780  0.4419 -0.3312  1.5646
   70SLPC  H14Y 6087   5.337   6.733   8.684  0.4354  1.7703 -1.8297
   70SLPC  C315 6088   5.531   6.825   8.674  0.8609  0.5196  0.1182
   70SLPC  H15X 6089   5.576   6.734   8.629  0.0812  0.1290  0.1050
   70SLPC  H15Y 6090   5.612   6.859   8.742  0.0539  0.1580  1.2952
   70SLPC  C316 6091   5.510   6.918   8.561  0.4038 -0.1298  0.4491
   70SLPC  H16X 6092   5.414   6.900   8.507  1.5310  0.4199 -1.8638
   70SLPC  H16Y 6093   5.586   6.913   8.480 -0.3666  5.2356 -0.9818
   70SLPC  C317 6094   5.521   7.070   8.593  0.0486  0.6319  0.5373
   70SLPC  H17X 6095   5.584   7.089   8.683  2.4674 -2.3378 -0.3868
   70SLPC  H17Y 6096   5.419   7.107   8.618  0.1169  0.8377  0.5142
   70SLPC  C318 6097   5.586   7.154   8.478 -0.3072 -0.8012 -0.0214
   70SLPC  H18X 6098   5.537   7.138   8.380 -1.3534  0.6028  0.2329
   70SLPC  H18Y 6099   5.697   7.148   8.478  0.0504  2.8327  1.9061
   70SLPC  H18Z 6100   5.557   7.257   8.508 -0.8698 -1.4299  1.7824
   71SLPC     N 6101   4.583   5.442  10.926  0.0760 -0.2012  0.3928
   71SLPC   C13 6102   4.563   5.566  10.998 -0.5949  0.2100 -0.0046
   71SLPC  H13A 6103   4.556   5.647  10.928  1.1779  0.2021 -0.2377
   71SLPC  H13B 6104   4.478   5.569  11.064 -2.0079 -1.4701 -1.6592
   71SLPC  H13C 6105   4.643   5.585  11.069  0.2290  1.0927 -1.1327
   71SLPC   C14 6106   4.449   5.407  10.876  0.5697  0.0211  0.4531
   71SLPC  H14A 6107   4.414   5.491  10.818  3.7364  1.3016  0.1913
   71SLPC  H14B 6108   4.464   5.320  10.813  0.4730  0.3229  0.0104
   71SLPC  H14C 6109   4.374   5.386  10.951  0.6145  0.2704  0.5675
   71SLPC   C15 6110   4.633   5.333  11.017  0.0550  0.2492  0.0994
   71SLPC  H15A 6111   4.717   5.362  11.079 -0.2152 -2.0473  1.6505
   71SLPC  H15B 6112   4.566   5.304  11.097  1.1058  0.5637  1.1267
   71SLPC  H15C 6113   4.659   5.245  10.961 -0.5924 -0.7172  1.2904
   71SLPC   C12 6114   4.687   5.457  10.805 -0.2886  0.7211  0.4015
   71SLPC  H12A 6115   4.719   5.358  10.776 -1.0984  0.8064 -0.8932
   71SLPC  H12B 6116   4.774   5.509  10.842  0.4126 -0.3166  0.2528
   71SLPC   C11 6117   4.645   5.519  10.672  0.5396  0.3711  0.1220
   71SLPC  H11A 6118   4.562   5.455  10.634  0.6169  0.6168 -0.4777
   71SLPC  H11B 6119   4.732   5.503  10.603  1.1657  0.0820  0.9620
   71SLPC     P 6120   4.705   5.779  10.667  0.2600 -0.5252  0.2490
   71SLPC   O13 6121   4.618   5.887  10.618 -0.4499  0.0818 -0.0577
   71SLPC   O14 6122   4.785   5.815  10.782 -0.1330  0.2755 -0.6476
   71SLPC   O12 6123   4.603   5.658  10.694  0.3850  0.5641 -0.7160
   71SLPC   O11 6124   4.790   5.729  10.539  0.6538  0.1340 -0.4804
   71SLPC    C1 6125   4.745   5.757  10.404  0.1009 -0.3611  0.1424
   71SLPC    HA 6126   4.715   5.863  10.392 -1.1664 -0.4398  2.2007
   71SLPC    HB 6127   4.826   5.726  10.335  0.6206  0.5364  0.3348
   71SLPC    C2 6128   4.624   5.672  10.349 -0.4483  1.5955  0.0925
   71SLPC    HS 6129   4.542   5.673  10.423  0.4774 -2.1044  1.3783
   71SLPC   O21 6130   4.681   5.538  10.334 -0.3793  0.3809 -0.1323
   71SLPC   C21 6131   4.584   5.442  10.351 -0.1444  1.0461  0.0234
   71SLPC   O22 6132   4.466   5.462  10.373  0.0094 -0.6707 -0.0670
   71SLPC   C22 6133   4.652   5.305  10.324  0.9473  0.4886 -0.4314
   71SLPC   H2R 6134   4.759   5.329  10.305  0.8609  1.4204  0.2313
   71SLPC   H2S 6135   4.644   5.235  10.410  0.8995 -0.5047 -1.2317
   71SLPC    C3 6136   4.573   5.725  10.217 -0.3875  0.0141  0.3632
   71SLPC    HX 6137   4.513   5.818  10.231 -1.5530 -1.0073  2.6731
   71SLPC    HY 6138   4.500   5.658  10.167  0.1339 -3.2606  3.5993
   71SLPC   O31 6139   4.680   5.750  10.117  0.3268 -0.0912 -0.0475
   71SLPC   C31 6140   4.632   5.778   9.993  0.2909  0.2979  0.0565
   71SLPC   O32 6141   4.513   5.778   9.962  0.3867 -0.3134 -0.1113
   71SLPC   C32 6142   4.751   5.803   9.900  0.4841 -0.2915 -0.0500
   71SLPC   H2X 6143   4.843   5.760   9.945 -0.3765  1.4243  3.7392
   71SLPC   H2Y 6144   4.747   5.913   9.886  0.2552 -0.2989 -0.0470
   71SLPC   C23 6145   4.589   5.242  10.190 -0.1738  0.3332  0.1409
   71SLPC   H3R 6146   4.478   5.243  10.186 -0.1651 -0.5668 -1.1211
   71SLPC   H3S 6147   4.618   5.135  10.196 -0.6408  0.2091  0.2290
   71SLPC   C24 6148   4.645   5.318  10.067  0.3900  1.0738 -0.2857
   71SLPC   H4R 6149   4.754   5.301  10.056  0.4248  1.0561  0.1003
   71SLPC   H4S 6150   4.628   5.428  10.072 -0.7901  0.8509  1.6365
   71SLPC   C25 6151   4.586   5.244   9.947 -0.0403  0.9244  0.5568
   71SLPC   H5R 6152   4.475   5.248   9.958 -0.0132  1.3734  0.6850
   71SLPC   H5S 6153   4.619   5.138   9.948  2.3032  1.5813 -0.2259
   71SLPC   C26 6154   4.641   5.300   9.813 -0.3895 -0.1461 -0.5659
   71SLPC   H6R 6155   4.745   5.261   9.810 -0.7192 -1.5896  2.6564
   71SLPC   H6S 6156   4.636   5.411   9.813  0.7808 -0.0356 -2.8740
   71SLPC   C27 6157   4.565   5.228   9.697  0.2725 -0.2422  0.6771
   71SLPC   H7R 6158   4.458   5.257   9.693  0.0708 -0.1453  4.0051
   71SLPC   H7S 6159   4.583   5.121   9.724  0.9683 -0.0416  1.0366
   71SLPC   C28 6160   4.630   5.254   9.564 -0.3872  0.1663  0.7464
   71SLPC   H8R 6161   4.591   5.180   9.490 -1.9455  0.3954  1.3130
   71SLPC   H8S 6162   4.735   5.220   9.577 -0.4943  0.0217  1.2671
   71SLPC   C29 6163   4.618   5.387   9.496  0.5591 -0.2066 -0.2441
   71SLPC   H9R 6164   4.597   5.470   9.565 -0.3117  1.0084 -1.8966
   71SLPC  C210 6165   4.646   5.432   9.370  0.0187  0.0146  0.1412
   71SLPC  H10R 6166   4.615   5.534   9.343 -1.9996 -0.9004 -1.2675
   71SLPC  C211 6167   4.692   5.344   9.261 -0.0505 -0.0304  0.4571
   71SLPC  H11R 6168   4.688   5.237   9.289 -1.4287 -0.5403 -1.4782
   71SLPC  H11S 6169   4.796   5.381   9.246  0.5935 -1.5376  1.0233
   71SLPC  C212 6170   4.611   5.370   9.138 -0.3242  0.5832 -0.0763
   71SLPC  H12R 6171   4.524   5.305   9.120  1.6905 -2.1928 -0.4343
   71SLPC  C213 6172   4.649   5.443   9.028  0.1349  0.2435 -0.2874
   71SLPC  H13R 6173   4.585   5.427   8.939 -3.0051  2.3036  1.4217
   71SLPC  C214 6174   4.782   5.516   9.005  0.4689 -0.4935  0.1880
   71SLPC  H14R 6175   4.843   5.531   9.097 -0.3433  0.5710  0.5818
   71SLPC  H14S 6176   4.768   5.619   8.965  0.1511 -1.0706 -1.2327
   71SLPC  C215 6177   4.860   5.440   8.894  0.6555 -0.4166 -0.1189
   71SLPC  H15R 6178   4.938   5.504   8.848 -0.8057  1.0480 -0.6760
   71SLPC  H15S 6179   4.795   5.405   8.810  0.4164  1.1640 -0.6162
   71SLPC  C216 6180   4.919   5.308   8.949 -0.8331 -0.1612  0.2493
   71SLPC  H16R 6181   4.850   5.233   8.992  1.1348 -1.9254  0.4677
   71SLPC  H16S 6182   4.977   5.342   9.038  0.4353  0.6260 -0.8331
   71SLPC  C217 6183   5.014   5.247   8.838  0.4395 -0.3328  0.1718
   71SLPC  H17R 6184   5.065   5.157   8.879  1.4273  0.6671  1.1757
   71SLPC  H17S 6185   5.093   5.319   8.809  0.0964  1.2247  2.8871
   71SLPC  C218 6186   4.926   5.202   8.724 -0.0102  0.4141  1.0355
   71SLPC  H18R 6187   4.995   5.153   8.652  0.1986 -1.1704  2.2309
   71SLPC  H18S 6188   4.875   5.285   8.671  1.2759  0.9411  0.6031
   71SLPC  H18T 6189   4.848   5.126   8.748 -0.9380 -0.2464 -3.2395
   71SLPC   C33 6190   4.724   5.754   9.757  0.1805  0.1079 -0.0789
   71SLPC   H3X 6191   4.620   5.770   9.723  0.4345  0.2580 -0.7893
   71SLPC   H3Y 6192   4.735   5.644   9.746 -0.0763  0.0777 -0.0436
   71SLPC   C34 6193   4.825   5.821   9.656  0.4270  0.5589 -0.6436
   71SLPC   H4X 6194   4.932   5.798   9.672  0.3213 -1.6759 -2.6567
   71SLPC   H4Y 6195   4.811   5.932   9.662 -1.7369  0.4449 -2.3050
   71SLPC   C35 6196   4.782   5.789   9.519 -0.3465  0.0607  1.9708
   71SLPC   H5X 6197   4.677   5.811   9.490 -0.5543 -1.8563  1.1672
   71SLPC   H5Y 6198   4.797   5.680   9.507 -1.9880 -0.0328  0.2885
   71SLPC   C36 6199   4.874   5.855   9.411  0.0478 -0.0247  0.2831
   71SLPC   H6X 6200   4.980   5.827   9.429  1.4767  3.4676 -1.7186
   71SLPC   H6Y 6201   4.873   5.966   9.412  2.2343  0.0288  0.9595
   71SLPC   C37 6202   4.849   5.816   9.267  0.3248  0.2700  0.0809
   71SLPC   H7X 6203   4.748   5.844   9.231  0.3041  0.8734  0.5959
   71SLPC   H7Y 6204   4.862   5.708   9.243  0.8308  0.7630 -1.9879
   71SLPC   C38 6205   4.944   5.887   9.163 -0.6236  0.0292 -0.8660
   71SLPC   H8X 6206   4.946   5.837   9.064  0.5025  1.3553 -1.5508
   71SLPC   H8Y 6207   5.053   5.890   9.187 -0.7742 -1.4616  0.1297
   71SLPC   C39 6208   4.899   6.034   9.138 -0.2483  0.1580  0.0841
   71SLPC   H9X 6209   4.921   6.100   9.224  0.6020 -0.5141  0.3949
   71SLPC   H9Y 6210   4.790   6.054   9.131 -0.4707  0.1739  2.6599
   71SLPC  C310 6211   4.975   6.101   9.015  0.5696 -0.1790 -0.3427
   71SLPC  H10X 6212   5.049   6.030   8.973  0.5557  0.5585 -1.6952
   71SLPC  H10Y 6213   5.039   6.184   9.053  1.1320 -0.5364 -0.4933
   71SLPC  C311 6214   4.888   6.144   8.893  0.1495 -0.8562 -0.0059
   71SLPC  H11X 6215   4.795   6.195   8.925 -0.9349 -2.5960 -0.2442
   71SLPC  H11Y 6216   4.870   6.051   8.835  1.4727 -1.0307 -0.1846
   71SLPC  C312 6217   4.971   6.251   8.812  0.6874  0.0531 -0.1056
   71SLPC  H12X 6218   5.066   6.200   8.786  2.2545  0.4935  3.9969
   71SLPC  H12Y 6219   5.000   6.334   8.880 -1.7776  0.2874  0.7606
   71SLPC  C313 6220   4.902   6.304   8.687 -0.0274 -0.1434 -0.0998
   71SLPC  H13X 6221   4.819   6.367   8.725 -1.0383 -0.8502 -1.0669
   71SLPC  H13Y 6222   4.863   6.213   8.636 -1.6086  0.1862  0.4809
   71SLPC  C314 6223   4.993   6.359   8.577  0.4279 -0.7560 -0.6030
   71SLPC  H14X 6224   4.930   6.413   8.502 -0.1845 -0.2699  0.2491
   71SLPC  H14Y 6225   5.044   6.267   8.540  1.0087 -1.3029  1.4297
   71SLPC  C315 6226   5.094   6.467   8.632 -0.0750  1.2613  0.0067
   71SLPC  H15X 6227   5.183   6.424   8.682 -0.9600  0.5869  1.0399
   71SLPC  H15Y 6228   5.053   6.543   8.701  4.4379  3.7025  0.3355
   71SLPC  C316 6229   5.162   6.547   8.514 -0.2445  0.2005  0.0990
   71SLPC  H16X 6230   5.208   6.640   8.556 -1.3138  0.5662  0.4924
   71SLPC  H16Y 6231   5.085   6.588   8.446  0.2854  2.1848  0.6134
   71SLPC  C317 6232   5.279   6.478   8.448  0.6863  0.4683 -0.4794
   71SLPC  H17X 6233   5.253   6.380   8.401  0.9938 -0.0289  0.3680
   71SLPC  H17Y 6234   5.349   6.439   8.525 -0.7649 -1.6928 -0.1513
   71SLPC  C318 6235   5.351   6.562   8.338 -0.1328  0.5421  0.1416
   71SLPC  H18X 6236   5.332   6.537   8.232  3.0434 -1.1918 -0.1326
   71SLPC  H18Y 6237   5.459   6.567   8.363 -0.5613  3.1602  1.8328
   71SLPC  H18Z 6238   5.315   6.667   8.336  1.0471  0.9514 -0.0140
   72SLPC     N 6239   2.079   5.954  11.003  0.8546 -0.2026  0.2373
   72SLPC   C13 6240   2.102   5.847  11.099  0.0091 -0.4024  0.2887
   72SLPC  H13A 6241   2.201   5.804  11.091  0.6074  0.8804  0.4783
   72SLPC  H13B 6242   2.087   5.880  11.201 -1.1923 -1.7528  0.5839
   72SLPC  H13C 6243   2.031   5.772  11.070 -1.1278  1.6225 -2.5842
   72SLPC   C14 6244   2.148   6.076  11.054  0.3390 -0.6685  0.5884
   72SLPC  H14A 6245   2.244   6.049  11.096  0.2984  0.4212  1.4236
   72SLPC  H14B 6246   2.152   6.163  10.991  1.2226  0.0102  1.5539
   72SLPC  H14C 6247   2.080   6.108  11.132  1.5701  1.9374  0.6874
   72SLPC   C15 6248   1.936   5.984  11.001  0.6183  0.2963 -0.2162
   72SLPC  H15A 6249   1.882   5.895  10.972  2.3413 -0.9865  0.3409
   72SLPC  H15B 6250   1.893   6.015  11.095  0.6684  0.7149 -0.3297
   72SLPC  H15C 6251   1.903   6.051  10.923  1.7557 -0.5123 -1.4113
   72SLPC   C12 6252   2.133   5.927  10.861  0.2429 -0.1214 -0.1295
   72SLPC  H12A 6253   2.237   5.898  10.871  0.0930 -1.1145 -1.1518
   72SLPC  H12B 6254   2.132   6.010  10.793  0.3838 -1.6641 -2.1142
   72SLPC   C11 6255   2.057   5.815  10.788 -0.2762 -0.3482 -0.0899
   72SLPC  H11A 6256   2.038   5.734  10.861  0.3746 -0.2986  0.1329
   72SLPC  H11B 6257   2.115   5.764  10.708  2.4998 -0.0182  1.5838
   72SLPC     P 6258   1.912   5.925  10.605  0.0388  0.0414  0.3468
   72SLPC   O13 6259   1.911   5.826  10.485  0.6788  0.1947  0.0840
   72SLPC   O14 6260   1.803   6.019  10.624 -0.0149  0.3921 -0.0501
   72SLPC   O12 6261   1.927   5.850  10.743  0.0930 -0.1936  0.0620
   72SLPC   O11 6262   2.037   6.015  10.596 -0.1780 -0.2859  0.0934
   72SLPC    C1 6263   2.164   5.988  10.529  0.2461 -0.1069  0.2001
   72SLPC    HA 6264   2.245   6.041  10.584 -1.6945  1.8230  1.3449
   72SLPC    HB 6265   2.180   5.879  10.516 -1.2026 -0.4927  1.3322
   72SLPC    C2 6266   2.172   6.046  10.385  0.1126 -0.4270 -0.3395
   72SLPC    HS 6267   2.281   6.040  10.366  0.1932 -0.3514  0.0875
   72SLPC   O21 6268   2.105   6.173  10.359 -0.0152 -0.5410 -0.2825
   72SLPC   C21 6269   2.143   6.268  10.450  0.0014  0.0928  0.8494
   72SLPC   O22 6270   2.226   6.261  10.535 -0.4253  0.1120  0.0364
   72SLPC   C22 6271   2.043   6.381  10.446  0.4677  0.4298 -0.6518
   72SLPC   H2R 6272   1.943   6.333  10.443  0.0344  1.0096  1.8489
   72SLPC   H2S 6273   2.057   6.420  10.549  0.4074 -2.4859  0.5323
   72SLPC    C3 6274   2.118   5.937  10.292  0.5097  0.0023  0.5394
   72SLPC    HX 6275   2.009   5.917  10.305  0.6591 -0.9489  0.4082
   72SLPC    HY 6276   2.165   5.839  10.314 -3.3915 -2.1748  0.2199
   72SLPC   O31 6277   2.157   5.979  10.160  0.2326  0.5198 -0.2688
   72SLPC   C31 6278   2.087   5.922  10.064  0.0249  0.3755  0.3486
   72SLPC   O32 6279   1.999   5.841  10.079  0.0307  0.3430 -0.3487
   72SLPC   C32 6280   2.128   5.985   9.920  0.7142  0.8682 -0.8400
   72SLPC   H2X 6281   2.237   6.007   9.922  0.6363  1.2746  0.9856
   72SLPC   H2Y 6282   2.067   6.079   9.920 -0.2837  0.3286  2.2647
   72SLPC   C23 6283   2.051   6.480  10.328  0.0388 -0.0054 -0.0315
   72SLPC   H3R 6284   2.143   6.543  10.326 -1.2448  1.9376 -1.0271
   72SLPC   H3S 6285   1.972   6.555  10.350  0.2244 -0.2451  1.5403
   72SLPC   C24 6286   2.027   6.415  10.191  0.2275  0.4885 -0.3263
   72SLPC   H4R 6287   1.933   6.356  10.194  0.2222  0.4690 -0.7976
   72SLPC   H4S 6288   2.109   6.343  10.168 -0.0618 -0.0172  0.1950
   72SLPC   C25 6289   2.026   6.522  10.085 -0.3477  0.0948  0.0107
   72SLPC   H5R 6290   2.116   6.587  10.089 -0.8467  0.7582  0.4733
   72SLPC   H5S 6291   1.942   6.586  10.119 -2.3345 -1.6556 -1.3684
   72SLPC   C26 6292   2.001   6.472   9.937  0.1987  0.4488  0.3929
   72SLPC   H6R 6293   1.904   6.419   9.939  2.1081 -3.4779 -1.3062
   72SLPC   H6S 6294   2.089   6.408   9.914  2.0254  2.5732  1.0589
   72SLPC   C27 6295   1.988   6.586   9.836  0.2551  0.1398 -0.0639
   72SLPC   H7R 6296   2.080   6.649   9.829  1.2183 -1.1744  0.3569
   72SLPC   H7S 6297   1.906   6.652   9.871  0.4382  2.2245 -3.1988
   72SLPC   C28 6298   1.939   6.534   9.693  0.4696  0.4246  0.4300
   72SLPC   H8R 6299   1.907   6.612   9.621 -0.4012  0.7032  1.1000
   72SLPC   H8S 6300   1.848   6.478   9.725  0.9080 -1.8222 -1.8914
   72SLPC   C29 6301   2.045   6.459   9.614 -0.4101  0.0715  0.5090
   72SLPC   H9R 6302   2.136   6.450   9.677 -0.9386 -1.4301  1.1104
   72SLPC  C210 6303   2.053   6.439   9.478  0.1328  1.1856 -0.1627
   72SLPC  H10R 6304   2.143   6.393   9.435 -0.5490  0.3564 -0.7419
   72SLPC  C211 6305   1.942   6.475   9.391  0.1329 -0.1058 -0.0665
   72SLPC  H11R 6306   1.933   6.586   9.392  1.1395  0.2680  6.0440
   72SLPC  H11S 6307   1.841   6.442   9.424 -1.2711  1.0344 -2.9084
   72SLPC  C212 6308   1.981   6.422   9.254  0.5753  0.2470 -0.6465
   72SLPC  H12R 6309   1.945   6.319   9.240  0.4704  0.2501 -0.3909
   72SLPC  C213 6310   2.043   6.479   9.153  0.0829  0.6169 -0.6359
   72SLPC  H13R 6311   2.048   6.425   9.057 -2.0607  1.3535 -1.2104
   72SLPC  C214 6312   2.104   6.623   9.151 -0.2151  0.7430 -0.2742
   72SLPC  H14R 6313   2.183   6.633   9.229  0.1154 -0.6746 -0.4059
   72SLPC  H14S 6314   2.018   6.692   9.166 -0.9702 -0.0547 -0.8273
   72SLPC  C215 6315   2.162   6.663   9.018 -0.1848 -0.0042  0.1102
   72SLPC  H15R 6316   2.241   6.598   8.975 -0.7553 -1.6557  1.4423
   72SLPC  H15S 6317   2.196   6.768   9.032  0.1369 -0.1398  0.3467
   72SLPC  C216 6318   2.058   6.675   8.899 -0.4113  0.3376 -1.0069
   72SLPC  H16R 6319   1.998   6.582   8.887  1.5756 -1.0554 -0.6891
   72SLPC  H16S 6320   2.114   6.689   8.804 -1.6473 -2.4145 -2.2397
   72SLPC  C217 6321   1.959   6.784   8.916  0.5017 -0.2920  0.1502
   72SLPC  H17R 6322   2.018   6.878   8.909  0.6567 -0.5074 -2.3296
   72SLPC  H17S 6323   1.896   6.776   9.007 -0.5187 -0.1196 -0.5262
   72SLPC  C218 6324   1.857   6.792   8.796 -0.2811  0.3731  0.0990
   72SLPC  H18R 6325   1.790   6.705   8.781  0.2038  0.2506 -1.5308
   72SLPC  H18S 6326   1.906   6.819   8.700  0.6192 -1.3028  0.0596
   72SLPC  H18T 6327   1.789   6.876   8.824 -2.4368 -1.3618  0.3256
   72SLPC   C33 6328   2.083   5.903   9.795  0.1817 -0.4460 -0.3810
   72SLPC   H3X 6329   1.976   5.874   9.797  0.0613  0.0243  0.1968
   72SLPC   H3Y 6330   2.144   5.810   9.790  1.0212 -0.0632  1.8825
   72SLPC   C34 6331   2.101   5.982   9.665 -0.4028  0.2287 -0.8774
   72SLPC   H4X 6332   2.207   6.001   9.638 -0.5579  0.7562 -1.1315
   72SLPC   H4Y 6333   2.059   6.084   9.668 -0.8297  0.0516 -0.7530
   72SLPC   C35 6334   2.039   5.918   9.539 -0.5962 -0.1558 -0.2343
   72SLPC   H5X 6335   1.928   5.915   9.547 -0.6105  1.8742  0.9011
   72SLPC   H5Y 6336   2.072   5.812   9.536 -0.0641  0.0180 -2.0354
   72SLPC   C36 6337   2.086   5.992   9.414  1.4766  0.1588 -0.1099
   72SLPC   H6X 6338   2.194   5.982   9.392  1.1471  0.8612 -2.2855
   72SLPC   H6Y 6339   2.060   6.099   9.428  0.9351  0.1259 -0.7987
   72SLPC   C37 6340   2.009   5.947   9.298 -0.2286  0.5123  0.2323
   72SLPC   H7X 6341   1.901   5.974   9.301 -1.6569 -4.0408 -1.1657
   72SLPC   H7Y 6342   2.009   5.836   9.302 -0.4732  0.4599 -0.9109
   72SLPC   C38 6343   2.065   6.003   9.166  0.4557  1.1354 -0.6669
   72SLPC   H8X 6344   2.175   6.002   9.176  0.4169 -0.9524 -0.0167
   72SLPC   H8Y 6345   2.041   6.111   9.151 -1.2040  0.9763  0.5021
   72SLPC   C39 6346   2.023   5.924   9.042  0.0039  0.0084 -0.0946
   72SLPC   H9X 6347   1.912   5.935   9.035 -0.2599 -1.5256  1.0699
   72SLPC   H9Y 6348   2.037   5.816   9.063 -0.9708 -0.0004  0.5599
   72SLPC  C310 6349   2.081   5.976   8.904  0.3672 -0.1484 -0.2400
   72SLPC  H10X 6350   2.191   5.978   8.914  0.4644 -1.5472 -0.8791
   72SLPC  H10Y 6351   2.041   6.078   8.880 -1.2481 -1.1631 -2.1997
   72SLPC  C311 6352   2.052   5.879   8.782  0.0670 -0.1129 -0.2201
   72SLPC  H11X 6353   1.949   5.898   8.745 -1.1592 -1.4314  2.1958
   72SLPC  H11Y 6354   2.060   5.777   8.826 -0.0075 -0.5911 -1.2920
   72SLPC  C312 6355   2.149   5.900   8.664  1.0986  0.8832  0.4814
   72SLPC  H12X 6356   2.242   5.853   8.702  1.2487 -0.3310 -1.2501
   72SLPC  H12Y 6357   2.163   6.010   8.652  1.5449  0.9246  1.3127
   72SLPC  C313 6358   2.100   5.837   8.534 -0.2553 -0.5188  0.1712
   72SLPC  H13X 6359   2.092   5.728   8.553  1.6013 -1.2391 -2.5549
   72SLPC  H13Y 6360   2.177   5.851   8.456 -1.6206  0.0015 -1.1391
   72SLPC  C314 6361   1.971   5.888   8.484  0.5911  0.3951  0.0067
   72SLPC  H14X 6362   1.970   5.999   8.483 -0.4330  0.3933 -0.7288
   72SLPC  H14Y 6363   1.892   5.846   8.550  1.4467  2.2277  2.3517
   72SLPC  C315 6364   1.947   5.839   8.344  0.8609 -0.1653  0.1488
   72SLPC  H15X 6365   1.974   5.731   8.342 -1.5229 -0.8539  1.6216
   72SLPC  H15Y 6366   2.009   5.904   8.278  0.7498  0.4283  0.6253
   72SLPC  C316 6367   1.804   5.842   8.301 -1.2613 -0.0832  0.9855
   72SLPC  H16X 6368   1.775   5.948   8.283 -2.5559 -0.4399  0.8209
   72SLPC  H16Y 6369   1.744   5.810   8.389  1.0299 -1.7709  2.0207
   72SLPC  C317 6370   1.786   5.761   8.175 -0.0628  0.0343 -0.0734
   72SLPC  H17X 6371   1.682   5.739   8.144 -0.1568  1.7798 -1.1269
   72SLPC  H17Y 6372   1.833   5.660   8.180 -2.6440 -1.2376  0.1989
   72SLPC  C318 6373   1.841   5.833   8.051  0.3513  0.4439 -0.0912
   72SLPC  H18X 6374   1.952   5.841   8.053  0.5735 -2.1415  0.8178
   72SLPC  H18Y 6375   1.797   5.934   8.033 -0.7914  0.0011  0.1477
   72SLPC  H18Z 6376   1.815   5.776   7.960  1.9470  0.6560 -0.7087
   73SLPC     N 6377   5.865   3.361  11.377 -0.0900  0.5685 -0.0706
   73SLPC   C13 6378   5.758   3.286  11.301 -0.3765  0.7729 -0.0599
   73SLPC  H13A 6379   5.805   3.201  11.252  3.5750  0.9615  2.9348
   73SLPC  H13B 6380   5.682   3.249  11.368  0.8635 -1.6662  0.1203
   73SLPC  H13C 6381   5.714   3.358  11.233 -0.2129  0.8862 -0.0447
   73SLPC   C14 6382   5.911   3.275  11.491 -0.0991  0.2604 -0.4328
   73SLPC  H14A 6383   5.966   3.186  11.464 -2.1141 -0.9299 -0.8496
   73SLPC  H14B 6384   5.962   3.344  11.556  0.0083 -0.4197  0.2135
   73SLPC  H14C 6385   5.825   3.235  11.543  1.0004 -0.3696  0.9864
   73SLPC   C15 6386   5.804   3.482  11.446 -0.2209 -0.5204 -0.2837
   73SLPC  H15A 6387   5.756   3.543  11.371 -0.7891  0.2662  0.6845
   73SLPC  H15B 6388   5.713   3.455  11.498 -0.8259 -1.1682 -1.6328
   73SLPC  H15C 6389   5.863   3.552  11.505 -0.9125  0.4333 -0.6910
   73SLPC   C12 6390   5.972   3.404  11.282  0.3595 -0.0319 -0.2669
   73SLPC  H12A 6391   6.043   3.467  11.333 -0.7812  0.1649  1.1271
   73SLPC  H12B 6392   5.928   3.458  11.199  0.6734  1.2551  0.3664
   73SLPC   C11 6393   6.030   3.296  11.199 -0.0228  0.3261 -0.1586
   73SLPC  H11A 6394   6.073   3.217  11.265  1.0723  1.4716  0.5656
   73SLPC  H11B 6395   6.117   3.345  11.149  0.1138  1.6956  1.3346
   73SLPC     P 6396   5.918   3.336  10.964  0.2319  0.0489 -0.2103
   73SLPC   O13 6397   5.803   3.275  10.893 -0.0256  0.2360  0.7748
   73SLPC   O14 6398   5.904   3.480  10.994  0.0542  0.0998 -0.5797
   73SLPC   O12 6399   5.945   3.253  11.097 -0.7196  0.0810 -0.4957
   73SLPC   O11 6400   6.044   3.311  10.880  0.0134  0.4804  0.1373
   73SLPC    C1 6401   6.049   3.308  10.744  0.2892  0.1970  1.1996
   73SLPC    HA 6402   5.978   3.382  10.700 -0.6760 -0.7299  1.1614
   73SLPC    HB 6403   6.153   3.335  10.718 -0.7947  3.1005 -0.6437
   73SLPC    C2 6404   6.018   3.164  10.686  0.0303  0.0657  0.2444
   73SLPC    HS 6405   5.911   3.138  10.704 -0.5321  0.7166 -1.8997
   73SLPC   O21 6406   6.109   3.075  10.752 -0.2029  0.2466  0.7645
   73SLPC   C21 6407   6.084   2.943  10.756  0.2768  0.6558  0.4382
   73SLPC   O22 6408   5.977   2.895  10.719 -0.5291  0.6549 -0.6800
   73SLPC   C22 6409   6.201   2.859  10.805 -0.1547  0.0176  0.4957
   73SLPC   H2R 6410   6.259   2.919  10.879 -0.0753  0.7242 -0.1306
   73SLPC   H2S 6411   6.166   2.766  10.854 -2.5912 -0.0067 -1.1153
   73SLPC    C3 6412   6.048   3.146  10.534  0.8241  0.4838 -0.1659
   73SLPC    HX 6413   6.158   3.160  10.528  0.5710  3.9846  0.8498
   73SLPC    HY 6414   6.004   3.234  10.480 -1.9238 -2.6553 -3.5783
   73SLPC   O31 6415   5.999   3.023  10.480  0.2890 -0.1898 -0.0081
   73SLPC   C31 6416   5.863   3.021  10.451 -0.2879 -0.1178  0.2690
   73SLPC   O32 6417   5.788   3.117  10.459  0.0732 -0.2175 -0.3834
   73SLPC   C32 6418   5.833   2.886  10.384 -0.1134  0.6065  0.2046
   73SLPC   H2X 6419   5.835   2.805  10.459  1.5242  1.8246  1.5470
   73SLPC   H2Y 6420   5.914   2.868  10.309 -0.3551  1.3029 -0.2274
   73SLPC   C23 6421   6.290   2.816  10.682  0.3246  0.3001  0.0787
   73SLPC   H3R 6422   6.379   2.764  10.723  0.5903 -0.3810 -1.2827
   73SLPC   H3S 6423   6.320   2.909  10.629  2.3866  0.1947  0.9807
   73SLPC   C24 6424   6.227   2.723  10.584 -0.6106  0.1663 -0.2797
   73SLPC   H4R 6425   6.125   2.743  10.546 -1.5672 -1.6417  1.2134
   73SLPC   H4S 6426   6.228   2.627  10.639 -0.3716  0.6087  0.5062
   73SLPC   C25 6427   6.315   2.718  10.456  0.0316  0.4182  0.3449
   73SLPC   H5R 6428   6.311   2.612  10.423  0.3838  0.3170  0.6261
   73SLPC   H5S 6429   6.421   2.736  10.484  1.0074 -1.5602 -1.7687
   73SLPC   C26 6430   6.265   2.817  10.340  0.1267 -0.3893  0.5219
   73SLPC   H6R 6431   6.207   2.904  10.378  0.5871 -0.2120  0.8326
   73SLPC   H6S 6432   6.216   2.747  10.270  0.9976  0.4616 -1.0016
   73SLPC   C27 6433   6.380   2.889  10.268 -0.0214 -0.3611 -0.1195
   73SLPC   H7R 6434   6.433   2.813  10.206 -0.3761  0.9853 -2.2030
   73SLPC   H7S 6435   6.458   2.925  10.338  1.3081 -1.6057 -0.9218
   73SLPC   C28 6436   6.337   2.997  10.165 -0.1254  0.4222 -0.0049
   73SLPC   H8R 6437   6.265   2.942  10.101 -0.9932  0.7453  0.6924
   73SLPC   H8S 6438   6.424   3.014  10.097  0.2476 -0.2275  0.2974
   73SLPC   C29 6439   6.290   3.116  10.235  0.3693  0.1786 -0.3769
   73SLPC   H9R 6440   6.371   3.177  10.277  0.7326 -0.1634 -0.5799
   73SLPC  C210 6441   6.167   3.170  10.229 -0.4748  0.7399  0.1185
   73SLPC  H10R 6442   6.153   3.264  10.285  2.2370 -0.6751  3.5682
   73SLPC  C211 6443   6.050   3.105  10.156  0.1288  0.5945 -0.6417
   73SLPC  H11R 6444   5.991   3.032  10.215 -0.8486  0.2065 -2.0325
   73SLPC  H11S 6445   6.079   3.037  10.072 -0.9083 -1.6189  0.6974
   73SLPC  C212 6446   5.957   3.212  10.111  0.0229  0.3293 -0.7314
   73SLPC  H12R 6447   5.903   3.267  10.190  0.5725 -0.3626  0.1393
   73SLPC  C213 6448   5.947   3.264   9.990 -0.3161  0.3389 -0.7316
   73SLPC  H13R 6449   5.863   3.330   9.966 -1.1681 -1.2647 -2.3364
   73SLPC  C214 6450   6.029   3.221   9.871 -0.0620 -0.0292 -0.0584
   73SLPC  H14R 6451   6.023   3.111   9.861  0.5372  0.0193 -1.1817
   73SLPC  H14S 6452   6.135   3.254   9.867  0.2259 -0.7861  0.9359
   73SLPC  C215 6453   5.954   3.265   9.741 -0.5578  0.1509  0.1807
   73SLPC  H15R 6454   5.951   3.376   9.738 -1.1293  0.1512  0.6026
   73SLPC  H15S 6455   5.847   3.236   9.742 -1.0079  1.6924 -0.3764
   73SLPC  C216 6456   6.013   3.211   9.604  0.1291 -0.2749 -0.4764
   73SLPC  H16R 6457   5.985   3.103   9.609  0.8711 -0.4383  0.5389
   73SLPC  H16S 6458   6.124   3.213   9.605  0.2262 -2.5107 -0.3623
   73SLPC  C217 6459   5.956   3.271   9.479 -0.3336 -0.6699 -0.2466
   73SLPC  H17R 6460   5.848   3.289   9.499 -0.3462 -1.8437  0.8694
   73SLPC  H17S 6461   5.962   3.200   9.394  1.4098 -0.3685 -0.3997
   73SLPC  C218 6462   6.011   3.407   9.432  1.1421 -0.4273 -0.3191
   73SLPC  H18R 6463   6.016   3.480   9.515  3.1823  0.0120 -0.7716
   73SLPC  H18S 6464   5.941   3.451   9.358 -0.1531 -0.3600  0.9229
   73SLPC  H18T 6465   6.119   3.411   9.403  2.2224  2.5406  3.2145
   73SLPC   C33 6466   5.694   2.888  10.309 -0.8591  0.1685  0.4703
   73SLPC   H3X 6467   5.630   2.964  10.360  0.2176  0.7125  1.0464
   73SLPC   H3Y 6468   5.644   2.790  10.319 -0.1358 -0.7490 -3.5140
   73SLPC   C34 6469   5.716   2.933  10.156  0.6488  0.1935  0.1684
   73SLPC   H4X 6470   5.776   3.026  10.160 -0.0543  0.6297  0.9892
   73SLPC   H4Y 6471   5.614   2.960  10.121  0.2433  0.8665  1.7670
   73SLPC   C35 6472   5.775   2.814  10.080  0.8327 -0.0720  0.8436
   73SLPC   H5X 6473   5.719   2.719  10.090 -1.2397  1.1359  1.2566
   73SLPC   H5Y 6474   5.878   2.786  10.112  1.8975 -0.4657 -2.5104
   73SLPC   C36 6475   5.799   2.851   9.926 -0.1952  0.7562  0.1189
   73SLPC   H6X 6476   5.859   2.779   9.868  1.3162  1.4808  0.7275
   73SLPC   H6Y 6477   5.868   2.938   9.935  1.5845 -0.6755  0.8707
   73SLPC   C37 6478   5.670   2.880   9.846 -0.0745 -0.4636 -0.2913
   73SLPC   H7X 6479   5.611   2.963   9.892  0.0185 -1.4582  1.7241
   73SLPC   H7Y 6480   5.594   2.799   9.843 -0.9579  0.3540 -1.4766
   73SLPC   C38 6481   5.717   2.908   9.700 -1.3338 -0.3494 -0.3593
   73SLPC   H8X 6482   5.776   2.819   9.669  0.0086  0.3326  0.1548
   73SLPC   H8Y 6483   5.795   2.987   9.700  0.2907 -1.8289  1.6816
   73SLPC   C39 6484   5.607   2.951   9.611 -0.1084 -0.4045 -0.3690
   73SLPC   H9X 6485   5.554   3.029   9.669  0.8357 -0.6332  0.8324
   73SLPC   H9Y 6486   5.543   2.861   9.599 -0.7413 -0.0423  0.2127
   73SLPC  C310 6487   5.654   3.010   9.475  0.3070  0.3459  0.6381
   73SLPC  H10X 6488   5.732   2.948   9.426 -0.7672 -0.8264  0.3697
   73SLPC  H10Y 6489   5.695   3.110   9.501 -1.4765  0.8659  1.6438
   73SLPC  C311 6490   5.533   3.040   9.386 -0.7488  0.8501 -0.5936
   73SLPC  H11X 6491   5.456   3.112   9.423 -2.3501 -1.5372  1.0606
   73SLPC  H11Y 6492   5.473   2.947   9.373 -0.7699  0.8025 -0.1940
   73SLPC  C312 6493   5.571   3.092   9.243  0.2183 -0.2975  0.3845
   73SLPC  H12X 6494   5.667   3.044   9.214  0.2092  0.6775 -1.4399
   73SLPC  H12Y 6495   5.590   3.201   9.256  2.9240 -0.5944 -0.5102
   73SLPC  C313 6496   5.464   3.078   9.136 -0.5420  0.5074  0.1839
   73SLPC  H13X 6497   5.381   3.133   9.186 -0.4644 -0.3706  1.3277
   73SLPC  H13Y 6498   5.430   2.972   9.135  2.6378 -0.6121 -2.1290
   73SLPC  C314 6499   5.492   3.131   8.994  0.6113 -0.0603  0.4158
   73SLPC  H14X 6500   5.560   3.055   8.948  0.8907 -0.8233  2.0292
   73SLPC  H14Y 6501   5.553   3.224   8.994  0.1879  0.3016 -2.4186
   73SLPC  C315 6502   5.365   3.136   8.919  0.7126  0.1546 -0.0213
   73SLPC  H15X 6503   5.292   3.201   8.971 -0.9379  0.7777 -2.8823
   73SLPC  H15Y 6504   5.323   3.033   8.920  0.6618  0.1015 -2.5387
   73SLPC  C316 6505   5.384   3.182   8.771 -0.4544  0.8066 -0.8610
   73SLPC  H16X 6506   5.287   3.170   8.718 -0.2007  0.0394 -1.1661
   73SLPC  H16Y 6507   5.445   3.107   8.717 -2.0643 -1.9182  0.8366
   73SLPC  C317 6508   5.434   3.327   8.762  0.3321 -0.3835 -0.1912
   73SLPC  H17X 6509   5.544   3.338   8.778  0.0701  0.7918  0.9683
   73SLPC  H17Y 6510   5.387   3.386   8.844 -0.4710 -0.2093 -0.7751
   73SLPC  C318 6511   5.390   3.388   8.626 -0.6142  0.1626 -0.2428
   73SLPC  H18X 6512   5.284   3.367   8.599 -0.6324 -0.7499  0.4904
   73SLPC  H18Y 6513   5.461   3.339   8.556  0.1655 -0.0699  0.6896
   73SLPC  H18Z 6514   5.400   3.499   8.628 -0.5595  0.1521  1.8797
   74SLPC     N 6515   1.597   4.940  11.013 -0.1733 -0.1009 -0.0338
   74SLPC   C13 6516   1.634   4.827  11.105 -0.1009  0.6186  0.3352
   74SLPC  H13A 6517   1.636   4.860  11.208 -1.6591 -2.0400  1.3402
   74SLPC  H13B 6518   1.574   4.740  11.082  1.1845 -0.1350 -0.2457
   74SLPC  H13C 6519   1.736   4.798  11.084  0.8271  1.5790  3.0340
   74SLPC   C14 6520   1.699   5.042  10.998  0.3767  0.1189 -0.1811
   74SLPC  H14A 6521   1.716   5.087  11.094 -2.0786  1.4247 -0.2737
   74SLPC  H14B 6522   1.790   5.009  10.950 -0.0013 -1.1910 -0.0459
   74SLPC  H14C 6523   1.650   5.118  10.939 -1.9203 -0.5870  0.7110
   74SLPC   C15 6524   1.479   5.010  11.071 -0.8853  0.1956  0.0710
   74SLPC  H15A 6525   1.484   5.037  11.175 -0.7854  0.2646  0.0479
   74SLPC  H15B 6526   1.457   5.101  11.017 -2.2220 -1.1462 -1.7862
   74SLPC  H15C 6527   1.400   4.937  11.070 -2.6137  1.9705  1.0042
   74SLPC   C12 6528   1.565   4.880  10.873 -0.1011  0.2361 -0.9502
   74SLPC  H12A 6529   1.659   4.848  10.831  0.8866  0.5714  0.8847
   74SLPC  H12B 6530   1.529   4.961  10.810 -0.0413  1.5411  0.6236
   74SLPC   C11 6531   1.455   4.771  10.863  0.8309 -0.2264  0.0395
   74SLPC  H11A 6532   1.428   4.761  10.756  2.3219  1.5994 -0.5452
   74SLPC  H11B 6533   1.361   4.802  10.915  2.7534  1.6250  2.6462
   74SLPC     P 6534   1.593   4.546  10.862 -0.4514 -0.1353 -0.2601
   74SLPC   O13 6535   1.720   4.614  10.846 -0.2312  0.0631  0.0256
   74SLPC   O14 6536   1.589   4.426  10.950  0.3621 -0.1193 -0.0506
   74SLPC   O12 6537   1.487   4.644  10.917  0.1902 -0.6392 -0.4949
   74SLPC   O11 6538   1.537   4.513  10.719  0.1426 -0.3141 -0.2090
   74SLPC    C1 6539   1.395   4.483  10.699 -0.3787 -0.2436 -0.3881
   74SLPC    HA 6540   1.377   4.383  10.745 -2.1890 -0.0481 -0.6023
   74SLPC    HB 6541   1.325   4.555  10.747 -1.0995 -1.5937  0.6588
   74SLPC    C2 6542   1.360   4.461  10.556 -0.6897  0.4471  0.4224
   74SLPC    HS 6543   1.249   4.457  10.553 -0.6622  0.1563 -0.5050
   74SLPC   O21 6544   1.423   4.341  10.503 -0.1415 -0.0657 -0.3414
   74SLPC   C21 6545   1.369   4.220  10.517 -0.0139  0.2305 -0.0929
   74SLPC   O22 6546   1.259   4.198  10.562 -0.1287 -0.4522 -0.6733
   74SLPC   C22 6547   1.458   4.112  10.464  0.0710  1.0066  0.0884
   74SLPC   H2R 6548   1.541   4.093  10.535 -0.5376  0.7638  0.7555
   74SLPC   H2S 6549   1.407   4.014  10.451 -1.2569  1.9641 -2.9268
   74SLPC    C3 6550   1.397   4.579  10.469  0.0238 -0.8917  0.3790
   74SLPC    HX 6551   1.507   4.567  10.459 -0.1833 -2.5727 -0.1909
   74SLPC    HY 6552   1.389   4.673  10.527  0.6663 -1.2277  1.0329
   74SLPC   O31 6553   1.335   4.577  10.342  0.0374  0.5677 -0.3724
   74SLPC   C31 6554   1.215   4.643  10.333  0.4625  0.4619  0.2908
   74SLPC   O32 6555   1.148   4.673  10.424 -0.3926  0.4697 -0.1053
   74SLPC   C32 6556   1.165   4.640  10.190 -0.4194 -0.2836  0.4193
   74SLPC   H2X 6557   1.140   4.537  10.155  0.6711  0.2121 -2.0254
   74SLPC   H2Y 6558   1.254   4.669  10.131 -1.1413 -2.0106 -1.6347
   74SLPC   C23 6559   1.527   4.138  10.330 -0.3380  0.6237 -0.2712
   74SLPC   H3R 6560   1.452   4.190  10.266 -1.8498 -2.3717 -1.0922
   74SLPC   H3S 6561   1.544   4.042  10.278 -0.3355  1.0581 -1.0934
   74SLPC   C24 6562   1.655   4.220  10.346 -0.1386  0.3728 -0.1021
   74SLPC   H4R 6563   1.745   4.162  10.376 -2.2434 -2.9729  0.2701
   74SLPC   H4S 6564   1.643   4.298  10.424 -2.0540  1.5829 -1.5281
   74SLPC   C25 6565   1.698   4.308  10.225 -0.2147 -0.2122  0.8020
   74SLPC   H5R 6566   1.779   4.382  10.243  1.4499 -1.9736  0.8784
   74SLPC   H5S 6567   1.609   4.358  10.181 -0.0454 -1.2499 -0.8137
   74SLPC   C26 6568   1.755   4.241  10.096  0.4933 -0.2904 -0.5442
   74SLPC   H6R 6569   1.668   4.191  10.048 -0.5169  2.0242 -1.2672
   74SLPC   H6S 6570   1.843   4.176  10.115  1.2590  0.9675  0.3715
   74SLPC   C27 6571   1.791   4.339   9.983  0.3572 -0.1527 -0.1519
   74SLPC   H7R 6572   1.865   4.287   9.918  0.7250  1.7705 -1.3506
   74SLPC   H7S 6573   1.847   4.428  10.020 -3.5129  2.1856  0.6615
   74SLPC   C28 6574   1.664   4.377   9.902 -0.4518  0.2032 -0.6673
   74SLPC   H8R 6575   1.590   4.421   9.972  0.4424 -0.0835  0.4993
   74SLPC   H8S 6576   1.611   4.288   9.865 -0.8721 -1.5825  3.6301
   74SLPC   C29 6577   1.699   4.497   9.812 -0.4210 -0.4199 -0.8850
   74SLPC   H9R 6578   1.714   4.588   9.872  0.4212 -1.6046  0.7815
   74SLPC  C210 6579   1.696   4.507   9.681 -1.2242 -0.7994  0.3879
   74SLPC  H10R 6580   1.739   4.593   9.627 -0.1781 -1.2785  0.4325
   74SLPC  C211 6581   1.664   4.403   9.583 -0.3151 -0.0312  0.5407
   74SLPC  H11R 6582   1.578   4.440   9.522 -0.9972 -0.5054  1.1952
   74SLPC  H11S 6583   1.631   4.307   9.628 -3.6621  0.6632 -0.1121
   74SLPC  C212 6584   1.782   4.382   9.493  0.2610  0.0948 -0.3329
   74SLPC  H12R 6585   1.865   4.324   9.534  1.2764  0.8385 -1.2954
   74SLPC  C213 6586   1.794   4.408   9.362 -0.3820 -0.3638  0.6827
   74SLPC  H13R 6587   1.889   4.386   9.311 -0.2417  2.9861 -0.7493
   74SLPC  C214 6588   1.696   4.468   9.267 -0.5360 -0.0459  0.3751
   74SLPC  H14R 6589   1.730   4.568   9.233 -1.0513 -0.4002 -1.2778
   74SLPC  H14S 6590   1.598   4.476   9.319 -1.5320 -0.9012 -1.2702
   74SLPC  C215 6591   1.684   4.392   9.130 -0.0300  0.0073 -0.2109
   74SLPC  H15R 6592   1.639   4.294   9.155  1.3190 -0.8474 -1.0220
   74SLPC  H15S 6593   1.781   4.370   9.080 -0.5714  0.6925 -1.6439
   74SLPC  C216 6594   1.587   4.454   9.028  1.1844 -0.2157 -0.5909
   74SLPC  H16R 6595   1.493   4.473   9.083  0.6453 -0.2360 -1.4730
   74SLPC  H16S 6596   1.555   4.375   8.956  3.7879 -0.0392 -2.0771
   74SLPC  C217 6597   1.638   4.585   8.969 -0.7871 -0.0024 -0.0711
   74SLPC  H17R 6598   1.730   4.572   8.909 -0.9318 -0.3195 -0.2220
   74SLPC  H17S 6599   1.666   4.659   9.047  0.9487 -0.5664 -0.1089
   74SLPC  C218 6600   1.543   4.649   8.862 -0.6860  0.4968 -0.7835
   74SLPC  H18R 6601   1.556   4.588   8.771 -1.6550  0.0168 -0.6080
   74SLPC  H18S 6602   1.565   4.756   8.841 -0.1442  0.3945 -0.7688
   74SLPC  H18T 6603   1.436   4.638   8.887 -0.0606 -3.7271  0.8039
   74SLPC   C33 6604   1.057   4.739  10.155  0.1950 -0.5291 -0.3089
   74SLPC   H3X 6605   1.096   4.843  10.166 -1.2798  0.3391 -2.6114
   74SLPC   H3Y 6606   0.969   4.726  10.221  0.1379 -2.2251 -0.6782
   74SLPC   C34 6607   1.000   4.730  10.014  0.5269  0.2225 -0.4840
   74SLPC   H4X 6608   0.991   4.624   9.983 -2.0811 -0.4657  2.2096
   74SLPC   H4Y 6609   1.077   4.785   9.956  2.0841 -1.7515 -0.3972
   74SLPC   C35 6610   0.864   4.797   9.996 -0.4570 -0.2416 -0.5962
   74SLPC   H5X 6611   0.885   4.905  10.006  0.8147 -0.4770 -0.5912
   74SLPC   H5Y 6612   0.802   4.766  10.083 -3.0385  2.5983 -1.2691
   74SLPC   C36 6613   0.789   4.764   9.859  0.3217 -0.3131 -0.5134
   74SLPC   H6X 6614   0.704   4.835   9.864  0.4977 -0.1461  3.2739
   74SLPC   H6Y 6615   0.747   4.661   9.851  0.6283 -0.3013 -2.8476
   74SLPC   C37 6616   0.860   4.798   9.730  0.4140 -0.3857  0.4644
   74SLPC   H7X 6617   0.950   4.734   9.738  0.3795 -0.6241 -0.7816
   74SLPC   H7Y 6618   0.885   4.906   9.725 -0.4239 -0.1980  0.0946
   74SLPC   C38 6619   0.795   4.749   9.596 -0.0694  0.2444  0.6448
   74SLPC   H8X 6620   0.704   4.807   9.571  0.4437  1.3850  1.3523
   74SLPC   H8Y 6621   0.770   4.642   9.611 -1.8143 -0.0408 -3.1662
   74SLPC   C39 6622   0.891   4.768   9.478  0.9604 -0.1059 -0.2529
   74SLPC   H9X 6623   0.994   4.728   9.492  1.0670 -0.2839 -1.4161
   74SLPC   H9Y 6624   0.918   4.875   9.490  0.4400 -0.2044  2.1864
   74SLPC  C310 6625   0.824   4.753   9.342 -0.3118  0.3640  0.0781
   74SLPC  H10X 6626   0.724   4.800   9.356 -0.5961 -0.2716  0.2264
   74SLPC  H10Y 6627   0.804   4.645   9.323 -0.0798  0.1638  0.9412
   74SLPC  C311 6628   0.905   4.812   9.223 -0.2815  0.4218 -0.2258
   74SLPC  H11X 6629   1.001   4.757   9.230 -1.3660 -1.3923  1.5899
   74SLPC  H11Y 6630   0.920   4.922   9.225  1.0540  0.3974 -3.2180
   74SLPC  C312 6631   0.843   4.779   9.086 -1.0957 -0.7006 -0.1808
   74SLPC  H12X 6632   0.737   4.812   9.079 -1.1661 -1.1072 -1.2155
   74SLPC  H12Y 6633   0.837   4.669   9.093 -1.6054 -0.5845  1.7949
   74SLPC  C313 6634   0.939   4.826   8.983 -0.1889  1.1504  0.3886
   74SLPC  H13X 6635   1.034   4.768   8.988 -0.5663  0.6517  2.2518
   74SLPC  H13Y 6636   0.977   4.926   9.012  1.7131  1.1328 -1.7656
   74SLPC  C314 6637   0.891   4.823   8.838 -0.4463  0.2256 -0.1417
   74SLPC  H14X 6638   0.875   4.715   8.816  2.5289 -0.0987 -1.0663
   74SLPC  H14Y 6639   0.969   4.867   8.772 -0.9147  0.6481 -0.4229
   74SLPC  C315 6640   0.761   4.897   8.819 -0.4284  0.2342  0.4505
   74SLPC  H15X 6641   0.790   5.002   8.842  2.5123 -0.8144  2.0912
   74SLPC  H15Y 6642   0.681   4.866   8.890 -1.1008 -1.4662 -0.9872
   74SLPC  C316 6643   0.713   4.887   8.671 -0.0311 -0.4972  0.4987
   74SLPC  H16X 6644   0.801   4.903   8.605 -0.4480  1.3352  0.3459
   74SLPC  H16Y 6645   0.630   4.957   8.647  1.5275  1.5160  0.7033
   74SLPC  C317 6646   0.659   4.749   8.633 -0.4101 -0.0367 -0.0527
   74SLPC  H17X 6647   0.576   4.727   8.705 -0.2565 -0.3878  0.0192
   74SLPC  H17Y 6648   0.735   4.672   8.656 -1.4220 -1.4962 -1.3661
   74SLPC  C318 6649   0.610   4.733   8.492  0.2189  0.7408  0.1379
   74SLPC  H18X 6650   0.682   4.752   8.409 -0.6733  0.6481 -0.6787
   74SLPC  H18Y 6651   0.529   4.804   8.468  0.5214  1.3920  1.0125
   74SLPC  H18Z 6652   0.563   4.633   8.480 -0.0477  1.1664 -3.5278
   75SLPC     N 6653   6.318   1.005   6.425 -0.0943 -0.9313  0.6158
   75SLPC   C13 6654   6.353   1.135   6.356 -0.9512 -0.4717  0.2224
   75SLPC  H13A 6655   6.396   1.207   6.425 -0.0956 -1.1028  0.3710
   75SLPC  H13B 6656   6.426   1.114   6.279 -0.2623 -0.4638  0.8591
   75SLPC  H13C 6657   6.266   1.178   6.309 -1.4927 -0.2723  1.3611
   75SLPC   C14 6658   6.443   0.953   6.492 -0.5641  1.0123 -0.2945
   75SLPC  H14A 6659   6.474   1.016   6.573  0.3199 -0.5730  0.6436
   75SLPC  H14B 6660   6.425   0.858   6.540  0.1201  0.3882 -1.2434
   75SLPC  H14C 6661   6.525   0.936   6.424  0.7758  4.9966  0.0391
   75SLPC   C15 6662   6.287   0.908   6.315  0.1806 -0.0515 -0.2509
   75SLPC  H15A 6663   6.366   0.914   6.241 -1.2221  0.9195 -1.7372
   75SLPC  H15B 6664   6.281   0.808   6.353  4.4762 -0.1210  0.7921
   75SLPC  H15C 6665   6.207   0.951   6.256  0.9911  0.1130 -1.2593
   75SLPC   C12 6666   6.207   1.013   6.525 -0.2424  0.0088 -1.1987
   75SLPC  H12A 6667   6.198   0.917   6.573 -0.6424  0.2567 -0.7674
   75SLPC  H12B 6668   6.114   1.049   6.483 -1.3156 -1.0062  0.2140
   75SLPC   C11 6669   6.238   1.115   6.641 -0.0842 -1.3355 -0.5183
   75SLPC  H11A 6670   6.341   1.102   6.681  0.5163  2.3592 -0.4823
   75SLPC  H11B 6671   6.172   1.110   6.730  0.0849  1.4782 -0.1386
   75SLPC     P 6672   6.097   1.319   6.548  0.0870  0.1013  0.7910
   75SLPC   O13 6673   6.097   1.466   6.566 -0.4291  0.6460 -0.2802
   75SLPC   O14 6674   6.071   1.279   6.404 -0.3213  0.9118 -0.5765
   75SLPC   O12 6675   6.232   1.252   6.597 -0.3457 -0.2283  0.1069
   75SLPC   O11 6676   5.999   1.251   6.648  0.3340 -0.2864  0.2341
   75SLPC    C1 6677   5.862   1.220   6.624 -0.2568 -0.7055 -0.4993
   75SLPC    HA 6678   5.802   1.309   6.596 -2.5503 -1.3661  1.9709
   75SLPC    HB 6679   5.853   1.152   6.537  0.2388  1.9142 -2.7519
   75SLPC    C2 6680   5.806   1.158   6.754 -0.7746  0.1060 -0.1462
   75SLPC    HS 6681   5.852   1.058   6.770 -0.8500 -0.1754 -1.5935
   75SLPC   O21 6682   5.667   1.125   6.745 -0.3799  0.5814 -0.0084
   75SLPC   C21 6683   5.637   1.002   6.695 -0.7207 -0.4808  0.0098
   75SLPC   O22 6684   5.718   0.929   6.636  0.8777 -0.0480 -0.1879
   75SLPC   C22 6685   5.488   0.967   6.693  0.0318 -0.2386  0.1953
   75SLPC   H2R 6686   5.439   1.056   6.648  1.8069 -0.3301 -2.1335
   75SLPC   H2S 6687   5.480   0.878   6.627  1.4536  0.3826 -0.8751
   75SLPC    C3 6688   5.833   1.243   6.886  0.0696  0.3525  0.1727
   75SLPC    HX 6689   5.804   1.349   6.869 -0.1143  0.5552  1.5967
   75SLPC    HY 6690   5.944   1.238   6.897  0.4391  0.7262 -2.6997
   75SLPC   O31 6691   5.762   1.195   7.004  0.2951 -0.5024 -0.1927
   75SLPC   C31 6692   5.810   1.085   7.062 -0.6189  0.2235  0.7003
   75SLPC   O32 6693   5.906   1.014   7.027 -0.1355 -0.3763  0.0299
   75SLPC   C32 6694   5.730   1.060   7.190 -0.4837  0.6547  0.2530
   75SLPC   H2X 6695   5.749   0.954   7.218 -2.9391 -0.1323 -0.7923
   75SLPC   H2Y 6696   5.623   1.075   7.163 -0.5216  1.4797  0.8199
   75SLPC   C23 6697   5.439   0.936   6.838  0.1391 -0.3727  0.7864
   75SLPC   H3R 6698   5.507   0.859   6.881  0.0506 -1.4744 -0.9433
   75SLPC   H3S 6699   5.337   0.890   6.833  0.2209 -0.5623  0.8421
   75SLPC   C24 6700   5.419   1.057   6.927  0.0427  0.1932  0.2138
   75SLPC   H4R 6701   5.354   1.135   6.882  1.6855  1.4294 -0.1159
   75SLPC   H4S 6702   5.523   1.094   6.940  1.1204 -2.6076  0.1701
   75SLPC   C25 6703   5.370   1.019   7.070  0.4813 -0.3866  0.1320
   75SLPC   H5R 6704   5.384   1.112   7.130  1.1996 -1.3802  1.5699
   75SLPC   H5S 6705   5.417   0.934   7.124  1.3706 -0.6102 -0.9623
   75SLPC   C26 6706   5.216   0.990   7.081 -0.3214 -0.0479 -0.0019
   75SLPC   H6R 6707   5.194   0.908   7.009 -0.1726 -0.4236  0.3773
   75SLPC   H6S 6708   5.169   1.081   7.037 -0.5300 -0.7403 -1.2539
   75SLPC   C27 6709   5.153   0.963   7.225 -0.3245 -0.0771  0.2578
   75SLPC   H7R 6710   5.188   0.862   7.255  0.0316 -0.3070 -0.8666
   75SLPC   H7S 6711   5.043   0.962   7.213 -0.2538  0.7707 -0.6470
   75SLPC   C28 6712   5.185   1.064   7.336  0.1028  0.0939 -0.3202
   75SLPC   H8R 6713   5.284   1.110   7.315 -0.2779 -0.4931 -4.2347
   75SLPC   H8S 6714   5.178   1.019   7.437 -4.3875 -1.5049 -1.0953
   75SLPC   C29 6715   5.089   1.181   7.332  0.3800  0.0489  0.2818
   75SLPC   H9R 6716   5.118   1.236   7.242  2.0313  2.4507  2.1330
   75SLPC  C210 6717   4.990   1.228   7.409  0.1729 -0.2326 -0.1720
   75SLPC  H10R 6718   4.927   1.312   7.376  2.7251  0.4163 -4.0766
   75SLPC  C211 6719   4.949   1.171   7.544 -0.7994  0.4270  0.2438
   75SLPC  H11R 6720   4.987   1.066   7.550 -1.5922  0.2038  2.4978
   75SLPC  H11S 6721   4.838   1.167   7.551 -0.8173 -1.0965 -0.4504
   75SLPC  C212 6722   5.004   1.254   7.660 -0.2392 -0.2207 -0.5303
   75SLPC  H12R 6723   4.955   1.352   7.669  1.4384  0.6135 -0.1162
   75SLPC  C213 6724   5.101   1.221   7.750  0.8335 -0.3518 -0.1790
   75SLPC  H13R 6725   5.134   1.293   7.825 -0.6019 -0.7801  0.9068
   75SLPC  C214 6726   5.180   1.095   7.752 -0.0419 -0.1032 -0.0136
   75SLPC  H14R 6727   5.284   1.109   7.717  0.8502 -0.4381  2.2782
   75SLPC  H14S 6728   5.144   1.021   7.678  0.0686 -0.1009 -0.0695
   75SLPC  C215 6729   5.181   1.041   7.896  0.0815 -0.0106  0.0816
   75SLPC  H15R 6730   5.239   0.947   7.891  0.8172  0.4876 -1.1477
   75SLPC  H15S 6731   5.082   1.018   7.942 -0.2028 -0.9673 -0.9806
   75SLPC  C216 6732   5.255   1.118   8.002  0.7473  0.2247  0.2306
   75SLPC  H16R 6733   5.197   1.209   8.030 -0.2515 -0.0170 -0.9625
   75SLPC  H16S 6734   5.347   1.153   7.950  0.0385  0.2978 -0.9947
   75SLPC  C217 6735   5.301   1.048   8.127 -0.0952  0.1680  0.4201
   75SLPC  H17R 6736   5.367   0.959   8.122  0.6488  0.6051  1.9452
   75SLPC  H17S 6737   5.210   1.005   8.174  1.3222 -2.6965  0.7284
   75SLPC  C218 6738   5.384   1.142   8.217  0.1070  0.3329 -0.0024
   75SLPC  H18R 6739   5.344   1.244   8.207 -0.0895  0.3609  0.9620
   75SLPC  H18S 6740   5.485   1.148   8.170 -0.0075 -2.9520 -0.9395
   75SLPC  H18T 6741   5.383   1.115   8.325 -0.0485 -1.3676 -0.4013
   75SLPC   C33 6742   5.766   1.166   7.295 -1.0673 -0.6548  0.1319
   75SLPC   H3X 6743   5.875   1.158   7.315 -0.7295 -1.3321 -1.6923
   75SLPC   H3Y 6744   5.748   1.270   7.261  0.4842  0.3178  2.0558
   75SLPC   C34 6745   5.689   1.164   7.432  0.2403 -0.0009  0.7959
   75SLPC   H4X 6746   5.585   1.174   7.393  1.4418 -0.1896 -2.8664
   75SLPC   H4Y 6747   5.715   1.253   7.492  1.8515 -1.0496  1.7285
   75SLPC   C35 6748   5.711   1.037   7.517  0.0676  0.3370  0.0825
   75SLPC   H5X 6749   5.817   1.037   7.553  0.7163 -0.0422 -1.7304
   75SLPC   H5Y 6750   5.696   0.948   7.452  0.8121 -0.4892  1.0051
   75SLPC   C36 6751   5.620   1.021   7.639  0.4083  0.3725 -0.6300
   75SLPC   H6X 6752   5.668   0.939   7.697 -0.6989 -0.4622 -0.8805
   75SLPC   H6Y 6753   5.518   0.994   7.605  0.2091 -0.3360  0.4829
   75SLPC   C37 6754   5.613   1.146   7.739 -0.5679  0.0445  0.4564
   75SLPC   H7X 6755   5.552   1.118   7.828  0.3469  2.5154  1.9800
   75SLPC   H7Y 6756   5.553   1.225   7.689  0.4862 -0.2679 -1.3893
   75SLPC   C38 6757   5.744   1.201   7.786  0.0096 -0.1306 -0.5344
   75SLPC   H8X 6758   5.725   1.300   7.832  0.5807 -1.2845  2.4504
   75SLPC   H8Y 6759   5.822   1.209   7.707 -0.8371  0.1719 -1.3540
   75SLPC   C39 6760   5.794   1.109   7.907  0.6829  0.6142  0.2769
   75SLPC   H9X 6761   5.801   1.003   7.877 -1.3366  0.4568  0.2762
   75SLPC   H9Y 6762   5.714   1.119   7.983 -0.2641  1.8664 -0.8528
   75SLPC  C310 6763   5.926   1.151   7.961 -0.2500 -0.0569  0.7728
   75SLPC  H10X 6764   5.916   1.250   8.010 -0.4153  2.9978 -4.5707
   75SLPC  H10Y 6765   5.996   1.166   7.875 -0.6026 -0.0595  0.4838
   75SLPC  C311 6766   5.984   1.039   8.045  0.1813 -0.2000 -0.1712
   75SLPC  H11X 6767   5.997   0.946   7.986  0.0715 -1.0064  1.0299
   75SLPC  H11Y 6768   5.914   1.004   8.124  0.4628 -1.9117 -0.6407
   75SLPC  C312 6769   6.108   1.078   8.131 -0.1876  0.1821  0.4754
   75SLPC  H12X 6770   6.090   1.145   8.218  3.7254  0.0010  1.6280
   75SLPC  H12Y 6771   6.187   1.140   8.084  0.1748 -1.3521 -1.0510
   75SLPC  C313 6772   6.192   0.950   8.168 -0.7443  0.0137  0.0151
   75SLPC  H13X 6773   6.288   0.966   8.221  0.2856  0.5014 -1.9051
   75SLPC  H13Y 6774   6.226   0.893   8.079  0.9557  0.9195  0.0571
   75SLPC  C314 6775   6.118   0.847   8.256  0.2014 -0.2096 -0.1385
   75SLPC  H14X 6776   6.030   0.809   8.200 -1.5604  1.7292  1.1921
   75SLPC  H14Y 6777   6.071   0.896   8.343 -1.0488 -0.4428 -0.6612
   75SLPC  C315 6778   6.203   0.731   8.313 -0.6444 -0.1322  0.1575
   75SLPC  H15X 6779   6.282   0.781   8.374 -1.5395  1.4215  0.0655
   75SLPC  H15Y 6780   6.256   0.673   8.235 -1.4325 -0.3003 -0.2605
   75SLPC  C316 6781   6.122   0.644   8.413 -0.0306  0.1246  0.0201
   75SLPC  H16X 6782   6.058   0.708   8.478  0.3905 -0.7146  1.2928
   75SLPC  H16Y 6783   6.205   0.591   8.464  1.6064  1.9687 -0.5829
   75SLPC  C317 6784   6.032   0.542   8.341  0.1605  0.0235 -0.2407
   75SLPC  H17X 6785   6.106   0.461   8.323  1.7647  1.8339 -2.3441
   75SLPC  H17Y 6786   5.994   0.570   8.240 -1.1116 -0.1439  0.1687
   75SLPC  C318 6787   5.931   0.489   8.444 -1.0356 -0.1629  0.0735
   75SLPC  H18X 6788   5.977   0.495   8.545  1.6428  1.3170 -1.1374
   75SLPC  H18Y 6789   5.905   0.383   8.422 -1.3211 -0.4924  1.8325
   75SLPC  H18Z 6790   5.839   0.550   8.446 -0.4685  0.7629 -1.1810
   76SLPC     N 6791   6.548   5.224   6.280  0.0596  0.7656  0.5892
   76SLPC   C13 6792   6.676   5.165   6.219 -0.4181 -0.3899  0.3010
   76SLPC  H13A 6793   6.681   5.064   6.183  0.3684 -0.5932  0.9525
   76SLPC  H13B 6794   6.709   5.229   6.138 -0.2190 -0.7555  0.0923
   76SLPC  H13C 6795   6.745   5.173   6.302  0.5451  0.5320 -0.5426
   76SLPC   C14 6796   6.585   5.356   6.330  0.5190  0.6191  0.0277
   76SLPC  H14A 6797   6.501   5.418   6.357  0.6908  0.8592  0.0173
   76SLPC  H14B 6798   6.645   5.337   6.418  1.9780 -0.5831 -1.1526
   76SLPC  H14C 6799   6.656   5.408   6.267  1.1260  1.3283  1.2668
   76SLPC   C15 6800   6.500   5.133   6.393 -0.2422  0.4830  0.0951
   76SLPC  H15A 6801   6.409   5.177   6.430 -1.1353 -0.9599 -0.3020
   76SLPC  H15B 6802   6.473   5.032   6.366 -1.8549  1.2194 -1.1761
   76SLPC  H15C 6803   6.575   5.119   6.470 -0.9481 -2.2216  0.4165
   76SLPC   C12 6804   6.444   5.222   6.166  0.5021  0.1758  0.5370
   76SLPC  H12A 6805   6.384   5.132   6.155  0.0988  0.6146 -1.1092
   76SLPC  H12B 6806   6.497   5.224   6.072  0.3305  0.3907  0.4445
   76SLPC   C11 6807   6.341   5.341   6.154  0.2276  0.5582  0.1371
   76SLPC  H11A 6808   6.276   5.306   6.070  0.6409  0.5396 -0.1741
   76SLPC  H11B 6809   6.395   5.434   6.131  3.0987 -1.0888 -0.2054
   76SLPC     P 6810   6.137   5.275   6.309  0.0442  0.4809  0.3928
   76SLPC   O13 6811   6.024   5.369   6.300  0.5991 -0.4140 -0.5317
   76SLPC   O14 6812   6.120   5.150   6.232 -0.1074  0.3649  0.4166
   76SLPC   O12 6813   6.276   5.350   6.283  0.4888  0.0982  0.5536
   76SLPC   O11 6814   6.156   5.223   6.456  0.3082 -0.5185 -0.1415
   76SLPC    C1 6815   6.139   5.320   6.568 -0.4973  1.0843  0.1961
   76SLPC    HA 6816   6.138   5.427   6.536 -0.4246  1.1911  0.5459
   76SLPC    HB 6817   6.039   5.307   6.614 -0.5712  0.5437 -0.1074
   76SLPC    C2 6818   6.246   5.299   6.674  0.3411 -0.3736  0.5324
   76SLPC    HS 6819   6.333   5.310   6.605 -0.0648 -1.5016 -0.1826
   76SLPC   O21 6820   6.245   5.171   6.733 -0.0397 -0.1816  0.2249
   76SLPC   C21 6821   6.362   5.124   6.775 -0.7547 -0.4265 -0.0726
   76SLPC   O22 6822   6.468   5.168   6.739 -0.4119  0.1497  0.1010
   76SLPC   C22 6823   6.333   4.999   6.863 -0.4606 -1.1061  1.0469
   76SLPC   H2R 6824   6.223   4.988   6.877 -0.7692 -2.1520 -1.5460
   76SLPC   H2S 6825   6.364   4.910   6.804  0.0374 -0.1297 -0.2202
   76SLPC    C3 6826   6.251   5.411   6.794  0.4733 -0.1594  0.4133
   76SLPC    HX 6827   6.146   5.414   6.832 -0.0498 -1.6613 -0.8302
   76SLPC    HY 6828   6.259   5.513   6.749 -2.0417  0.5532  1.3800
   76SLPC   O31 6829   6.344   5.383   6.915  0.7099 -0.8659 -0.0150
   76SLPC   C31 6830   6.459   5.441   6.907 -0.0632 -0.4438  0.0410
   76SLPC   O32 6831   6.501   5.513   6.819  0.2820 -0.1360 -0.2044
   76SLPC   C32 6832   6.536   5.404   7.036  0.3501  0.0633  0.9269
   76SLPC   H2X 6833   6.642   5.424   7.011 -0.0886  0.6533 -0.5415
   76SLPC   H2Y 6834   6.528   5.294   7.041 -2.5600  0.0639 -0.9760
   76SLPC   C23 6835   6.402   4.995   7.002 -0.1853 -0.0682  0.3246
   76SLPC   H3R 6836   6.511   5.014   6.993  0.0618 -1.4025  0.1465
   76SLPC   H3S 6837   6.401   4.888   7.033 -3.3324  0.0036  0.7180
   76SLPC   C24 6838   6.333   5.070   7.107  0.3204  0.1630  0.0554
   76SLPC   H4R 6839   6.223   5.051   7.108  0.1440  0.8164 -1.7768
   76SLPC   H4S 6840   6.330   5.180   7.088  0.8399  0.0786 -0.5628
   76SLPC   C25 6841   6.386   5.069   7.251  0.3891 -0.1319 -0.0606
   76SLPC   H5R 6842   6.490   5.109   7.247 -0.1090  1.2017 -0.2920
   76SLPC   H5S 6843   6.396   4.968   7.295 -1.1655 -0.4065 -0.3027
   76SLPC   C26 6844   6.304   5.163   7.351 -0.3678 -0.3957 -0.0975
   76SLPC   H6R 6845   6.196   5.163   7.328 -1.0125  1.2571  2.4010
   76SLPC   H6S 6846   6.332   5.269   7.333  0.7659 -0.6129  0.2589
   76SLPC   C27 6847   6.338   5.125   7.496 -0.2378 -0.0388 -0.0702
   76SLPC   H7R 6848   6.446   5.128   7.521  0.2690  1.8550 -2.1416
   76SLPC   H7S 6849   6.308   5.018   7.507 -3.3599  0.7080 -0.5737
   76SLPC   C28 6850   6.277   5.218   7.595  0.5955  0.1241 -0.0629
   76SLPC   H8R 6851   6.334   5.221   7.690 -1.0034 -1.1904  0.9926
   76SLPC   H8S 6852   6.292   5.321   7.555  0.3227 -0.5697 -2.0636
   76SLPC   C29 6853   6.128   5.195   7.612 -0.1005  0.4013 -0.0176
   76SLPC   H9R 6854   6.079   5.164   7.519  1.7571 -1.7096 -0.3736
   76SLPC  C210 6855   6.052   5.203   7.726 -0.6265  0.0647 -0.0369
   76SLPC  H10R 6856   5.946   5.179   7.709 -0.8635  0.6849  0.5261
   76SLPC  C211 6857   6.099   5.253   7.864  0.2994  0.1544  1.2367
   76SLPC  H11R 6858   6.175   5.326   7.831 -1.9450  2.0985  0.0776
   76SLPC  H11S 6859   6.147   5.173   7.924  1.1076  0.6213  1.2204
   76SLPC  C212 6860   5.993   5.326   7.950 -0.1256 -0.4650 -0.5869
   76SLPC  H12R 6861   5.917   5.376   7.889  2.0081  0.5146 -2.6078
   76SLPC  C213 6862   5.998   5.329   8.084 -0.3667 -0.1563 -0.8909
   76SLPC  H13R 6863   5.934   5.402   8.136 -0.2091 -0.9967  0.5540
   76SLPC  C214 6864   6.108   5.274   8.170  0.3485 -0.2089 -0.4649
   76SLPC  H14R 6865   6.138   5.351   8.244 -1.5802  0.8754 -0.7552
   76SLPC  H14S 6866   6.196   5.251   8.107  0.2568  1.0309 -1.0736
   76SLPC  C215 6867   6.073   5.159   8.268 -0.5030  0.1196 -0.2862
   76SLPC  H15R 6868   6.036   5.080   8.199  0.1017  0.1354 -0.6363
   76SLPC  H15S 6869   5.995   5.201   8.336 -0.5729  1.7251 -1.3169
   76SLPC  C216 6870   6.192   5.102   8.337  0.3156 -0.1827 -0.2918
   76SLPC  H16R 6871   6.223   5.175   8.414 -2.1330 -0.7907  1.4013
   76SLPC  H16S 6872   6.269   5.084   8.259 -1.8804 -1.4907 -2.3107
   76SLPC  C217 6873   6.151   4.965   8.410 -0.0904  0.1500  0.1086
   76SLPC  H17R 6874   6.248   4.921   8.442 -0.5570 -0.6607  0.4600
   76SLPC  H17S 6875   6.116   4.889   8.336  0.3800  0.7335 -0.7203
   76SLPC  C218 6876   6.059   4.998   8.533 -0.0994  0.0586 -0.3193
   76SLPC  H18R 6877   6.080   5.095   8.583  0.6211  0.5078 -1.4673
   76SLPC  H18S 6878   6.076   4.930   8.619  0.1678  1.3554  0.6985
   76SLPC  H18T 6879   5.954   4.997   8.498  0.1431  2.0957 -1.2650
   76SLPC   C33 6880   6.502   5.475   7.163  0.2164  0.3356 -0.2843
   76SLPC   H3X 6881   6.401   5.454   7.203  0.7870 -0.1195  0.9572
   76SLPC   H3Y 6882   6.510   5.586   7.156 -1.3810  0.5884  1.2311
   76SLPC   C34 6883   6.594   5.438   7.279 -0.4488 -0.3501 -0.0498
   76SLPC   H4X 6884   6.701   5.461   7.261 -0.0555 -1.0969  1.2100
   76SLPC   H4Y 6885   6.603   5.329   7.295 -0.2059 -0.0838  1.8678
   76SLPC   C35 6886   6.548   5.504   7.411  0.2722 -0.1008  0.2515
   76SLPC   H5X 6887   6.444   5.474   7.437 -0.0546  1.3672  0.7129
   76SLPC   H5Y 6888   6.553   5.614   7.398 -1.9019  0.1689  1.3455
   76SLPC   C36 6889   6.640   5.470   7.525 -0.1302  0.9875  0.4887
   76SLPC   H6X 6890   6.732   5.531   7.536  0.2218  0.3532  1.1940
   76SLPC   H6Y 6891   6.672   5.367   7.499  2.6279  1.8414  0.1759
   76SLPC   C37 6892   6.566   5.479   7.662  0.2700  0.1091 -0.1258
   76SLPC   H7X 6893   6.463   5.442   7.641 -0.2105  1.1098  0.4023
   76SLPC   H7Y 6894   6.551   5.584   7.695 -0.2657  0.3525 -1.1095
   76SLPC   C38 6895   6.626   5.406   7.783 -0.1042  0.5127  0.0341
   76SLPC   H8X 6896   6.734   5.405   7.756 -0.2437  0.4798 -0.5376
   76SLPC   H8Y 6897   6.591   5.301   7.778  0.6714  0.3087 -2.4077
   76SLPC   C39 6898   6.611   5.464   7.924 -0.1888 -0.0426  0.1052
   76SLPC   H9X 6899   6.501   5.464   7.944 -0.2221  0.5345 -0.0669
   76SLPC   H9Y 6900   6.641   5.571   7.920 -0.5973  0.1123  0.9361
   76SLPC  C310 6901   6.694   5.391   8.015 -0.0678  0.1859  0.5897
   76SLPC  H10X 6902   6.803   5.383   7.996  0.0078  1.9866  0.0980
   76SLPC  H10Y 6903   6.658   5.286   8.026  1.8706 -0.7652 -1.3005
   76SLPC  C311 6904   6.680   5.449   8.156  0.6030 -0.1167 -0.6639
   76SLPC  H11X 6905   6.710   5.556   8.159  1.0225 -0.2486  2.1611
   76SLPC  H11Y 6906   6.742   5.391   8.228  2.2816 -0.0441 -1.9672
   76SLPC  C312 6907   6.538   5.444   8.213 -1.0966 -0.8248  0.2580
   76SLPC  H12X 6908   6.469   5.377   8.157 -1.6068 -1.1373  1.2317
   76SLPC  H12Y 6909   6.503   5.549   8.209 -2.1948 -1.1524  0.8663
   76SLPC  C313 6910   6.541   5.410   8.365 -0.6042 -0.0721 -0.2405
   76SLPC  H13X 6911   6.623   5.463   8.419 -1.7131  1.4104  0.0439
   76SLPC  H13Y 6912   6.562   5.302   8.379  1.3665  0.3031  0.1185
   76SLPC  C314 6913   6.406   5.428   8.447 -0.1456 -0.8209  0.6253
   76SLPC  H14X 6914   6.336   5.345   8.425 -1.6432  0.6857 -0.4844
   76SLPC  H14Y 6915   6.359   5.521   8.409 -1.8689 -1.3654  1.3053
   76SLPC  C315 6916   6.428   5.431   8.601 -0.3132 -0.7538 -0.5204
   76SLPC  H15X 6917   6.513   5.499   8.621 -0.0132 -1.4412  0.6459
   76SLPC  H15Y 6918   6.470   5.336   8.643  0.1250  0.1707  1.2086
   76SLPC  C316 6919   6.302   5.475   8.685 -0.4368 -0.2364 -0.1649
   76SLPC  H16X 6920   6.300   5.586   8.681  2.1948 -0.1009  0.1726
   76SLPC  H16Y 6921   6.318   5.444   8.791 -1.3933  1.8531  0.6507
   76SLPC  C317 6922   6.172   5.424   8.631  0.1031 -0.1131  0.0051
   76SLPC  H17X 6923   6.165   5.315   8.653  1.9387 -0.1123  0.7133
   76SLPC  H17Y 6924   6.168   5.432   8.520  1.3396 -0.3813 -0.0725
   76SLPC  C318 6925   6.056   5.495   8.695 -0.2323  0.4739  0.1301
   76SLPC  H18X 6926   5.954   5.463   8.666 -0.6405 -0.1085  2.0314
   76SLPC  H18Y 6927   6.059   5.601   8.661 -1.4043  0.3840 -0.2888
   76SLPC  H18Z 6928   6.067   5.478   8.805  1.1678  0.6493  0.0355
   77SLPC     N 6929   4.380   0.745   6.216 -0.2529 -0.2892  0.2092
   77SLPC   C13 6930   4.353   0.628   6.125  0.5390 -0.3874 -0.2023
   77SLPC  H13A 6931   4.289   0.558   6.176  0.5020 -1.8940 -2.2147
   77SLPC  H13B 6932   4.295   0.660   6.040 -0.3487 -0.5388  0.3306
   77SLPC  H13C 6933   4.445   0.585   6.088  2.7642  2.9883  0.9236
   77SLPC   C14 6934   4.258   0.817   6.254 -0.1138  0.1702  0.2841
   77SLPC  H14A 6935   4.182   0.761   6.306 -1.0064  1.6946  0.7036
   77SLPC  H14B 6936   4.271   0.910   6.308 -2.2527  1.6598 -1.5294
   77SLPC  H14C 6937   4.205   0.856   6.168  0.9481  2.0104  0.4061
   77SLPC   C15 6938   4.466   0.846   6.138  0.4134  0.1243 -0.4012
   77SLPC  H15A 6939   4.504   0.920   6.208  0.7957 -0.8763  0.4787
   77SLPC  H15B 6940   4.553   0.796   6.099 -0.3097 -0.2619 -1.5709
   77SLPC  H15C 6941   4.418   0.899   6.058  0.3972  0.4882 -0.1550
   77SLPC   C12 6942   4.445   0.705   6.345 -0.7199  0.5226 -0.0280
   77SLPC  H12A 6943   4.456   0.792   6.407 -0.7153  0.2679  0.3307
   77SLPC  H12B 6944   4.546   0.667   6.344 -0.4103  1.2923 -1.6749
   77SLPC   C11 6945   4.377   0.584   6.423 -0.6953  0.1646  1.1902
   77SLPC  H11A 6946   4.270   0.586   6.396 -0.3840  0.6860 -0.0772
   77SLPC  H11B 6947   4.385   0.598   6.533  2.6179  1.2401  0.9310
   77SLPC     P 6948   4.574   0.409   6.426 -0.5010  0.0724  0.7700
   77SLPC   O13 6949   4.589   0.272   6.372  0.2936  0.4318 -0.1300
   77SLPC   O14 6950   4.677   0.503   6.393  0.1649  0.5004  0.2447
   77SLPC   O12 6951   4.433   0.461   6.373 -0.1482  0.5128  0.5365
   77SLPC   O11 6952   4.556   0.395   6.579  0.3848  0.2921  0.3357
   77SLPC    C1 6953   4.460   0.304   6.639 -0.9509  0.0716 -0.6830
   77SLPC    HA 6954   4.376   0.362   6.684  0.1696  0.1000  1.4796
   77SLPC    HB 6955   4.412   0.243   6.559 -0.3307  2.1917 -2.8146
   77SLPC    C2 6956   4.524   0.222   6.754  0.2470  0.0924 -0.4845
   77SLPC    HS 6957   4.445   0.165   6.806 -0.6285  0.1254 -1.7288
   77SLPC   O21 6958   4.599   0.301   6.850 -0.0835 -0.0102  0.2467
   77SLPC   C21 6959   4.525   0.348   6.954 -0.6866 -0.5048 -0.9420
   77SLPC   O22 6960   4.400   0.339   6.963 -0.2572 -0.3555  0.1462
   77SLPC   C22 6961   4.613   0.413   7.053  0.2437  0.0212 -0.1496
   77SLPC   H2R 6962   4.705   0.352   7.067 -0.7944 -1.1891  1.8936
   77SLPC   H2S 6963   4.647   0.513   7.020 -1.7945  0.4525 -1.0722
   77SLPC    C3 6964   4.619   0.105   6.694 -0.2052 -0.5565  0.4011
   77SLPC    HX 6965   4.703   0.173   6.667 -2.1358  1.2731 -1.3884
   77SLPC    HY 6966   4.564   0.070   6.604 -0.1252  1.6790 -0.5876
   77SLPC   O31 6967   4.667  -0.002   6.780  0.7056 -0.5053  0.3761
   77SLPC   C31 6968   4.576  -0.102   6.797 -0.0937 -0.5787 -0.3013
   77SLPC   O32 6969   4.456  -0.097   6.772 -0.5780  0.0917 -0.1189
   77SLPC   C32 6970   4.647  -0.218   6.866 -0.4897  0.1157  0.5413
   77SLPC   H2X 6971   4.748  -0.188   6.901 -0.9742  0.7498  1.4706
   77SLPC   H2Y 6972   4.654  -0.294   6.785  0.2037  0.9520 -0.2084
   77SLPC   C23 6973   4.550   0.443   7.198  0.6637  0.5989 -0.0913
   77SLPC   H3R 6974   4.442   0.416   7.192  0.8715 -0.0204 -1.5778
   77SLPC   H3S 6975   4.556   0.550   7.226 -0.9136  0.7778 -0.3412
   77SLPC   C24 6976   4.618   0.352   7.304  0.6931  0.1098  0.8983
   77SLPC   H4R 6977   4.727   0.347   7.281  0.4887 -0.0973 -0.0580
   77SLPC   H4S 6978   4.585   0.247   7.286 -0.7326  0.7904 -0.7523
   77SLPC   C25 6979   4.616   0.393   7.455 -0.0689 -0.7178 -0.1063
   77SLPC   H5R 6980   4.510   0.418   7.475  0.4261  1.7985 -0.2170
   77SLPC   H5S 6981   4.673   0.488   7.441  2.5381 -2.3313 -1.2854
   77SLPC   C26 6982   4.702   0.297   7.535 -0.1741  0.6931 -0.0537
   77SLPC   H6R 6983   4.795   0.276   7.479 -0.8404  1.2649 -1.4156
   77SLPC   H6S 6984   4.634   0.210   7.546  1.0066 -0.1223  0.9228
   77SLPC   C27 6985   4.727   0.360   7.680  0.3458 -0.2897 -0.2618
   77SLPC   H7R 6986   4.628   0.375   7.727 -0.1162 -1.6130 -0.7652
   77SLPC   H7S 6987   4.778   0.458   7.669 -0.0147 -0.0694  0.0110
   77SLPC   C28 6988   4.809   0.258   7.765 -0.1984 -0.0788 -0.2243
   77SLPC   H8R 6989   4.901   0.236   7.707 -0.2499  2.3552 -1.3492
   77SLPC   H8S 6990   4.750   0.164   7.779 -0.1652  0.1748  2.0658
   77SLPC   C29 6991   4.852   0.318   7.894  1.1729 -0.3121 -0.1522
   77SLPC   H9R 6992   4.942   0.380   7.908  1.5616 -0.9371  0.2059
   77SLPC  C210 6993   4.782   0.283   8.003 -0.0772 -0.7482 -0.6344
   77SLPC  H10R 6994   4.829   0.311   8.099  2.4728 -0.0413 -2.0080
   77SLPC  C211 6995   4.653   0.214   8.022 -0.1961 -0.4731 -0.0151
   77SLPC  H11R 6996   4.580   0.234   7.940 -0.6686 -0.9234  0.2942
   77SLPC  H11S 6997   4.586   0.242   8.105 -0.0462 -1.5126  0.4602
   77SLPC  C212 6998   4.694   0.071   8.034  0.6333  0.1253 -0.4039
   77SLPC  H12R 6999   4.702   0.008   7.944 -0.4978 -1.7711  0.7421
   77SLPC  C213 7000   4.694  -0.003   8.145  0.1105 -0.4503 -0.1033
   77SLPC  H13R 7001   4.720  -0.110   8.141  1.7465 -0.1014  0.4121
   77SLPC  C214 7002   4.656   0.051   8.284  0.1100  0.4924  0.7071
   77SLPC  H14R 7003   4.561   0.005   8.317 -0.2948  1.4900  0.9849
   77SLPC  H14S 7004   4.637   0.161   8.286  0.3191  0.6128 -1.3163
   77SLPC  C215 7005   4.770   0.006   8.382  0.4494  0.8551  0.6410
   77SLPC  H15R 7006   4.853   0.080   8.377  0.3758  0.8794 -0.3138
   77SLPC  H15S 7007   4.815  -0.093   8.364  0.4361  0.7295  1.2500
   77SLPC  C216 7008   4.716   0.013   8.522 -0.0544 -0.2114 -0.2535
   77SLPC  H16R 7009   4.662   0.110   8.531  1.1344  0.5749 -1.1999
   77SLPC  H16S 7010   4.802   0.003   8.591  0.6882  0.4476 -1.0449
   77SLPC  C217 7011   4.625  -0.104   8.557 -0.2838  0.3541 -0.1125
   77SLPC  H17R 7012   4.682  -0.199   8.548 -0.9595  0.0289 -1.2081
   77SLPC  H17S 7013   4.541  -0.127   8.487  1.5125 -0.4369 -2.1226
   77SLPC  C218 7014   4.556  -0.092   8.694  0.3574 -0.0578 -0.2373
   77SLPC  H18R 7015   4.612  -0.063   8.786 -0.3932  1.2002 -0.1450
   77SLPC  H18S 7016   4.495  -0.178   8.729 -1.2273  1.4840  0.9247
   77SLPC  H18T 7017   4.470  -0.022   8.691 -1.9104 -2.6215  1.1401
   77SLPC   C33 7018   4.574  -0.267   6.992 -0.2870  0.4579 -0.4553
   77SLPC   H3X 7019   4.600  -0.375   6.995 -0.7924  0.3396 -0.3286
   77SLPC   H3Y 7020   4.466  -0.269   6.968 -0.1431  0.3985 -1.1038
   77SLPC   C34 7021   4.603  -0.198   7.122  0.0095 -0.0504 -0.2707
   77SLPC   H4X 7022   4.713  -0.201   7.132  0.2613 -0.4703 -2.5098
   77SLPC   H4Y 7023   4.551  -0.265   7.194 -1.3309 -0.6872 -1.7599
   77SLPC   C35 7024   4.556  -0.048   7.142  0.1480  0.5304  0.4475
   77SLPC   H5X 7025   4.624   0.016   7.082 -1.4903  0.7783 -1.2673
   77SLPC   H5Y 7026   4.580  -0.009   7.243  0.6225  0.1981  0.4631
   77SLPC   C36 7027   4.410  -0.018   7.107 -0.2562 -0.1307 -0.4703
   77SLPC   H6X 7028   4.397  -0.039   6.998  1.0404  0.4227 -0.7405
   77SLPC   H6Y 7029   4.408   0.092   7.120  1.7987 -0.3685  3.0047
   77SLPC   C37 7030   4.301  -0.087   7.182 -0.1737  0.2980  0.4177
   77SLPC   H7X 7031   4.291  -0.193   7.152  0.8877 -0.0229  1.1500
   77SLPC   H7Y 7032   4.202  -0.039   7.165  0.3585  0.4258 -2.7941
   77SLPC   C38 7033   4.321  -0.108   7.340 -0.1323 -0.2626  0.0995
   77SLPC   H8X 7034   4.415  -0.162   7.366 -0.7241 -1.0589  0.6000
   77SLPC   H8Y 7035   4.241  -0.176   7.375 -0.8755  0.2162 -0.6331
   77SLPC   C39 7036   4.311   0.019   7.429 -0.2312  0.4190  0.0728
   77SLPC   H9X 7037   4.208   0.056   7.412 -1.4772 -2.4298  0.8360
   77SLPC   H9Y 7038   4.375   0.098   7.382  0.4924  0.8219  1.6433
   77SLPC  C310 7039   4.326  -0.012   7.580  1.0500 -0.0761 -0.3660
   77SLPC  H10X 7040   4.430  -0.049   7.594  0.0818 -3.8932 -1.9806
   77SLPC  H10Y 7041   4.269  -0.106   7.593 -1.4359  1.1065 -2.0503
   77SLPC  C311 7042   4.275   0.095   7.674  0.0293  0.4153 -0.4724
   77SLPC  H11X 7043   4.166   0.116   7.667  0.2113  1.9026  0.6273
   77SLPC  H11Y 7044   4.337   0.181   7.643  2.8293 -1.8565 -1.6064
   77SLPC  C312 7045   4.302   0.060   7.823  0.6414  0.3688  0.4941
   77SLPC  H12X 7046   4.410   0.039   7.838  1.2282  2.6573 -0.1616
   77SLPC  H12Y 7047   4.245  -0.032   7.846  0.3506  0.6472  0.9049
   77SLPC  C313 7048   4.264   0.173   7.915 -0.0716 -0.1564 -0.8592
   77SLPC  H13X 7049   4.157   0.198   7.903 -0.6731 -1.1653  1.7856
   77SLPC  H13Y 7050   4.320   0.261   7.878  0.9998 -0.4234  0.0690
   77SLPC  C314 7051   4.275   0.155   8.063 -0.3259  0.7658 -0.2118
   77SLPC  H14X 7052   4.376   0.118   8.091 -0.2718  0.6331 -0.5702
   77SLPC  H14Y 7053   4.208   0.074   8.100  1.5248 -0.4033  0.7057
   77SLPC  C315 7054   4.247   0.292   8.131 -0.1393  0.0684 -0.3316
   77SLPC  H15X 7055   4.163   0.339   8.075 -1.0493 -0.3488  0.6554
   77SLPC  H15Y 7056   4.333   0.357   8.105 -1.5296  2.7338  1.2712
   77SLPC  C316 7057   4.209   0.286   8.284 -0.2856  0.4794 -0.1306
   77SLPC  H16X 7058   4.106   0.245   8.288  0.2924 -1.3102 -1.7043
   77SLPC  H16Y 7059   4.227   0.386   8.329  0.0998  0.3198  0.0757
   77SLPC  C317 7060   4.294   0.184   8.366 -0.5288  1.3588  0.0511
   77SLPC  H17X 7061   4.400   0.205   8.338 -0.3574  0.9894  0.4137
   77SLPC  H17Y 7062   4.267   0.083   8.328  0.3559  0.0709  2.6347
   77SLPC  C318 7063   4.284   0.185   8.514  0.2850  0.6517 -0.0771
   77SLPC  H18X 7064   4.318   0.279   8.562  0.4985  0.1653  0.7450
   77SLPC  H18Y 7065   4.348   0.104   8.556 -0.8670  0.1831  0.8392
   77SLPC  H18Z 7066   4.177   0.163   8.533  0.1580  0.3780 -1.0838
   78SLPC     N 7067   0.138   5.811   6.148  0.3072 -0.1341 -0.1359
   78SLPC   C13 7068   0.269   5.771   6.117  0.7103 -0.0314 -0.0289
   78SLPC  H13A 7069   0.294   5.697   6.192 -3.0344 -0.6826  0.7435
   78SLPC  H13B 7070   0.257   5.733   6.016 -1.4840 -1.2421  0.6116
   78SLPC  H13C 7071   0.338   5.854   6.121 -2.2316  2.6582 -1.1915
   78SLPC   C14 7072   0.092   5.930   6.072 -0.2398  0.2957 -0.2742
   78SLPC  H14A 7073   0.119   5.920   5.968  0.2645 -0.5003 -0.0783
   78SLPC  H14B 7074  -0.016   5.936   6.079 -0.1420  0.8661  1.3054
   78SLPC  H14C 7075   0.139   6.020   6.110  2.1004  0.2721 -2.8287
   78SLPC   C15 7076   0.125   5.835   6.294 -0.6463  0.2689 -0.9307
   78SLPC  H15A 7077   0.181   5.924   6.315 -1.1047  0.7078 -1.5168
   78SLPC  H15B 7078   0.026   5.859   6.329 -0.5273  1.0816 -1.1393
   78SLPC  H15C 7079   0.166   5.755   6.353 -3.6204 -1.1856 -0.6136
   78SLPC   C12 7080   0.043   5.701   6.124  0.1990  0.1348  0.6974
   78SLPC  H12A 7081   0.088   5.610   6.161  0.8741 -0.9465 -2.3990
   78SLPC  H12B 7082   0.030   5.680   6.018  2.6449 -0.0734  0.3892
   78SLPC   C11 7083  -0.100   5.705   6.186 -0.2808 -0.4382  0.0166
   78SLPC  H11A 7084  -0.111   5.697   6.296 -1.4769  0.4576 -0.0058
   78SLPC  H11B 7085  -0.149   5.614   6.145 -1.0901 -0.4214  0.9021
   78SLPC     P 7086  -0.245   5.920   6.239 -0.2600  0.1756 -0.1554
   78SLPC   O13 7087  -0.249   6.045   6.170  0.0807 -0.2287  0.6337
   78SLPC   O14 7088  -0.374   5.856   6.273  0.1508 -0.0836  0.2586
   78SLPC   O12 7089  -0.174   5.820   6.139  0.6560  0.4424  0.1862
   78SLPC   O11 7090  -0.151   5.942   6.355 -0.9505  1.0258  0.1480
   78SLPC    C1 7091  -0.093   6.063   6.401 -1.0124  0.0992  0.5654
   78SLPC    HA 7092  -0.011   6.026   6.466 -1.2925  0.0914  0.9206
   78SLPC    HB 7093  -0.046   6.132   6.328 -1.6443  0.0989  0.1562
   78SLPC    C2 7094  -0.184   6.141   6.490  0.3543  0.0068  0.1452
   78SLPC    HS 7095  -0.122   6.192   6.566 -0.6914 -1.1774  1.8596
   78SLPC   O21 7096  -0.284   6.062   6.545 -0.0031 -0.1882 -0.0861
   78SLPC   C21 7097  -0.242   5.988   6.643  0.3772  0.4598  0.2460
   78SLPC   O22 7098  -0.130   5.989   6.694 -0.0642  0.3105 -0.5626
   78SLPC   C22 7099  -0.365   5.899   6.684  0.5398  0.4483 -0.2943
   78SLPC   H2R 7100  -0.464   5.945   6.664  0.6968  1.5151  1.2373
   78SLPC   H2S 7101  -0.358   5.810   6.617 -0.6334  0.5704 -0.5996
   78SLPC    C3 7102  -0.247   6.259   6.409  0.1268 -0.0408 -0.2503
   78SLPC    HX 7103  -0.315   6.205   6.340 -0.5838 -1.0615  1.2038
   78SLPC    HY 7104  -0.166   6.302   6.345  0.1598  1.1213  0.5371
   78SLPC   O31 7105  -0.327   6.350   6.484  0.3812 -0.3944  0.1140
   78SLPC   C31 7106  -0.306   6.479   6.463 -1.2096  0.0130 -0.4362
   78SLPC   O32 7107  -0.232   6.528   6.381  0.2789  0.4680 -0.1948
   78SLPC   C32 7108  -0.375   6.564   6.573 -0.3284  0.7920  0.3560
   78SLPC   H2X 7109  -0.472   6.510   6.577  0.5403 -0.8280  0.3981
   78SLPC   H2Y 7110  -0.392   6.667   6.536 -0.2131  0.6083 -0.2258
   78SLPC   C23 7111  -0.360   5.858   6.832 -0.3117  0.1390 -0.7118
   78SLPC   H3R 7112  -0.316   5.944   6.887  0.9601  0.4227 -2.0939
   78SLPC   H3S 7113  -0.287   5.775   6.842 -0.9770 -0.3838 -0.0592
   78SLPC   C24 7114  -0.503   5.821   6.887  0.5021  0.0565 -0.2378
   78SLPC   H4R 7115  -0.550   5.754   6.812  0.6157  3.0149 -3.1590
   78SLPC   H4S 7116  -0.570   5.909   6.895 -0.4596 -0.6991  0.2861
   78SLPC   C25 7117  -0.491   5.759   7.029  0.5054 -0.3232 -0.6167
   78SLPC   H5R 7118  -0.466   5.837   7.104  0.9280  1.0357 -2.1283
   78SLPC   H5S 7119  -0.411   5.682   7.032 -0.3315 -1.2662  3.4523
   78SLPC   C26 7120  -0.623   5.705   7.088 -0.7559 -0.5826 -0.7729
   78SLPC   H6R 7121  -0.676   5.651   7.007 -2.1422  1.6699 -1.4726
   78SLPC   H6S 7122  -0.696   5.787   7.108  0.4818  0.2454  0.5223
   78SLPC   C27 7123  -0.617   5.585   7.185 -0.3941 -0.5210  0.0281
   78SLPC   H7R 7124  -0.562   5.506   7.131 -0.3187 -0.6207  0.2501
   78SLPC   H7S 7125  -0.718   5.540   7.196 -0.8634  0.5656  0.2672
   78SLPC   C28 7126  -0.559   5.617   7.326  0.0385  0.1886 -0.9240
   78SLPC   H8R 7127  -0.448   5.623   7.315  0.2642 -2.0580 -0.4981
   78SLPC   H8S 7128  -0.560   5.520   7.382  1.2842 -0.1773 -1.4972
   78SLPC   C29 7129  -0.615   5.738   7.396  0.2859  0.0892 -0.3072
   78SLPC   H9R 7130  -0.632   5.825   7.331 -0.5525 -0.0277 -0.2571
   78SLPC  C210 7131  -0.663   5.730   7.525 -0.6207  0.6600 -0.0395
   78SLPC  H10R 7132  -0.689   5.828   7.568  2.6255  1.9630 -0.7913
   78SLPC  C211 7133  -0.671   5.622   7.626 -0.0010 -0.1015 -0.3490
   78SLPC  H11R 7134  -0.694   5.525   7.577  1.5823 -0.2086 -0.9624
   78SLPC  H11S 7135  -0.764   5.656   7.675 -0.5134  1.0682 -2.0281
   78SLPC  C212 7136  -0.560   5.617   7.720 -0.1431 -0.5786  0.1158
   78SLPC  H12R 7137  -0.492   5.533   7.697 -0.7532 -1.4868  1.5428
   78SLPC  C213 7138  -0.525   5.690   7.827 -0.1669 -0.1033 -0.6901
   78SLPC  H13R 7139  -0.438   5.663   7.888 -2.2013 -1.5552  1.7595
   78SLPC  C214 7140  -0.605   5.812   7.871 -0.4259 -0.2067  0.3179
   78SLPC  H14R 7141  -0.658   5.851   7.782 -0.2739 -0.0827  0.2817
   78SLPC  H14S 7142  -0.542   5.901   7.895 -0.5134 -0.2247  0.6167
   78SLPC  C215 7143  -0.702   5.793   7.982 -0.2706 -0.2570 -0.0270
   78SLPC  H15R 7144  -0.794   5.740   7.948 -0.8590  1.4372 -1.1759
   78SLPC  H15S 7145  -0.735   5.894   8.015 -2.8095 -1.6084  1.9560
   78SLPC  C216 7146  -0.637   5.715   8.104  0.9602 -0.3793  0.3355
   78SLPC  H16R 7147  -0.545   5.769   8.133 -0.3596  1.7492  0.7983
   78SLPC  H16S 7148  -0.616   5.613   8.067  0.2686 -0.1250 -0.8245
   78SLPC  C217 7149  -0.730   5.717   8.227 -0.5872 -0.3628  0.3963
   78SLPC  H17R 7150  -0.820   5.657   8.200 -1.0205  1.2651 -2.1494
   78SLPC  H17S 7151  -0.756   5.820   8.259  0.8104  0.0139  0.3910
   78SLPC  C218 7152  -0.671   5.635   8.342  0.2406 -0.2349  0.3360
   78SLPC  H18R 7153  -0.571   5.665   8.379  0.6936 -1.3936  0.0845
   78SLPC  H18S 7154  -0.666   5.528   8.315  0.3897 -0.7474  2.2046
   78SLPC  H18T 7155  -0.733   5.637   8.435 -0.0298  0.9940  0.1505
   78SLPC   C33 7156  -0.312   6.574   6.713  0.7547 -0.0728  0.7006
   78SLPC   H3X 7157  -0.221   6.637   6.704  0.2445  0.3765 -2.2326
   78SLPC   H3Y 7158  -0.287   6.478   6.763 -1.1684 -1.7391 -1.3101
   78SLPC   C34 7159  -0.407   6.646   6.804  0.2271  0.1234  1.7125
   78SLPC   H4X 7160  -0.489   6.574   6.826  2.3439 -1.9008  3.5331
   78SLPC   H4Y 7161  -0.458   6.734   6.759 -0.6470 -1.1045  0.1804
   78SLPC   C35 7162  -0.339   6.695   6.933 -0.0519  0.1655 -0.1430
   78SLPC   H5X 7163  -0.394   6.783   6.972 -0.4895 -0.3675  0.4702
   78SLPC   H5Y 7164  -0.230   6.713   6.916  0.9172 -1.0839  3.6759
   78SLPC   C36 7165  -0.342   6.592   7.048  0.0540 -0.5285 -0.9237
   78SLPC   H6X 7166  -0.277   6.503   7.037  0.4524 -0.4984  0.8875
   78SLPC   H6Y 7167  -0.443   6.549   7.067 -1.3181  2.1764 -1.5791
   78SLPC   C37 7168  -0.309   6.654   7.187 -0.2994  0.1301 -0.1479
   78SLPC   H7X 7169  -0.388   6.731   7.201  1.2325  1.3272  2.5646
   78SLPC   H7Y 7170  -0.207   6.697   7.187  0.2908 -1.1792  1.3717
   78SLPC   C38 7171  -0.317   6.552   7.303  0.3366  0.1620 -0.7425
   78SLPC   H8X 7172  -0.239   6.475   7.282  1.4605  1.5575 -1.9527
   78SLPC   H8Y 7173  -0.419   6.509   7.314 -1.3588  3.5890 -1.5835
   78SLPC   C39 7174  -0.295   6.624   7.438  0.0837  0.8241  0.1485
   78SLPC   H9X 7175  -0.337   6.727   7.434  0.4909  0.9516 -2.1165
   78SLPC   H9Y 7176  -0.186   6.641   7.455  0.6351 -1.7189 -0.4405
   78SLPC  C310 7177  -0.345   6.549   7.559 -0.1535 -0.1248  0.4488
   78SLPC  H10X 7178  -0.295   6.450   7.563 -1.1043 -0.6230  0.3988
   78SLPC  H10Y 7179  -0.452   6.526   7.540 -0.1923  1.4587 -1.6040
   78SLPC  C311 7180  -0.328   6.633   7.686  0.1422 -0.3258 -0.4627
   78SLPC  H11X 7181  -0.398   6.718   7.671  1.0258  0.2442 -1.5682
   78SLPC  H11Y 7182  -0.227   6.679   7.685  0.2486 -0.5363  0.5229
   78SLPC  C312 7183  -0.377   6.568   7.820  0.2801 -0.4193  0.3890
   78SLPC  H12X 7184  -0.298   6.498   7.853  1.2724  0.3084 -0.3677
   78SLPC  H12Y 7185  -0.467   6.504   7.806  0.2643 -0.2276 -0.4743
   78SLPC  C313 7186  -0.394   6.672   7.934 -0.3925  0.3184  0.3999
   78SLPC  H13X 7187  -0.420   6.772   7.893 -1.5161 -0.3509 -0.5781
   78SLPC  H13Y 7188  -0.293   6.680   7.978 -0.5694  0.7227  0.7364
   78SLPC  C314 7189  -0.487   6.648   8.048 -0.2737  0.4524  0.1154
   78SLPC  H14X 7190  -0.597   6.647   8.030 -0.5049  3.6636  0.7672
   78SLPC  H14Y 7191  -0.475   6.735   8.115 -1.3137  1.9015 -1.4972
   78SLPC  C315 7192  -0.442   6.518   8.123  0.1021  0.0516 -0.0634
   78SLPC  H15X 7193  -0.333   6.529   8.141  0.7422 -1.4836 -2.5367
   78SLPC  H15Y 7194  -0.470   6.427   8.066 -2.1727  0.9318 -0.4421
   78SLPC  C316 7195  -0.518   6.515   8.257  0.0945  0.3920 -0.6477
   78SLPC  H16X 7196  -0.629   6.518   8.247 -0.7659 -1.5401  4.9168
   78SLPC  H16Y 7197  -0.493   6.602   8.321 -1.7572  0.2380  0.3425
   78SLPC  C317 7198  -0.480   6.380   8.321 -0.1680 -0.2750  0.3048
   78SLPC  H17X 7199  -0.372   6.380   8.348  0.4336 -1.2560 -1.8889
   78SLPC  H17Y 7200  -0.500   6.304   8.243 -0.5716  0.5709 -0.4347
   78SLPC  C318 7201  -0.563   6.364   8.447 -0.1516 -0.0341 -0.0634
   78SLPC  H18X 7202  -0.664   6.329   8.419 -1.1312  1.9305  0.7939
   78SLPC  H18Y 7203  -0.564   6.461   8.502 -1.1838 -0.1653  0.1642
   78SLPC  H18Z 7204  -0.510   6.289   8.509 -0.3524  1.6893  2.3500
   79SLPC     N 7205   2.183   2.249   5.928 -1.0425 -0.0825  0.3537
   79SLPC   C13 7206   2.259   2.137   6.005 -0.2310 -0.1853  0.6358
   79SLPC  H13A 7207   2.221   2.115   6.104 -0.6517  0.8311  0.7084
   79SLPC  H13B 7208   2.248   2.045   5.949 -1.0352  0.7249 -0.7567
   79SLPC  H13C 7209   2.363   2.159   6.020 -0.1090  0.0491 -0.4682
   79SLPC   C14 7210   2.037   2.215   5.914 -0.3851  0.4478 -0.1400
   79SLPC  H14A 7211   1.988   2.208   6.010  0.3223 -0.8204  0.1471
   79SLPC  H14B 7212   1.984   2.287   5.853 -1.2145 -0.5998 -0.6819
   79SLPC  H14C 7213   2.028   2.121   5.862  1.5331  1.5720 -2.7254
   79SLPC   C15 7214   2.229   2.265   5.791  0.2192  0.6406 -0.0778
   79SLPC  H15A 7215   2.221   2.166   5.747 -2.0791  0.5327  0.4219
   79SLPC  H15B 7216   2.165   2.331   5.734  1.1263  0.6715 -1.0799
   79SLPC  H15C 7217   2.330   2.301   5.789  0.9936 -1.3630 -2.4762
   79SLPC   C12 7218   2.203   2.375   6.006  0.0169 -0.4771 -0.3850
   79SLPC  H12A 7219   2.184   2.359   6.111 -1.5620  2.5415 -0.0790
   79SLPC  H12B 7220   2.125   2.444   5.977 -0.6329 -1.3033 -0.6328
   79SLPC   C11 7221   2.342   2.452   5.990 -0.4707  0.5582 -0.1961
   79SLPC  H11A 7222   2.308   2.548   6.036 -0.7214 -0.8082  2.6810
   79SLPC  H11B 7223   2.367   2.474   5.884  1.8398 -0.7878  0.0063
   79SLPC     P 7224   2.528   2.455   6.177 -0.3583  0.3601 -0.4502
   79SLPC   O13 7225   2.651   2.377   6.194  0.2311 -0.5923  0.2280
   79SLPC   O14 7226   2.537   2.600   6.146  0.4409 -0.0900 -0.2953
   79SLPC   O12 7227   2.451   2.377   6.060  0.2500 -0.0756  0.1925
   79SLPC   O11 7228   2.431   2.437   6.298 -0.0397  0.7246  0.1548
   79SLPC    C1 7229   2.390   2.538   6.395  0.4133 -0.5128  0.3671
   79SLPC    HA 7230   2.414   2.642   6.366 -2.4461  0.4707  1.2148
   79SLPC    HB 7231   2.282   2.536   6.422  0.7642 -1.2049  1.8242
   79SLPC    C2 7232   2.465   2.519   6.527 -0.3878  1.1076  0.7677
   79SLPC    HS 7233   2.572   2.541   6.508 -0.9918  2.2164 -1.7055
   79SLPC   O21 7234   2.434   2.386   6.573  0.1478 -0.2347 -0.1000
   79SLPC   C21 7235   2.530   2.314   6.623  0.3496 -0.5292  0.0368
   79SLPC   O22 7236   2.649   2.338   6.628  0.3368 -0.5642 -0.1564
   79SLPC   C22 7237   2.468   2.179   6.650  1.1350 -0.2406 -0.0637
   79SLPC   H2R 7238   2.360   2.195   6.669  1.4762  2.6074 -0.0056
   79SLPC   H2S 7239   2.484   2.117   6.559 -0.3815 -1.5299  0.5018
   79SLPC    C3 7240   2.416   2.619   6.625 -0.2485  0.4026 -0.1385
   79SLPC    HX 7241   2.310   2.598   6.652  0.1736 -2.3249 -0.3377
   79SLPC    HY 7242   2.424   2.726   6.598 -1.9415  0.9904  1.4539
   79SLPC   O31 7243   2.483   2.592   6.752 -0.3833  0.3926 -0.0121
   79SLPC   C31 7244   2.612   2.639   6.756  0.5023  0.3121 -0.2365
   79SLPC   O32 7245   2.666   2.706   6.672  0.4511 -0.5824 -0.4805
   79SLPC   C32 7246   2.679   2.583   6.884 -0.5218  0.1068 -0.0219
   79SLPC   H2X 7247   2.668   2.473   6.875 -0.5294  0.2532 -2.6259
   79SLPC   H2Y 7248   2.625   2.626   6.970  0.8545  1.1588  0.3543
   79SLPC   C23 7249   2.519   2.091   6.760  0.2220 -0.3012  0.1389
   79SLPC   H3R 7250   2.624   2.116   6.785 -0.4370 -0.0959  3.1804
   79SLPC   H3S 7251   2.519   1.986   6.722  1.6501  0.4864 -2.2261
   79SLPC   C24 7252   2.432   2.100   6.887  0.2499 -0.5434  0.9532
   79SLPC   H4R 7253   2.482   2.033   6.960 -0.4524 -1.8046  0.3100
   79SLPC   H4S 7254   2.330   2.063   6.861 -0.1386  0.8666  0.4087
   79SLPC   C25 7255   2.420   2.243   6.923  0.6677 -0.4285 -0.4145
   79SLPC   H5R 7256   2.363   2.302   6.849  1.2075 -1.8361 -2.0126
   79SLPC   H5S 7257   2.521   2.279   6.952 -0.2587  3.1221 -1.1685
   79SLPC   C26 7258   2.321   2.255   7.049 -0.3129 -0.2020  0.6354
   79SLPC   H6R 7259   2.375   2.230   7.143  0.3595  4.6894  1.8380
   79SLPC   H6S 7260   2.236   2.186   7.028  0.2014 -1.3612  2.1832
   79SLPC   C27 7261   2.269   2.398   7.089  0.2267  0.2566 -0.5623
   79SLPC   H7R 7262   2.183   2.374   7.155  0.1569  2.5484  0.2398
   79SLPC   H7S 7263   2.229   2.458   7.005 -0.9397  0.5291  0.1670
   79SLPC   C28 7264   2.386   2.474   7.161  0.1484  0.1964 -0.1485
   79SLPC   H8R 7265   2.468   2.502   7.091 -0.9386  4.4700  0.0536
   79SLPC   H8S 7266   2.422   2.394   7.229  0.8646  1.3876  0.9111
   79SLPC   C29 7267   2.336   2.595   7.233  0.4914 -0.0848 -0.4092
   79SLPC   H9R 7268   2.274   2.658   7.167 -0.1800 -3.0858 -2.8959
   79SLPC  C210 7269   2.343   2.618   7.364 -0.5575 -0.8573  0.6843
   79SLPC  H10R 7270   2.287   2.705   7.402  0.4839  0.3843 -0.5327
   79SLPC  C211 7271   2.398   2.535   7.475 -0.5133 -0.0880  0.0444
   79SLPC  H11R 7272   2.352   2.434   7.466 -0.2761 -0.2863  0.9691
   79SLPC  H11S 7273   2.357   2.578   7.569 -0.2351 -1.9430  1.0572
   79SLPC  C212 7274   2.551   2.517   7.485 -0.5710  0.1896  1.0889
   79SLPC  H12R 7275   2.608   2.557   7.400  0.7104 -2.8264  0.4021
   79SLPC  C213 7276   2.627   2.448   7.578 -0.0759  0.8405  0.4860
   79SLPC  H13R 7277   2.735   2.428   7.573 -0.3141 -0.3131 -0.6346
   79SLPC  C214 7278   2.556   2.385   7.702  0.1363 -0.3239  0.0048
   79SLPC  H14R 7279   2.466   2.442   7.731  0.8616  1.2603 -0.7435
   79SLPC  H14S 7280   2.628   2.386   7.787  0.2365  1.2975 -0.0758
   79SLPC  C215 7281   2.506   2.241   7.667 -0.0738  0.0118  0.7856
   79SLPC  H15R 7282   2.441   2.236   7.577  2.2783 -0.1712 -1.0276
   79SLPC  H15S 7283   2.461   2.205   7.761  0.2058  0.9522  1.2997
   79SLPC  C216 7284   2.624   2.146   7.641  0.1079 -0.9565 -0.4209
   79SLPC  H16R 7285   2.701   2.172   7.716  0.5985  1.9728 -1.7782
   79SLPC  H16S 7286   2.667   2.156   7.539  1.4148 -0.8034  0.1293
   79SLPC  C217 7287   2.580   2.009   7.652 -0.1803 -0.1609  0.0009
   79SLPC  H17R 7288   2.489   2.002   7.589 -0.8689 -0.1510  0.9770
   79SLPC  H17S 7289   2.547   1.997   7.758 -1.9602 -0.4872 -0.5573
   79SLPC  C218 7290   2.677   1.907   7.616  0.3436 -0.0547 -0.0277
   79SLPC  H18R 7291   2.648   1.808   7.656 -0.3313  0.3930  0.6154
   79SLPC  H18S 7292   2.773   1.932   7.667  0.7199  0.0358 -0.7641
   79SLPC  H18T 7293   2.697   1.898   7.507  3.4702  0.9277  0.3659
   79SLPC   C33 7294   2.821   2.634   6.901 -0.1865 -0.9624  1.1318
   79SLPC   H3X 7295   2.824   2.745   6.906 -3.0937 -0.6907 -0.7086
   79SLPC   H3Y 7296   2.880   2.604   6.812  0.9240  1.3929  0.9964
   79SLPC   C34 7297   2.888   2.565   7.019 -0.9012  0.1205 -0.3622
   79SLPC   H4X 7298   2.998   2.572   7.006 -0.2877 -2.9835  1.9521
   79SLPC   H4Y 7299   2.877   2.455   7.009  2.0185 -0.2660 -0.0456
   79SLPC   C35 7300   2.837   2.629   7.147 -0.6496 -0.5341 -0.6389
   79SLPC   H5X 7301   2.731   2.600   7.161 -0.8158  0.7478  1.2693
   79SLPC   H5Y 7302   2.844   2.740   7.136 -1.5239 -0.5576 -1.5149
   79SLPC   C36 7303   2.913   2.601   7.275 -0.0194  0.4577 -0.0026
   79SLPC   H6X 7304   3.021   2.618   7.254 -0.3298  0.5226 -1.6839
   79SLPC   H6Y 7305   2.901   2.491   7.284 -0.6968  0.5177 -0.1418
   79SLPC   C37 7306   2.885   2.686   7.399  0.2536  0.0331  0.6371
   79SLPC   H7X 7307   2.779   2.670   7.427  0.3303 -2.0846 -0.0875
   79SLPC   H7Y 7308   2.905   2.793   7.377  0.7791 -0.2575 -0.3851
   79SLPC   C38 7309   2.963   2.651   7.528 -0.8844  0.6920 -0.1425
   79SLPC   H8X 7310   3.068   2.668   7.495 -2.4331  2.7845 -5.0047
   79SLPC   H8Y 7311   2.957   2.541   7.539  1.4415  0.6752  1.5234
   79SLPC   C39 7312   2.920   2.730   7.646  0.4680  0.8026  0.3847
   79SLPC   H9X 7313   2.813   2.705   7.663 -0.1436  0.2275 -3.2869
   79SLPC   H9Y 7314   2.917   2.836   7.615  0.0825  0.5612 -0.4374
   79SLPC  C310 7315   3.001   2.693   7.775 -0.2326 -0.2994  0.1157
   79SLPC  H10X 7316   3.109   2.711   7.757  0.0960 -1.3726  0.9258
   79SLPC  H10Y 7317   3.007   2.582   7.777  1.2035 -0.2441 -0.4812
   79SLPC  C311 7318   2.950   2.773   7.892 -0.0894 -0.3009 -0.2321
   79SLPC  H11X 7319   2.840   2.765   7.905  0.0864  0.0959  1.7446
   79SLPC  H11Y 7320   2.971   2.881   7.880 -2.7664  0.3391  0.3409
   79SLPC  C312 7321   2.999   2.716   8.034  0.3740  0.4975 -0.2443
   79SLPC  H12X 7322   2.943   2.777   8.108  0.9359  0.6679  0.0396
   79SLPC  H12Y 7323   3.108   2.723   8.053  0.4749 -0.7610 -0.2739
   79SLPC  C313 7324   2.951   2.575   8.061 -0.1329  1.3188 -0.1159
   79SLPC  H13X 7325   3.034   2.518   8.012 -0.9951 -0.7796  0.7371
   79SLPC  H13Y 7326   2.853   2.552   8.013  0.2691  0.3132 -0.4941
   79SLPC  C314 7327   2.962   2.539   8.212  0.7192 -0.2623  0.6737
   79SLPC  H14X 7328   3.039   2.602   8.261  0.1188  0.7778  0.3011
   79SLPC  H14Y 7329   2.999   2.436   8.229 -0.4775 -0.2641  4.1376
   79SLPC  C315 7330   2.831   2.561   8.281  0.0624  0.0038  0.1615
   79SLPC  H15X 7331   2.744   2.509   8.236  0.4149  1.8959 -3.0997
   79SLPC  H15Y 7332   2.809   2.667   8.256 -0.5175 -0.2781 -0.5768
   79SLPC  C316 7333   2.836   2.543   8.434 -1.5544  0.2029 -0.3874
   79SLPC  H16X 7334   2.909   2.612   8.479 -0.0979 -0.3985 -1.7454
   79SLPC  H16Y 7335   2.881   2.443   8.450  1.3888  1.4232 -0.5143
   79SLPC  C317 7336   2.703   2.550   8.508  0.0926 -0.7953  1.0844
   79SLPC  H17X 7337   2.629   2.482   8.462 -1.3413  0.7616  0.9912
   79SLPC  H17Y 7338   2.665   2.655   8.505 -0.0985 -0.8420  1.6414
   79SLPC  C318 7339   2.718   2.508   8.650  0.6786  0.1998  0.1389
   79SLPC  H18X 7340   2.795   2.428   8.652  1.0848  0.5651 -0.3829
   79SLPC  H18Y 7341   2.618   2.482   8.690 -0.5879  1.3546 -2.0579
   79SLPC  H18Z 7342   2.760   2.585   8.719 -0.5825  1.1232 -0.0854
   80SLPC     N 7343   4.914   1.798   6.596  0.6776  0.1895  0.0745
   80SLPC   C13 7344   4.924   1.743   6.457 -0.2912  0.4719  0.3125
   80SLPC  H13A 7345   4.836   1.691   6.422  1.5068 -1.1995 -2.0858
   80SLPC  H13B 7346   4.964   1.810   6.383  2.0011 -1.9973 -0.8822
   80SLPC  H13C 7347   4.997   1.663   6.454  0.2512  0.9451 -2.4876
   80SLPC   C14 7348   4.851   1.703   6.691  0.1889  0.5431  0.6702
   80SLPC  H14A 7349   4.750   1.676   6.664  0.2561 -2.3328  2.7856
   80SLPC  H14B 7350   4.895   1.605   6.706 -1.2315 -0.0415  1.2101
   80SLPC  H14C 7351   4.841   1.744   6.790  1.6485  0.9879  0.6436
   80SLPC   C15 7352   4.820   1.914   6.586 -0.7205 -0.5010 -0.0305
   80SLPC  H15A 7353   4.715   1.887   6.586 -1.3651  1.7897  1.5854
   80SLPC  H15B 7354   4.833   1.976   6.673 -0.5594  1.2217 -1.2410
   80SLPC  H15C 7355   4.845   1.984   6.508 -0.6028 -0.2934  0.1932
   80SLPC   C12 7356   5.052   1.846   6.631  0.6226  0.0340 -0.0136
   80SLPC  H12A 7357   5.046   1.880   6.733  0.4192 -1.0122  0.3398
   80SLPC  H12B 7358   5.078   1.933   6.572 -0.8443  1.7890  1.7701
   80SLPC   C11 7359   5.176   1.745   6.616  0.1804 -0.1299 -0.7515
   80SLPC  H11A 7360   5.155   1.642   6.650 -0.4933 -0.0572 -0.9471
   80SLPC  H11B 7361   5.254   1.771   6.691 -1.3603  0.1370  0.8165
   80SLPC     P 7362   5.300   1.865   6.418 -0.1957  0.2926 -0.0417
   80SLPC   O13 7363   5.398   1.820   6.318  0.0350 -0.2873  0.3512
   80SLPC   O14 7364   5.185   1.949   6.380  0.0644 -0.0946  0.0694
   80SLPC   O12 7365   5.228   1.740   6.480  0.4904 -0.1810  0.1327
   80SLPC   O11 7366   5.364   1.938   6.549 -0.7229 -0.1277 -0.3997
   80SLPC    C1 7367   5.506   1.909   6.561  0.3422  0.4032  0.0582
   80SLPC    HA 7368   5.572   1.904   6.472  1.7053  0.8096  1.0091
   80SLPC    HB 7369   5.555   1.996   6.609  0.3688  0.4164  0.0073
   80SLPC    C2 7370   5.546   1.804   6.668 -0.0869  0.3679  0.3981
   80SLPC    HS 7371   5.657   1.802   6.669 -0.0585 -0.7426 -1.3425
   80SLPC   O21 7372   5.495   1.674   6.635  0.3834  0.1994 -0.4884
   80SLPC   C21 7373   5.559   1.604   6.546 -0.3608 -0.2752  0.2078
   80SLPC   O22 7374   5.663   1.636   6.490 -0.2780 -0.3132  0.0111
   80SLPC   C22 7375   5.480   1.471   6.506  0.0749 -0.5795 -0.4885
   80SLPC   H2R 7376   5.379   1.506   6.474 -0.8374 -1.6417  1.1203
   80SLPC   H2S 7377   5.536   1.438   6.416 -0.5346  0.7146 -1.3755
   80SLPC    C3 7378   5.506   1.854   6.813 -0.0669 -0.0374  0.4114
   80SLPC    HX 7379   5.403   1.892   6.797 -0.6330 -1.5557  0.2640
   80SLPC    HY 7380   5.570   1.944   6.827 -1.1093  0.7654  0.0946
   80SLPC   O31 7381   5.525   1.752   6.910  0.0139  0.2544  0.6732
   80SLPC   C31 7382   5.421   1.700   6.970  0.5801  0.9337  0.0881
   80SLPC   O32 7383   5.305   1.739   6.955 -0.2450  0.5337  0.6630
   80SLPC   C32 7384   5.454   1.596   7.077 -0.2155 -0.0026  0.5344
   80SLPC   H2X 7385   5.554   1.554   7.053 -0.9185 -0.8125 -1.0866
   80SLPC   H2Y 7386   5.383   1.512   7.063  1.5546 -1.4199 -0.3680
   80SLPC   C23 7387   5.479   1.365   6.615  0.6094 -0.2612 -0.8031
   80SLPC   H3R 7388   5.578   1.366   6.664 -0.2838 -0.8821  1.0921
   80SLPC   H3S 7389   5.467   1.268   6.564 -1.8555  0.2553 -1.3458
   80SLPC   C24 7390   5.370   1.377   6.726 -0.1344 -0.4729 -0.6680
   80SLPC   H4R 7391   5.367   1.482   6.763  0.8146 -0.2585 -1.1757
   80SLPC   H4S 7392   5.396   1.313   6.813 -1.8500  0.4769  0.6161
   80SLPC   C25 7393   5.229   1.338   6.680  0.2112 -0.0612  0.1062
   80SLPC   H5R 7394   5.213   1.247   6.618 -2.2858  0.3151  0.1051
   80SLPC   H5S 7395   5.203   1.426   6.618  2.7232 -0.5268 -1.8024
   80SLPC   C26 7396   5.119   1.328   6.790 -0.2344 -0.4786  0.0925
   80SLPC   H6R 7397   5.116   1.229   6.840  0.4852 -1.2095 -1.2811
   80SLPC   H6S 7398   5.024   1.348   6.735  0.7519 -2.3734 -2.4859
   80SLPC   C27 7399   5.119   1.441   6.893 -0.0069  0.3192  0.1593
   80SLPC   H7R 7400   5.100   1.532   6.832  1.2929  0.1420 -0.5542
   80SLPC   H7S 7401   5.222   1.451   6.933 -0.8764 -0.3521  2.7306
   80SLPC   C28 7402   5.022   1.418   7.004  0.5533 -0.4033 -1.1113
   80SLPC   H8R 7403   5.068   1.355   7.083 -1.2240  0.2345  0.5211
   80SLPC   H8S 7404   4.938   1.357   6.965  1.2948 -0.6693 -2.3422
   80SLPC   C29 7405   4.963   1.540   7.069  0.0132  0.1898 -0.3351
   80SLPC   H9R 7406   5.043   1.604   7.110 -0.3057 -1.2855  2.9090
   80SLPC  C210 7407   4.831   1.569   7.081  1.0163 -0.0108  0.0650
   80SLPC  H10R 7408   4.805   1.665   7.129  3.0363  1.1888 -1.0390
   80SLPC  C211 7409   4.711   1.483   7.025 -0.1467  0.1497  0.8045
   80SLPC  H11R 7410   4.729   1.449   6.921 -0.8725 -1.2766  1.1077
   80SLPC  H11S 7411   4.626   1.554   7.011  0.0750  0.4237  0.8536
   80SLPC  C212 7412   4.676   1.364   7.114 -0.1028  0.4179 -0.3999
   80SLPC  H12R 7413   4.709   1.263   7.087 -2.2265 -1.0316  2.0074
   80SLPC  C213 7414   4.610   1.379   7.230 -0.2529  1.0217 -0.1161
   80SLPC  H13R 7415   4.611   1.291   7.297  2.3929 -0.2326 -1.6424
   80SLPC  C214 7416   4.568   1.504   7.301 -0.4540  1.4148 -0.0902
   80SLPC  H14R 7417   4.486   1.556   7.247 -1.1740 -0.5446 -0.9960
   80SLPC  H14S 7418   4.654   1.570   7.325  0.1031 -0.4097  3.6345
   80SLPC  C215 7419   4.510   1.479   7.440  0.0027 -0.0573  0.2147
   80SLPC  H15R 7420   4.416   1.422   7.426 -0.3997  0.3800  1.1034
   80SLPC  H15S 7421   4.489   1.580   7.481  3.1323  0.4053  0.9344
   80SLPC  C216 7422   4.608   1.396   7.527 -0.8908  0.1222 -0.2168
   80SLPC  H16R 7423   4.706   1.448   7.521 -1.2724  0.8941  0.1120
   80SLPC  H16S 7424   4.614   1.289   7.499  0.8906  0.4452 -1.2647
   80SLPC  C217 7425   4.553   1.390   7.678  0.3342  0.0305 -0.5091
   80SLPC  H17R 7426   4.454   1.340   7.674 -1.5239  3.3344 -0.0260
   80SLPC  H17S 7427   4.523   1.491   7.715 -1.0103 -0.5944  0.1976
   80SLPC  C218 7428   4.652   1.337   7.781  0.0320  0.1231 -0.4980
   80SLPC  H18R 7429   4.683   1.235   7.747  0.2219 -0.2458  0.7444
   80SLPC  H18S 7430   4.585   1.329   7.869 -1.7273  1.9312 -1.5804
   80SLPC  H18T 7431   4.737   1.405   7.801 -0.1182 -0.2065  1.3927
   80SLPC   C33 7432   5.447   1.652   7.220  0.1070 -0.6717  0.1358
   80SLPC   H3X 7433   5.343   1.682   7.245  0.3654  0.4382 -0.0582
   80SLPC   H3Y 7434   5.497   1.750   7.235  0.2217 -0.8570  1.0649
   80SLPC   C34 7435   5.491   1.554   7.328 -0.1064  0.1530 -0.1397
   80SLPC   H4X 7436   5.596   1.520   7.315 -0.7094 -0.9771 -2.8956
   80SLPC   H4Y 7437   5.448   1.453   7.311  1.1144 -0.1795 -1.4889
   80SLPC   C35 7438   5.455   1.605   7.465 -0.7222 -0.4789 -0.1797
   80SLPC   H5X 7439   5.359   1.661   7.462 -0.3886  0.0700 -1.3594
   80SLPC   H5Y 7440   5.540   1.667   7.502 -2.4952  0.7682  2.0700
   80SLPC   C36 7441   5.440   1.490   7.564  0.2538 -0.1056  0.2257
   80SLPC   H6X 7442   5.534   1.431   7.569 -0.1675 -0.9256 -1.0819
   80SLPC   H6Y 7443   5.369   1.412   7.528  1.7519 -1.2876 -0.2660
   80SLPC   C37 7444   5.397   1.527   7.709  0.6028 -0.4390 -0.0955
   80SLPC   H7X 7445   5.351   1.437   7.755 -1.2646  0.6419  0.2754
   80SLPC   H7Y 7446   5.316   1.603   7.712  0.9373  0.0313 -1.8958
   80SLPC   C38 7447   5.521   1.592   7.783  0.4235  0.7334  0.3828
   80SLPC   H8X 7448   5.559   1.683   7.730 -0.8775  1.8435  1.2772
   80SLPC   H8Y 7449   5.605   1.519   7.772  0.3863  0.6175  0.8640
   80SLPC   C39 7450   5.497   1.612   7.929  0.1416  0.4256  0.1961
   80SLPC   H9X 7451   5.400   1.666   7.934  0.6337  1.3086  0.3169
   80SLPC   H9Y 7452   5.580   1.670   7.974  0.2079 -0.9013  1.9018
   80SLPC  C310 7453   5.477   1.477   8.015  0.1779  0.5599 -0.8092
   80SLPC  H10X 7454   5.527   1.398   7.954 -1.1750 -1.0899  0.1224
   80SLPC  H10Y 7455   5.371   1.442   8.006  0.1113 -0.0102  1.5425
   80SLPC  C311 7456   5.527   1.490   8.159  0.8331 -0.4266  0.6609
   80SLPC  H11X 7457   5.503   1.391   8.204 -0.9800  0.5410  1.9420
   80SLPC  H11Y 7458   5.473   1.568   8.216 -0.3192 -0.0677 -0.8661
   80SLPC  C312 7459   5.679   1.500   8.157  0.4796 -0.3651  0.0376
   80SLPC  H12X 7460   5.710   1.605   8.137  0.4973 -0.5008 -0.6740
   80SLPC  H12Y 7461   5.732   1.447   8.074  3.2934  1.6207  0.4368
   80SLPC  C313 7462   5.739   1.440   8.286  0.1183  0.2500 -0.1897
   80SLPC  H13X 7463   5.723   1.330   8.283 -1.5494  0.4698 -0.8660
   80SLPC  H13Y 7464   5.700   1.471   8.385 -0.6664 -0.0598 -0.3943
   80SLPC  C314 7465   5.890   1.460   8.284  0.2399 -0.4281  0.6026
   80SLPC  H14X 7466   5.909   1.568   8.268  1.9063 -0.6063  1.1608
   80SLPC  H14Y 7467   5.916   1.398   8.195 -0.5670 -0.5583  0.4456
   80SLPC  C315 7468   5.974   1.416   8.394 -0.0606 -0.4671 -0.5578
   80SLPC  H15X 7469   5.968   1.308   8.421  2.4687 -1.2710 -2.7568
   80SLPC  H15Y 7470   5.915   1.472   8.470  0.0039  1.1232 -1.6440
   80SLPC  C316 7471   6.123   1.458   8.390 -0.5041 -0.0840 -0.8277
   80SLPC  H16X 7472   6.122   1.559   8.345 -3.1790  0.6641  0.6826
   80SLPC  H16Y 7473   6.183   1.385   8.332 -0.8405 -1.5748  0.6295
   80SLPC  C317 7474   6.178   1.451   8.537 -0.1071 -0.8908  0.0652
   80SLPC  H17X 7475   6.096   1.453   8.612 -0.9605 -0.3229 -0.8581
   80SLPC  H17Y 7476   6.247   1.536   8.554 -1.3064  0.2883 -0.8028
   80SLPC  C318 7477   6.247   1.318   8.574  0.5462  0.5607 -0.1117
   80SLPC  H18X 7478   6.274   1.304   8.681 -2.9437 -1.1733  0.6900
   80SLPC  H18Y 7479   6.341   1.306   8.517  1.5514  3.4075  0.7378
   80SLPC  H18Z 7480   6.174   1.235   8.558 -0.1541  0.6875  2.1017
   81SAPS     N 7481   3.724   2.102  10.844  0.2803 -0.0213  0.5406
   81SAPS   HN1 7482   3.765   2.056  10.760 -1.1250 -1.1540  0.4246
   81SAPS   HN2 7483   3.621   2.100  10.831  0.3817  0.8972 -0.6123
   81SAPS   HN3 7484   3.754   2.201  10.854 -3.6773  1.4321  0.0962
   81SAPS   C12 7485   3.772   2.019  10.963 -0.2429 -0.2158 -0.5035
   81SAPS  H12A 7486   3.876   2.000  10.938  0.2549  1.0103  0.4846
   81SAPS   C13 7487   3.789   2.082  11.103  0.4094 -0.4403 -0.1407
   81SAPS  O13A 7488   3.760   2.206  11.121  0.1511  0.6286  0.5507
   81SAPS  O13B 7489   3.838   2.015  11.197  0.4882  0.0497  0.1117
   81SAPS   C11 7490   3.689   1.888  10.981  0.6084 -0.3834 -0.4696
   81SAPS  H11A 7491   3.584   1.916  11.003 -0.4621 -0.8259 -4.2602
   81SAPS  H11B 7492   3.730   1.829  11.065 -1.1962 -0.5454  0.3533
   81SAPS     P 7493   3.575   1.715  10.820  0.4467  0.0328  0.2709
   81SAPS   O13 7494   3.623   1.579  10.845 -0.6081  0.5156 -0.0343
   81SAPS   O14 7495   3.457   1.764  10.898  0.7095  0.5313 -0.0261
   81SAPS   O12 7496   3.694   1.811  10.855  0.0987 -0.1031 -0.5717
   81SAPS   O11 7497   3.562   1.733  10.666 -0.0614  0.3470 -0.0110
   81SAPS    C1 7498   3.432   1.752  10.618  0.2913 -0.1332 -0.6421
   81SAPS    HA 7499   3.380   1.654  10.617  2.0529 -1.1037 -1.7988
   81SAPS    HB 7500   3.369   1.823  10.676  1.7317  0.5307  0.1707
   81SAPS    C2 7501   3.433   1.825  10.480  0.0666  0.4182 -0.3637
   81SAPS    HS 7502   3.328   1.818  10.443 -0.8558 -0.5307  2.2307
   81SAPS   O21 7503   3.522   1.760  10.386 -0.1881 -0.5681 -0.1448
   81SAPS   C21 7504   3.464   1.678  10.299  0.7529  0.5318 -0.3929
   81SAPS   O22 7505   3.347   1.646  10.308 -0.2396  0.4730  0.3217
   81SAPS   C22 7506   3.566   1.625  10.208  1.2874 -0.7006 -0.1729
   81SAPS   H2R 7507   3.612   1.714  10.161  2.6757 -1.0758  0.4176
   81SAPS   H2S 7508   3.645   1.575  10.268  0.8597 -0.5418  0.5376
   81SAPS    C3 7509   3.478   1.971  10.503  0.5382  0.0436 -0.5090
   81SAPS    HX 7510   3.578   1.967  10.551  1.5985  0.2704 -2.5785
   81SAPS    HY 7511   3.409   2.020  10.574  1.7974  1.5328 -0.2729
   81SAPS   O31 7512   3.503   2.053  10.385 -0.1923  0.3264  0.4548
   81SAPS   C31 7513   3.393   2.110  10.342 -0.3401 -0.2698  0.4674
   81SAPS   O32 7514   3.283   2.105  10.403  0.2690  0.5887  0.2368
   81SAPS   C32 7515   3.416   2.170  10.204  0.2734  0.0455 -0.0018
   81SAPS   H2X 7516   3.526   2.188  10.198  0.3498  0.4312  2.0553
   81SAPS   H2Y 7517   3.365   2.269  10.199 -3.4458 -1.7196  0.1123
   81SAPS   C23 7518   3.500   1.524  10.115 -0.0309 -0.0549 -0.4286
   81SAPS   H3R 7519   3.423   1.589  10.068 -1.1805  0.7387  2.3592
   81SAPS   H3S 7520   3.449   1.449  10.180  2.0369 -1.7752 -0.7068
   81SAPS   C24 7521   3.595   1.476  10.006  0.1035  0.5884 -0.4328
   81SAPS   H4R 7522   3.653   1.564   9.971  1.7895  0.2697  1.3848
   81SAPS   H4S 7523   3.533   1.441   9.921 -2.9798  1.3468  1.3477
   81SAPS   C25 7524   3.693   1.370  10.047 -0.1152  0.3272  0.3313
   81SAPS   H5R 7525   3.787   1.412  10.086  0.1993  0.1491 -0.2107
   81SAPS   C26 7526   3.684   1.231  10.040 -0.0825 -0.3291  0.8673
   81SAPS   H6R 7527   3.765   1.166  10.074  0.9703  1.0222  1.0650
   81SAPS   C27 7528   3.569   1.154   9.982 -0.4340 -0.0816 -0.0884
   81SAPS   H7R 7529   3.506   1.229   9.929  1.1110  0.1078 -1.7607
   81SAPS   H7S 7530   3.503   1.131  10.068 -0.2322 -0.1994  0.0355
   81SAPS   C28 7531   3.593   1.042   9.885 -0.3566  0.4988  0.0289
   81SAPS   H8R 7532   3.642   0.950   9.920 -0.5895  0.3092 -0.1443
   81SAPS   C29 7533   3.578   1.039   9.752  0.7376 -0.9511 -0.3553
   81SAPS   H9R 7534   3.597   0.945   9.698 -0.2891 -0.9481 -0.7430
   81SAPS  C210 7535   3.524   1.153   9.659 -0.5169  0.8876 -1.5070
   81SAPS  H10R 7536   3.589   1.143   9.569 -0.6286 -1.9822 -1.3605
   81SAPS  H10S 7537   3.540   1.257   9.696 -3.1607  1.7700 -2.5974
   81SAPS  C211 7538   3.384   1.149   9.620  0.0264 -0.1570  0.4825
   81SAPS  H11R 7539   3.310   1.170   9.698 -0.3240 -0.6288  0.2826
   81SAPS  C212 7540   3.333   1.128   9.499  0.0656 -0.0419 -0.0491
   81SAPS  H12R 7541   3.224   1.119   9.498  0.0661 -0.0936  0.3243
   81SAPS  C213 7542   3.416   1.095   9.382 -0.3983  0.2670  0.5223
   81SAPS  H13R 7543   3.499   1.029   9.415  0.0024 -0.8635 -2.3912
   81SAPS  H13S 7544   3.458   1.188   9.338  1.6378 -1.0130 -0.3823
   81SAPS  C214 7545   3.336   1.018   9.274  0.9911  0.0320 -0.0172
   81SAPS  H14R 7546   3.279   0.930   9.309  1.7960 -1.1056 -1.4563
   81SAPS  C215 7547   3.328   1.046   9.137 -0.4211 -0.0761  0.8911
   81SAPS  H15R 7548   3.283   0.961   9.083 -1.1968  0.1744  1.1271
   81SAPS  C216 7549   3.384   1.157   9.044  1.1932  0.4290  0.7821
   81SAPS  H16R 7550   3.425   1.246   9.098  1.6902  1.4758 -1.2304
   81SAPS  H16S 7551   3.295   1.195   8.990  1.0952 -0.9009 -0.0377
   81SAPS  C217 7552   3.473   1.100   8.936  0.2733 -0.4902 -0.1055
   81SAPS  H17R 7553   3.404   1.052   8.864 -1.0663  0.6344  0.4024
   81SAPS  H17S 7554   3.542   1.024   8.979  1.3836 -0.8652 -2.4350
   81SAPS  C218 7555   3.552   1.206   8.857 -0.7837 -0.1711  0.0828
   81SAPS  H18R 7556   3.602   1.263   8.938 -1.5286  0.0905  0.3736
   81SAPS  H18S 7557   3.473   1.275   8.822 -2.0853 -1.6423 -0.0291
   81SAPS  C219 7558   3.630   1.152   8.737 -0.6078  0.2224  0.1968
   81SAPS  H19R 7559   3.559   1.094   8.675  1.9104 -0.9298 -1.7685
   81SAPS  H19S 7560   3.706   1.088   8.785 -1.1262  0.2957  1.1480
   81SAPS  C220 7561   3.708   1.256   8.658 -0.2170 -0.6271 -1.0334
   81SAPS  H20R 7562   3.770   1.216   8.575  0.5430  3.8794 -2.8957
   81SAPS  H20S 7563   3.779   1.319   8.716 -0.6431 -0.5246 -0.6183
   81SAPS  H20T 7564   3.641   1.319   8.597  0.1309 -0.3445 -1.1233
   81SAPS   C33 7565   3.376   2.072  10.091  0.2274 -1.1768  0.2410
   81SAPS   H3X 7566   3.272   2.037  10.108 -0.3881  0.3961 -0.1120
   81SAPS   H3Y 7567   3.456   1.995  10.089  2.0101  0.5675  0.2973
   81SAPS   C34 7568   3.375   2.142   9.956 -0.0295  0.0996  0.3518
   81SAPS   H4X 7569   3.475   2.188   9.946 -0.9535  2.0004 -0.8152
   81SAPS   H4Y 7570   3.300   2.223   9.968  0.8515  0.8127  1.2101
   81SAPS   C35 7571   3.358   2.043   9.837 -0.4151 -0.0714  0.1915
   81SAPS   H5X 7572   3.364   1.937   9.871 -2.6164 -0.8830 -1.7046
   81SAPS   H5Y 7573   3.436   2.063   9.761 -2.4961 -0.8407 -2.2788
   81SAPS   C36 7574   3.221   2.048   9.766  0.3369  0.6418  0.1833
   81SAPS   H6X 7575   3.203   2.157   9.754  0.1108  0.2904 -4.1412
   81SAPS   H6Y 7576   3.138   2.005   9.827  3.0983 -3.3818  1.5311
   81SAPS   C37 7577   3.219   1.974   9.629  0.1289  0.0203  0.5673
   81SAPS   H7X 7578   3.246   1.868   9.650  0.2832  0.2633  1.6682
   81SAPS   H7Y 7579   3.303   2.010   9.566  0.4302 -0.2924  0.7859
   81SAPS   C38 7580   3.092   1.987   9.540  0.2424  0.4268 -0.4267
   81SAPS   H8X 7581   3.069   2.096   9.540 -0.2933  0.3240 -1.2657
   81SAPS   H8Y 7582   3.003   1.932   9.578  0.8026 -0.5584 -0.5104
   81SAPS   C39 7583   3.112   1.934   9.392  0.1545 -0.0465 -0.5682
   81SAPS   H9X 7584   3.145   1.828   9.405  1.1748  0.2236 -0.8568
   81SAPS   H9Y 7585   3.185   2.010   9.356 -0.2680  1.6579  1.9143
   81SAPS  C310 7586   2.982   1.944   9.303 -0.3292  0.3386  0.5888
   81SAPS  H10X 7587   2.936   2.042   9.325 -1.2292 -0.0068  0.2904
   81SAPS  H10Y 7588   2.915   1.860   9.329  0.9434 -0.7855  0.3890
   81SAPS  C311 7589   3.006   1.919   9.146  0.2299 -0.1676 -0.2953
   81SAPS  H11X 7590   2.916   1.947   9.087  1.0279 -2.1727 -2.6440
   81SAPS  H11Y 7591   3.017   1.810   9.128  1.1658  0.0043 -0.8589
   81SAPS  C312 7592   3.126   1.994   9.087 -0.2527 -0.3067 -0.4556
   81SAPS  H12X 7593   3.226   1.956   9.119 -1.0422 -1.1830  1.1016
   81SAPS  H12Y 7594   3.130   2.103   9.110  2.0600 -0.6793  1.3306
   81SAPS  C313 7595   3.128   1.987   8.935 -0.1474 -0.1186  0.5977
   81SAPS  H13X 7596   3.216   2.037   8.891  1.1319 -1.4665  1.5179
   81SAPS  H13Y 7597   3.030   2.024   8.898 -0.4251  0.0056  1.4335
   81SAPS  C314 7598   3.155   1.844   8.883  0.2610 -0.1121  0.1096
   81SAPS  H14X 7599   3.084   1.777   8.936 -1.6123  0.6231 -1.3698
   81SAPS  H14Y 7600   3.256   1.815   8.921  0.7054  1.1288 -0.0517
   81SAPS  C315 7601   3.130   1.829   8.728 -0.2581  0.2157  0.8462
   81SAPS  H15X 7602   3.021   1.835   8.707 -0.3610 -3.3133 -0.1544
   81SAPS  H15Y 7603   3.169   1.731   8.694  2.0515  1.5835 -0.7339
   81SAPS  C316 7604   3.196   1.941   8.640 -0.3327 -0.2989 -0.2165
   81SAPS  H16X 7605   3.305   1.938   8.662 -0.2372  1.8211 -0.2898
   81SAPS  H16Y 7606   3.160   2.045   8.655 -0.9241 -0.2189 -1.9658
   81SAPS  C317 7607   3.192   1.914   8.484 -0.1679 -0.2074 -0.0535
   81SAPS  H17X 7608   3.102   1.854   8.459  1.1185 -2.1357 -0.2345
   81SAPS  H17Y 7609   3.282   1.855   8.458  0.6774  1.7861 -1.9521
   81SAPS  C318 7610   3.197   2.035   8.390 -0.6365  0.4174  0.2820
   81SAPS  H18X 7611   3.105   2.095   8.408 -0.4888  0.2500  1.6749
   81SAPS  H18Y 7612   3.190   2.006   8.283 -2.9775 -2.0990  1.0098
   81SAPS  H18Z 7613   3.282   2.103   8.415 -1.4112  1.0319  1.3640
   82SAPS     N 7614   1.874   2.084  10.922 -0.0883 -0.6091  0.6699
   82SAPS   HN1 7615   1.871   2.003  10.856  2.1325  1.5243 -2.3024
   82SAPS   HN2 7616   1.797   2.144  10.887  0.3579  0.4470  1.4686
   82SAPS   HN3 7617   1.963   2.130  10.895  0.1833 -2.2132 -1.4706
   82SAPS   C12 7618   1.862   2.034  11.057 -0.7625  0.3315 -0.0095
   82SAPS  H12A 7619   1.826   2.115  11.117 -0.3030  0.7381 -0.2769
   82SAPS   C13 7620   1.765   1.912  11.072  0.0843 -0.1545  0.1093
   82SAPS  O13A 7621   1.728   1.862  10.963  0.2810 -0.4507  0.3799
   82SAPS  O13B 7622   1.726   1.881  11.183  0.3990  0.2802  0.2684
   82SAPS   C11 7623   2.009   1.993  11.109  0.0691  0.5188  0.3949
   82SAPS  H11A 7624   2.008   1.951  11.211  0.6787 -1.7136 -0.4589
   82SAPS  H11B 7625   2.077   2.080  11.123  1.8842 -1.0824  2.1327
   82SAPS     P 7626   2.207   1.826  11.020  0.0303 -0.0214  0.1673
   82SAPS   O13 7627   2.290   1.887  11.128  0.0463 -0.0264  0.2522
   82SAPS   O14 7628   2.200   1.677  11.008 -0.3378 -0.6684  0.8265
   82SAPS   O12 7629   2.057   1.884  11.023 -0.5662 -0.4228  0.0253
   82SAPS   O11 7630   2.270   1.882  10.883  0.2783  0.3391  0.1060
   82SAPS    C1 7631   2.195   1.882  10.768  0.3045 -0.6116  1.1047
   82SAPS    HA 7632   2.087   1.891  10.794 -0.1558  0.1147 -0.8174
   82SAPS    HB 7633   2.223   1.978  10.718  1.4352 -1.5005 -0.0240
   82SAPS    C2 7634   2.205   1.760  10.677 -0.1594  0.1335  0.0440
   82SAPS    HS 7635   2.157   1.678  10.735  1.2096 -0.5394  0.2615
   82SAPS   O21 7636   2.349   1.734  10.662 -0.2433  0.2451  0.0451
   82SAPS   C21 7637   2.364   1.609  10.621 -0.8577 -0.0027  0.1871
   82SAPS   O22 7638   2.282   1.519  10.623 -0.1164  0.0538  0.8910
   82SAPS   C22 7639   2.508   1.596  10.576  0.3973 -0.7018  0.1212
   82SAPS   H2R 7640   2.534   1.684  10.513 -0.2073 -1.9104 -1.9184
   82SAPS   H2S 7641   2.582   1.598  10.659  2.0144 -0.9827 -1.2585
   82SAPS    C3 7642   2.130   1.788  10.547 -0.3144  0.0466  0.3481
   82SAPS    HX 7643   2.199   1.865  10.508  1.0534 -2.8464 -3.6315
   82SAPS    HY 7644   2.032   1.838  10.562 -0.9051 -1.1688  0.7253
   82SAPS   O31 7645   2.136   1.673  10.457  0.4442 -0.5792 -0.2742
   82SAPS   C31 7646   2.025   1.601  10.458 -0.4747  0.3114  0.0101
   82SAPS   O32 7647   1.921   1.621  10.521 -0.2240  0.3588 -0.5225
   82SAPS   C32 7648   2.041   1.494  10.350 -0.6713  0.0146 -0.3448
   82SAPS   H2X 7649   2.100   1.404  10.379  1.4888  1.5161  0.1400
   82SAPS   H2Y 7650   2.096   1.550  10.272  1.5727  1.1128  1.8958
   82SAPS   C23 7651   2.535   1.476  10.481 -0.3443  0.5240  0.2431
   82SAPS   H3R 7652   2.522   1.376  10.526 -1.8516  1.3587  1.7478
   82SAPS   H3S 7653   2.643   1.479  10.454 -0.5927  1.6452 -0.7419
   82SAPS   C24 7654   2.453   1.482  10.349 -0.3682 -0.1935  0.2186
   82SAPS   H4R 7655   2.446   1.588  10.317  1.3661 -0.5309 -1.4403
   82SAPS   H4S 7656   2.354   1.447  10.384 -0.7699 -0.1250 -0.8328
   82SAPS   C25 7657   2.500   1.385  10.250 -0.3490 -0.4498 -0.8364
   82SAPS   H5R 7658   2.501   1.281  10.283  3.9032 -0.9118 -1.7887
   82SAPS   C26 7659   2.532   1.419  10.124 -0.1510  0.5938  0.0455
   82SAPS   H6R 7660   2.557   1.342  10.048 -1.9036 -0.7187  0.7199
   82SAPS   C27 7661   2.523   1.552  10.049 -0.3290 -0.9098 -0.4426
   82SAPS   H7R 7662   2.606   1.561   9.975 -0.0741 -1.1923 -0.1930
   82SAPS   H7S 7663   2.563   1.628  10.120  0.6856 -0.8567 -1.0586
   82SAPS   C28 7664   2.395   1.574   9.977 -0.2902  0.6671 -0.3054
   82SAPS   H8R 7665   2.308   1.600  10.039 -1.0598  1.0005 -1.4970
   82SAPS   C29 7666   2.378   1.586   9.842  0.1002  0.8250 -0.2997
   82SAPS   H9R 7667   2.281   1.613   9.797  0.7243  2.4178 -0.7547
   82SAPS  C210 7668   2.488   1.571   9.737  0.6822  0.7253 -0.1416
   82SAPS  H10R 7669   2.582   1.532   9.781  0.2264 -0.3051 -0.0640
   82SAPS  H10S 7670   2.509   1.670   9.689 -0.1999 -0.4881 -3.3068
   82SAPS  C211 7671   2.453   1.475   9.622 -0.6701  0.5646 -0.1364
   82SAPS  H11R 7672   2.369   1.406   9.635  1.1436 -1.5890  0.8829
   82SAPS  C212 7673   2.506   1.489   9.499  0.0957  0.5341  0.1368
   82SAPS  H12R 7674   2.470   1.420   9.421  0.8808 -0.3887  0.5699
   82SAPS  C213 7675   2.610   1.595   9.458 -0.3481  0.7454  0.2676
   82SAPS  H13R 7676   2.639   1.653   9.548 -1.8261  1.8188  0.0880
   82SAPS  H13S 7677   2.558   1.660   9.384  0.8653 -0.6754 -1.9464
   82SAPS  C214 7678   2.736   1.522   9.397  0.0253 -0.1264  0.4106
   82SAPS  H14R 7679   2.806   1.478   9.469  0.9225  0.3213 -0.1649
   82SAPS  C215 7680   2.789   1.534   9.269  0.1076  0.0910 -1.0371
   82SAPS  H15R 7681   2.878   1.472   9.248 -0.1626 -2.0437  3.0151
   82SAPS  C216 7682   2.734   1.614   9.156 -0.1939  0.0023 -0.5808
   82SAPS  H16R 7683   2.809   1.694   9.139 -2.0623  1.9189 -0.3295
   82SAPS  H16S 7684   2.652   1.683   9.188  0.4049 -0.0254  1.1060
   82SAPS  C217 7685   2.701   1.540   9.028 -0.2231 -0.1612  0.3587
   82SAPS  H17R 7686   2.678   1.618   8.952  0.5023  3.0366  3.1455
   82SAPS  H17S 7687   2.614   1.471   9.021  0.0833 -0.5500  0.3411
   82SAPS  C218 7688   2.825   1.461   8.969  0.5341  0.2895  0.4245
   82SAPS  H18R 7689   2.847   1.369   9.027  0.0518  1.0516  1.8618
   82SAPS  H18S 7690   2.917   1.523   8.970  1.7125 -1.3020 -1.2485
   82SAPS  C219 7691   2.815   1.413   8.825 -0.2215 -0.2143  1.1268
   82SAPS  H19R 7692   2.909   1.363   8.795 -1.0650  0.0185 -2.4985
   82SAPS  H19S 7693   2.807   1.500   8.755  0.6886 -1.2350 -0.3134
   82SAPS  C220 7694   2.692   1.326   8.794 -0.4174  0.1994 -0.6587
   82SAPS  H20R 7695   2.716   1.253   8.714  0.1814  1.5284 -1.7274
   82SAPS  H20S 7696   2.591   1.367   8.773 -1.2874 -0.8343  1.2242
   82SAPS  H20T 7697   2.664   1.261   8.881 -0.9638 -0.2011 -1.1246
   82SAPS   C33 7698   1.904   1.464  10.288  0.7952 -0.0980  0.2762
   82SAPS   H3X 7699   1.836   1.552  10.285  1.2089  0.2585  1.0603
   82SAPS   H3Y 7700   1.871   1.391  10.365  0.9733 -0.0331  0.4152
   82SAPS   C34 7701   1.899   1.391  10.156  0.5343 -0.3800  0.4364
   82SAPS   H4X 7702   1.794   1.363  10.134  1.1268 -1.4628 -1.2429
   82SAPS   H4Y 7703   1.957   1.296  10.165  0.8239 -0.1457  1.1476
   82SAPS   C35 7704   1.956   1.476  10.039  0.8698 -0.3931  0.2731
   82SAPS   H5X 7705   2.062   1.460  10.069 -0.0997 -1.9760  3.3316
   82SAPS   H5Y 7706   1.944   1.587  10.044  0.1069 -0.3167 -2.1314
   82SAPS   C36 7707   1.926   1.429   9.898 -0.0559 -0.0461 -0.4589
   82SAPS   H6X 7708   1.816   1.438   9.882 -0.4694 -2.1545  0.7532
   82SAPS   H6Y 7709   1.946   1.320   9.891  2.0949  0.2881 -0.1537
   82SAPS   C37 7710   2.000   1.505   9.785 -0.1246  0.3918 -0.5120
   82SAPS   H7X 7711   2.110   1.501   9.799  0.4534  1.1994 -3.9160
   82SAPS   H7Y 7712   1.966   1.610   9.794  0.8593  0.6503  0.4143
   82SAPS   C38 7713   1.977   1.449   9.646 -0.7108 -0.2054 -0.5869
   82SAPS   H8X 7714   1.885   1.488   9.597 -1.3906  0.1322  0.9113
   82SAPS   H8Y 7715   1.976   1.338   9.645 -0.1032 -0.2109 -1.2960
   82SAPS   C39 7716   2.092   1.495   9.551 -0.0770  0.0433 -0.1139
   82SAPS   H9X 7717   2.189   1.493   9.606 -1.2658  0.4420  2.0939
   82SAPS   H9Y 7718   2.069   1.601   9.526 -0.5875 -0.1896 -0.6423
   82SAPS  C310 7719   2.118   1.404   9.433  0.2685 -0.5580 -0.2076
   82SAPS  H10X 7720   2.114   1.295   9.454 -1.1304 -0.7285 -1.2123
   82SAPS  H10Y 7721   2.220   1.425   9.395  0.2222 -0.3693 -0.2264
   82SAPS  C311 7722   2.023   1.438   9.317  0.5396 -0.6771  0.0010
   82SAPS  H11X 7723   2.025   1.547   9.296 -0.9882 -0.0683  2.6714
   82SAPS  H11Y 7724   1.920   1.418   9.355  0.7295 -1.5883  0.0787
   82SAPS  C312 7725   2.046   1.356   9.191 -0.3253  0.1378 -0.3391
   82SAPS  H12X 7726   1.978   1.411   9.122  1.6518  1.4599 -1.3369
   82SAPS  H12Y 7727   2.015   1.252   9.216 -0.9820  0.2289 -0.7743
   82SAPS  C313 7728   2.187   1.361   9.145 -0.9866  0.0196  0.7754
   82SAPS  H13X 7729   2.267   1.293   9.181 -1.3458 -0.7656  0.1366
   82SAPS  H13Y 7730   2.234   1.462   9.145 -0.2595 -0.2208 -2.2214
   82SAPS  C314 7731   2.190   1.330   8.995  0.2197 -0.4097  0.7955
   82SAPS  H14X 7732   2.290   1.351   8.950  0.1863 -0.7311  0.5704
   82SAPS  H14Y 7733   2.118   1.395   8.941  2.8308 -0.8068 -3.6635
   82SAPS  C315 7734   2.166   1.182   8.957  0.6631  0.2954 -0.4330
   82SAPS  H15X 7735   2.079   1.143   9.014  2.3852 -2.9314  0.2742
   82SAPS  H15Y 7736   2.260   1.132   8.990 -1.0880 -2.8397  0.2077
   82SAPS  C316 7737   2.130   1.148   8.808 -0.0407  0.2239  0.1437
   82SAPS  H16X 7738   2.231   1.159   8.764 -0.6364  0.4632 -1.2121
   82SAPS  H16Y 7739   2.050   1.218   8.775 -0.2874  0.7941  1.8617
   82SAPS  C317 7740   2.079   1.010   8.777  0.1396  0.5398 -1.0744
   82SAPS  H17X 7741   2.076   0.999   8.666 -1.6739 -1.5275 -0.8719
   82SAPS  H17Y 7742   1.983   0.984   8.826 -0.4800  1.8706 -1.5219
   82SAPS  C318 7743   2.183   0.900   8.815  0.7793 -0.1240  0.0455
   82SAPS  H18X 7744   2.162   0.799   8.773  0.9607  0.5190 -1.7072
   82SAPS  H18Y 7745   2.211   0.907   8.922 -0.9419  0.4866  0.4899
   82SAPS  H18Z 7746   2.274   0.932   8.760  0.6480  0.8167  0.3538
   83SAPS     N 7747   3.398   3.774  10.872  0.2893 -0.4088 -0.4913
   83SAPS   HN1 7748   3.337   3.818  10.799  0.1796  2.5309  1.2263
   83SAPS   HN2 7749   3.495   3.787  10.837  0.1087  1.9817 -0.2421
   83SAPS   HN3 7750   3.368   3.677  10.898 -1.9615  0.7842  1.8103
   83SAPS   C12 7751   3.401   3.847  11.003  0.9293 -0.3399  0.0975
   83SAPS  H12A 7752   3.425   3.948  10.974 -0.4222 -0.4853 -1.6701
   83SAPS   C13 7753   3.268   3.838  11.085  0.3868 -0.6088  0.3051
   83SAPS  O13A 7754   3.174   3.791  11.023 -0.2436  0.4068 -0.4818
   83SAPS  O13B 7755   3.244   3.912  11.187  0.0638  0.2083  0.1392
   83SAPS   C11 7756   3.505   3.780  11.088  0.6742  0.5611 -0.8537
   83SAPS  H11A 7757   3.471   3.675  11.098  0.2981  0.8542  1.5695
   83SAPS  H11B 7758   3.497   3.826  11.189 -3.4200  0.8909 -1.1605
   83SAPS     P 7759   3.754   3.683  11.078  0.3132  0.0496  0.7066
   83SAPS   O13 7760   3.877   3.717  10.998  0.7747 -0.5617  0.1963
   83SAPS   O14 7761   3.760   3.694  11.223  0.7915  0.1953  0.7905
   83SAPS   O12 7762   3.633   3.784  11.026  0.1705  0.1450 -0.2032
   83SAPS   O11 7763   3.700   3.535  11.036 -0.1399  0.7022  0.7308
   83SAPS    C1 7764   3.807   3.432  11.002  0.6154  0.0293  0.3844
   83SAPS    HA 7765   3.907   3.459  11.042  0.0455  1.1143  1.1438
   83SAPS    HB 7766   3.790   3.331  11.045  1.7085 -0.9962 -1.4723
   83SAPS    C2 7767   3.822   3.400  10.853 -0.0274  0.0841  0.0741
   83SAPS    HS 7768   3.878   3.305  10.844  0.0522 -0.0630  1.8918
   83SAPS   O21 7769   3.895   3.504  10.780 -0.0029 -0.2503  0.4562
   83SAPS   C21 7770   4.022   3.515  10.796 -0.4130  0.2161  0.8276
   83SAPS   O22 7771   4.095   3.439  10.857  0.4290 -0.0970  0.0610
   83SAPS   C22 7772   4.076   3.635  10.727 -0.5215  0.1196  0.2683
   83SAPS   H2R 7773   4.033   3.719  10.787 -1.4559  1.4983 -2.1668
   83SAPS   H2S 7774   4.186   3.642  10.729 -0.5579  0.8112  0.3484
   83SAPS    C3 7775   3.686   3.380  10.785  0.1437 -0.8694 -0.2527
   83SAPS    HX 7776   3.619   3.463  10.815  0.4187 -1.2922  1.6385
   83SAPS    HY 7777   3.634   3.297  10.838 -2.5718  0.7594 -0.1719
   83SAPS   O31 7778   3.697   3.349  10.637 -0.3523  0.1247  0.4461
   83SAPS   C31 7779   3.676   3.460  10.568  0.1200 -0.4723 -0.0923
   83SAPS   O32 7780   3.646   3.573  10.608 -0.2358  0.2886 -0.2309
   83SAPS   C32 7781   3.676   3.424  10.420 -0.2627 -0.3671  0.2687
   83SAPS   H2X 7782   3.583   3.367  10.397 -0.6075 -0.8928  2.6942
   83SAPS   H2Y 7783   3.754   3.350  10.394  0.1018 -1.0562  3.0271
   83SAPS   C23 7784   4.025   3.651  10.578  0.0502  0.4365 -0.3313
   83SAPS   H3R 7785   3.916   3.635  10.591  0.5094 -2.0658  1.0476
   83SAPS   H3S 7786   4.057   3.576  10.503 -1.0049 -0.0434 -0.3164
   83SAPS   C24 7787   4.048   3.801  10.525  0.1797  0.0372  0.4950
   83SAPS   H4R 7788   3.989   3.865  10.594  0.8685  0.7207  0.4656
   83SAPS   H4S 7789   4.008   3.811  10.423  0.0123 -0.3570  0.5212
   83SAPS   C25 7790   4.193   3.846  10.537 -0.2861  0.7964  0.5931
   83SAPS   H5R 7791   4.222   3.889  10.634  0.3949  1.5334  0.0811
   83SAPS   C26 7792   4.292   3.849  10.441 -0.3379  0.6228 -0.5379
   83SAPS   H6R 7793   4.396   3.875  10.465 -0.3375  0.5362 -0.4502
   83SAPS   C27 7794   4.276   3.818  10.294 -0.0014  0.2345  0.9964
   83SAPS   H7R 7795   4.350   3.871  10.230 -1.7719  0.7269 -0.7166
   83SAPS   H7S 7796   4.176   3.841  10.252  0.8285  3.0092  0.3647
   83SAPS   C28 7797   4.298   3.668  10.272  0.2663  1.0081  0.3136
   83SAPS   H8R 7798   4.305   3.602  10.360  0.3831 -1.1312 -1.2224
   83SAPS   C29 7799   4.296   3.601  10.151 -0.0600 -0.2875  0.0276
   83SAPS   H9R 7800   4.319   3.493  10.148 -0.2272 -0.3411  0.5447
   83SAPS  C210 7801   4.279   3.662  10.010 -0.0149  0.3489 -0.1666
   83SAPS  H10R 7802   4.331   3.598   9.935 -0.1385  0.8762 -0.7068
   83SAPS  H10S 7803   4.346   3.750  10.021  0.5354 -0.3220  2.7495
   83SAPS  C211 7804   4.132   3.705   9.989  0.0133 -0.1497  0.2569
   83SAPS  H11R 7805   4.084   3.708  10.088  0.7954  1.7894  0.6194
   83SAPS  C212 7806   4.060   3.735   9.883 -0.2040  0.0596 -0.3649
   83SAPS  H12R 7807   3.959   3.774   9.905  0.0237  0.4940 -0.0823
   83SAPS  C213 7808   4.105   3.724   9.739  0.3543  0.5519 -0.1597
   83SAPS  H13R 7809   4.023   3.709   9.665 -0.2520  1.3842  0.3312
   83SAPS  H13S 7810   4.159   3.627   9.731 -0.5388  0.1238 -1.2977
   83SAPS  C214 7811   4.202   3.829   9.694 -0.5985  0.3287 -0.6797
   83SAPS  H14R 7812   4.222   3.904   9.771 -0.7516  0.0417 -0.3609
   83SAPS  C215 7813   4.247   3.845   9.562 -0.4893 -0.5110 -0.7760
   83SAPS  H15R 7814   4.318   3.927   9.543 -0.2360 -0.4319  0.4440
   83SAPS  C216 7815   4.195   3.769   9.440 -0.0855  0.1993 -0.3153
   83SAPS  H16R 7816   4.135   3.679   9.466  1.1324 -0.2435  1.0834
   83SAPS  H16S 7817   4.282   3.739   9.378  0.9227  1.2828  0.5208
   83SAPS  C217 7818   4.107   3.851   9.343  0.1099  0.4418  0.1687
   83SAPS  H17R 7819   4.002   3.843   9.377 -0.5920  0.1163 -1.9350
   83SAPS  H17S 7820   4.090   3.799   9.247 -0.2601  1.0577 -0.1097
   83SAPS  C218 7821   4.131   4.007   9.336  0.2329 -0.1343 -0.0701
   83SAPS  H18R 7822   4.238   4.022   9.309  0.2852  0.9337  0.6573
   83SAPS  H18S 7823   4.113   4.048   9.438  1.1271  1.4549 -0.5169
   83SAPS  C219 7824   4.031   4.069   9.241 -0.0828  0.2465  0.1165
   83SAPS  H19R 7825   4.047   4.178   9.250  0.5590  0.0518  1.6762
   83SAPS  H19S 7826   3.926   4.039   9.264 -0.3140  2.8716  3.2372
   83SAPS  C220 7827   4.060   4.045   9.093  0.3556 -0.0498  0.2623
   83SAPS  H20R 7828   3.999   4.114   9.032 -0.3383 -1.1446 -0.3170
   83SAPS  H20S 7829   4.024   3.943   9.067  0.2498  0.1078 -0.2324
   83SAPS  H20T 7830   4.166   4.071   9.072  0.7783 -1.8479 -0.0679
   83SAPS   C33 7831   3.674   3.551  10.324 -0.2847  0.0387  0.9108
   83SAPS   H3X 7832   3.764   3.616  10.322  0.9319 -1.3593 -4.3103
   83SAPS   H3Y 7833   3.586   3.617  10.345 -0.5204 -0.0611  0.2521
   83SAPS   C34 7834   3.654   3.503  10.179  0.0363 -0.8374 -0.1302
   83SAPS   H4X 7835   3.545   3.490  10.161 -0.0578 -0.2680  0.0011
   83SAPS   H4Y 7836   3.703   3.404  10.165 -1.3510 -1.7970  1.4867
   83SAPS   C35 7837   3.704   3.598  10.065  0.1512 -0.3377  0.4525
   83SAPS   H5X 7838   3.813   3.592  10.049  0.4168  2.5732  0.5372
   83SAPS   H5Y 7839   3.689   3.707  10.082  1.8975  0.2381 -1.3076
   83SAPS   C36 7840   3.645   3.579   9.913  0.0812  0.0904 -0.5809
   83SAPS   H6X 7841   3.546   3.629   9.911 -1.4591 -2.6337  1.4033
   83SAPS   H6Y 7842   3.636   3.474   9.880  2.2927 -1.1799  2.4197
   83SAPS   C37 7843   3.725   3.652   9.794  0.4679  0.2633 -0.3655
   83SAPS   H7X 7844   3.821   3.598   9.781  0.6102  0.0253  1.4328
   83SAPS   H7Y 7845   3.755   3.758   9.810 -0.7805  0.1871  3.3878
   83SAPS   C38 7846   3.630   3.642   9.672 -0.0627  0.5085  0.3209
   83SAPS   H8X 7847   3.552   3.720   9.688  1.1242  1.6880  0.4939
   83SAPS   H8Y 7848   3.590   3.540   9.656  3.0258 -0.6447 -0.9116
   83SAPS   C39 7849   3.714   3.684   9.548  0.1698  0.2255  0.2284
   83SAPS   H9X 7850   3.795   3.608   9.547 -0.0409 -0.2006  3.5345
   83SAPS   H9Y 7851   3.756   3.786   9.560 -0.5586  0.7635 -1.4756
   83SAPS  C310 7852   3.631   3.673   9.417 -0.2028  0.0227  0.1173
   83SAPS  H10X 7853   3.552   3.750   9.420  0.8013  1.1723 -1.5292
   83SAPS  H10Y 7854   3.588   3.570   9.413  1.5910 -0.7923  0.3879
   83SAPS  C311 7855   3.713   3.701   9.295 -0.4333  0.3296  0.5153
   83SAPS  H11X 7856   3.778   3.790   9.303  1.0232 -0.6590  0.0465
   83SAPS  H11Y 7857   3.643   3.730   9.213 -0.4019 -1.3464 -0.1402
   83SAPS  C312 7858   3.807   3.588   9.235 -0.0702  0.1649  0.0081
   83SAPS  H12X 7859   3.750   3.493   9.238 -0.1584  0.1331 -1.8240
   83SAPS  H12Y 7860   3.895   3.569   9.300 -0.2104 -0.1986  0.0924
   83SAPS  C313 7861   3.851   3.623   9.089 -0.5618 -0.5453  0.4136
   83SAPS  H13X 7862   3.911   3.716   9.102 -0.1487 -0.8541  0.7567
   83SAPS  H13Y 7863   3.773   3.639   9.011 -1.9987 -1.3241  1.6345
   83SAPS  C314 7864   3.950   3.512   9.037  1.0835  0.4899  0.3231
   83SAPS  H14X 7865   3.896   3.416   9.018 -0.8112  1.1119  2.2264
   83SAPS  H14Y 7866   4.034   3.514   9.110  3.2354  1.3812 -2.0276
   83SAPS  C315 7867   4.011   3.553   8.904 -0.1230 -0.8909 -0.4743
   83SAPS  H15X 7868   4.074   3.640   8.931 -0.4110  0.5655 -3.9103
   83SAPS  H15Y 7869   3.928   3.590   8.840 -0.5921 -2.7510 -1.0014
   83SAPS  C316 7870   4.093   3.447   8.833  0.6481 -0.0524  0.1341
   83SAPS  H16X 7871   4.059   3.349   8.874  1.8392  0.5823  2.8525
   83SAPS  H16Y 7872   4.198   3.450   8.868  2.7883 -1.5872 -5.1648
   83SAPS  C317 7873   4.065   3.446   8.683  0.8443 -0.7558 -0.6175
   83SAPS  H17X 7874   4.112   3.534   8.634  0.1846  0.7946  1.4037
   83SAPS  H17Y 7875   3.957   3.445   8.655  1.1493  0.3229 -1.9396
   83SAPS  C318 7876   4.122   3.319   8.618  0.2431  0.3389  0.8109
   83SAPS  H18X 7877   4.111   3.326   8.508  1.2101  5.0510  0.7863
   83SAPS  H18Y 7878   4.075   3.231   8.666  0.7630  0.3977  1.4472
   83SAPS  H18Z 7879   4.231   3.333   8.637  0.0883  1.9875  0.6692
   84SAPS     N 7880   5.569   1.563  10.834  0.9106 -0.4064  0.2381
   84SAPS   HN1 7881   5.507   1.601  10.760 -0.7025  0.1030  1.7950
   84SAPS   HN2 7882   5.609   1.645  10.882 -2.4256  2.7912 -1.9601
   84SAPS   HN3 7883   5.647   1.511  10.788 -0.0288 -1.8415  0.1766
   84SAPS   C12 7884   5.496   1.480  10.939 -0.3639  0.2179  0.6689
   84SAPS  H12A 7885   5.456   1.550  11.011 -3.9903  0.2354 -1.1334
   84SAPS   C13 7886   5.371   1.408  10.871  0.0470  0.2161 -0.0951
   84SAPS  O13A 7887   5.363   1.393  10.747  0.3769  0.3214 -0.3734
   84SAPS  O13B 7888   5.308   1.338  10.962 -0.1176  0.0649 -0.0294
   84SAPS   C11 7889   5.603   1.393  11.012  0.0918  0.5107  0.0331
   84SAPS  H11A 7890   5.639   1.311  10.946 -0.7784  1.1823 -1.3194
   84SAPS  H11B 7891   5.544   1.341  11.090 -0.6633  1.5549  0.1727
   84SAPS     P 7892   5.807   1.365  11.169  0.3629 -0.7505 -0.0266
   84SAPS   O13 7893   5.938   1.423  11.203 -0.7673  0.5064  0.1488
   84SAPS   O14 7894   5.726   1.330  11.288 -0.4776 -0.2740  0.1280
   84SAPS   O12 7895   5.718   1.458  11.073 -0.2947 -0.2904  0.6913
   84SAPS   O11 7896   5.821   1.242  11.077  0.1071  0.2334 -0.3251
   84SAPS    C1 7897   5.943   1.200  11.006 -0.0045 -0.5839 -0.1634
   84SAPS    HA 7898   6.031   1.203  11.073 -1.3615  1.1170  1.6628
   84SAPS    HB 7899   5.933   1.092  10.981  0.0811 -0.1894 -2.1171
   84SAPS    C2 7900   5.968   1.265  10.870 -0.1569 -0.0587 -0.4663
   84SAPS    HS 7901   5.960   1.375  10.888 -0.5501 -0.1980  0.2749
   84SAPS   O21 7902   5.882   1.213  10.776  0.8355 -0.6229 -0.3844
   84SAPS   C21 7903   5.811   1.298  10.706 -0.1053  0.0610 -0.3564
   84SAPS   O22 7904   5.789   1.409  10.741  0.1907 -0.1464 -0.1961
   84SAPS   C22 7905   5.752   1.227  10.584 -0.4586  0.1955  0.6522
   84SAPS   H2R 7906   5.841   1.222  10.519  0.7200  1.0658  2.1173
   84SAPS   H2S 7907   5.712   1.131  10.622  1.2766 -1.3370 -1.2053
   84SAPS    C3 7908   6.123   1.238  10.838  0.9336  0.2899 -0.0164
   84SAPS    HX 7909   6.142   1.132  10.811 -3.2054 -0.0767 -2.2683
   84SAPS    HY 7910   6.170   1.265  10.935 -0.6596  2.9317  0.1125
   84SAPS   O31 7911   6.164   1.322  10.725 -0.3613 -0.8232 -0.3215
   84SAPS   C31 7912   6.288   1.375  10.736  0.6487  0.6648 -0.6692
   84SAPS   O32 7913   6.361   1.360  10.833 -0.1301 -0.2563 -0.0480
   84SAPS   C32 7914   6.316   1.469  10.614 -0.2140 -0.5243 -0.0954
   84SAPS   H2X 7915   6.271   1.567  10.642 -0.3363  0.8528 -4.4268
   84SAPS   H2Y 7916   6.274   1.428  10.520  0.8498 -0.6221 -0.5449
   84SAPS   C23 7917   5.635   1.301  10.516 -0.5098 -0.1976 -0.3379
   84SAPS   H3R 7918   5.668   1.402  10.482 -0.3473 -0.9305 -2.5204
   84SAPS   H3S 7919   5.560   1.307  10.598  0.0935 -3.8620  0.6533
   84SAPS   C24 7920   5.577   1.226  10.391 -0.4442  0.1439 -0.6054
   84SAPS   H4R 7921   5.492   1.286  10.354 -0.1195  0.2592 -1.1787
   84SAPS   H4S 7922   5.549   1.122  10.417  0.3979 -0.2250 -1.1004
   84SAPS   C25 7923   5.687   1.228  10.286 -0.1437  0.0570  0.3129
   84SAPS   H5R 7924   5.690   1.324  10.233 -1.7806  0.4339  0.8400
   84SAPS   C26 7925   5.772   1.129  10.242 -0.2772  0.1776  0.0395
   84SAPS   H6R 7926   5.845   1.156  10.164  0.6773 -0.4603  0.6777
   84SAPS   C27 7927   5.784   0.984  10.293  1.0408  0.0336 -0.1655
   84SAPS   H7R 7928   5.743   0.984  10.396 -1.9091 -0.4175 -1.2423
   84SAPS   H7S 7929   5.889   0.949  10.296  0.7646 -1.1671  4.7924
   84SAPS   C28 7930   5.698   0.896  10.207 -0.3739 -0.0917 -0.6131
   84SAPS   H8R 7931   5.617   0.854  10.269 -0.8520 -0.3586 -1.4091
   84SAPS   C29 7932   5.704   0.866  10.079 -0.2615  0.2025 -1.1030
   84SAPS   H9R 7933   5.622   0.801  10.043 -1.0302  0.6295 -0.1677
   84SAPS  C210 7934   5.792   0.918   9.972 -0.7030  0.0183 -0.8317
   84SAPS  H10R 7935   5.837   0.829   9.924 -0.6833  1.4637 -3.7030
   84SAPS  H10S 7936   5.876   0.973  10.020  0.3821 -2.9580  0.9224
   84SAPS  C211 7937   5.710   0.995   9.869 -0.6438  0.8155 -0.1606
   84SAPS  H11R 7938   5.613   1.036   9.898 -0.5003  0.3088  1.1522
   84SAPS  C212 7939   5.752   1.017   9.743 -0.3298  0.1031  0.4568
   84SAPS  H12R 7940   5.684   1.075   9.679 -0.4583 -0.9421 -0.3907
   84SAPS  C213 7941   5.882   0.976   9.672 -0.1508 -0.0634  0.0353
   84SAPS  H13R 7942   5.872   0.989   9.562 -0.7496 -0.8269 -0.0149
   84SAPS  H13S 7943   5.876   0.865   9.662 -0.6304  0.1213 -2.2562
   84SAPS  C214 7944   6.014   1.026   9.717  0.5781  0.7516 -0.2120
   84SAPS  H14R 7945   6.021   1.030   9.827 -0.6351 -0.4699 -0.0603
   84SAPS  C215 7946   6.113   1.075   9.642 -0.4045 -0.2991 -1.0894
   84SAPS  H15R 7947   6.203   1.111   9.694 -0.6497 -1.0799 -0.1060
   84SAPS  C216 7948   6.125   1.076   9.494 -0.7574  1.1374  0.3924
   84SAPS  H16R 7949   6.056   1.006   9.443 -0.2081 -0.1516  1.3728
   84SAPS  H16S 7950   6.230   1.042   9.478 -1.3648 -0.1838 -1.0281
   84SAPS  C217 7951   6.105   1.219   9.421 -0.3912  0.1868 -0.1959
   84SAPS  H17R 7952   6.041   1.283   9.485  0.0605 -0.4779  0.9705
   84SAPS  H17S 7953   6.047   1.213   9.327  1.3527 -2.5699 -1.2258
   84SAPS  C218 7954   6.239   1.276   9.366 -0.2222  0.2725 -0.6867
   84SAPS  H18R 7955   6.315   1.241   9.440 -1.9638 -1.2452  0.4626
   84SAPS  H18S 7956   6.240   1.387   9.372 -1.4852  0.2295  0.8088
   84SAPS  C219 7957   6.270   1.238   9.216  0.4516 -0.2261 -0.5647
   84SAPS  H19R 7958   6.349   1.308   9.181 -0.7243  0.2349 -2.4626
   84SAPS  H19S 7959   6.181   1.259   9.153  0.0750  0.5849  0.2034
   84SAPS  C220 7960   6.305   1.086   9.214 -0.1833  0.4222 -0.2576
   84SAPS  H20R 7961   6.379   1.077   9.296 -0.7903 -2.1910  0.1113
   84SAPS  H20S 7962   6.349   1.058   9.116  0.0455  0.8002 -0.2648
   84SAPS  H20T 7963   6.215   1.025   9.238  0.5649 -0.5402  0.1804
   84SAPS   C33 7964   6.467   1.501  10.595  0.1761 -0.3219 -0.0824
   84SAPS   H3X 7965   6.516   1.436  10.520  2.4880  2.1360 -0.8625
   84SAPS   H3Y 7966   6.519   1.489  10.693  0.2399 -1.7133 -0.2750
   84SAPS   C34 7967   6.507   1.639  10.558  0.1564 -0.2309  0.0227
   84SAPS   H4X 7968   6.613   1.631  10.524  0.1290 -0.9953  0.1035
   84SAPS   H4Y 7969   6.502   1.705  10.647  0.3057 -0.2294  0.0313
   84SAPS   C35 7970   6.434   1.695  10.435  0.4871 -0.0970 -0.1074
   84SAPS   H5X 7971   6.437   1.805  10.451 -0.3700  0.0873 -1.0877
   84SAPS   H5Y 7972   6.330   1.659  10.445  0.9784 -1.3115  0.9111
   84SAPS   C36 7973   6.493   1.651  10.298 -0.2544  0.2799  0.4697
   84SAPS   H6X 7974   6.509   1.541  10.300 -0.5850  0.2388  1.4699
   84SAPS   H6Y 7975   6.594   1.698  10.303 -0.8879  1.8202 -0.6052
   84SAPS   C37 7976   6.411   1.688  10.176 -0.0302  0.2147  0.1364
   84SAPS   H7X 7977   6.393   1.797  10.165 -2.0397 -0.0425  0.4651
   84SAPS   H7Y 7978   6.309   1.649  10.196  0.4073  0.0696  2.3516
   84SAPS   C38 7979   6.466   1.631  10.043 -0.0636 -0.1140 -0.0661
   84SAPS   H8X 7980   6.475   1.524  10.070  0.6170  0.0813  0.5169
   84SAPS   H8Y 7981   6.566   1.668  10.012 -0.1573 -1.1727 -1.7522
   84SAPS   C39 7982   6.363   1.662   9.926 -1.0669 -0.1822  0.8768
   84SAPS   H9X 7983   6.342   1.770   9.939 -0.4314  0.5122 -2.9129
   84SAPS   H9Y 7984   6.274   1.596   9.928 -1.1303 -0.4714 -3.1862
   84SAPS  C310 7985   6.433   1.631   9.787  0.5245 -0.3154 -0.7359
   84SAPS  H10X 7986   6.455   1.522   9.784 -1.5458 -0.7724 -0.8673
   84SAPS  H10Y 7987   6.523   1.696   9.784 -1.4185  2.4947 -1.4646
   84SAPS  C311 7988   6.342   1.662   9.668  0.3374 -0.3493  0.0742
   84SAPS  H11X 7989   6.297   1.763   9.673  1.5604  0.2911 -1.2281
   84SAPS  H11Y 7990   6.258   1.590   9.669 -0.3740  0.4493 -0.8153
   84SAPS  C312 7991   6.430   1.635   9.543 -0.1564  0.2671  0.4346
   84SAPS  H12X 7992   6.446   1.526   9.529  3.0306  0.8077 -0.9207
   84SAPS  H12Y 7993   6.529   1.683   9.558 -1.4828  3.1590  0.6119
   84SAPS  C313 7994   6.370   1.674   9.410  0.2604  0.3036 -0.1019
   84SAPS  H13X 7995   6.361   1.785   9.407 -0.4575  0.2334 -0.6995
   84SAPS  H13Y 7996   6.267   1.634   9.397  1.8546 -4.1994 -0.7080
   84SAPS  C314 7997   6.457   1.634   9.291 -0.5226  0.1673  0.1347
   84SAPS  H14X 7998   6.496   1.531   9.302 -0.2890  0.4255  2.1450
   84SAPS  H14Y 7999   6.548   1.697   9.301  0.6812 -1.3542 -0.7785
   84SAPS  C315 8000   6.405   1.658   9.148  0.1620 -0.1717  0.0666
   84SAPS  H15X 8001   6.295   1.648   9.158  0.0936  0.5441  0.1404
   84SAPS  H15Y 8002   6.445   1.586   9.074 -0.2074  0.3810 -0.6847
   84SAPS  C316 8003   6.409   1.807   9.095 -0.0356  0.2279 -0.1592
   84SAPS  H16X 8004   6.500   1.860   9.130  0.2200  0.5106 -1.2453
   84SAPS  H16Y 8005   6.333   1.861   9.156  0.7864 -0.3546  1.4457
   84SAPS  C317 8006   6.385   1.816   8.946 -0.0331  0.4255  0.2187
   84SAPS  H17X 8007   6.404   1.918   8.906 -1.9813  0.8335  0.2319
   84SAPS  H17Y 8008   6.278   1.791   8.934 -0.2984  0.2354  2.5281
   84SAPS  C318 8009   6.469   1.718   8.864 -0.7350  0.1201  0.6241
   84SAPS  H18X 8010   6.488   1.750   8.759 -1.4528 -1.4592 -0.0172
   84SAPS  H18Y 8011   6.415   1.621   8.857  0.1961 -0.4127  0.7169
   84SAPS  H18Z 8012   6.566   1.713   8.918 -0.2829 -1.1981 -0.2589
   85SAPS     N 8013   3.670   5.416  11.057  0.1961  0.2227 -0.0890
   85SAPS   HN1 8014   3.614   5.498  11.087  0.4130  0.2860  0.1458
   85SAPS   HN2 8015   3.762   5.448  11.022  0.3874  1.0004  1.0629
   85SAPS   HN3 8016   3.609   5.382  10.980  0.6512 -0.7713 -0.0214
   85SAPS   C12 8017   3.672   5.303  11.161  0.1497 -0.1465 -0.1141
   85SAPS  H12A 8018   3.730   5.224  11.114 -1.0986 -0.6912 -0.8016
   85SAPS   C13 8019   3.723   5.332  11.302 -0.6645  0.5372  0.1834
   85SAPS  O13A 8020   3.782   5.441  11.328 -0.5386  0.1964 -0.0637
   85SAPS  O13B 8021   3.727   5.238  11.388  0.6362 -0.2580  1.1386
   85SAPS   C11 8022   3.528   5.244  11.170  0.0631 -0.2708 -0.2749
   85SAPS  H11A 8023   3.452   5.316  11.207  0.8837 -0.0276  0.9863
   85SAPS  H11B 8024   3.536   5.151  11.230  2.0190  0.9762  1.5102
   85SAPS     P 8025   3.369   5.105  11.015 -0.0372 -0.3964  0.1205
   85SAPS   O13 8026   3.338   5.051  11.152  0.3398 -0.9135  0.0229
   85SAPS   O14 8027   3.264   5.177  10.936  0.0315 -0.4903 -0.3484
   85SAPS   O12 8028   3.485   5.214  11.039 -0.1308 -0.3739  0.5780
   85SAPS   O11 8029   3.448   5.006  10.919  0.1196  0.0705 -0.1120
   85SAPS    C1 8030   3.585   4.983  10.908  0.1721 -0.8241  0.3872
   85SAPS    HA 8031   3.644   5.015  10.996  0.5344 -0.1562 -0.0900
   85SAPS    HB 8032   3.601   4.874  10.896 -0.8510 -0.9705  0.2778
   85SAPS    C2 8033   3.649   5.047  10.779 -0.2989 -0.0044 -0.1398
   85SAPS    HS 8034   3.658   5.157  10.795 -0.5693 -0.0037  0.0135
   85SAPS   O21 8035   3.565   5.005  10.670  0.4714  0.0450 -0.3290
   85SAPS   C21 8036   3.488   5.101  10.628  0.2520  0.0235 -0.1115
   85SAPS   O22 8037   3.483   5.217  10.659  0.2694  0.1488 -0.6296
   85SAPS   C22 8038   3.382   5.042  10.535 -0.7531 -0.0370  0.1184
   85SAPS   H2R 8039   3.296   4.991  10.584  1.0462 -3.1841  0.2536
   85SAPS   H2S 8040   3.346   5.129  10.475 -0.5179 -0.5988 -0.8521
   85SAPS    C3 8041   3.792   4.991  10.747  0.7544  0.6012 -0.0245
   85SAPS    HX 8042   3.766   4.884  10.759 -2.3434  0.9769 -2.2289
   85SAPS    HY 8043   3.864   5.014  10.828 -2.6052 -2.0525  4.0968
   85SAPS   O31 8044   3.835   5.019  10.617 -0.2392  0.1851  0.1624
   85SAPS   C31 8045   3.887   5.134  10.594 -0.4556 -0.9434  0.9515
   85SAPS   O32 8046   3.873   5.228  10.669 -0.8649 -0.4117 -0.6126
   85SAPS   C32 8047   3.942   5.137  10.449 -0.3586  0.6163  0.3889
   85SAPS   H2X 8048   3.876   5.075  10.384 -0.3276  0.6896  0.2870
   85SAPS   H2Y 8049   4.037   5.082  10.440 -0.6909  0.3434 -2.3943
   85SAPS   C23 8050   3.436   4.938  10.429 -0.4556 -0.7391  0.0252
   85SAPS   H3R 8051   3.362   4.915  10.349 -1.6248  2.8246 -0.0947
   85SAPS   H3S 8052   3.452   4.840  10.478 -0.2863  0.6734  3.0019
   85SAPS   C24 8053   3.572   4.972  10.362 -0.4906  0.7184  0.9349
   85SAPS   H4R 8054   3.602   4.885  10.300 -0.6799  1.4050 -0.1676
   85SAPS   H4S 8055   3.658   4.982  10.431 -0.4789  0.8567  0.9016
   85SAPS   C25 8056   3.564   5.096  10.273 -0.2342  0.7126 -0.6351
   85SAPS   H5R 8057   3.522   5.182  10.326 -3.0219 -1.3503  0.7336
   85SAPS   C26 8058   3.602   5.104  10.142  0.6092 -0.1770  0.4417
   85SAPS   H6R 8059   3.595   5.203  10.093 -0.9432 -0.1100  0.7546
   85SAPS   C27 8060   3.668   5.001  10.056  0.6427  0.7967  0.2160
   85SAPS   H7R 8061   3.590   4.950   9.996 -0.7159  3.5764 -0.5354
   85SAPS   H7S 8062   3.716   4.919  10.114 -0.2159  0.5507  0.6060
   85SAPS   C28 8063   3.773   5.065   9.965  0.0574 -0.2051  0.2946
   85SAPS   H8R 8064   3.855   5.121  10.010 -1.4107  1.8395  0.5702
   85SAPS   C29 8065   3.777   5.050   9.832  0.0667 -0.4057  0.1341
   85SAPS   H9R 8066   3.850   5.112   9.778 -1.0018  0.9342  0.1760
   85SAPS  C210 8067   3.689   4.967   9.744 -0.0142 -0.0583 -0.1078
   85SAPS  H10R 8068   3.633   4.897   9.808 -0.8306  1.5402  0.9997
   85SAPS  H10S 8069   3.748   4.897   9.681  0.8118  2.1978 -2.0009
   85SAPS  C211 8070   3.590   5.055   9.675  0.1752  0.0900  0.8526
   85SAPS  H11R 8071   3.522   5.101   9.749  0.3176  1.0537  0.3941
   85SAPS  C212 8072   3.570   5.071   9.546  0.4485  0.0975  0.5935
   85SAPS  H12R 8073   3.495   5.148   9.520  0.6321  0.1100  0.0981
   85SAPS  C213 8074   3.663   5.016   9.440  0.6119 -0.2006 -0.4105
   85SAPS  H13R 8075   3.767   5.010   9.476  1.3626  3.4652 -1.5835
   85SAPS  H13S 8076   3.677   5.094   9.362 -0.7375 -0.3841 -0.8683
   85SAPS  C214 8077   3.613   4.884   9.379 -0.0776  0.5927  0.2485
   85SAPS  H14R 8078   3.601   4.795   9.443 -1.1078  0.9526  0.5830
   85SAPS  C215 8079   3.571   4.870   9.247  0.3930 -0.9569 -0.7100
   85SAPS  H15R 8080   3.546   4.772   9.204 -2.8602 -0.4137 -0.2616
   85SAPS  C216 8081   3.574   4.976   9.143 -0.2399 -0.4100 -0.4900
   85SAPS  H16R 8082   3.665   5.036   9.161  0.2254 -1.6798  1.6935
   85SAPS  H16S 8083   3.482   5.039   9.153  1.4030  1.9126  0.9823
   85SAPS  C217 8084   3.570   4.913   9.004 -0.3096  0.0656 -0.4610
   85SAPS  H17R 8085   3.472   4.861   8.996  1.0567 -2.8670  0.3696
   85SAPS  H17S 8086   3.644   4.833   8.981 -0.9608 -0.5225 -0.5705
   85SAPS  C218 8087   3.576   5.008   8.892 -0.2753 -0.1696 -0.2849
   85SAPS  H18R 8088   3.659   5.079   8.913  0.8967 -1.9832  1.6198
   85SAPS  H18S 8089   3.477   5.058   8.885 -0.0663  0.5070  1.1500
   85SAPS  C219 8090   3.601   4.941   8.752 -0.7885  0.7587  0.1726
   85SAPS  H19R 8091   3.526   4.860   8.738  0.6201 -0.4536 -0.6416
   85SAPS  H19S 8092   3.699   4.889   8.756 -0.4451  1.3062 -0.8829
   85SAPS  C220 8093   3.604   5.036   8.639  1.3049  0.0212  0.0295
   85SAPS  H20R 8094   3.672   5.124   8.651 -1.4433  2.2205  0.6726
   85SAPS  H20S 8095   3.503   5.082   8.639  1.1083 -0.4016 -1.0028
   85SAPS  H20T 8096   3.623   4.992   8.539 -0.5235  2.0650 -1.3269
   85SAPS   C33 8097   3.950   5.281  10.391  0.1059  0.2109  0.0858
   85SAPS   H3X 8098   4.023   5.349  10.441 -0.3667  1.0734 -0.3715
   85SAPS   H3Y 8099   3.856   5.337  10.408  1.0666  2.0552 -0.3376
   85SAPS   C34 8100   3.989   5.286  10.242 -0.1285  0.5812 -0.0783
   85SAPS   H4X 8101   4.011   5.392  10.215 -0.3215  1.1584  1.8942
   85SAPS   H4Y 8102   3.911   5.241  10.176 -0.6989 -1.6554  1.9629
   85SAPS   C35 8103   4.119   5.216  10.214 -0.6211  0.7967 -0.3424
   85SAPS   H5X 8104   4.091   5.109  10.224  1.7133  0.2787  1.8485
   85SAPS   H5Y 8105   4.191   5.246  10.294 -0.9998 -1.1311  0.7805
   85SAPS   C36 8106   4.190   5.248  10.080  0.0429 -0.5453  0.1037
   85SAPS   H6X 8107   4.280   5.182  10.080 -0.8419 -1.8919 -2.2214
   85SAPS   H6Y 8108   4.233   5.351  10.078 -1.0416 -0.0847 -0.7963
   85SAPS   C37 8109   4.098   5.229   9.957  0.1229 -0.0908 -0.3138
   85SAPS   H7X 8110   4.007   5.291   9.967 -1.2069 -2.2479  2.1140
   85SAPS   H7Y 8111   4.063   5.124   9.941 -0.2537 -0.0246  0.0670
   85SAPS   C38 8112   4.174   5.270   9.829  0.3862  0.4613 -0.3717
   85SAPS   H8X 8113   4.256   5.196   9.812 -2.1181 -2.5924 -0.1693
   85SAPS   H8Y 8114   4.206   5.376   9.838 -0.5820  0.7002  0.4650
   85SAPS   C39 8115   4.087   5.270   9.700  0.0635 -0.1810  0.4911
   85SAPS   H9X 8116   4.008   5.349   9.702  2.6553  2.5833  2.6566
   85SAPS   H9Y 8117   4.041   5.169   9.690 -3.1748  1.3631 -2.4153
   85SAPS  C310 8118   4.172   5.300   9.576  0.6363 -0.0014  0.4495
   85SAPS  H10X 8119   4.259   5.234   9.558 -0.0599 -0.4751 -1.4131
   85SAPS  H10Y 8120   4.220   5.400   9.588  0.5032  0.2563 -0.9632
   85SAPS  C311 8121   4.092   5.326   9.448  0.2670 -0.3867 -0.1815
   85SAPS  H11X 8122   4.035   5.420   9.465 -0.6498 -0.9418 -0.1326
   85SAPS  H11Y 8123   4.027   5.239   9.426  1.3835 -1.3686  0.2899
   85SAPS  C312 8124   4.180   5.316   9.325 -0.1681 -0.0252  0.1713
   85SAPS  H12X 8125   4.220   5.213   9.314  2.8810  1.1816 -1.3220
   85SAPS  H12Y 8126   4.258   5.393   9.348 -0.5029  0.3751 -0.0144
   85SAPS  C313 8127   4.104   5.364   9.196  0.3049  0.4299 -0.0562
   85SAPS  H13X 8128   4.081   5.472   9.214  1.6378  0.5622  1.0146
   85SAPS  H13Y 8129   4.012   5.302   9.200 -1.7496  3.1401 -1.3657
   85SAPS  C314 8130   4.187   5.341   9.074 -0.4434  0.6422 -0.1078
   85SAPS  H14X 8131   4.199   5.232   9.058 -0.0034  0.9159 -1.8714
   85SAPS  H14Y 8132   4.294   5.371   9.081 -0.1393 -0.1736 -0.9950
   85SAPS  C315 8133   4.127   5.410   8.958 -0.0889  0.2632  0.1119
   85SAPS  H15X 8134   4.106   5.513   8.994 -1.0220  0.6915 -1.5137
   85SAPS  H15Y 8135   4.029   5.359   8.944 -0.2639  0.1224  1.6671
   85SAPS  C316 8136   4.199   5.406   8.828  1.0248  0.3142 -0.2360
   85SAPS  H16X 8137   4.217   5.298   8.814 -0.6867  0.1054 -1.1335
   85SAPS  H16Y 8138   4.294   5.464   8.829  0.7446  0.8036  1.5765
   85SAPS  C317 8139   4.103   5.456   8.715  0.5074 -0.6156  0.3149
   85SAPS  H17X 8140   4.009   5.400   8.735  0.3485  0.5067  3.0113
   85SAPS  H17Y 8141   4.134   5.424   8.613  0.5136 -1.8791  0.6907
   85SAPS  C318 8142   4.101   5.604   8.713  0.1394 -0.1234 -0.0638
   85SAPS  H18X 8143   4.197   5.647   8.676 -0.9047  0.2402 -2.5418
   85SAPS  H18Y 8144   4.097   5.642   8.818  0.1383 -2.7821  0.9899
   85SAPS  H18Z 8145   4.026   5.663   8.657 -1.8406  0.3530  2.8695
   86SAPS     N 8146   6.490   5.250  10.967 -0.3266 -0.0180  0.3438
   86SAPS   HN1 8147   6.592   5.239  10.955 -0.0294  2.1027  0.4959
   86SAPS   HN2 8148   6.441   5.161  10.990  1.3796 -1.1393 -0.2128
   86SAPS   HN3 8149   6.459   5.276  10.871  1.7578 -1.2001 -0.7109
   86SAPS   C12 8150   6.483   5.375  11.048  0.7399  0.5281  0.0717
   86SAPS  H12A 8151   6.378   5.381  11.073  0.7990  0.3560  0.3723
   86SAPS   C13 8152   6.554   5.371  11.184 -0.9874 -0.4135  0.2862
   86SAPS  O13A 8153   6.625   5.270  11.213 -0.2284 -0.1586  0.2270
   86SAPS  O13B 8154   6.537   5.477  11.253  0.5665  0.3489 -0.1227
   86SAPS   C11 8155   6.520   5.500  10.960  0.1764 -0.6842  0.0016
   86SAPS  H11A 8156   6.620   5.492  10.912 -1.2099  1.6184 -3.7303
   86SAPS  H11B 8157   6.519   5.588  11.028 -1.3236 -0.5667 -0.1288
   86SAPS     P 8158   6.426   5.626  10.748 -0.1839  0.3580 -0.1869
   86SAPS   O13 8159   6.330   5.584  10.647 -0.0316 -0.1345  0.5971
   86SAPS   O14 8160   6.404   5.758  10.805  0.2699  0.2517  0.3113
   86SAPS   O12 8161   6.414   5.519  10.858 -0.8649  0.3830  0.2395
   86SAPS   O11 8162   6.573   5.607  10.696  0.2370  0.0646 -0.2508
   86SAPS    C1 8163   6.625   5.483  10.648 -0.1078  0.3522 -0.0523
   86SAPS    HA 8164   6.633   5.404  10.726  1.1768 -0.2633 -0.7720
   86SAPS    HB 8165   6.562   5.433  10.570  1.0649 -0.5647 -0.4428
   86SAPS    C2 8166   6.772   5.503  10.594 -0.8494  0.3755  0.0371
   86SAPS    HS 8167   6.831   5.517  10.687 -0.6250 -0.6301  0.0587
   86SAPS   O21 8168   6.785   5.618  10.508 -0.1191 -0.4942  0.2276
   86SAPS   C21 8169   6.896   5.690  10.520 -0.5960 -0.2507  0.6126
   86SAPS   O22 8170   6.982   5.687  10.605  0.0441  0.6184  0.3410
   86SAPS   C22 8171   6.900   5.775  10.394 -0.0175 -0.8245  0.3768
   86SAPS   H2R 8172   6.864   5.711  10.310  3.2843 -0.9216 -1.1251
   86SAPS   H2S 8173   6.826   5.857  10.404 -0.0778 -0.7607 -0.4468
   86SAPS    C3 8174   6.831   5.375  10.537  0.4115 -0.1545 -0.3897
   86SAPS    HX 8175   6.824   5.293  10.611 -0.0479 -0.4662 -0.7683
   86SAPS    HY 8176   6.940   5.387  10.523  0.5273  0.0282  0.6040
   86SAPS   O31 8177   6.780   5.337  10.410 -0.1931  0.6679 -0.3223
   86SAPS   C31 8178   6.692   5.242  10.408  0.0552  1.1567 -0.1964
   86SAPS   O32 8179   6.624   5.200  10.498 -0.0736  0.3927 -0.3830
   86SAPS   C32 8180   6.692   5.195  10.261 -0.1325 -0.7114 -0.4793
   86SAPS   H2X 8181   6.792   5.159  10.230 -0.3581 -1.7790 -0.0268
   86SAPS   H2Y 8182   6.663   5.276  10.191  0.3868 -1.2808 -1.3663
   86SAPS   C23 8183   7.042   5.828  10.350 -0.3900  0.3805 -0.1181
   86SAPS   H3R 8184   7.101   5.736  10.331 -0.3248 -0.0131  1.7236
   86SAPS   H3S 8185   7.076   5.887  10.438  1.8491 -1.6342  0.4957
   86SAPS   C24 8186   7.044   5.929  10.224  0.6857  0.7091  0.8455
   86SAPS   H4R 8187   7.094   6.024  10.254  4.8330 -0.7020 -0.8315
   86SAPS   H4S 8188   6.937   5.951  10.206  0.7420  0.5181  0.2572
   86SAPS   C25 8189   7.110   5.883  10.096 -0.2517  0.5065 -0.2258
   86SAPS   H5R 8190   7.216   5.907  10.079  0.0408 -0.7032 -0.2079
   86SAPS   C26 8191   7.059   5.799  10.004  0.0832 -0.3715 -0.7418
   86SAPS   H6R 8192   7.111   5.764   9.913  0.8255  0.5333 -0.6836
   86SAPS   C27 8193   6.914   5.743  10.006  0.3355 -1.1531 -0.4025
   86SAPS   H7R 8194   6.883   5.713  10.108 -0.0157  1.2119  0.2435
   86SAPS   H7S 8195   6.902   5.662   9.931 -1.2449  0.5266 -2.0548
   86SAPS   C28 8196   6.817   5.856   9.973  0.5317 -0.5407 -0.0497
   86SAPS   H8R 8197   6.835   5.950  10.029 -2.2447  0.1722 -0.1755
   86SAPS   C29 8198   6.711   5.864   9.885 -0.3460  0.0101  0.5726
   86SAPS   H9R 8199   6.642   5.950   9.880 -2.1117 -1.1761  2.8347
   86SAPS  C210 8200   6.666   5.751   9.792  0.2779 -0.2023 -0.0800
   86SAPS  H10R 8201   6.656   5.658   9.852 -2.0550  0.5044  0.7508
   86SAPS  H10S 8202   6.755   5.737   9.728  1.2356  0.6382  1.0236
   86SAPS  C211 8203   6.535   5.761   9.721  0.3536 -0.2589 -0.7306
   86SAPS  H11R 8204   6.443   5.710   9.754 -1.7192  0.3573 -4.9444
   86SAPS  C212 8205   6.538   5.818   9.601 -0.1688  0.4295 -0.9063
   86SAPS  H12R 8206   6.449   5.808   9.538 -1.2021  1.0293  0.4178
   86SAPS  C213 8207   6.659   5.871   9.527 -0.3068  0.3498 -0.2107
   86SAPS  H13R 8208   6.709   5.792   9.467 -0.2821  0.4468 -0.3198
   86SAPS  H13S 8209   6.732   5.918   9.596  0.8944 -1.3394 -0.2855
   86SAPS  C214 8210   6.619   5.979   9.436  0.0294  0.0423 -0.1480
   86SAPS  H14R 8211   6.646   6.084   9.459  1.4483  0.1264 -2.0045
   86SAPS  C215 8212   6.571   5.965   9.309 -0.5047 -0.2874 -0.4803
   86SAPS  H15R 8213   6.570   6.045   9.233  2.7247 -0.7342 -1.1339
   86SAPS  C216 8214   6.537   5.830   9.246 -0.0033 -0.6172 -0.0313
   86SAPS  H16R 8215   6.440   5.843   9.192 -0.6652 -0.6712  1.1204
   86SAPS  H16S 8216   6.532   5.742   9.313  0.3940 -0.8473 -0.2954
   86SAPS  C217 8217   6.640   5.793   9.147 -0.3724  0.1826  0.2731
   86SAPS  H17R 8218   6.733   5.753   9.191 -0.7894 -0.7617  0.3152
   86SAPS  H17S 8219   6.668   5.882   9.087 -2.0955 -0.6528 -1.9107
   86SAPS  C218 8220   6.598   5.696   9.039 -0.0618  0.1710 -0.1437
   86SAPS  H18R 8221   6.524   5.746   8.973 -0.2331 -1.1364 -0.9771
   86SAPS  H18S 8222   6.552   5.607   9.088 -0.0750  1.2185  1.8469
   86SAPS  C219 8223   6.719   5.649   8.970 -0.1708 -0.5551  0.2384
   86SAPS  H19R 8224   6.800   5.607   9.033  0.5480  2.1082  1.2082
   86SAPS  H19S 8225   6.760   5.742   8.924 -3.4483  0.6629 -0.5563
   86SAPS  C220 8226   6.688   5.551   8.852 -0.6610  0.3041  0.1857
   86SAPS  H20R 8227   6.581   5.557   8.825 -0.7159 -0.8049  0.1274
   86SAPS  H20S 8228   6.724   5.452   8.887  0.1249  0.2587 -0.7150
   86SAPS  H20T 8229   6.752   5.584   8.767 -1.6196  2.8725  0.3659
   86SAPS   C33 8230   6.586   5.082  10.258 -1.2074 -0.3755  0.9209
   86SAPS   H3X 8231   6.481   5.118  10.268 -0.3792  1.7679  2.6248
   86SAPS   H3Y 8232   6.596   5.015  10.346  2.5707  0.3571  1.2086
   86SAPS   C34 8233   6.609   4.992  10.136  0.0135 -0.0342  0.1527
   86SAPS   H4X 8234   6.557   4.896  10.158  1.2203 -0.7238  0.0955
   86SAPS   H4Y 8235   6.715   4.957  10.130 -0.5970 -2.0333  0.2317
   86SAPS   C35 8236   6.572   5.039   9.995 -0.6084 -0.3570  0.7147
   86SAPS   H5X 8237   6.632   5.130   9.972 -0.6264 -0.3416  0.7277
   86SAPS   H5Y 8238   6.470   5.083   9.994 -0.5552 -0.2214 -0.5980
   86SAPS   C36 8239   6.596   4.954   9.873 -0.1392  0.8081  0.6394
   86SAPS   H6X 8240   6.699   4.963   9.833 -0.5912 -0.3689 -0.8782
   86SAPS   H6Y 8241   6.526   5.001   9.800 -0.4745  0.2795  0.6112
   86SAPS   C37 8242   6.554   4.809   9.895  0.4708 -0.3060  0.1939
   86SAPS   H7X 8243   6.448   4.795   9.922  0.3891  1.3236  0.8172
   86SAPS   H7Y 8244   6.615   4.769   9.979 -0.1220  0.3434  0.9487
   86SAPS   C38 8245   6.579   4.726   9.770  0.9326 -0.3762 -0.3015
   86SAPS   H8X 8246   6.551   4.620   9.789 -0.6915 -0.0763 -0.8613
   86SAPS   H8Y 8247   6.688   4.715   9.750  1.4699  1.6775  1.0939
   86SAPS   C39 8248   6.518   4.773   9.639 -0.3156  0.3325  0.4087
   86SAPS   H9X 8249   6.550   4.874   9.606 -0.5166  1.3201  3.0153
   86SAPS   H9Y 8250   6.409   4.791   9.654 -0.5013 -0.3861 -0.0279
   86SAPS  C310 8251   6.518   4.663   9.528 -0.2287  0.1522  0.3249
   86SAPS  H10X 8252   6.462   4.573   9.560  3.4411 -2.3159  0.3484
   86SAPS  H10Y 8253   6.627   4.643   9.514  0.4334  2.7213  1.1832
   86SAPS  C311 8254   6.452   4.717   9.396 -0.3229 -0.4484  0.0374
   86SAPS  H11X 8255   6.511   4.803   9.359  0.0432 -1.3761 -1.6279
   86SAPS  H11Y 8256   6.353   4.759   9.423 -0.0769 -1.0137  1.9864
   86SAPS  C312 8257   6.444   4.605   9.289  0.5340 -0.0197 -0.8000
   86SAPS  H12X 8258   6.393   4.514   9.324 -1.3402  0.9136 -0.9881
   86SAPS  H12Y 8259   6.547   4.572   9.263  0.0869 -0.1725 -2.5252
   86SAPS  C313 8260   6.381   4.658   9.162  0.2584 -0.2361  0.3851
   86SAPS  H13X 8261   6.290   4.721   9.177 -0.2602 -0.7166 -0.6512
   86SAPS  H13Y 8262   6.343   4.562   9.121  0.8834 -1.0383  1.6217
   86SAPS  C314 8263   6.481   4.728   9.072  0.0135  0.4686  0.0326
   86SAPS  H14X 8264   6.584   4.691   9.089  0.4440  1.6551  0.1262
   86SAPS  H14Y 8265   6.487   4.837   9.094  0.4750  0.5187 -0.3294
   86SAPS  C315 8266   6.446   4.713   8.923  0.1546  0.1568 -0.1154
   86SAPS  H15X 8267   6.338   4.735   8.908  0.1935  0.1112 -0.4526
   86SAPS  H15Y 8268   6.454   4.609   8.885  0.1799 -0.5574  1.7197
   86SAPS  C316 8269   6.527   4.821   8.851 -0.1543 -0.1201 -0.2277
   86SAPS  H16X 8270   6.633   4.790   8.855 -0.2386 -0.3188  0.8854
   86SAPS  H16Y 8271   6.525   4.920   8.901 -0.6229 -0.6871  0.9293
   86SAPS  C317 8272   6.478   4.831   8.706  0.3003  0.0134  0.2054
   86SAPS  H17X 8273   6.370   4.858   8.713  0.3941  1.8127 -3.3683
   86SAPS  H17Y 8274   6.497   4.736   8.652  1.3827  1.2582 -1.7207
   86SAPS  C318 8275   6.549   4.935   8.622 -0.5586 -0.7263 -0.1787
   86SAPS  H18X 8276   6.646   4.964   8.668  0.6935 -1.2075 -2.3913
   86SAPS  H18Y 8277   6.492   5.030   8.633 -0.2920 -0.3554 -1.7263
   86SAPS  H18Z 8278   6.550   4.897   8.518 -0.3063 -0.5177 -0.2545
   87SAPS     N 8279   6.274   4.801  10.889  0.3715 -0.5651  0.1544
   87SAPS   HN1 8280   6.325   4.883  10.852  0.9235 -0.6525  0.6831
   87SAPS   HN2 8281   6.336   4.722  10.860  0.1374 -0.1767 -1.4758
   87SAPS   HN3 8282   6.179   4.788  10.850  1.2509 -0.3870 -2.1824
   87SAPS   C12 8283   6.271   4.808  11.037 -0.1397  0.3606 -0.9057
   87SAPS  H12A 8284   6.354   4.748  11.072 -0.1736  2.0674  2.5018
   87SAPS   C13 8285   6.306   4.946  11.101  0.2731 -0.7549 -1.0918
   87SAPS  O13A 8286   6.355   5.032  11.027  0.2423  0.7206 -0.0969
   87SAPS  O13B 8287   6.293   4.962  11.229 -0.4782 -0.3363  0.7664
   87SAPS   C11 8288   6.134   4.747  11.082 -0.9967  0.1943 -0.0758
   87SAPS  H11A 8289   6.052   4.814  11.048  0.0286  1.8614  0.6100
   87SAPS  H11B 8290   6.124   4.749  11.193 -2.9123  0.8563 -0.2121
   87SAPS     P 8291   5.987   4.538  11.052  0.0711  0.2246 -0.5266
   87SAPS   O13 8292   6.005   4.395  11.060 -0.0939 -0.3201  0.4294
   87SAPS   O14 8293   5.920   4.605  11.166 -0.6046  0.2933 -0.2474
   87SAPS   O12 8294   6.121   4.611  11.036  0.0153 -0.0470  0.6950
   87SAPS   O11 8295   5.914   4.579  10.920 -0.1016  0.4408 -0.4534
   87SAPS    C1 8296   5.874   4.481  10.823  0.2376 -0.3490 -0.2507
   87SAPS    HA 8297   5.965   4.450  10.767 -0.0286  0.8791 -1.4050
   87SAPS    HB 8298   5.827   4.393  10.872  0.1376 -0.4460 -0.5189
   87SAPS    C2 8299   5.760   4.535  10.719 -0.1249 -0.2982 -0.2206
   87SAPS    HS 8300   5.726   4.448  10.658 -0.7300 -1.6596  1.9441
   87SAPS   O21 8301   5.815   4.646  10.642 -0.0364  0.0976 -0.2053
   87SAPS   C21 8302   5.778   4.656  10.515 -0.1869  0.5718  0.1946
   87SAPS   O22 8303   5.717   4.576  10.451  0.4745 -0.4104 -0.5544
   87SAPS   C22 8304   5.830   4.786  10.448 -0.3505 -0.0717 -0.7148
   87SAPS   H2R 8305   5.940   4.774  10.441 -0.5161 -2.9669  0.2915
   87SAPS   H2S 8306   5.775   4.777  10.352 -1.0580 -0.4717 -0.2787
   87SAPS    C3 8307   5.637   4.578  10.788  0.1839  0.1603  0.0172
   87SAPS    HX 8308   5.652   4.668  10.851  0.2510 -2.5546  4.3173
   87SAPS    HY 8309   5.604   4.501  10.861 -1.1502  0.5243 -0.1880
   87SAPS   O31 8310   5.522   4.591  10.697  0.3757  0.0650 -0.1333
   87SAPS   C31 8311   5.480   4.721  10.675 -0.1845 -0.0867  0.4758
   87SAPS   O32 8312   5.517   4.820  10.736 -0.2268  0.0291 -0.9796
   87SAPS   C32 8313   5.386   4.716  10.560 -0.0519  0.1120 -0.2562
   87SAPS   H2X 8314   5.297   4.651  10.570  0.0387 -0.0765 -0.6448
   87SAPS   H2Y 8315   5.443   4.685  10.470 -1.7105 -0.3251 -1.1917
   87SAPS   C23 8316   5.779   4.917  10.521 -0.4907 -0.1715 -0.4089
   87SAPS   H3R 8317   5.823   4.929  10.622 -1.1059  1.4772 -0.3067
   87SAPS   H3S 8318   5.669   4.906  10.536 -0.0689 -0.7361  3.3064
   87SAPS   C24 8319   5.789   5.050  10.446  0.0360  0.3409  0.5190
   87SAPS   H4R 8320   5.740   5.132  10.502  0.8533  0.4252  1.1380
   87SAPS   H4S 8321   5.738   5.044  10.347 -1.9831 -0.7044  1.5553
   87SAPS   C25 8322   5.932   5.098  10.420  0.1941  0.2856 -0.4914
   87SAPS   H5R 8323   6.007   5.111  10.499  0.6457 -1.5876 -0.5596
   87SAPS   C26 8324   5.980   5.122  10.294 -1.0490 -0.5050 -0.7348
   87SAPS   H6R 8325   6.077   5.174  10.299 -0.1368 -2.1577 -0.1535
   87SAPS   C27 8326   5.916   5.100  10.157  0.1596  0.0037 -0.1362
   87SAPS   H7R 8327   5.973   5.165  10.087 -2.1206 -1.1572 -3.3029
   87SAPS   H7S 8328   5.819   5.152  10.169 -0.4473 -0.8225 -1.2224
   87SAPS   C28 8329   5.907   4.957  10.102  0.7043 -0.3233  0.2720
   87SAPS   H8R 8330   5.926   4.873  10.169  0.7981 -0.0765  0.5577
   87SAPS   C29 8331   5.879   4.932   9.971 -0.5923 -1.2732 -0.2564
   87SAPS   H9R 8332   5.890   4.827   9.939  0.3367 -1.4970  0.7564
   87SAPS  C210 8333   5.871   5.044   9.872  0.2302 -0.1123 -0.3716
   87SAPS  H10R 8334   5.969   5.096   9.864 -0.5185  1.4380  0.0658
   87SAPS  H10S 8335   5.795   5.120   9.899  1.0186 -0.1786  2.3261
   87SAPS  C211 8336   5.822   4.984   9.741 -0.8349 -0.1575 -0.6985
   87SAPS  H11R 8337   5.715   4.957   9.748 -0.9347 -0.4162 -2.5639
   87SAPS  C212 8338   5.895   4.971   9.625  0.4112 -0.5095 -0.1641
   87SAPS  H12R 8339   5.850   4.934   9.532  0.1315  0.6369 -0.5037
   87SAPS  C213 8340   6.044   5.008   9.613 -0.1383 -0.2595  0.8305
   87SAPS  H13R 8341   6.092   4.988   9.712  0.6124 -0.8282  0.3620
   87SAPS  H13S 8342   6.058   5.116   9.589 -1.2166 -0.3355 -0.2427
   87SAPS  C214 8343   6.114   4.920   9.511  0.2264  0.0095  0.8909
   87SAPS  H14R 8344   6.155   4.828   9.555 -0.5854 -0.0703  1.4927
   87SAPS  C215 8345   6.132   4.960   9.376  0.3795  0.7049 -0.2229
   87SAPS  H15R 8346   6.187   4.887   9.315 -1.9661 -2.5603  1.2350
   87SAPS  C216 8347   6.080   5.082   9.309  0.2405 -0.5636  1.0248
   87SAPS  H16R 8348   6.146   5.159   9.355  1.6843 -0.0192 -1.7166
   87SAPS  H16S 8349   5.976   5.113   9.332  0.4284  2.0813 -1.1374
   87SAPS  C217 8350   6.096   5.081   9.152 -1.0309  0.1441  0.2300
   87SAPS  H17R 8351   6.197   5.044   9.125 -0.3951  2.2415 -0.3911
   87SAPS  H17S 8352   6.090   5.185   9.113 -0.7533  0.8993  2.1188
   87SAPS  C218 8353   5.996   4.986   9.082 -0.1915  0.1241  0.6910
   87SAPS  H18R 8354   5.896   4.998   9.127  0.2563  0.5491  1.5930
   87SAPS  H18S 8355   6.028   4.883   9.106 -0.0802  0.1645  0.7191
   87SAPS  C219 8356   5.985   5.004   8.930 -0.0710  0.0023 -0.6321
   87SAPS  H19R 8357   6.082   4.974   8.884 -0.6670 -0.5641 -1.5456
   87SAPS  H19S 8358   5.960   5.112   8.927 -0.2241  0.0165  0.7428
   87SAPS  C220 8359   5.873   4.921   8.873  0.3974  0.2813  0.3758
   87SAPS  H20R 8360   5.866   4.935   8.763 -1.0315  1.1578  0.5553
   87SAPS  H20S 8361   5.772   4.934   8.916 -0.3828 -0.3440 -1.1855
   87SAPS  H20T 8362   5.892   4.811   8.881  0.2673  0.2372  0.0956
   87SAPS   C33 8363   5.320   4.853  10.527  0.2840 -0.4111  0.1727
   87SAPS   H3X 8364   5.389   4.937  10.506 -1.1319  1.1122  1.4211
   87SAPS   H3Y 8365   5.259   4.879  10.616  0.3172  0.2578  0.0004
   87SAPS   C34 8366   5.234   4.842  10.402  0.1120  0.0004 -0.1727
   87SAPS   H4X 8367   5.170   4.933  10.403 -2.5455 -1.7540  0.5765
   87SAPS   H4Y 8368   5.161   4.758  10.397  0.1690 -0.0470 -0.2102
   87SAPS   C35 8369   5.316   4.838  10.271 -0.2746 -0.2413  0.1524
   87SAPS   H5X 8370   5.363   4.737  10.264  0.7741  0.2824 -0.7359
   87SAPS   H5Y 8371   5.405   4.904  10.275  0.7861 -1.5476 -0.8449
   87SAPS   C36 8372   5.233   4.869  10.146  0.0805  0.0871 -0.1817
   87SAPS   H6X 8373   5.163   4.954  10.163  0.5630  0.4779 -0.1331
   87SAPS   H6Y 8374   5.174   4.775  10.134  1.9635 -1.2263  0.3555
   87SAPS   C37 8375   5.317   4.885  10.025  0.3491  0.0888  0.1654
   87SAPS   H7X 8376   5.246   4.887   9.940  0.0587  2.6436  0.3688
   87SAPS   H7Y 8377   5.395   4.810  10.002 -0.6365 -0.3535 -1.9551
   87SAPS   C38 8378   5.389   5.024  10.014 -0.1047 -0.8468  0.2554
   87SAPS   H8X 8379   5.453   5.045  10.102 -1.7872  0.2339  1.2904
   87SAPS   H8Y 8380   5.309   5.100  10.030  0.7138 -0.5378  3.6133
   87SAPS   C39 8381   5.464   5.051   9.887  0.0837  1.0286  0.1305
   87SAPS   H9X 8382   5.535   4.966   9.877 -1.1890 -0.0984  0.3071
   87SAPS   H9Y 8383   5.532   5.139   9.894 -0.5304  1.3720  2.5521
   87SAPS  C310 8384   5.384   5.065   9.755 -0.0569  0.1818  0.3772
   87SAPS  H10X 8385   5.302   5.133   9.786  1.8622  1.3900  3.2230
   87SAPS  H10Y 8386   5.340   4.963   9.751 -4.9124  2.0225  0.5506
   87SAPS  C311 8387   5.467   5.101   9.625  0.2023 -0.1233 -0.3889
   87SAPS  H11X 8388   5.573   5.069   9.621 -0.6289 -3.0063 -3.2274
   87SAPS  H11Y 8389   5.469   5.212   9.628  1.8131 -0.0419 -2.5413
   87SAPS  C312 8390   5.395   5.065   9.496  0.6406 -0.5220  0.5595
   87SAPS  H12X 8391   5.285   5.080   9.496  0.7678  0.5328  1.3212
   87SAPS  H12Y 8392   5.411   4.956   9.483 -2.0333 -0.7245 -2.4665
   87SAPS  C313 8393   5.447   5.143   9.373 -0.0197  0.2480 -0.2578
   87SAPS  H13X 8394   5.558   5.142   9.366  0.0901 -0.7928  1.0854
   87SAPS  H13Y 8395   5.423   5.251   9.379 -0.7964  0.0744 -0.0759
   87SAPS  C314 8396   5.399   5.072   9.249 -0.3089  0.3886  0.2387
   87SAPS  H14X 8397   5.288   5.074   9.252 -0.5116 -3.4720  0.5072
   87SAPS  H14Y 8398   5.425   4.964   9.253  1.6229  0.6179 -2.7419
   87SAPS  C315 8399   5.449   5.126   9.116  0.3594 -0.3026  0.4607
   87SAPS  H15X 8400   5.557   5.102   9.109  0.3393 -0.6031  1.1060
   87SAPS  H15Y 8401   5.441   5.237   9.123  1.3883 -0.2735  1.7595
   87SAPS  C316 8402   5.370   5.074   8.997  0.3039  0.1434  0.1057
   87SAPS  H16X 8403   5.265   5.094   9.026  0.8698  0.3239  2.2603
   87SAPS  H16Y 8404   5.373   4.963   8.987 -1.0133 -0.1934  2.5882
   87SAPS  C317 8405   5.415   5.129   8.863  0.2681 -0.2513  0.1549
   87SAPS  H17X 8406   5.433   5.235   8.893 -0.8346  0.7736 -2.5045
   87SAPS  H17Y 8407   5.325   5.124   8.797  1.1932 -0.5004 -1.1229
   87SAPS  C318 8408   5.533   5.070   8.790  0.5381 -0.7153  0.4919
   87SAPS  H18X 8409   5.565   5.116   8.694 -0.7718 -0.4407  0.1711
   87SAPS  H18Y 8410   5.504   4.966   8.764  0.2751 -0.3299 -0.8425
   87SAPS  H18Z 8411   5.622   5.073   8.857  1.5568 -0.8409 -0.7951
   88SAPS     N 8412   0.289   2.355  10.861 -0.5515  0.1853  0.6405
   88SAPS   HN1 8413   0.247   2.266  10.894  0.2476 -0.1217  0.8640
   88SAPS   HN2 8414   0.214   2.406  10.810 -0.8743 -1.0129 -0.1366
   88SAPS   HN3 8415   0.364   2.347  10.789 -1.4600  1.2923 -0.4626
   88SAPS   C12 8416   0.343   2.417  10.983  0.1607 -0.5039  0.1405
   88SAPS  H12A 8417   0.373   2.514  10.947 -1.4906  0.1635  0.4920
   88SAPS   C13 8418   0.240   2.439  11.092 -0.2907  0.3200  0.5393
   88SAPS  O13A 8419   0.120   2.404  11.068  0.2732 -0.8668  0.1282
   88SAPS  O13B 8420   0.259   2.527  11.185  0.0043 -0.7724  0.1341
   88SAPS   C11 8421   0.471   2.341  11.036  0.0257  0.3024  0.7377
   88SAPS  H11A 8422   0.452   2.242  11.081  0.1183  0.9476  2.2509
   88SAPS  H11B 8423   0.519   2.418  11.100  1.3920  1.0333 -1.0635
   88SAPS     P 8424   0.709   2.278  10.941  0.1651  0.4199 -0.2436
   88SAPS   O13 8425   0.772   2.336  11.063  0.0376  0.7059  0.0578
   88SAPS   O14 8426   0.708   2.132  10.932  0.3590  0.1151  0.5799
   88SAPS   O12 8427   0.562   2.328  10.931  0.4232  0.1672 -0.2033
   88SAPS   O11 8428   0.778   2.325  10.808 -0.1204  0.4140  0.0948
   88SAPS    C1 8429   0.811   2.458  10.771  0.7855 -0.0153 -0.1171
   88SAPS    HA 8430   0.835   2.521  10.859 -0.2538  2.2636 -1.3627
   88SAPS    HB 8431   0.898   2.454  10.702  2.4032 -1.3075  1.8896
   88SAPS    C2 8432   0.688   2.514  10.700 -0.1016  0.8734  0.1884
   88SAPS    HS 8433   0.599   2.505  10.766  1.2670 -1.5183  1.8506
   88SAPS   O21 8434   0.667   2.436  10.585 -0.2462  0.0148 -0.2903
   88SAPS   C21 8435   0.556   2.358  10.571  0.6512  0.0016  1.1806
   88SAPS   O22 8436   0.459   2.357  10.643  0.0873  0.4004  0.1617
   88SAPS   C22 8437   0.587   2.255  10.465  0.1327  0.3029  0.4665
   88SAPS   H2R 8438   0.638   2.314  10.385 -0.9889  1.9477  0.9300
   88SAPS   H2S 8439   0.661   2.177  10.496 -2.4726 -1.3869  2.8732
   88SAPS    C3 8440   0.686   2.670  10.675  0.9125  0.0578 -0.7313
   88SAPS    HX 8441   0.703   2.704  10.780  1.5928  1.0751 -1.1559
   88SAPS    HY 8442   0.585   2.696  10.638  0.3220 -3.0527 -1.6117
   88SAPS   O31 8443   0.793   2.719  10.595 -0.1248  0.2319 -0.2445
   88SAPS   C31 8444   0.770   2.719  10.461  0.1341 -0.2978  0.1737
   88SAPS   O32 8445   0.676   2.664  10.403 -0.3832 -0.4800  0.0423
   88SAPS   C32 8446   0.883   2.802  10.397  0.3893 -0.8286  0.6706
   88SAPS   H2X 8447   0.966   2.736  10.362 -0.6439 -1.4122 -0.8468
   88SAPS   H2Y 8448   0.921   2.878  10.467  2.0506 -0.1677 -0.8664
   88SAPS   C23 8449   0.456   2.181  10.413 -0.1790 -0.4042 -0.2486
   88SAPS   H3R 8450   0.406   2.122  10.494  0.8042 -0.7918  0.0922
   88SAPS   H3S 8451   0.489   2.112  10.333  1.8154  0.5836 -0.3253
   88SAPS   C24 8452   0.357   2.283  10.349 -0.3380  0.4639  0.0556
   88SAPS   H4R 8453   0.321   2.352  10.428  0.2215  1.4096 -0.4978
   88SAPS   H4S 8454   0.271   2.217  10.326  0.1243 -0.0793 -0.1451
   88SAPS   C25 8455   0.400   2.359  10.228  0.2298 -0.4706  0.1514
   88SAPS   H5R 8456   0.460   2.450  10.245  2.4918 -1.7065 -0.7912
   88SAPS   C26 8457   0.380   2.329  10.097  0.2111  0.1084  0.5149
   88SAPS   H6R 8458   0.426   2.400  10.027  0.1242  2.1399  2.3894
   88SAPS   C27 8459   0.311   2.208  10.054 -0.6862 -0.0034  0.0770
   88SAPS   H7R 8460   0.220   2.203  10.117  0.4119  1.4301  1.8952
   88SAPS   H7S 8461   0.378   2.127  10.089  0.6004  1.0445  0.1104
   88SAPS   C28 8462   0.279   2.188   9.910 -0.2364 -0.2920 -0.3590
   88SAPS   H8R 8463   0.316   2.090   9.876  1.5647  0.4697 -0.7521
   88SAPS   C29 8464   0.219   2.274   9.819  0.3628  0.4708 -0.0448
   88SAPS   H9R 8465   0.205   2.232   9.718 -1.3277  1.2738 -0.1849
   88SAPS  C210 8466   0.178   2.414   9.835 -0.1224  0.6955  0.1844
   88SAPS  H10R 8467   0.231   2.485   9.768 -1.9992  2.4427  0.4495
   88SAPS  H10S 8468   0.189   2.455   9.938  0.3103  1.4929 -0.1657
   88SAPS  C211 8469   0.033   2.427   9.810  1.0912 -0.6884  0.4990
   88SAPS  H11R 8470  -0.038   2.393   9.886 -0.6215  2.5552  0.5565
   88SAPS  C212 8471  -0.022   2.474   9.692 -0.8566  0.1860  0.1424
   88SAPS  H12R 8472  -0.130   2.468   9.676 -0.5095 -1.0352 -2.2734
   88SAPS  C213 8473   0.057   2.524   9.572  0.7917 -0.0050 -0.3313
   88SAPS  H13R 8474   0.082   2.442   9.502  0.5452 -1.5751  1.3172
   88SAPS  H13S 8475   0.150   2.575   9.605  0.0014  0.3932  1.4114
   88SAPS  C214 8476  -0.025   2.630   9.498 -0.2810 -0.2321  0.4591
   88SAPS  H14R 8477  -0.132   2.638   9.521  0.0016  2.3889  1.1335
   88SAPS  C215 8478   0.026   2.701   9.397 -0.2596  0.0781 -0.2269
   88SAPS  H15R 8479  -0.047   2.763   9.343  1.4764  1.1980 -1.4096
   88SAPS  C216 8480   0.172   2.684   9.345  0.2003  0.0384 -0.3764
   88SAPS  H16R 8481   0.220   2.596   9.394 -0.2546 -0.7464 -1.2891
   88SAPS  H16S 8482   0.237   2.769   9.372  1.0947 -0.0816 -2.0406
   88SAPS  C217 8483   0.197   2.666   9.194  0.3321 -0.2248 -0.1130
   88SAPS  H17R 8484   0.143   2.577   9.156  0.7971 -0.6622  0.2364
   88SAPS  H17S 8485   0.305   2.642   9.192 -0.0448 -2.0627 -0.3022
   88SAPS  C218 8486   0.183   2.798   9.111 -0.6039  0.0544 -0.0579
   88SAPS  H18R 8487   0.228   2.882   9.168 -0.0584 -2.1475  3.0208
   88SAPS  H18S 8488   0.072   2.809   9.110 -0.8192 -1.7586 -1.4205
   88SAPS  C219 8489   0.241   2.785   8.972 -0.5441  0.8555  0.3167
   88SAPS  H19R 8490   0.194   2.697   8.923  1.0311  0.7536 -1.1191
   88SAPS  H19S 8491   0.351   2.774   8.986 -0.7556 -2.1151  0.1476
   88SAPS  C220 8492   0.221   2.916   8.886  0.1997  0.0851  0.3553
   88SAPS  H20R 8493   0.115   2.945   8.897 -0.5499 -2.4977  0.6686
   88SAPS  H20S 8494   0.258   2.915   8.781 -0.0075  3.7406  0.1179
   88SAPS  H20T 8495   0.268   3.003   8.937 -1.7110  0.9595  0.7049
   88SAPS   C33 8496   0.833   2.874  10.270  0.1945 -0.2153 -0.0469
   88SAPS   H3X 8497   0.759   2.954  10.288  0.2568 -0.0324 -0.5956
   88SAPS   H3Y 8498   0.785   2.800  10.202  1.5631  0.3778 -1.7356
   88SAPS   C34 8499   0.959   2.938  10.200  0.2833  0.1610  0.1516
   88SAPS   H4X 8500   1.027   2.855  10.170  1.3065  0.5253  1.3701
   88SAPS   H4Y 8501   1.023   3.003  10.264  0.6114  0.1995 -0.2122
   88SAPS   C35 8502   0.919   3.021  10.072 -0.8137 -0.3607 -0.0594
   88SAPS   H5X 8503   1.009   3.083  10.050 -0.6242 -0.4530  0.4441
   88SAPS   H5Y 8504   0.836   3.091  10.096 -1.6344 -1.3889  0.1567
   88SAPS   C36 8505   0.891   2.939   9.951  0.2817  0.3544  0.0285
   88SAPS   H6X 8506   0.793   2.886   9.958  0.1649  0.1574 -2.2650
   88SAPS   H6Y 8507   0.975   2.871   9.923 -0.7963 -0.9535 -0.1624
   88SAPS   C37 8508   0.879   3.029   9.818  0.3551  0.6678  0.3120
   88SAPS   H7X 8509   0.866   2.955   9.736 -2.5076  0.3063  0.9779
   88SAPS   H7Y 8510   0.969   3.089   9.791  0.1785  0.4210 -0.8694
   88SAPS   C38 8511   0.750   3.125   9.831 -0.8169 -0.0667 -0.1215
   88SAPS   H8X 8512   0.774   3.196   9.913  0.0200  0.1053 -0.4974
   88SAPS   H8Y 8513   0.670   3.057   9.867 -0.8348 -1.0296 -1.8353
   88SAPS   C39 8514   0.715   3.187   9.698 -0.0112 -0.0405 -0.2012
   88SAPS   H9X 8515   0.696   3.113   9.617 -0.6834 -1.4292  1.1658
   88SAPS   H9Y 8516   0.793   3.257   9.663 -2.2582  2.2790 -0.8626
   88SAPS  C310 8517   0.590   3.267   9.682  0.2853  0.0604  0.8532
   88SAPS  H10X 8518   0.584   3.342   9.764  0.1533  1.3282 -0.2728
   88SAPS  H10Y 8519   0.501   3.202   9.674 -0.6688  1.5029 -1.4724
   88SAPS  C311 8520   0.589   3.357   9.554  0.3597  0.4994  0.3585
   88SAPS  H11X 8521   0.606   3.301   9.460  1.2188 -0.5736  1.1259
   88SAPS  H11Y 8522   0.666   3.434   9.571  1.5701 -0.9093  1.5372
   88SAPS  C312 8523   0.450   3.427   9.543  0.2790  0.5491 -0.7974
   88SAPS  H12X 8524   0.430   3.489   9.633 -0.0727  0.2460 -0.6641
   88SAPS  H12Y 8525   0.369   3.351   9.551 -1.4620  2.4846  2.1977
   88SAPS  C313 8526   0.440   3.508   9.413  1.1056 -0.2574  0.1874
   88SAPS  H13X 8527   0.481   3.442   9.333  1.8094  0.7133 -0.2648
   88SAPS  H13Y 8528   0.504   3.598   9.420 -0.9325  1.4939 -2.0362
   88SAPS  C314 8529   0.293   3.563   9.389 -0.1135  0.3093  0.3688
   88SAPS  H14X 8530   0.235   3.469   9.377 -0.5480  0.5968  0.2013
   88SAPS  H14Y 8531   0.288   3.625   9.296  0.1889  1.8448  1.3426
   88SAPS  C315 8532   0.225   3.637   9.499  0.4874  0.2443 -0.3268
   88SAPS  H15X 8533   0.292   3.724   9.516  2.5709 -0.9462 -1.9484
   88SAPS  H15Y 8534   0.215   3.572   9.589 -0.0833  0.4098 -0.2653
   88SAPS  C316 8535   0.089   3.692   9.464  0.3821 -0.3844  0.3467
   88SAPS  H16X 8536   0.061   3.742   9.560  0.7379 -1.4378  1.0160
   88SAPS  H16Y 8537   0.017   3.609   9.448 -1.4009  1.0068  0.7661
   88SAPS  C317 8538   0.084   3.791   9.345 -0.4436 -0.5302 -0.6396
   88SAPS  H17X 8539  -0.020   3.828   9.337  0.1903  1.2399 -1.0830
   88SAPS  H17Y 8540   0.118   3.752   9.246 -1.0720  1.5207 -1.7229
   88SAPS  C318 8541   0.174   3.918   9.375  0.0659 -0.0710  0.4378
   88SAPS  H18X 8542   0.282   3.895   9.388  0.2545 -0.0968 -0.9714
   88SAPS  H18Y 8543   0.145   3.960   9.473  3.2543  1.4720  0.8263
   88SAPS  H18Z 8544   0.165   4.003   9.303 -2.2234 -0.7293 -0.1526
   89SAPS     N 8545   0.856   6.685  11.176  0.0556  0.0047 -0.1585
   89SAPS   HN1 8546   0.833   6.635  11.265  2.7016  0.0497  0.6278
   89SAPS   HN2 8547   0.944   6.740  11.177  0.8401 -1.1668 -0.9591
   89SAPS   HN3 8548   0.772   6.738  11.145  0.7873  1.4484  0.2394
   89SAPS   C12 8549   0.887   6.588  11.066  0.4520  0.4163 -0.1368
   89SAPS  H12A 8550   0.959   6.517  11.106  0.2202 -0.5672 -1.3978
   89SAPS   C13 8551   0.771   6.481  11.035  0.0617  0.3176 -0.1828
   89SAPS  O13A 8552   0.661   6.497  11.089  0.2875 -0.3885 -0.9341
   89SAPS  O13B 8553   0.798   6.378  10.970  0.3459  0.0760 -0.0323
   89SAPS   C11 8554   0.927   6.662  10.936 -0.4108 -0.4041 -0.3403
   89SAPS  H11A 8555   0.844   6.735  10.924  1.7330  1.7990 -2.7788
   89SAPS  H11B 8556   0.925   6.593  10.850  2.0435 -2.0781  0.8090
   89SAPS     P 8557   1.181   6.641  10.903 -0.4880 -0.2906 -0.0442
   89SAPS   O13 8558   1.298   6.670  10.992 -0.4599 -0.0296 -0.4204
   89SAPS   O14 8559   1.138   6.502  10.883  0.2406 -0.1792  0.5361
   89SAPS   O12 8560   1.054   6.725  10.947 -0.0519 -0.9535 -0.2464
   89SAPS   O11 8561   1.210   6.692  10.766  0.1965 -0.7405  0.3282
   89SAPS    C1 8562   1.236   6.839  10.744 -0.5635  0.1033  0.1825
   89SAPS    HA 8563   1.142   6.895  10.727  0.1915  1.0098 -1.1783
   89SAPS    HB 8564   1.270   6.888  10.838 -2.8781  0.3722  0.9298
   89SAPS    C2 8565   1.325   6.846  10.618 -0.1031  0.1497  0.1013
   89SAPS    HS 8566   1.354   6.953  10.607  0.9865  0.1542  2.4899
   89SAPS   O21 8567   1.254   6.787  10.507  0.2429 -0.9613  0.0001
   89SAPS   C21 8568   1.283   6.824  10.392 -0.0948  0.0580  0.9043
   89SAPS   O22 8569   1.369   6.902  10.356  0.1538  0.2902 -0.3359
   89SAPS   C22 8570   1.215   6.732  10.284 -0.1558 -0.0988 -0.1039
   89SAPS   H2R 8571   1.295   6.666  10.244  0.3566  0.9106 -0.7811
   89SAPS   H2S 8572   1.142   6.664  10.333 -1.1248  0.2598 -1.0125
   89SAPS    C3 8573   1.452   6.779  10.648 -0.0447 -0.2377 -0.6953
   89SAPS    HX 8574   1.441   6.676  10.688 -0.5414  0.6732  1.6950
   89SAPS    HY 8575   1.501   6.829  10.734 -1.3878 -1.1030  0.6097
   89SAPS   O31 8576   1.531   6.775  10.528 -0.3309 -0.3304 -0.7389
   89SAPS   C31 8577   1.642   6.845  10.528  0.3531 -0.1820 -0.3975
   89SAPS   O32 8578   1.666   6.933  10.615  0.1638  0.4386  0.3939
   89SAPS   C32 8579   1.743   6.806  10.419  0.7921 -0.4952  0.2045
   89SAPS   H2X 8580   1.674   6.819  10.333  0.2637  1.2923  0.8584
   89SAPS   H2Y 8581   1.770   6.700  10.436 -1.0315 -0.8896  0.7998
   89SAPS   C23 8582   1.151   6.802  10.163 -0.0586 -0.0529  0.3167
   89SAPS   H3R 8583   1.224   6.858  10.101 -1.3669  0.3121 -0.9425
   89SAPS   H3S 8584   1.068   6.868  10.196  0.4468  0.3475  0.7932
   89SAPS   C24 8585   1.096   6.702  10.062  0.4607  0.3669 -0.9597
   89SAPS   H4R 8586   1.161   6.612  10.057 -1.6552 -1.4553  1.4540
   89SAPS   H4S 8587   1.089   6.746   9.960  1.7576  0.6460 -0.9379
   89SAPS   C25 8588   0.960   6.649  10.101 -0.2522 -0.7403 -0.4062
   89SAPS   H5R 8589   0.941   6.621  10.206 -2.7336 -1.8579 -1.0773
   89SAPS   C26 8590   0.849   6.648  10.026 -0.1413  0.2330 -0.0763
   89SAPS   H6R 8591   0.756   6.600  10.060 -0.6063  0.6945 -0.6648
   89SAPS   C27 8592   0.844   6.699   9.886 -0.0731  0.2252 -0.1718
   89SAPS   H7R 8593   0.885   6.802   9.875 -1.0439  0.4448 -2.3785
   89SAPS   H7S 8594   0.742   6.699   9.842  0.6090  1.8801 -1.8985
   89SAPS   C28 8595   0.916   6.592   9.800 -0.2727 -0.6120  0.2657
   89SAPS   H8R 8596   0.927   6.491   9.844  0.3166 -0.7977 -0.2946
   89SAPS   C29 8597   0.948   6.616   9.667  0.0819  0.2582  0.4382
   89SAPS   H9R 8598   0.998   6.535   9.610  2.7068  1.0230  1.5070
   89SAPS  C210 8599   0.913   6.736   9.589 -0.3835  0.4105  0.1793
   89SAPS  H10R 8600   0.900   6.824   9.656 -0.5807  0.9307 -0.5290
   89SAPS  H10S 8601   0.809   6.711   9.561  0.1410 -0.6714 -0.9261
   89SAPS  C211 8602   1.002   6.780   9.477  0.2967  0.5541 -0.3799
   89SAPS  H11R 8603   1.084   6.850   9.500  0.2926  0.0395  1.3874
   89SAPS  C212 8604   0.986   6.743   9.346 -0.0040 -0.1769  0.7859
   89SAPS  H12R 8605   1.052   6.785   9.269  0.2626  0.9916  1.6156
   89SAPS  C213 8606   0.873   6.652   9.302 -0.1415 -0.2028 -0.1864
   89SAPS  H13R 8607   0.789   6.722   9.282  0.9897  1.8831  1.9246
   89SAPS  H13S 8608   0.829   6.590   9.383  1.3352 -0.8027  0.1932
   89SAPS  C214 8609   0.900   6.559   9.187 -0.1007 -0.2882 -0.4047
   89SAPS  H14R 8610   0.993   6.502   9.204  0.4666 -0.1114 -2.5910
   89SAPS  C215 8611   0.825   6.543   9.073 -0.7068  0.0515  0.2699
   89SAPS  H15R 8612   0.854   6.471   8.995 -0.6976 -1.6559  1.7819
   89SAPS  C216 8613   0.693   6.616   9.050  0.4874 -0.2590 -0.0711
   89SAPS  H16R 8614   0.629   6.627   9.141  1.2863  0.1295  0.4477
   89SAPS  H16S 8615   0.628   6.557   8.982 -0.9072  0.5457  0.5147
   89SAPS  C217 8616   0.700   6.764   8.997 -0.0327  0.0756 -0.0209
   89SAPS  H17R 8617   0.754   6.814   9.080 -1.3205  0.3544  0.6643
   89SAPS  H17S 8618   0.597   6.804   8.994  0.2155  0.7293  0.0886
   89SAPS  C218 8619   0.777   6.787   8.860 -0.1141  0.7296  0.0412
   89SAPS  H18R 8620   0.728   6.734   8.776  0.2933  1.8541 -0.9295
   89SAPS  H18S 8621   0.879   6.745   8.864 -0.3011  0.0635 -1.5443
   89SAPS  C219 8622   0.791   6.938   8.819  0.0680  0.3965 -0.0278
   89SAPS  H19R 8623   0.687   6.975   8.814 -1.1814 -1.8005  4.5035
   89SAPS  H19S 8624   0.838   6.944   8.718 -0.6946 -3.2739 -0.7373
   89SAPS  C220 8625   0.866   7.022   8.922  0.2676 -0.3563 -0.1629
   89SAPS  H20R 8626   0.858   7.129   8.894 -0.6348  0.5469  3.1540
   89SAPS  H20S 8627   0.968   6.977   8.924  0.1228 -0.8329 -1.8361
   89SAPS  H20T 8628   0.814   7.022   9.020 -1.6760  3.6172 -0.9856
   89SAPS   C33 8629   1.867   6.898  10.409  0.0054 -0.2679 -0.5111
   89SAPS   H3X 8630   1.922   6.872  10.502 -0.3105 -0.9843 -0.5193
   89SAPS   H3Y 8631   1.841   7.006  10.415 -2.6293 -0.9034  0.5615
   89SAPS   C34 8632   1.946   6.861  10.279 -0.0934  0.0670  0.4865
   89SAPS   H4X 8633   1.907   6.760  10.256 -1.5964  0.8028 -0.3714
   89SAPS   H4Y 8634   2.053   6.858  10.308  0.9693  2.4788 -2.5785
   89SAPS   C35 8635   1.937   6.950  10.159  0.2046 -0.6524  0.1194
   89SAPS   H5X 8636   1.978   7.049  10.190 -1.4911  0.1610 -0.1137
   89SAPS   H5Y 8637   1.835   6.970  10.118  0.5270  1.6052  0.2525
   89SAPS   C36 8638   2.026   6.910  10.042  0.6580 -0.3193 -0.5440
   89SAPS   H6X 8639   2.003   6.806  10.013 -1.2272 -0.1192  0.0506
   89SAPS   H6Y 8640   2.129   6.908  10.084  0.1979  1.1445  0.7788
   89SAPS   C37 8641   2.010   7.000   9.927 -0.5721  0.6999  0.5671
   89SAPS   H7X 8642   2.065   7.093   9.951  0.4697 -0.4520  3.0222
   89SAPS   H7Y 8643   1.903   7.030   9.915 -0.5678  0.5719  0.1743
   89SAPS   C38 8644   2.061   6.931   9.800  0.5281  0.2534 -0.0918
   89SAPS   H8X 8645   1.982   6.861   9.765 -0.4449  0.9847  0.5611
   89SAPS   H8Y 8646   2.152   6.871   9.819  1.5645  1.5543 -0.8321
   89SAPS   C39 8647   2.080   7.037   9.687 -0.2032  0.1060  0.4583
   89SAPS   H9X 8648   2.143   7.123   9.717  1.0901 -0.0548 -1.6381
   89SAPS   H9Y 8649   1.976   7.064   9.659 -1.0848 -3.8108 -0.7740
   89SAPS  C310 8650   2.151   6.968   9.566  0.5132 -0.4295 -0.1705
   89SAPS  H10X 8651   2.111   6.867   9.540  0.9269  0.3731 -4.8561
   89SAPS  H10Y 8652   2.261   6.967   9.583  0.5566  0.0701 -0.3980
   89SAPS  C311 8653   2.131   7.056   9.445  0.0526  0.1304 -0.3035
   89SAPS  H11X 8654   2.209   7.016   9.378 -0.8985 -3.3616  0.4814
   89SAPS  H11Y 8655   2.150   7.163   9.469  1.2474  0.2160 -1.5125
   89SAPS  C312 8656   1.997   7.058   9.366  0.3824  0.0118 -0.0854
   89SAPS  H12X 8657   1.918   7.110   9.426  0.1322  1.0342 -1.2570
   89SAPS  H12Y 8658   1.980   6.955   9.330 -1.7811  0.1514  0.3413
   89SAPS  C313 8659   2.007   7.139   9.233 -0.0728  0.3278 -0.7592
   89SAPS  H13X 8660   2.087   7.099   9.168 -0.2585  2.2333 -2.2699
   89SAPS  H13Y 8661   2.034   7.244   9.257  1.2583 -0.1370 -0.1718
   89SAPS  C314 8662   1.874   7.136   9.153  0.1780  0.7648  0.2680
   89SAPS  H14X 8663   1.805   7.201   9.211 -0.7209 -3.9646  5.3815
   89SAPS  H14Y 8664   1.842   7.029   9.158  0.8800  0.5261 -0.2492
   89SAPS  C315 8665   1.890   7.187   9.012 -0.3192  0.5109  0.3514
   89SAPS  H15X 8666   1.955   7.127   8.946  0.4675  1.3846  0.3110
   89SAPS  H15Y 8667   1.937   7.287   9.023  1.6377 -0.0503 -2.0275
   89SAPS  C316 8668   1.749   7.197   8.939 -0.0491  0.8722 -0.1223
   89SAPS  H16X 8669   1.689   7.286   8.968  0.6503  1.2042  0.3540
   89SAPS  H16Y 8670   1.697   7.111   8.984  4.1915 -0.7589  2.2771
   89SAPS  C317 8671   1.758   7.193   8.785  0.0557 -1.2119  0.5889
   89SAPS  H17X 8672   1.654   7.172   8.753  0.1233 -2.6821  1.2245
   89SAPS  H17Y 8673   1.812   7.107   8.741 -1.3745 -0.3357 -3.2360
   89SAPS  C318 8674   1.804   7.325   8.721  0.2325 -0.0023  0.4403
   89SAPS  H18X 8675   1.902   7.362   8.760  0.8723 -0.6685 -0.4840
   89SAPS  H18Y 8676   1.730   7.405   8.738  0.1074 -0.1361  0.5299
   89SAPS  H18Z 8677   1.818   7.309   8.612 -0.5344 -0.7628  0.4435
   90SAPS     N 8678   2.812   6.028  11.180  0.0507  0.5789  0.5633
   90SAPS   HN1 8679   2.765   5.969  11.251  2.1135  0.0696  1.5619
   90SAPS   HN2 8680   2.813   6.128  11.209 -1.9192  1.3484 -1.6573
   90SAPS   HN3 8681   2.743   6.031  11.102 -0.7696  1.0784  1.2828
   90SAPS   C12 8682   2.944   5.979  11.130 -0.0008 -0.4482 -0.2834
   90SAPS  H12A 8683   2.985   6.049  11.058 -0.3643 -0.2453 -0.2925
   90SAPS   C13 8684   3.041   5.968  11.253 -0.2513 -0.8156  1.6831
   90SAPS  O13A 8685   3.001   5.966  11.375 -0.3335  0.2110 -0.0171
   90SAPS  O13B 8686   3.153   5.928  11.220  0.0257 -0.0308  0.4192
   90SAPS   C11 8687   2.922   5.837  11.070  0.5412 -0.4218 -0.9828
   90SAPS  H11A 8688   2.902   5.773  11.159 -1.6744  2.1168  0.5221
   90SAPS  H11B 8689   3.011   5.793  11.021 -0.0862 -1.4563 -1.2424
   90SAPS     P 8690   2.814   5.844  10.837  0.0441  0.2843 -0.1065
   90SAPS   O13 8691   2.678   5.860  10.793  0.4017 -0.2981  0.2147
   90SAPS   O14 8692   2.900   5.961  10.818 -0.0947  0.0348  0.2221
   90SAPS   O12 8693   2.806   5.809  10.985  0.3134 -0.2262 -0.2202
   90SAPS   O11 8694   2.872   5.714  10.770 -0.4626  0.3056  0.0471
   90SAPS    C1 8695   2.890   5.705  10.629  0.5714  0.3774 -0.6629
   90SAPS    HA 8696   2.936   5.605  10.611 -1.2567 -0.2864 -1.9682
   90SAPS    HB 8697   2.797   5.694  10.570  1.6191  1.0853 -2.5313
   90SAPS    C2 8698   2.975   5.812  10.560 -0.5888  0.4093 -0.0519
   90SAPS    HS 8699   2.934   5.910  10.593  1.2714  1.6190 -1.0947
   90SAPS   O21 8700   2.961   5.807  10.418 -0.3120  0.3211  0.6755
   90SAPS   C21 8701   3.002   5.916  10.347 -0.5916 -0.6422 -0.1361
   90SAPS   O22 8702   3.034   6.021  10.395 -0.2550 -0.4186 -0.1959
   90SAPS   C22 8703   3.012   5.873  10.199 -0.5154  0.2503 -0.0421
   90SAPS   H2R 8704   3.102   5.923  10.158 -1.1642  1.0551 -0.5200
   90SAPS   H2S 8705   3.036   5.764  10.199  0.7667  0.4901  1.8765
   90SAPS    C3 8706   3.121   5.797  10.611  0.2457  0.4675  0.3594
   90SAPS    HX 8707   3.103   5.798  10.721 -2.6726 -0.9127 -0.0029
   90SAPS    HY 8708   3.189   5.880  10.583 -0.5320  1.5379  1.5462
   90SAPS   O31 8709   3.182   5.671  10.578 -0.1568  0.2021  0.2275
   90SAPS   C31 8710   3.256   5.662  10.464  0.2057  0.0775 -0.3485
   90SAPS   O32 8711   3.260   5.753  10.382  0.4500 -0.0503  0.0101
   90SAPS   C32 8712   3.336   5.535  10.471  0.2816  0.6534 -0.3795
   90SAPS   H2X 8713   3.260   5.457  10.453  0.9102 -0.1202  0.2490
   90SAPS   H2Y 8714   3.384   5.519  10.570 -0.4677 -1.4647 -0.3207
   90SAPS   C23 8715   2.895   5.920  10.104 -0.3154  0.2575  0.1924
   90SAPS   H3R 8716   2.888   6.030  10.109 -0.3776  0.3068 -0.7250
   90SAPS   H3S 8717   2.801   5.883  10.150  0.6738 -0.7132  1.5070
   90SAPS   C24 8718   2.904   5.875   9.959  0.2516  0.2100 -0.1031
   90SAPS   H4R 8719   2.822   5.933   9.910  0.0554 -0.1606 -0.2226
   90SAPS   H4S 8720   2.869   5.770   9.954  0.2341  0.1910  0.3943
   90SAPS   C25 8721   3.035   5.888   9.886  0.7988  0.0489  0.1777
   90SAPS   H5R 8722   3.119   5.931   9.942  1.5108 -1.4114  0.2891
   90SAPS   C26 8723   3.045   5.867   9.754 -0.7869 -0.7081 -0.1353
   90SAPS   H6R 8724   3.149   5.869   9.720 -0.2006  1.5484  1.5049
   90SAPS   C27 8725   2.932   5.824   9.660 -0.4481 -0.6903  0.4855
   90SAPS   H7R 8726   2.839   5.839   9.719 -0.2164  1.5030  0.3714
   90SAPS   H7S 8727   2.934   5.723   9.613 -1.3535  0.2733 -1.8002
   90SAPS   C28 8728   2.926   5.933   9.558 -0.5011 -0.1479  0.5981
   90SAPS   H8R 8729   2.899   6.033   9.594 -0.6746  0.7192 -1.7644
   90SAPS   C29 8730   2.968   5.927   9.428  0.9472  0.4545  0.3060
   90SAPS   H9R 8731   2.962   6.017   9.366  0.4218 -0.7014 -1.4004
   90SAPS  C210 8732   3.022   5.809   9.356 -0.3692  0.8498  0.8405
   90SAPS  H10R 8733   2.985   5.803   9.251  0.3604  0.8260  0.5733
   90SAPS  H10S 8734   2.987   5.714   9.402  0.9715 -0.5365 -0.8143
   90SAPS  C211 8735   3.174   5.804   9.348 -0.3456 -0.2967 -0.2279
   90SAPS  H11R 8736   3.221   5.828   9.444  1.0918  1.6083 -1.3267
   90SAPS  C212 8737   3.249   5.797   9.240  0.5089 -0.0213  0.4080
   90SAPS  H12R 8738   3.356   5.817   9.256  0.1246  1.4340  1.3941
   90SAPS  C213 8739   3.203   5.774   9.096 -0.0072  0.9674 -0.7092
   90SAPS  H13R 8740   3.124   5.697   9.082 -0.7216  0.8129  3.2242
   90SAPS  H13S 8741   3.290   5.739   9.036  0.0837 -2.5978  1.2440
   90SAPS  C214 8742   3.172   5.909   9.035 -0.5645  0.1750  0.1437
   90SAPS  H14R 8743   3.083   5.949   9.086 -0.0270  1.2284  0.2789
   90SAPS  C215 8744   3.246   5.982   8.944  0.0770  0.4433 -0.1590
   90SAPS  H15R 8745   3.200   6.078   8.917 -1.6082  0.1982  1.6169
   90SAPS  C216 8746   3.382   5.948   8.889 -0.2190  0.1610  0.2638
   90SAPS  H16R 8747   3.459   5.924   8.966 -0.9540 -1.9654  0.3947
   90SAPS  H16S 8748   3.426   6.040   8.845 -2.1571  0.3936 -1.3195
   90SAPS  C217 8749   3.377   5.820   8.802 -0.0065  0.4524  0.0173
   90SAPS  H17R 8750   3.297   5.830   8.725  1.6110  0.0954 -1.7924
   90SAPS  H17S 8751   3.361   5.726   8.859 -1.3023  0.4426 -0.3216
   90SAPS  C218 8752   3.494   5.817   8.708  0.5656 -0.2236 -0.1541
   90SAPS  H18R 8753   3.590   5.804   8.762 -0.0056 -0.9171  0.7152
   90SAPS  H18S 8754   3.510   5.915   8.659  2.8200 -1.2808 -1.7615
   90SAPS  C219 8755   3.484   5.704   8.604 -0.2432  0.6776  0.2973
   90SAPS  H19R 8756   3.416   5.739   8.523 -0.6071 -1.8934 -0.5965
   90SAPS  H19S 8757   3.444   5.612   8.651  0.6141 -1.0476 -2.1358
   90SAPS  C220 8758   3.628   5.670   8.545 -0.0959 -0.0386 -0.6052
   90SAPS  H20R 8759   3.691   5.760   8.551  1.7204 -1.2551 -0.6947
   90SAPS  H20S 8760   3.625   5.642   8.437 -0.7650 -1.0404 -0.3502
   90SAPS  H20T 8761   3.681   5.587   8.598 -0.7253 -0.8687 -1.2340
   90SAPS   C33 8762   3.446   5.523  10.357 -0.2026  0.4378 -0.1005
   90SAPS   H3X 8763   3.515   5.441  10.388  0.4275  1.5115  1.4361
   90SAPS   H3Y 8764   3.503   5.618  10.353  0.8348 -0.0225  2.0273
   90SAPS   C34 8765   3.383   5.480  10.222  1.1990  0.2724 -1.0023
   90SAPS   H4X 8766   3.302   5.555  10.215 -0.9869 -1.5591  2.4149
   90SAPS   H4Y 8767   3.334   5.382  10.233 -1.4000  1.2479 -2.9064
   90SAPS   C35 8768   3.469   5.497  10.101 -0.3473  0.1718  0.4021
   90SAPS   H5X 8769   3.565   5.441  10.100 -0.9013 -0.7909 -0.8594
   90SAPS   H5Y 8770   3.505   5.603  10.097 -0.1465  0.0807 -0.3893
   90SAPS   C36 8771   3.381   5.466   9.975 -0.0862 -0.6596 -0.4325
   90SAPS   H6X 8772   3.278   5.500   9.999  0.0123  1.4290 -2.5883
   90SAPS   H6Y 8773   3.370   5.357   9.956 -0.0627 -0.4765 -1.6135
   90SAPS   C37 8774   3.430   5.523   9.841 -0.8493  0.3147  0.6533
   90SAPS   H7X 8775   3.536   5.494   9.825 -1.2235 -0.3616 -0.8228
   90SAPS   H7Y 8776   3.432   5.631   9.818  1.7419  0.3995  0.9543
   90SAPS   C38 8777   3.339   5.462   9.726 -0.5045  0.2338 -0.8841
   90SAPS   H8X 8778   3.235   5.487   9.755 -0.2223  0.6564 -0.2112
   90SAPS   H8Y 8779   3.355   5.352   9.728 -0.8605  0.1923  0.1658
   90SAPS   C39 8780   3.358   5.515   9.585  0.3359 -0.5784 -0.6295
   90SAPS   H9X 8781   3.341   5.625   9.582 -0.2933 -0.5766  1.4754
   90SAPS   H9Y 8782   3.281   5.465   9.524  0.2927 -0.3365 -0.7728
   90SAPS  C310 8783   3.506   5.520   9.538 -0.1046 -0.2412  0.2196
   90SAPS  H10X 8784   3.548   5.422   9.570 -3.1268 -1.7764 -0.2167
   90SAPS  H10Y 8785   3.544   5.611   9.590 -1.0377  0.7474 -0.7875
   90SAPS  C311 8786   3.534   5.535   9.387 -0.2247  0.3885 -0.0330
   90SAPS  H11X 8787   3.452   5.599   9.349 -1.2285 -1.7191 -1.6339
   90SAPS  H11Y 8788   3.511   5.441   9.333 -0.0829 -0.1125  0.7693
   90SAPS  C312 8789   3.669   5.583   9.347 -0.0436 -0.0356 -0.3340
   90SAPS  H12X 8790   3.732   5.491   9.353 -0.2704 -0.1291  1.2243
   90SAPS  H12Y 8791   3.710   5.656   9.420 -1.4663 -0.4496  0.9335
   90SAPS  C313 8792   3.668   5.642   9.210 -0.0049  0.4160 -0.3561
   90SAPS  H13X 8793   3.583   5.714   9.203  0.3863  1.1461  1.7915
   90SAPS  H13Y 8794   3.628   5.556   9.152 -1.1829 -0.3833  1.5702
   90SAPS  C314 8795   3.801   5.686   9.153 -0.3133 -0.1653  0.2059
   90SAPS  H14X 8796   3.881   5.608   9.149  1.2541  1.1507  2.9745
   90SAPS  H14Y 8797   3.837   5.760   9.228 -0.4340 -0.2725  0.3706
   90SAPS  C315 8798   3.785   5.752   9.014  0.2791  0.3066  0.6498
   90SAPS  H15X 8799   3.685   5.801   9.005  0.8287  1.2906 -0.3103
   90SAPS  H15Y 8800   3.785   5.676   8.933 -1.2346  0.8857  0.0534
   90SAPS  C316 8801   3.903   5.849   8.992  0.3940 -0.3516 -0.4363
   90SAPS  H16X 8802   4.000   5.796   9.006  1.0745  1.2328  1.2560
   90SAPS  H16Y 8803   3.887   5.930   9.066  1.1725 -0.2354 -0.3854
   90SAPS  C317 8804   3.900   5.890   8.856 -0.4697 -0.2694  0.2131
   90SAPS  H17X 8805   3.811   5.950   8.826  0.6928  1.4750  0.0931
   90SAPS  H17Y 8806   3.915   5.802   8.790 -0.0004  0.4702 -0.6871
   90SAPS  C318 8807   4.020   5.982   8.836  0.1988 -0.0399  0.3057
   90SAPS  H18X 8808   4.024   6.044   8.927 -1.3695  0.0949  0.3072
   90SAPS  H18Y 8809   4.016   6.045   8.744 -1.5543  0.3808  0.6479
   90SAPS  H18Z 8810   4.117   5.928   8.824  0.5048  0.9011 -1.9447
   91SAPS     N 8811   1.099   2.514   6.022  0.0659  0.4212  0.2645
   91SAPS   HN1 8812   1.059   2.450   5.951  1.6030  1.1356 -1.3240
   91SAPS   HN2 8813   1.189   2.473   6.055 -0.3543 -0.9522 -0.2067
   91SAPS   HN3 8814   1.029   2.512   6.099 -1.6533 -3.4422 -1.1631
   91SAPS   C12 8815   1.117   2.656   5.968 -0.0370  0.3053 -0.0600
   91SAPS  H12A 8816   1.180   2.639   5.882  3.1339 -0.2150  2.1646
   91SAPS   C13 8817   0.987   2.716   5.913  0.1709  0.1831 -0.7425
   91SAPS  O13A 8818   0.878   2.649   5.913  0.1241 -0.1556  0.3332
   91SAPS  O13B 8819   1.000   2.826   5.853 -0.3175  0.5009 -0.3468
   91SAPS   C11 8820   1.195   2.745   6.080 -0.1327  0.0798  1.0085
   91SAPS  H11A 8821   1.282   2.683   6.107 -0.8698 -1.7239 -0.4864
   91SAPS  H11B 8822   1.123   2.762   6.163  0.6817  0.0412  1.7305
   91SAPS     P 8823   1.345   2.953   6.100  0.1860  0.0875 -0.3998
   91SAPS   O13 8824   1.477   2.914   6.054  0.0022 -0.3615 -0.5622
   91SAPS   O14 8825   1.301   3.092   6.088 -0.3353 -0.4561  0.5088
   91SAPS   O12 8826   1.242   2.862   6.026  0.7331  0.6079 -0.3240
   91SAPS   O11 8827   1.333   2.907   6.247  0.3661 -0.4213 -0.8327
   91SAPS    C1 8828   1.437   2.830   6.303  0.8439  0.1941 -0.4556
   91SAPS    HA 8829   1.436   2.736   6.244 -2.1596 -0.1941  0.0717
   91SAPS    HB 8830   1.538   2.875   6.290  0.4148  1.3664  0.1339
   91SAPS    C2 8831   1.417   2.794   6.454 -0.5182  0.5402  0.5718
   91SAPS    HS 8832   1.324   2.735   6.471  0.1363 -0.4266  0.9074
   91SAPS   O21 8833   1.416   2.924   6.519  0.4169  0.4942 -0.2369
   91SAPS   C21 8834   1.354   2.927   6.640  0.3531  0.5133  0.3532
   91SAPS   O22 8835   1.284   2.837   6.687  0.1239 -0.0896  0.5317
   91SAPS   C22 8836   1.419   3.047   6.709  0.4616  0.2203 -0.7376
   91SAPS   H2R 8837   1.529   3.031   6.701  0.6606  1.7044 -1.4592
   91SAPS   H2S 8838   1.393   3.138   6.651  0.0785  0.6016  0.0165
   91SAPS    C3 8839   1.537   2.702   6.504 -0.2999 -0.5553  0.2002
   91SAPS    HX 8840   1.632   2.748   6.468 -0.5716  0.6534  0.9630
   91SAPS    HY 8841   1.536   2.611   6.441 -0.7817  0.3434 -1.1437
   91SAPS   O31 8842   1.532   2.681   6.642  0.2309 -0.4779 -0.7041
   91SAPS   C31 8843   1.436   2.599   6.688 -0.2228 -0.5064 -0.4077
   91SAPS   O32 8844   1.351   2.547   6.616  0.0583 -0.1884 -0.2979
   91SAPS   C32 8845   1.457   2.580   6.836 -0.4006  0.0116 -0.6203
   91SAPS   H2X 8846   1.551   2.523   6.852 -0.2221  0.3724 -0.3779
   91SAPS   H2Y 8847   1.376   2.517   6.878  0.9618  0.9712  4.1072
   91SAPS   C23 8848   1.385   3.056   6.862  0.1752  0.3797 -0.0744
   91SAPS   H3R 8849   1.432   2.966   6.907  0.5148  1.0584  0.9463
   91SAPS   H3S 8850   1.277   3.048   6.888  0.4251 -1.3817  0.5448
   91SAPS   C24 8851   1.445   3.169   6.941  0.3913  0.0796 -0.5947
   91SAPS   H4R 8852   1.555   3.168   6.921  0.0704 -0.8560 -2.5958
   91SAPS   H4S 8853   1.422   3.156   7.048  1.1983  0.3335 -0.3844
   91SAPS   C25 8854   1.391   3.303   6.879 -0.3463 -0.1181 -0.5671
   91SAPS   H5R 8855   1.398   3.312   6.770  3.7097  0.9844 -0.3671
   91SAPS   C26 8856   1.349   3.419   6.942 -0.7450 -0.1005  0.3913
   91SAPS   H6R 8857   1.296   3.497   6.885  1.5031  1.4828  0.3241
   91SAPS   C27 8858   1.358   3.453   7.089 -0.3098 -0.1330 -0.5472
   91SAPS   H7R 8859   1.334   3.372   7.161 -0.4987 -0.5647 -1.0835
   91SAPS   H7S 8860   1.275   3.524   7.107  0.7356  1.7712 -2.7595
   91SAPS   C28 8861   1.493   3.517   7.118  0.4425  0.4874 -0.3456
   91SAPS   H8R 8862   1.515   3.617   7.079  0.2133  0.8005  0.3173
   91SAPS   C29 8863   1.584   3.476   7.206 -0.5043  0.0635 -0.6006
   91SAPS   H9R 8864   1.682   3.526   7.213 -1.0079  1.1345 -0.8915
   91SAPS  C210 8865   1.588   3.351   7.288 -0.3788 -0.1724 -0.4574
   91SAPS  H10R 8866   1.488   3.305   7.281 -1.0722  0.5949  2.7526
   91SAPS  H10S 8867   1.595   3.386   7.393  0.1767 -0.6164 -0.3436
   91SAPS  C211 8868   1.697   3.250   7.247  0.3380  0.5305 -0.4110
   91SAPS  H11R 8869   1.706   3.238   7.138  1.5336  3.5395 -0.7406
   91SAPS  C212 8870   1.785   3.184   7.320  0.3569 -0.0608  0.4045
   91SAPS  H12R 8871   1.850   3.118   7.261  0.6390 -0.7814  1.4800
   91SAPS  C213 8872   1.796   3.173   7.469  0.8902  0.6561  0.1794
   91SAPS  H13R 8873   1.858   3.084   7.496 -0.2420 -0.2885 -0.2301
   91SAPS  H13S 8874   1.700   3.146   7.518  2.7745 -0.7425  3.4784
   91SAPS  C214 8875   1.858   3.293   7.530 -0.3542  0.0313 -0.7011
   91SAPS  H14R 8876   1.931   3.344   7.465 -0.8238  3.0007  0.9235
   91SAPS  C215 8877   1.849   3.352   7.652  0.7103  0.2230 -0.5634
   91SAPS  H15R 8878   1.912   3.439   7.678  1.0209 -0.4496  1.0310
   91SAPS  C216 8879   1.756   3.316   7.764 -0.0815  0.3473  0.2994
   91SAPS  H16R 8880   1.740   3.207   7.744  1.6230  0.3613 -1.5652
   91SAPS  H16S 8881   1.659   3.368   7.754 -0.1472  0.2303  0.3247
   91SAPS  C217 8882   1.806   3.340   7.902 -0.1691 -0.9696  0.0611
   91SAPS  H17R 8883   1.730   3.298   7.970  0.8647 -0.1340  1.8033
   91SAPS  H17S 8884   1.814   3.450   7.918 -0.3836 -0.9213 -0.1474
   91SAPS  C218 8885   1.941   3.279   7.934  0.0647 -0.3135 -0.3932
   91SAPS  H18R 8886   2.011   3.311   7.855  1.8289  0.0230  1.2177
   91SAPS  H18S 8887   1.948   3.168   7.936 -0.3441 -0.3505  1.6237
   91SAPS  C219 8888   1.995   3.325   8.066 -0.1066 -0.6588 -0.3613
   91SAPS  H19R 8889   1.989   3.436   8.065  2.9532 -0.3683  0.9192
   91SAPS  H19S 8890   2.103   3.302   8.082 -0.3574 -1.1888  0.6374
   91SAPS  C220 8891   1.924   3.260   8.185 -0.5320  0.7527  0.4987
   91SAPS  H20R 8892   1.965   3.292   8.283  0.2179 -0.8452  0.7380
   91SAPS  H20S 8893   1.948   3.152   8.180 -2.2432  0.3958 -2.4209
   91SAPS  H20T 8894   1.813   3.267   8.189 -0.7210 -1.8734  2.8798
   91SAPS   C33 8895   1.454   2.714   6.922 -1.4709  0.7775 -0.1418
   91SAPS   H3X 8896   1.358   2.764   6.899 -1.8243 -0.7212 -2.1300
   91SAPS   H3Y 8897   1.534   2.779   6.880  0.3758 -1.4912 -0.3164
   91SAPS   C34 8898   1.466   2.695   7.076  0.3871 -1.2959 -0.9414
   91SAPS   H4X 8899   1.566   2.655   7.103  0.4175 -1.6143 -1.5064
   91SAPS   H4Y 8900   1.378   2.629   7.096  0.1094 -0.9590 -1.0461
   91SAPS   C35 8901   1.434   2.822   7.156  0.2042 -0.6339 -0.1942
   91SAPS   H5X 8902   1.343   2.872   7.115 -0.1682 -1.5847 -0.5659
   91SAPS   H5Y 8903   1.513   2.897   7.135  0.1278 -0.3364  0.5555
   91SAPS   C36 8904   1.435   2.816   7.312 -0.4697  0.1607  0.0603
   91SAPS   H6X 8905   1.540   2.790   7.339 -0.8917 -0.2060  1.4102
   91SAPS   H6Y 8906   1.372   2.732   7.346 -0.4122 -0.2331 -0.7777
   91SAPS   C37 8907   1.408   2.948   7.384  0.3328 -0.6901 -0.4531
   91SAPS   H7X 8908   1.307   2.982   7.353 -0.5894 -1.5401  1.4833
   91SAPS   H7Y 8909   1.480   3.026   7.349  0.1395 -0.3399 -0.0880
   91SAPS   C38 8910   1.427   2.942   7.539 -0.3785 -0.0897 -0.2054
   91SAPS   H8X 8911   1.531   2.911   7.563 -0.8803 -0.1919  2.0481
   91SAPS   H8Y 8912   1.359   2.864   7.580  0.9067 -0.7900  0.6653
   91SAPS   C39 8913   1.401   3.071   7.611 -0.0001 -0.8516 -0.4557
   91SAPS   H9X 8914   1.305   3.104   7.566 -1.0907 -2.5481  0.4969
   91SAPS   H9Y 8915   1.480   3.145   7.586 -2.3317  1.4040 -1.6404
   91SAPS  C310 8916   1.395   3.057   7.765  0.2104 -0.3215  0.4572
   91SAPS  H10X 8917   1.481   2.992   7.793  0.4723  0.7647  2.3410
   91SAPS  H10Y 8918   1.297   3.007   7.785 -0.5350  1.6925  2.1458
   91SAPS  C311 8919   1.391   3.195   7.825 -0.5240 -0.2806 -0.0439
   91SAPS  H11X 8920   1.293   3.236   7.794  0.0296  2.1684  1.2239
   91SAPS  H11Y 8921   1.467   3.261   7.778 -0.6738  0.9344  1.3492
   91SAPS  C312 8922   1.401   3.195   7.973 -0.3391  0.9385 -0.8476
   91SAPS  H12X 8923   1.493   3.146   8.010 -1.4715  0.7756  2.0613
   91SAPS  H12Y 8924   1.334   3.116   8.016  0.6903 -1.4297 -3.3174
   91SAPS  C313 8925   1.385   3.331   8.041 -0.2172  0.3131 -1.1011
   91SAPS  H13X 8926   1.281   3.364   8.018 -0.5977  0.0273  0.1153
   91SAPS  H13Y 8927   1.469   3.392   8.003 -0.2859  0.0729 -1.6475
   91SAPS  C314 8928   1.394   3.313   8.199  0.1319 -0.1640 -0.3076
   91SAPS  H14X 8929   1.495   3.285   8.236  0.0834  0.7009  0.5363
   91SAPS  H14Y 8930   1.313   3.243   8.229 -1.4230  1.3179 -0.8937
   91SAPS  C315 8931   1.369   3.436   8.293  0.5228 -0.2329  0.6589
   91SAPS  H15X 8932   1.259   3.453   8.289  0.8210  2.1965  1.2776
   91SAPS  H15Y 8933   1.423   3.520   8.245  1.3015 -1.3725 -0.5377
   91SAPS  C316 8934   1.428   3.426   8.440  0.2525  0.5246 -0.0537
   91SAPS  H16X 8935   1.538   3.412   8.438  0.0973 -0.8080 -0.7691
   91SAPS  H16Y 8936   1.397   3.327   8.480 -0.3331 -0.8440 -3.4992
   91SAPS  C317 8937   1.386   3.549   8.530 -0.0940 -0.0884  0.6144
   91SAPS  H17X 8938   1.276   3.564   8.536 -0.1498 -0.2634  0.1094
   91SAPS  H17Y 8939   1.417   3.647   8.488 -0.3983 -0.8993 -1.6740
   91SAPS  C318 8940   1.442   3.543   8.671 -0.6110 -0.0371 -0.1346
   91SAPS  H18X 8941   1.419   3.637   8.725 -0.6933  0.0577 -0.3315
   91SAPS  H18Y 8942   1.552   3.527   8.665 -1.1174 -4.8678 -0.3062
   91SAPS  H18Z 8943   1.399   3.462   8.733 -0.3845 -0.4844 -0.5546
   92SAPS     N 8944   0.766   0.269   6.347  0.5275 -0.2670  0.0408
   92SAPS   HN1 8945   0.700   0.208   6.295  1.5438 -0.3522 -1.1890
   92SAPS   HN2 8946   0.817   0.211   6.418  1.2499  0.8019  0.4173
   92SAPS   HN3 8947   0.708   0.332   6.406 -1.0085 -0.1015 -1.5735
   92SAPS   C12 8948   0.857   0.351   6.263  0.3750 -0.0918  0.3001
   92SAPS  H12A 8949   0.908   0.280   6.200 -0.9775 -0.0607 -0.8827
   92SAPS   C13 8950   0.792   0.445   6.165  0.8717  0.2007 -0.4590
   92SAPS  O13A 8951   0.666   0.443   6.141 -0.4596 -0.5345 -0.0500
   92SAPS  O13B 8952   0.865   0.504   6.083  0.1050 -0.7629 -0.5118
   92SAPS   C11 8953   0.948   0.438   6.350 -0.1909 -0.3606 -0.0258
   92SAPS  H11A 8954   0.902   0.516   6.413  2.1487 -0.5719  2.0842
   92SAPS  H11B 8955   1.012   0.497   6.280 -0.8156 -0.1292 -0.4084
   92SAPS     P 8956   1.183   0.379   6.457 -0.4624 -0.1957 -0.3520
   92SAPS   O13 8957   1.241   0.249   6.493 -0.0580 -0.0086 -0.0228
   92SAPS   O14 8958   1.243   0.460   6.349  0.2338  0.0200 -0.4037
   92SAPS   O12 8959   1.027   0.353   6.434 -0.0363  0.4819  0.5236
   92SAPS   O11 8960   1.185   0.464   6.590 -0.2823 -0.1868 -0.0304
   92SAPS    C1 8961   1.092   0.558   6.634  0.5731  1.4234  0.2789
   92SAPS    HA 8962   0.992   0.541   6.589 -1.1265  2.3619  3.3525
   92SAPS    HB 8963   1.067   0.544   6.742  2.3124 -0.6188  0.4816
   92SAPS    C2 8964   1.139   0.695   6.599 -0.4547 -0.3741  0.3834
   92SAPS    HS 8965   1.133   0.701   6.488 -0.3133  1.0479  0.4466
   92SAPS   O21 8966   1.278   0.716   6.643  0.5968  0.1043 -0.4788
   92SAPS   C21 8967   1.339   0.814   6.586 -0.0040  0.4351  0.6002
   92SAPS   O22 8968   1.293   0.882   6.491  0.2991  0.7712  0.1419
   92SAPS   C22 8969   1.469   0.839   6.654  0.0016  0.0952  0.0692
   92SAPS   H2R 8970   1.442   0.867   6.758 -1.7536  1.0982 -0.6213
   92SAPS   H2S 8971   1.540   0.754   6.664 -0.7117 -0.3914  1.2777
   92SAPS    C3 8972   1.034   0.794   6.656 -0.6068 -0.1374  0.1473
   92SAPS    HX 8973   0.937   0.781   6.602 -0.5016  0.4553 -0.1895
   92SAPS    HY 8974   1.080   0.895   6.649  0.5296 -0.3909  2.7550
   92SAPS   O31 8975   1.016   0.785   6.796 -0.1127  0.0081 -0.0443
   92SAPS   C31 8976   0.913   0.721   6.847 -0.4232 -0.4171 -1.0223
   92SAPS   O32 8977   0.819   0.671   6.788  0.3836 -0.4357  0.1551
   92SAPS   C32 8978   0.934   0.716   7.001  0.2774  0.1833  0.5397
   92SAPS   H2X 8979   1.042   0.690   7.012  0.6589  0.4275 -2.0131
   92SAPS   H2Y 8980   0.866   0.632   7.029  1.2061 -1.1987 -1.1523
   92SAPS   C23 8981   1.543   0.959   6.588 -0.4794 -1.1815 -0.1493
   92SAPS   H3R 8982   1.472   1.045   6.591  0.9772  0.1326 -1.3419
   92SAPS   H3S 8983   1.548   0.948   6.478  2.3190  0.2276 -0.2413
   92SAPS   C24 8984   1.686   0.992   6.639  0.2753 -0.1167 -1.0727
   92SAPS   H4R 8985   1.724   1.069   6.567 -1.0396 -0.6644 -2.4200
   92SAPS   H4S 8986   1.745   0.899   6.630  0.7602  0.1226 -0.4197
   92SAPS   C25 8987   1.690   1.038   6.785 -0.0445 -0.1944  0.8134
   92SAPS   H5R 8988   1.696   1.146   6.806 -0.2929  0.3519 -1.6580
   92SAPS   C26 8989   1.704   0.959   6.890 -0.5904  0.3492  0.2172
   92SAPS   H6R 8990   1.728   1.011   6.984  0.7061 -2.5217  1.5842
   92SAPS   C27 8991   1.716   0.811   6.897 -0.8371  0.2632  0.0130
   92SAPS   H7R 8992   1.698   0.766   6.797 -0.4144 -0.8253  0.4109
   92SAPS   H7S 8993   1.635   0.757   6.951 -0.2921 -1.0254 -0.4189
   92SAPS   C28 8994   1.853   0.763   6.952  0.4177 -0.4332  0.3519
   92SAPS   H8R 8995   1.934   0.819   6.902 -1.1052  0.4907 -1.2039
   92SAPS   C29 8996   1.889   0.654   7.021 -0.2325 -0.3082 -0.7323
   92SAPS   H9R 8997   1.993   0.631   7.047 -1.0441 -0.6912  2.6853
   92SAPS  C210 8998   1.783   0.563   7.088  0.4192  0.5360  0.1071
   92SAPS  H10R 8999   1.744   0.482   7.022  0.5976  0.8188 -0.3519
   92SAPS  H10S 9000   1.689   0.620   7.107 -0.5901 -0.9830 -0.1584
   92SAPS  C211 9001   1.849   0.496   7.210 -0.3907 -0.6239  0.1980
   92SAPS  H11R 9002   1.890   0.395   7.197  1.6359  0.0957  0.4830
   92SAPS  C212 9003   1.851   0.540   7.334  0.0828 -0.0331 -0.5536
   92SAPS  H12R 9004   1.920   0.491   7.405  0.5785 -0.0053 -1.0116
   92SAPS  C213 9005   1.787   0.665   7.392  0.1918 -0.0111  0.1157
   92SAPS  H13R 9006   1.769   0.652   7.501 -0.2828  0.8328  0.1500
   92SAPS  H13S 9007   1.685   0.673   7.348 -0.1365  0.8315  0.9880
   92SAPS  C214 9008   1.846   0.802   7.360  0.2719 -0.2137  0.4845
   92SAPS  H14R 9009   1.803   0.859   7.276 -2.3586  0.1218  1.9543
   92SAPS  C215 9010   1.925   0.868   7.451 -0.0317  0.1948  0.9431
   92SAPS  H15R 9011   1.957   0.970   7.428 -0.2101 -0.2111 -1.3807
   92SAPS  C216 9012   1.972   0.809   7.580 -0.2891 -0.9963 -0.4705
   92SAPS  H16R 9013   2.073   0.843   7.611 -0.6934 -1.4414  1.4796
   92SAPS  H16S 9014   1.974   0.698   7.577 -1.9527 -1.0373 -1.2590
   92SAPS  C217 9015   1.881   0.867   7.692 -0.5035  0.2651  0.3173
   92SAPS  H17R 9016   1.775   0.841   7.671 -0.3381  0.4169 -0.7617
   92SAPS  H17S 9017   1.873   0.977   7.686  0.0211  0.2360 -1.5410
   92SAPS  C218 9018   1.923   0.844   7.836 -0.0874  1.0695 -0.0466
   92SAPS  H18R 9019   2.033   0.859   7.845  0.0338  1.2571 -1.5823
   92SAPS  H18S 9020   1.900   0.737   7.852  1.8996  0.5642 -0.2495
   92SAPS  C219 9021   1.857   0.931   7.945 -0.1674 -0.2165  0.4291
   92SAPS  H19R 9022   1.746   0.926   7.950 -0.2061 -2.1668 -1.3115
   92SAPS  H19S 9023   1.861   1.041   7.929 -2.7790 -0.1260 -0.0778
   92SAPS  C220 9024   1.909   0.891   8.084  0.0193 -0.0406  0.4245
   92SAPS  H20R 9025   1.877   0.974   8.151  1.5824  1.8095 -1.0088
   92SAPS  H20S 9026   2.020   0.885   8.081  0.0668 -0.5942  2.0046
   92SAPS  H20T 9027   1.854   0.801   8.119  1.2503 -0.5729  1.0511
   92SAPS   C33 9028   0.885   0.851   7.069 -0.0140 -0.7244  0.3033
   92SAPS   H3X 9029   0.784   0.882   7.035  0.4898  0.4248 -0.1824
   92SAPS   H3Y 9030   0.964   0.924   7.040  1.3035 -1.5225  1.7412
   92SAPS   C34 9031   0.882   0.846   7.221 -0.0380  0.1483  1.0711
   92SAPS   H4X 9032   0.851   0.946   7.258 -5.5392 -0.6562 -0.4337
   92SAPS   H4Y 9033   0.987   0.825   7.250 -0.5827 -1.7473  1.8116
   92SAPS   C35 9034   0.792   0.737   7.275 -0.6722 -0.4317  0.3318
   92SAPS   H5X 9035   0.850   0.642   7.270 -0.6165 -0.5794  2.7824
   92SAPS   H5Y 9036   0.702   0.723   7.212  1.2614 -2.6484 -2.2353
   92SAPS   C36 9037   0.748   0.761   7.419  0.6915 -0.3707  0.6869
   92SAPS   H6X 9038   0.660   0.700   7.447  0.2468 -0.5681 -1.0143
   92SAPS   H6Y 9039   0.710   0.865   7.431  1.3673  0.3045 -2.2977
   92SAPS   C37 9040   0.862   0.737   7.517 -0.9173 -0.1391  0.3694
   92SAPS   H7X 9041   0.957   0.791   7.497 -0.7723  0.0052  1.4094
   92SAPS   H7Y 9042   0.889   0.629   7.519 -0.5320 -0.1513 -2.0449
   92SAPS   C38 9043   0.804   0.770   7.653 -0.1689  0.4696 -0.0638
   92SAPS   H8X 9044   0.708   0.716   7.669  0.6061 -1.6208 -1.8950
   92SAPS   H8Y 9045   0.783   0.879   7.652 -0.4815  0.4122  0.2853
   92SAPS   C39 9046   0.892   0.751   7.781 -0.3710 -0.1116  0.1428
   92SAPS   H9X 9047   0.983   0.807   7.751 -1.5168 -0.0867 -3.9186
   92SAPS   H9Y 9048   0.919   0.644   7.777 -1.4622 -0.3735 -0.6837
   92SAPS  C310 9049   0.829   0.803   7.909 -0.3193 -0.3982 -0.7611
   92SAPS  H10X 9050   0.766   0.893   7.894  0.0198 -0.3320 -1.8954
   92SAPS  H10Y 9051   0.909   0.835   7.978  1.4148  0.1175 -2.8967
   92SAPS  C311 9052   0.756   0.683   7.980 -0.6585 -0.2255  0.7181
   92SAPS  H11X 9053   0.828   0.618   8.035  0.5121  0.3469 -0.0891
   92SAPS  H11Y 9054   0.707   0.619   7.903 -1.2671 -0.4267  1.2715
   92SAPS  C312 9055   0.639   0.728   8.069 -0.6032  0.1399  0.4869
   92SAPS  H12X 9056   0.567   0.647   8.093 -1.7560  0.7728 -0.7285
   92SAPS  H12Y 9057   0.580   0.798   8.007 -0.4357 -0.4494 -0.3578
   92SAPS  C313 9058   0.687   0.796   8.195 -0.2935 -0.5814  0.3111
   92SAPS  H13X 9059   0.606   0.823   8.266 -0.4294 -0.7203  0.2108
   92SAPS  H13Y 9060   0.751   0.886   8.190 -0.0475 -0.7080  1.0212
   92SAPS  C314 9061   0.780   0.708   8.287 -0.1497 -0.2910 -1.1617
   92SAPS  H14X 9062   0.872   0.686   8.229  1.3136 -0.3611  1.0326
   92SAPS  H14Y 9063   0.740   0.606   8.310  0.1976  0.0798  1.5133
   92SAPS  C315 9064   0.805   0.780   8.420 -0.3807  0.5602 -0.3326
   92SAPS  H15X 9065   0.713   0.791   8.481  0.2484 -0.6897  0.8968
   92SAPS  H15Y 9066   0.853   0.879   8.411 -0.0776  0.3838 -0.7031
   92SAPS  C316 9067   0.896   0.698   8.512 -0.2231  0.1546  1.0614
   92SAPS  H16X 9068   1.001   0.725   8.491 -0.6963  0.9430 -0.4681
   92SAPS  H16Y 9069   0.871   0.592   8.493 -0.5737  0.0520  2.0189
   92SAPS  C317 9070   0.865   0.732   8.663  0.1002  0.3200  0.0812
   92SAPS  H17X 9071   0.755   0.720   8.669  0.3037 -1.5324  0.4602
   92SAPS  H17Y 9072   0.881   0.840   8.685 -1.7377 -0.0756  4.1599
   92SAPS  C318 9073   0.943   0.650   8.759 -0.3004 -0.1424 -0.5791
   92SAPS  H18X 9074   0.958   0.542   8.735 -0.1792 -0.1721 -0.3735
   92SAPS  H18Y 9075   0.893   0.649   8.858  2.2326  1.9680  0.8149
   92SAPS  H18Z 9076   1.046   0.690   8.769  0.6388 -1.9600 -2.2442
   93SAPS     N 9077   1.761   2.053   6.440 -0.0836  0.1413 -0.7078
   93SAPS   HN1 9078   1.835   2.120   6.470  2.6614 -1.8412 -2.5432
   93SAPS   HN2 9079   1.673   2.106   6.428  1.1441  2.7947  0.8789
   93SAPS   HN3 9080   1.741   1.985   6.516 -0.5931  0.8674 -0.1642
   93SAPS   C12 9081   1.807   2.000   6.310  0.1285  0.2364  0.1814
   93SAPS  H12A 9082   1.725   1.933   6.289  0.4763 -0.2795  0.4504
   93SAPS   C13 9083   1.815   2.105   6.193 -0.3171 -0.3077  0.3670
   93SAPS  O13A 9084   1.813   2.227   6.217  0.2560  0.2313 -0.0306
   93SAPS  O13B 9085   1.829   2.063   6.078  0.6491 -0.5086  0.1230
   93SAPS   C11 9086   1.943   1.919   6.310 -0.3666 -0.6196  0.0852
   93SAPS  H11A 9087   2.025   1.994   6.310 -1.1872  0.3479 -2.1493
   93SAPS  H11B 9088   1.955   1.866   6.213  0.1256 -0.4554  0.0513
   93SAPS     P 9089   2.080   1.723   6.428 -0.0296 -0.3249  0.2371
   93SAPS   O13 9090   2.013   1.605   6.490 -0.3120 -0.2230 -0.1385
   93SAPS   O14 9091   2.142   1.715   6.298  0.3803  0.2392  0.2710
   93SAPS   O12 9092   1.963   1.827   6.414  0.0943 -0.4286 -0.2714
   93SAPS   O11 9093   2.170   1.792   6.539 -0.4764  0.2482 -0.6204
   93SAPS    C1 9094   2.178   1.928   6.579  0.1536 -0.3707  0.6027
   93SAPS    HA 9095   2.281   1.957   6.610 -0.7330  0.8234  2.6616
   93SAPS    HB 9096   2.159   1.999   6.495 -0.5438 -0.6574  0.5211
   93SAPS    C2 9097   2.089   1.952   6.700  0.4707  0.7043 -0.3340
   93SAPS    HS 9098   1.984   1.936   6.668  0.8478  1.1895 -1.8861
   93SAPS   O21 9099   2.109   2.080   6.741  0.1474  0.4160  0.3543
   93SAPS   C21 9100   2.033   2.175   6.693  0.3546 -0.0256 -0.0654
   93SAPS   O22 9101   1.957   2.160   6.598  0.4010  0.2308  0.3263
   93SAPS   C22 9102   2.067   2.314   6.766  0.0149  0.5673 -0.0352
   93SAPS   H2R 9103   2.120   2.291   6.861 -2.5749  1.0706  1.6236
   93SAPS   H2S 9104   2.125   2.369   6.690 -1.2297  0.9480 -0.7327
   93SAPS    C3 9105   2.124   1.847   6.814  0.0887  0.0125  0.2175
   93SAPS    HX 9106   2.228   1.874   6.842  0.8117 -1.4228 -0.9421
   93SAPS    HY 9107   2.131   1.744   6.772 -0.9873 -0.3936  0.9988
   93SAPS   O31 9108   2.032   1.853   6.924 -0.1237  0.0969 -0.1340
   93SAPS   C31 9109   1.917   1.797   6.896 -0.2576 -0.7686 -0.2104
   93SAPS   O32 9110   1.891   1.718   6.809  0.5357 -0.6003  0.4838
   93SAPS   C32 9111   1.815   1.860   6.993 -0.3204  0.0281  0.3411
   93SAPS   H2X 9112   1.722   1.810   6.957  0.1497  0.1726 -1.1679
   93SAPS   H2Y 9113   1.809   1.970   6.976 -0.3840  0.1566  1.1702
   93SAPS   C23 9114   1.952   2.397   6.816  0.2791 -0.1444 -0.2710
   93SAPS   H3R 9115   1.880   2.415   6.733 -3.2787 -1.7460  2.2242
   93SAPS   H3S 9116   1.995   2.496   6.843 -1.3277  0.9664 -1.5567
   93SAPS   C24 9117   1.875   2.322   6.928 -0.1632  0.8531 -0.3443
   93SAPS   H4R 9118   1.960   2.299   6.995 -0.3181 -0.6146 -0.5952
   93SAPS   H4S 9119   1.825   2.229   6.891  0.6245  0.5220 -0.5964
   93SAPS   C25 9120   1.773   2.399   7.006  0.0775  0.5318 -0.3506
   93SAPS   H5R 9121   1.710   2.455   6.935 -1.1296  0.9341  0.9855
   93SAPS   C26 9122   1.760   2.412   7.137 -0.3132 -0.8588 -0.4433
   93SAPS   H6R 9123   1.677   2.465   7.187  0.5124  1.3581 -1.2725
   93SAPS   C27 9124   1.850   2.347   7.234 -0.0862  0.5543  0.0442
   93SAPS   H7R 9125   1.894   2.255   7.189  2.2136  1.8859 -0.5907
   93SAPS   H7S 9126   1.781   2.316   7.316 -0.0207  0.5227  0.0878
   93SAPS   C28 9127   1.961   2.428   7.290 -0.2216 -1.2613  0.0356
   93SAPS   H8R 9128   2.015   2.489   7.216 -1.9659  1.0888  0.5675
   93SAPS   C29 9129   1.995   2.410   7.421  0.3899 -0.8438  0.0017
   93SAPS   H9R 9130   2.085   2.459   7.462  0.6007 -2.0824  1.1130
   93SAPS  C210 9131   1.922   2.321   7.520 -0.5790  0.1562  0.0298
   93SAPS  H10R 9132   1.868   2.234   7.476 -4.7411  0.5156  3.7143
   93SAPS  H10S 9133   1.839   2.380   7.564  0.3005  0.6554  1.0629
   93SAPS  C211 9134   2.021   2.290   7.632  0.9578 -0.0019  0.8610
   93SAPS  H11R 9135   2.119   2.250   7.603  0.2903 -0.6439 -0.5704
   93SAPS  C212 9136   2.008   2.318   7.766  0.7813 -0.2706 -0.0098
   93SAPS  H12R 9137   2.091   2.294   7.835 -0.2781 -1.1693  0.9945
   93SAPS  C213 9138   1.891   2.378   7.832  0.6746  0.0744  0.3175
   93SAPS  H13R 9139   1.808   2.390   7.759  0.3694  1.3111  0.8332
   93SAPS  H13S 9140   1.902   2.481   7.872 -1.8310  1.2591 -1.7428
   93SAPS  C214 9141   1.841   2.275   7.933 -0.6356  0.0760  0.6235
   93SAPS  H14R 9142   1.812   2.177   7.892 -0.0506  1.0591 -2.4608
   93SAPS  C215 9143   1.831   2.284   8.069 -0.0447 -0.3857 -0.1915
   93SAPS  H15R 9144   1.773   2.213   8.129 -2.2353  0.5890 -1.0397
   93SAPS  C216 9145   1.867   2.411   8.138 -0.5403  0.4344 -0.0259
   93SAPS  H16R 9146   1.957   2.459   8.094  1.2150 -3.9051 -1.6953
   93SAPS  H16S 9147   1.902   2.393   8.242  1.1835  1.3212 -0.4178
   93SAPS  C217 9148   1.751   2.507   8.148  0.3462 -0.0226  0.0081
   93SAPS  H17R 9149   1.666   2.450   8.191  0.4410 -0.6924 -0.6657
   93SAPS  H17S 9150   1.720   2.542   8.047 -3.9515 -0.3727  1.0207
   93SAPS  C218 9151   1.776   2.635   8.244 -0.5920 -0.1003  0.2588
   93SAPS  H18R 9152   1.785   2.604   8.351 -2.6541 -0.3654  0.3975
   93SAPS  H18S 9153   1.678   2.687   8.248 -0.5817 -0.1048  0.6535
   93SAPS  C219 9154   1.889   2.726   8.204 -0.0319  0.2910  0.2197
   93SAPS  H19R 9155   1.905   2.737   8.094 -0.3656  2.0411  0.3164
   93SAPS  H19S 9156   1.979   2.675   8.245 -0.4630  0.1683  1.0272
   93SAPS  C220 9157   1.883   2.866   8.255 -0.0976  0.1054 -0.1505
   93SAPS  H20R 9158   1.984   2.912   8.248  0.9407 -2.2288 -1.3379
   93SAPS  H20S 9159   1.844   2.857   8.359 -1.6091 -2.3527 -0.8566
   93SAPS  H20T 9160   1.812   2.936   8.206  1.2804  0.1201 -2.2418
   93SAPS   C33 9161   1.844   1.828   7.146  0.4449 -0.1009  1.2954
   93SAPS   H3X 9162   1.951   1.853   7.164  0.4659  0.7589  0.1133
   93SAPS   H3Y 9163   1.821   1.720   7.155 -0.1616  0.0862  2.0330
   93SAPS   C34 9164   1.759   1.914   7.234 -0.0422 -0.5089 -0.2730
   93SAPS   H4X 9165   1.651   1.893   7.223 -0.0385 -1.0964  0.6776
   93SAPS   H4Y 9166   1.783   2.019   7.207  0.5736 -0.5903 -0.0631
   93SAPS   C35 9167   1.773   1.879   7.383 -0.4194 -0.2764 -0.3899
   93SAPS   H5X 9168   1.872   1.915   7.417 -0.9252 -1.5579  2.8469
   93SAPS   H5Y 9169   1.773   1.769   7.400 -0.0022 -0.0822  0.9909
   93SAPS   C36 9170   1.658   1.946   7.465  0.3627 -0.2171  0.1587
   93SAPS   H6X 9171   1.559   1.897   7.451  0.7759 -1.4292  1.3044
   93SAPS   H6Y 9172   1.664   2.053   7.437  1.3424 -0.3601 -0.1956
   93SAPS   C37 9173   1.682   1.913   7.612  0.0181 -0.3206 -0.0172
   93SAPS   H7X 9174   1.782   1.948   7.644  0.5121 -1.2753 -0.4578
   93SAPS   H7Y 9175   1.676   1.802   7.621 -1.9856 -0.3449 -1.1340
   93SAPS   C38 9176   1.579   1.973   7.706 -0.1066 -0.1792 -0.1020
   93SAPS   H8X 9177   1.481   1.932   7.672 -0.8515  1.9117 -0.6848
   93SAPS   H8Y 9178   1.567   2.084   7.707 -3.7031 -0.4237  1.3475
   93SAPS   C39 9179   1.604   1.934   7.850 -0.8369 -0.0373  0.4746
   93SAPS   H9X 9180   1.710   1.953   7.877 -0.7227 -0.0868  0.0744
   93SAPS   H9Y 9181   1.590   1.825   7.868 -1.1199 -0.1150 -0.1967
   93SAPS  C310 9182   1.529   2.023   7.953  0.4229 -0.4022  0.0303
   93SAPS  H10X 9183   1.420   2.022   7.931 -0.2473 -0.3886  2.8618
   93SAPS  H10Y 9184   1.569   2.126   7.946 -0.2916 -0.2111 -1.4255
   93SAPS  C311 9185   1.552   1.951   8.085 -0.2061 -0.1036  0.0775
   93SAPS  H11X 9186   1.661   1.946   8.105 -0.2241  0.0280  0.2028
   93SAPS  H11Y 9187   1.508   1.849   8.082  0.2692 -0.3087 -0.0617
   93SAPS  C312 9188   1.491   2.022   8.207  1.1887  0.5484 -0.4371
   93SAPS  H12X 9189   1.383   2.032   8.181  1.0688  0.7690  0.1551
   93SAPS  H12Y 9190   1.542   2.114   8.241  0.9355 -0.1929  2.1304
   93SAPS  C313 9191   1.493   1.926   8.327  0.6214  0.0658 -0.1603
   93SAPS  H13X 9192   1.600   1.904   8.350  0.9245  1.1724 -0.4690
   93SAPS  H13Y 9193   1.441   1.829   8.311  1.7803 -0.6581  0.2875
   93SAPS  C314 9194   1.435   1.993   8.445 -0.4615 -0.1040 -0.3253
   93SAPS  H14X 9195   1.326   2.015   8.438 -0.0249  2.0891 -0.9993
   93SAPS  H14Y 9196   1.480   2.092   8.468 -0.4710 -0.6247  2.2189
   93SAPS  C315 9197   1.457   1.899   8.567  0.1573  0.2849  0.0824
   93SAPS  H15X 9198   1.565   1.894   8.592  0.1354 -2.5873 -0.0601
   93SAPS  H15Y 9199   1.423   1.795   8.549  1.7039 -0.2692  0.2206
   93SAPS  C316 9200   1.393   1.968   8.688 -0.0854  0.3429  0.7029
   93SAPS  H16X 9201   1.292   1.993   8.648  0.4017 -1.0845 -1.5787
   93SAPS  H16Y 9202   1.446   2.063   8.710 -0.1695  0.3585  0.8427
   93SAPS  C317 9203   1.398   1.900   8.824 -0.0785 -0.2387  0.0568
   93SAPS  H17X 9204   1.323   1.818   8.823 -2.1158  1.5297 -0.8991
   93SAPS  H17Y 9205   1.365   1.979   8.895  2.3203  1.4515 -0.6034
   93SAPS  C318 9206   1.530   1.855   8.859  0.3098  0.5077 -0.0529
   93SAPS  H18X 9207   1.602   1.940   8.859 -0.0466  0.8745  2.2918
   93SAPS  H18Y 9208   1.579   1.777   8.796  0.4412  0.7886 -0.3049
   93SAPS  H18Z 9209   1.524   1.805   8.958 -0.3078 -3.2730 -1.8151
   94SAPS     N 9210   0.705   2.461   5.826 -0.4513 -0.2383  0.1055
   94SAPS   HN1 9211   0.704   2.400   5.910  1.8070 -0.6960 -0.1346
   94SAPS   HN2 9212   0.730   2.400   5.746 -2.7322 -0.7441 -0.2970
   94SAPS   HN3 9213   0.785   2.526   5.838 -0.0360 -0.3813 -1.6085
   94SAPS   C12 9214   0.571   2.518   5.809  0.8560  0.2318  0.4773
   94SAPS  H12A 9215   0.536   2.568   5.899 -1.0841  2.2377 -1.2769
   94SAPS   C13 9216   0.552   2.627   5.699 -0.4412  0.8409 -0.6393
   94SAPS  O13A 9217   0.660   2.674   5.653 -0.1716 -0.5258  0.2988
   94SAPS  O13B 9218   0.443   2.681   5.686  0.3823  0.0227  0.1414
   94SAPS   C11 9219   0.466   2.402   5.774  0.3932 -0.4587 -0.0829
   94SAPS  H11A 9220   0.518   2.364   5.683  1.2540  1.4657 -0.4454
   94SAPS  H11B 9221   0.364   2.440   5.753  0.0164 -1.3139  0.1876
   94SAPS     P 9222   0.350   2.218   5.926 -0.6028 -0.7686 -0.1354
   94SAPS   O13 9223   0.247   2.212   5.817  0.4245  0.2762 -0.1565
   94SAPS   O14 9224   0.405   2.085   5.965  0.5626  0.0443 -0.1273
   94SAPS   O12 9225   0.471   2.310   5.884  0.0477  0.0548  0.2098
   94SAPS   O11 9226   0.310   2.300   6.046  0.3490  0.0492  0.0821
   94SAPS    C1 9227   0.382   2.307   6.165 -0.1406 -0.4890  0.3037
   94SAPS    HA 9228   0.480   2.254   6.161  0.9321  1.4462 -0.4084
   94SAPS    HB 9229   0.409   2.415   6.174 -1.9344 -0.0716  1.1471
   94SAPS    C2 9230   0.303   2.243   6.280  0.2154 -0.8645  0.1745
   94SAPS    HS 9231   0.198   2.273   6.260  0.0851  0.8784  2.9591
   94SAPS   O21 9232   0.343   2.304   6.406  0.3529 -0.2995  0.6067
   94SAPS   C21 9233   0.252   2.365   6.474  0.0854  0.4622 -0.7944
   94SAPS   O22 9234   0.131   2.360   6.459  0.2189 -0.1589 -0.3385
   94SAPS   C22 9235   0.310   2.459   6.589 -0.4141  0.0659  1.0873
   94SAPS   H2R 9236   0.366   2.546   6.551 -1.4603  0.4803  0.4492
   94SAPS   H2S 9237   0.219   2.503   6.636 -2.4850 -3.0906  0.3920
   94SAPS    C3 9238   0.308   2.094   6.289  0.1225 -0.4640  0.3802
   94SAPS    HX 9239   0.414   2.068   6.270  0.1564  0.0559 -0.1555
   94SAPS    HY 9240   0.258   2.060   6.196  0.8192  0.9142 -0.5386
   94SAPS   O31 9241   0.265   2.051   6.422 -0.6483 -0.0746  0.1326
   94SAPS   C31 9242   0.136   2.022   6.429 -0.7271  0.6051  0.0303
   94SAPS   O32 9243   0.054   2.044   6.341 -0.3326 -0.7123  0.1973
   94SAPS   C32 9244   0.105   1.957   6.566  0.2716 -0.1319  0.1307
   94SAPS   H2X 9245   0.149   1.855   6.575  0.2938 -0.1564 -0.2752
   94SAPS   H2Y 9246  -0.002   1.927   6.564  0.6318 -1.7182  1.6889
   94SAPS   C23 9247   0.363   2.370   6.707 -0.4428  0.7042  0.2003
   94SAPS   H3R 9248   0.443   2.302   6.669  1.1681  2.2560  0.6596
   94SAPS   H3S 9249   0.278   2.315   6.752  0.5781 -1.1331 -0.0134
   94SAPS   C24 9250   0.402   2.464   6.816  0.2254  0.1049 -0.7933
   94SAPS   H4R 9251   0.316   2.495   6.879  1.8096 -1.4510  2.3720
   94SAPS   H4S 9252   0.436   2.558   6.769  0.8330  0.0751 -0.4288
   94SAPS   C25 9253   0.507   2.418   6.914  0.0897  0.2418 -0.6599
   94SAPS   H5R 9254   0.611   2.415   6.878  0.6257  0.4493  0.7911
   94SAPS   C26 9255   0.485   2.383   7.045 -0.2736 -0.0958 -0.7098
   94SAPS   H6R 9256   0.568   2.350   7.109 -0.1030 -0.0113 -0.8846
   94SAPS   C27 9257   0.352   2.384   7.126  0.2790  0.4259  0.2513
   94SAPS   H7R 9258   0.264   2.428   7.074 -0.7780  0.5251  2.0441
   94SAPS   H7S 9259   0.354   2.455   7.211 -2.3005 -0.2094  0.9380
   94SAPS   C28 9260   0.314   2.243   7.166 -0.4151  0.1268 -0.2574
   94SAPS   H8R 9261   0.242   2.201   7.094 -0.5923 -1.0402  0.5745
   94SAPS   C29 9262   0.343   2.175   7.284  0.1375 -0.1275  0.0533
   94SAPS   H9R 9263   0.299   2.076   7.301  0.4725 -0.4672 -0.9713
   94SAPS  C210 9264   0.431   2.225   7.398 -0.4011  0.0065  0.4079
   94SAPS  H10R 9265   0.360   2.268   7.472 -1.3384  0.6459 -0.8271
   94SAPS  H10S 9266   0.483   2.314   7.359 -0.2244  0.8841  2.5035
   94SAPS  C211 9267   0.532   2.128   7.449  0.3477  0.6672 -0.2072
   94SAPS  H11R 9268   0.618   2.112   7.382  0.2587  0.4602 -0.2730
   94SAPS  C212 9269   0.538   2.076   7.578 -0.1100  0.4559 -0.4308
   94SAPS  H12R 9270   0.625   2.015   7.606  3.6171  3.6703 -3.8206
   94SAPS  C213 9271   0.438   2.100   7.689 -0.1490 -0.3593 -0.1625
   94SAPS  H13R 9272   0.339   2.139   7.657 -0.5243 -0.7765  0.4610
   94SAPS  H13S 9273   0.468   2.190   7.746 -0.2313  0.2773 -1.1119
   94SAPS  C214 9274   0.406   1.973   7.764  0.1303 -0.2505  0.3750
   94SAPS  H14R 9275   0.307   1.929   7.740 -0.0755  0.1903  0.4010
   94SAPS  C215 9276   0.490   1.913   7.850  0.2987  0.0788  1.0376
   94SAPS  H15R 9277   0.454   1.816   7.887  0.6874  0.0230  1.2826
   94SAPS  C216 9278   0.633   1.941   7.883 -0.1359 -0.1179 -0.4666
   94SAPS  H16R 9279   0.661   2.039   7.842 -2.2572  0.6503 -0.2292
   94SAPS  H16S 9280   0.696   1.862   7.836  1.6270  1.1919 -0.3994
   94SAPS  C217 9281   0.666   1.919   8.032 -0.0740  0.3310 -0.2309
   94SAPS  H17R 9282   0.774   1.928   8.056 -0.0966  0.0780 -0.0284
   94SAPS  H17S 9283   0.636   1.821   8.074 -0.7018  0.3787 -0.5427
   94SAPS  C218 9284   0.586   2.021   8.114 -0.1410 -0.2620  0.0819
   94SAPS  H18R 9285   0.475   2.012   8.107  0.0527 -2.0424 -1.5043
   94SAPS  H18S 9286   0.610   2.120   8.069  0.4033  0.0161  0.9608
   94SAPS  C219 9287   0.634   2.031   8.259  0.3935 -0.4126 -0.2095
   94SAPS  H19R 9288   0.660   2.136   8.287  0.1120  0.2820 -2.3485
   94SAPS  H19S 9289   0.733   1.980   8.262  1.2923  1.1812 -0.8983
   94SAPS  C220 9290   0.542   1.969   8.361  0.8518  0.9471 -0.2799
   94SAPS  H20R 9291   0.536   1.858   8.355 -1.2242  0.9739  0.4806
   94SAPS  H20S 9292   0.443   2.018   8.352  0.8804  1.2895  1.0962
   94SAPS  H20T 9293   0.576   1.991   8.464  1.9228  0.2693 -0.4735
   94SAPS   C33 9294   0.143   2.038   6.688 -0.6958 -0.5075 -0.4255
   94SAPS   H3X 9295   0.219   2.118   6.672  0.2362 -0.8710  1.7627
   94SAPS   H3Y 9296   0.182   1.978   6.773  1.5407  1.8032  0.2921
   94SAPS   C34 9297   0.020   2.119   6.730 -1.0817 -0.1968  0.2468
   94SAPS   H4X 9298  -0.068   2.052   6.726 -2.0218  1.0508 -0.4980
   94SAPS   H4Y 9299   0.005   2.213   6.673  4.0091  0.6676 -0.1457
   94SAPS   C35 9300   0.034   2.176   6.871 -0.4550 -0.0931 -0.0447
   94SAPS   H5X 9301   0.099   2.265   6.885  1.3884 -1.6244  1.8483
   94SAPS   H5Y 9302   0.069   2.091   6.933  4.5203  0.2984 -1.8301
   94SAPS   C36 9303  -0.099   2.204   6.940  0.5328  0.0001 -0.7956
   94SAPS   H6X 9304  -0.172   2.121   6.929 -0.8982  0.8277  1.5245
   94SAPS   H6Y 9305  -0.140   2.293   6.887  0.2095 -0.7856 -1.9053
   94SAPS   C37 9306  -0.082   2.225   7.095  0.0810  0.4747 -0.2167
   94SAPS   H7X 9307  -0.080   2.335   7.114 -0.8392  0.7153 -1.3791
   94SAPS   H7Y 9308   0.012   2.185   7.138 -0.8944 -1.6839  0.0051
   94SAPS   C38 9309  -0.187   2.156   7.187 -0.6173 -0.5677  0.4746
   94SAPS   H8X 9310  -0.205   2.057   7.141  0.2851 -1.7831  2.6019
   94SAPS   H8Y 9311  -0.281   2.214   7.175 -1.5590 -2.0271  0.5400
   94SAPS   C39 9312  -0.158   2.138   7.338 -0.1388 -0.4854  0.1072
   94SAPS   H9X 9313  -0.057   2.091   7.341 -0.7701 -1.9153 -0.4498
   94SAPS   H9Y 9314  -0.226   2.062   7.382  0.9127 -1.1580  0.6302
   94SAPS  C310 9315  -0.154   2.263   7.418  0.8801  0.0905  0.0538
   94SAPS  H10X 9316  -0.232   2.332   7.380 -0.3892 -1.4236 -0.1990
   94SAPS  H10Y 9317  -0.062   2.321   7.399  0.3950  0.4472 -1.2825
   94SAPS  C311 9318  -0.170   2.228   7.572  0.2975  0.0165  0.1308
   94SAPS  H11X 9319  -0.255   2.157   7.569 -0.1722  0.5750 -0.2761
   94SAPS  H11Y 9320  -0.210   2.318   7.624 -2.3641  0.4337 -2.3628
   94SAPS  C312 9321  -0.057   2.173   7.658 -0.3557  0.7577  0.1945
   94SAPS  H12X 9322   0.015   2.253   7.686  1.9678 -2.3864  4.2605
   94SAPS  H12Y 9323   0.005   2.097   7.606 -1.4945 -0.0240 -0.0682
   94SAPS  C313 9324  -0.095   2.107   7.790  0.0789 -0.0748 -0.6816
   94SAPS  H13X 9325  -0.160   2.018   7.774 -0.8293  0.6693 -1.1906
   94SAPS  H13Y 9326  -0.169   2.178   7.832  0.1947  0.4316 -1.3263
   94SAPS  C314 9327   0.030   2.071   7.870 -0.9691  0.2131  0.2495
   94SAPS  H14X 9328   0.076   2.157   7.923 -0.5523 -0.0157  0.2648
   94SAPS  H14Y 9329   0.111   2.036   7.803  1.8644  0.1531  3.4221
   94SAPS  C315 9330   0.006   1.970   7.986 -0.5173 -0.0889 -0.3438
   94SAPS  H15X 9331  -0.060   1.885   7.958 -1.1124  0.0164  0.6912
   94SAPS  H15Y 9332  -0.049   2.025   8.065 -0.2665  0.9147 -0.8555
   94SAPS  C316 9333   0.138   1.921   8.044 -0.3677 -0.1211  0.1139
   94SAPS  H16X 9334   0.194   2.002   8.095 -0.6043  0.3946 -0.4301
   94SAPS  H16Y 9335   0.193   1.871   7.961 -1.6059  0.7927 -1.3111
   94SAPS  C317 9336   0.117   1.816   8.145  0.3203  0.6700  0.0967
   94SAPS  H17X 9337   0.056   1.727   8.117  3.3807 -1.5261 -0.1646
   94SAPS  H17Y 9338   0.072   1.865   8.234 -0.5361  1.0349 -0.5294
   94SAPS  C318 9339   0.246   1.744   8.181 -0.7113  0.7523  0.0427
   94SAPS  H18X 9340   0.323   1.819   8.209 -0.5953  0.0561  1.6799
   94SAPS  H18Y 9341   0.266   1.671   8.099  0.7089  0.6902  0.4073
   94SAPS  H18Z 9342   0.230   1.690   8.276 -0.0870  0.7005  0.1246
   95SAPS     N 9343   3.390   6.734   6.199 -0.0823 -0.4062 -0.4852
   95SAPS   HN1 9344   3.401   6.710   6.099  1.7077 -4.3846  0.4595
   95SAPS   HN2 9345   3.439   6.823   6.221  2.2896 -1.8467  0.4850
   95SAPS   HN3 9346   3.448   6.667   6.255  2.7965  2.6324  0.5203
   95SAPS   C12 9347   3.250   6.732   6.252  0.2246 -0.6006 -0.4999
   95SAPS  H12A 9348   3.189   6.816   6.225 -0.7759  0.1996  3.5285
   95SAPS   C13 9349   3.173   6.599   6.224 -0.1738  0.4089  0.3296
   95SAPS  O13A 9350   3.225   6.502   6.162 -0.9538  0.3380 -0.1522
   95SAPS  O13B 9351   3.060   6.589   6.271 -0.0250  0.0672  0.1325
   95SAPS   C11 9352   3.259   6.742   6.416 -0.0837  0.2980  0.2712
   95SAPS  H11A 9353   3.311   6.658   6.467 -0.2233 -1.0223 -1.6422
   95SAPS  H11B 9354   3.150   6.731   6.436 -0.2266 -1.8204 -1.2279
   95SAPS     P 9355   3.245   7.007   6.412  0.3831  0.1962  0.0162
   95SAPS   O13 9356   3.287   7.105   6.509  0.2437  0.6303 -0.3948
   95SAPS   O14 9357   3.280   7.032   6.272  0.4211 -0.2076 -0.0248
   95SAPS   O12 9358   3.309   6.872   6.466 -0.3195 -0.1032  0.2559
   95SAPS   O11 9359   3.089   6.972   6.418 -0.0929 -0.5339  0.0199
   95SAPS    C1 9360   2.995   7.033   6.515 -0.1840  0.1146  1.1956
   95SAPS    HA 9361   3.001   7.143   6.502 -0.1004  0.0176  0.4027
   95SAPS    HB 9362   2.892   7.001   6.485  0.2120  0.2210 -0.3262
   95SAPS    C2 9363   3.019   6.996   6.671  0.0145 -0.1450  0.1374
   95SAPS    HS 9364   3.125   7.029   6.672  0.0950 -0.4036  0.8017
   95SAPS   O21 9365   2.995   6.851   6.691 -0.1581 -0.5108  0.1394
   95SAPS   C21 9366   3.096   6.786   6.744  0.5072  0.0428 -0.0953
   95SAPS   O22 9367   3.200   6.827   6.784 -0.4076 -0.4434 -0.3234
   95SAPS   C22 9368   3.057   6.646   6.768  0.5217 -0.2653 -0.0656
   95SAPS   H2R 9369   2.956   6.632   6.724 -0.2331  3.2511  0.2643
   95SAPS   H2S 9370   3.131   6.582   6.715  0.9626 -0.9499  1.3291
   95SAPS    C3 9371   2.937   7.078   6.768  0.5640 -0.0235 -0.0559
   95SAPS    HX 9372   2.830   7.054   6.746  0.6810 -0.5385 -0.0691
   95SAPS    HY 9373   2.950   7.183   6.734  0.3260  0.4178  1.1772
   95SAPS   O31 9374   2.977   7.073   6.909 -0.5856  0.0947 -0.5642
   95SAPS   C31 9375   2.879   7.060   7.004 -0.3036 -0.1172  0.5758
   95SAPS   O32 9376   2.761   7.045   6.982  0.6839  0.3048  0.0997
   95SAPS   C32 9377   2.936   7.088   7.144 -0.2096  0.2928  0.5844
   95SAPS   H2X 9378   3.003   7.177   7.136 -2.4214  1.9346 -1.3558
   95SAPS   H2Y 9379   2.995   6.995   7.157 -2.2746 -1.1244  0.2180
   95SAPS   C23 9380   3.046   6.604   6.919 -0.0592  1.0111  0.4493
   95SAPS   H3R 9381   3.146   6.626   6.964  0.4671 -0.1981 -0.0830
   95SAPS   H3S 9382   3.019   6.497   6.931 -0.5604  0.9160 -1.2510
   95SAPS   C24 9383   2.934   6.684   6.985 -0.0451 -0.1175  0.5512
   95SAPS   H4R 9384   2.940   6.790   6.952  0.0499 -0.5503 -0.8644
   95SAPS   H4S 9385   2.969   6.708   7.088  0.7657  1.2317 -0.0057
   95SAPS   C25 9386   2.796   6.625   6.971 -0.4186  0.2646  0.8864
   95SAPS   H5R 9387   2.736   6.671   6.891 -1.4995 -0.9506  0.9683
   95SAPS   C26 9388   2.733   6.545   7.053  0.1545 -0.2088  0.0700
   95SAPS   H6R 9389   2.627   6.522   7.034 -0.1506  0.4092  0.9398
   95SAPS   C27 9390   2.776   6.498   7.188 -0.0907 -0.0488  0.3377
   95SAPS   H7R 9391   2.885   6.495   7.205  0.3009  1.8313 -1.4015
   95SAPS   H7S 9392   2.726   6.401   7.207  3.6646 -2.2231 -0.0829
   95SAPS   C28 9393   2.720   6.596   7.291  0.2238  0.0906 -0.1283
   95SAPS   H8R 9394   2.666   6.680   7.247  1.8968  0.8596 -0.8290
   95SAPS   C29 9395   2.758   6.584   7.423  1.1193 -0.2298 -0.3374
   95SAPS   H9R 9396   2.728   6.661   7.496  1.7921 -0.1048 -0.1839
   95SAPS  C210 9397   2.851   6.480   7.488  0.4763  0.2601 -0.4243
   95SAPS  H10R 9398   2.856   6.394   7.418  1.1889 -0.6396  0.6826
   95SAPS  H10S 9399   2.798   6.437   7.576  0.2298  1.7369  0.1659
   95SAPS  C211 9400   2.988   6.541   7.517 -0.4893 -1.5961  0.6414
   95SAPS  H11R 9401   3.044   6.557   7.423 -2.6748  1.9259 -0.2333
   95SAPS  C212 9402   3.032   6.602   7.629 -0.7777  0.3250  0.5148
   95SAPS  H12R 9403   3.140   6.622   7.630 -0.5676 -0.5231 -1.3307
   95SAPS  C213 9404   2.963   6.607   7.760  0.3855  0.1899  0.0614
   95SAPS  H13R 9405   2.856   6.576   7.753  0.6152 -0.6522  0.1339
   95SAPS  H13S 9406   2.966   6.700   7.820 -1.0209  0.0070  0.4588
   95SAPS  C214 9407   3.027   6.497   7.844 -0.2832 -0.3135 -0.2403
   95SAPS  H14R 9408   3.070   6.417   7.782 -0.0585 -0.4760  0.1213
   95SAPS  C215 9409   3.032   6.499   7.982 -0.5455  0.2165  0.8127
   95SAPS  H15R 9410   3.070   6.412   8.038  2.3375  0.5175 -0.4856
   95SAPS  C216 9411   2.987   6.610   8.064 -0.2935 -0.0782 -0.1684
   95SAPS  H16R 9412   2.877   6.615   8.057 -0.3246  0.8792  0.6883
   95SAPS  H16S 9413   3.031   6.705   8.026 -2.5260  2.1155  2.3643
   95SAPS  C217 9414   3.029   6.606   8.210  1.0793 -0.3791 -1.0151
   95SAPS  H17R 9415   3.019   6.700   8.268  1.2409 -1.8971  1.5907
   95SAPS  H17S 9416   3.138   6.589   8.207  0.8131 -2.7536  0.3004
   95SAPS  C218 9417   2.959   6.497   8.301  0.0222 -0.8257  0.1036
   95SAPS  H18R 9418   2.988   6.400   8.258  0.6897 -1.1903  1.3342
   95SAPS  H18S 9419   2.848   6.508   8.294 -0.1891  1.4543  3.9508
   95SAPS  C219 9420   3.006   6.513   8.449  0.1861 -0.7153  0.1240
   95SAPS  H19R 9421   3.113   6.486   8.452  0.7558  1.3869  0.3922
   95SAPS  H19S 9422   2.946   6.448   8.516 -1.6606 -0.4258 -1.1622
   95SAPS  C220 9423   2.992   6.657   8.502  0.4923  0.3421  0.4097
   95SAPS  H20R 9424   3.064   6.727   8.455 -0.4537  0.8852 -0.2842
   95SAPS  H20S 9425   3.024   6.656   8.608 -0.6159 -0.7820  0.7581
   95SAPS  H20T 9426   2.892   6.696   8.474  0.3661 -0.6299 -0.5696
   95SAPS   C33 9427   2.837   7.098   7.269 -0.2416  0.3898  0.1042
   95SAPS   H3X 9428   2.728   7.081   7.255 -0.1088  0.6231 -1.4733
   95SAPS   H3Y 9429   2.844   7.205   7.297  0.3928  0.4850 -0.3831
   95SAPS   C34 9430   2.886   7.018   7.395 -0.7958 -0.4334 -0.5574
   95SAPS   H4X 9431   2.983   7.055   7.433 -1.3389  1.6455 -1.0729
   95SAPS   H4Y 9432   2.909   6.912   7.373 -0.9178 -1.3855  3.2379
   95SAPS   C35 9433   2.791   7.016   7.511 -0.3978 -0.2942 -0.5045
   95SAPS   H5X 9434   2.723   6.931   7.487  0.6374 -0.6227 -2.3866
   95SAPS   H5Y 9435   2.719   7.100   7.524 -1.7743 -1.6630  1.2864
   95SAPS   C36 9436   2.857   6.990   7.648 -1.1477  0.3665 -0.3790
   95SAPS   H6X 9437   2.937   7.063   7.674 -0.8376  0.0905 -0.5448
   95SAPS   H6Y 9438   2.909   6.892   7.646 -0.5420  0.6336  1.1858
   95SAPS   C37 9439   2.752   6.988   7.760  0.6040 -1.0696 -0.1224
   95SAPS   H7X 9440   2.684   6.904   7.730 -2.0080  1.6983 -2.6934
   95SAPS   H7Y 9441   2.698   7.085   7.755 -0.3675 -1.5149  1.1683
   95SAPS   C38 9442   2.807   6.967   7.906  0.5886 -0.2218 -0.4456
   95SAPS   H8X 9443   2.891   7.036   7.927  0.5622  0.1474 -1.4868
   95SAPS   H8Y 9444   2.844   6.863   7.908 -0.5686 -0.6535  0.9587
   95SAPS   C39 9445   2.690   6.978   7.997  0.7247 -0.0075 -0.3266
   95SAPS   H9X 9446   2.603   6.922   7.955  1.3428  0.1343 -1.8261
   95SAPS   H9Y 9447   2.649   7.080   8.010 -0.9841 -0.5496 -1.0679
   95SAPS  C310 9448   2.721   6.932   8.141 -0.6291 -0.5319 -0.2639
   95SAPS  H10X 9449   2.781   6.838   8.134  0.3508 -0.4901  4.3060
   95SAPS  H10Y 9450   2.631   6.893   8.195 -0.4126 -2.8873 -1.4694
   95SAPS  C311 9451   2.809   7.028   8.228  0.4690 -0.7399 -0.2713
   95SAPS  H11X 9452   2.877   7.083   8.159 -0.0494 -0.8150 -0.8528
   95SAPS  H11Y 9453   2.867   6.960   8.294 -1.5936 -3.6911 -1.2584
   95SAPS  C312 9454   2.727   7.133   8.313 -0.0834 -0.4754 -0.2290
   95SAPS  H12X 9455   2.644   7.083   8.367  1.5529  0.1129  3.0896
   95SAPS  H12Y 9456   2.693   7.201   8.232 -0.2240 -1.4368 -0.9964
   95SAPS  C313 9457   2.819   7.219   8.402  0.2224 -0.3528 -0.4408
   95SAPS  H13X 9458   2.886   7.266   8.327  2.1190 -2.2213 -0.0158
   95SAPS  H13Y 9459   2.885   7.160   8.469  2.9348 -0.3826 -2.9336
   95SAPS  C314 9460   2.738   7.319   8.478 -0.4292 -0.0814  0.3380
   95SAPS  H14X 9461   2.661   7.260   8.532 -0.5866 -1.1722 -1.0366
   95SAPS  H14Y 9462   2.683   7.389   8.412 -0.7396  0.7667  1.4594
   95SAPS  C315 9463   2.824   7.404   8.572  0.6039 -0.4389  0.3790
   95SAPS  H15X 9464   2.908   7.446   8.513  0.1898  0.2622  0.2696
   95SAPS  H15Y 9465   2.864   7.332   8.646  2.2590 -0.3308 -0.3807
   95SAPS  C316 9466   2.753   7.521   8.643  0.4431  0.0449 -0.0205
   95SAPS  H16X 9467   2.720   7.587   8.561 -2.6798 -0.1211  0.9999
   95SAPS  H16Y 9468   2.825   7.577   8.706  1.3626  0.0243 -1.0217
   95SAPS  C317 9469   2.627   7.491   8.725 -0.4943 -0.0887 -0.8245
   95SAPS  H17X 9470   2.656   7.413   8.799  0.2977  1.4076  0.5057
   95SAPS  H17Y 9471   2.550   7.445   8.660 -0.1185 -0.5263 -0.9657
   95SAPS  C318 9472   2.576   7.619   8.787  0.3264  0.0860 -0.0028
   95SAPS  H18X 9473   2.554   7.691   8.706  3.5394 -1.4358 -2.4936
   95SAPS  H18Y 9474   2.654   7.654   8.859  0.1798  0.3335  0.0346
   95SAPS  H18Z 9475   2.487   7.581   8.841 -0.6011  0.9487 -0.8839
   96SAPS     N 9476   5.508   3.407   6.119 -0.0273  0.1041  0.4900
   96SAPS   HN1 9477   5.475   3.496   6.161 -0.2763  0.0189  0.4747
   96SAPS   HN2 9478   5.578   3.378   6.191  0.4348  0.8720  0.3644
   96SAPS   HN3 9479   5.557   3.427   6.030  1.0093 -0.2297  0.9711
   96SAPS   C12 9480   5.405   3.306   6.094  0.5538 -0.2759  0.1171
   96SAPS  H12A 9481   5.325   3.301   6.166 -2.2364  1.2979 -2.6281
   96SAPS   C13 9482   5.319   3.328   5.964 -0.1565 -0.7742  0.0627
   96SAPS  O13A 9483   5.365   3.403   5.873  0.0086  0.0011  0.3023
   96SAPS  O13B 9484   5.222   3.255   5.946  0.1645 -0.0160 -0.1446
   96SAPS   C11 9485   5.465   3.164   6.076 -0.0912  0.6265  0.3397
   96SAPS  H11A 9486   5.527   3.156   5.984  2.3384  2.4221  1.6914
   96SAPS  H11B 9487   5.386   3.087   6.066 -2.2500  2.8307 -0.6656
   96SAPS     P 9488   5.545   3.000   6.274 -0.0713  0.1940 -0.0128
   96SAPS   O13 9489   5.524   2.875   6.194 -0.6274  0.3129 -0.3715
   96SAPS   O14 9490   5.660   2.999   6.369  0.5867 -0.5170 -0.6755
   96SAPS   O12 9491   5.558   3.137   6.185 -0.0714  0.1022 -0.1821
   96SAPS   O11 9492   5.415   3.030   6.346  0.3079 -0.1959  0.0686
   96SAPS    C1 9493   5.401   3.161   6.419 -0.2933 -0.4880 -0.2214
   96SAPS    HA 9494   5.482   3.235   6.402  1.1622 -2.4930 -2.6238
   96SAPS    HB 9495   5.299   3.199   6.399 -0.4344  0.8178  2.4596
   96SAPS    C2 9496   5.394   3.137   6.579 -1.0491 -0.6558  0.2324
   96SAPS    HS 9497   5.301   3.084   6.611 -1.4211  0.7930  1.6595
   96SAPS   O21 9498   5.381   3.266   6.636 -0.0142  0.1336  0.4285
   96SAPS   C21 9499   5.332   3.283   6.759 -0.2757 -0.0756  0.7119
   96SAPS   O22 9500   5.286   3.198   6.830  0.4989 -0.3224 -0.3233
   96SAPS   C22 9501   5.342   3.430   6.786 -0.3733  0.0603 -0.3861
   96SAPS   H2R 9502   5.441   3.472   6.756  1.9114 -4.6719 -0.3347
   96SAPS   H2S 9503   5.263   3.487   6.733 -0.1814 -0.2644 -1.0298
   96SAPS    C3 9504   5.523   3.068   6.642  0.0840 -0.5736  0.0726
   96SAPS    HX 9505   5.599   3.130   6.590 -0.6401 -0.6154 -1.0779
   96SAPS    HY 9506   5.522   2.961   6.612 -3.1214 -0.4884 -0.4681
   96SAPS   O31 9507   5.536   3.085   6.790 -0.2125 -0.0703 -0.8854
   96SAPS   C31 9508   5.486   2.981   6.865 -0.4442  0.1732  0.6351
   96SAPS   O32 9509   5.444   2.877   6.824  0.0516  0.7133  0.3794
   96SAPS   C32 9510   5.512   3.018   7.014 -0.0259  0.2036 -0.3205
   96SAPS   H2X 9511   5.510   3.129   7.012 -0.7554  0.1762 -1.5880
   96SAPS   H2Y 9512   5.612   2.989   7.054  0.9935  2.1932 -1.2999
   96SAPS   C23 9513   5.339   3.451   6.948 -0.1006  0.1081  0.1689
   96SAPS   H3R 9514   5.391   3.364   6.993 -1.2707 -0.6719  0.0481
   96SAPS   H3S 9515   5.236   3.445   6.990 -0.3230  0.2834 -0.3465
   96SAPS   C24 9516   5.397   3.588   6.988  0.1104  0.4108 -0.0457
   96SAPS   H4R 9517   5.505   3.589   6.962 -0.0898 -0.2056 -0.9574
   96SAPS   H4S 9518   5.393   3.593   7.099  0.8250  1.1549 -0.0450
   96SAPS   C25 9519   5.311   3.694   6.920  0.1357  1.1527 -0.9736
   96SAPS   H5R 9520   5.315   3.690   6.810  0.0802  0.9016 -0.9659
   96SAPS   C26 9521   5.240   3.796   6.975 -0.4377  0.0054  0.4188
   96SAPS   H6R 9522   5.181   3.864   6.912  1.6193  0.4596 -1.1506
   96SAPS   C27 9523   5.235   3.823   7.123 -0.4325  0.0015  0.7395
   96SAPS   H7R 9524   5.309   3.758   7.174  0.2559  1.4124  1.6319
   96SAPS   H7S 9525   5.137   3.801   7.170 -0.1011 -1.1063  0.9460
   96SAPS   C28 9526   5.278   3.970   7.158  0.1362  1.0371  0.4054
   96SAPS   H8R 9527   5.240   4.048   7.090 -3.1708 -0.0138  0.8694
   96SAPS   C29 9528   5.340   4.021   7.267 -0.2619  0.5352 -0.4879
   96SAPS   H9R 9529   5.356   4.130   7.275 -2.1443  0.7874  0.3557
   96SAPS  C210 9530   5.391   3.950   7.385 -0.0268  0.2215  0.1090
   96SAPS  H10R 9531   5.483   4.001   7.422  1.7623 -0.1105 -3.4409
   96SAPS  H10S 9532   5.409   3.842   7.369  2.2767  0.6115 -0.3147
   96SAPS  C211 9533   5.282   3.962   7.490 -0.0333 -0.2171 -0.0520
   96SAPS  H11R 9534   5.182   3.955   7.444 -0.2331  1.3307  0.0927
   96SAPS  C212 9535   5.304   3.971   7.624  0.5138 -0.3065 -0.2454
   96SAPS  H12R 9536   5.220   3.982   7.695  0.1657 -0.1321 -0.6858
   96SAPS  C213 9537   5.446   3.970   7.683 -0.5651 -0.0017  0.1164
   96SAPS  H13R 9538   5.533   4.004   7.623  0.3050  1.6889  2.1911
   96SAPS  H13S 9539   5.467   3.866   7.715 -0.4195 -0.5708 -1.7012
   96SAPS  C214 9540   5.463   4.054   7.802 -0.4059  0.9124  0.4935
   96SAPS  H14R 9541   5.530   4.138   7.778  1.8818 -1.3378 -1.5726
   96SAPS  C215 9542   5.418   4.035   7.925 -0.8347 -0.1456 -0.2486
   96SAPS  H15R 9543   5.428   4.112   8.004  0.1909 -1.6918  1.1965
   96SAPS  C216 9544   5.342   3.928   7.983  0.2971 -0.1078  0.2156
   96SAPS  H16R 9545   5.309   3.848   7.913  0.9758  0.8539 -1.2464
   96SAPS  H16S 9546   5.249   3.969   8.028  0.1361 -0.0279 -0.1831
   96SAPS  C217 9547   5.420   3.857   8.093  0.4874  0.2803  0.4561
   96SAPS  H17R 9548   5.443   3.926   8.177 -1.3980  0.7683  0.6094
   96SAPS  H17S 9549   5.515   3.811   8.057  0.2447 -1.4222  1.8571
   96SAPS  C218 9550   5.343   3.732   8.147 -0.3008  0.2344  0.8114
   96SAPS  H18R 9551   5.313   3.675   8.057  0.4331  2.9376 -1.2721
   96SAPS  H18S 9552   5.253   3.779   8.193  0.9964  0.9572  2.7092
   96SAPS  C219 9553   5.428   3.652   8.247  0.1691  0.2226  0.1653
   96SAPS  H19R 9554   5.526   3.640   8.196  1.1827  1.7563  1.6804
   96SAPS  H19S 9555   5.375   3.557   8.271 -1.2593  1.4396  2.0779
   96SAPS  C220 9556   5.457   3.726   8.375 -0.8265  0.5220  0.2685
   96SAPS  H20R 9557   5.362   3.765   8.418 -1.0983  0.4812 -0.2861
   96SAPS  H20S 9558   5.523   3.814   8.357  0.7181 -0.1904  2.1007
   96SAPS  H20T 9559   5.507   3.662   8.450 -1.3647  1.5805  1.5731
   96SAPS   C33 9560   5.408   2.951   7.108  1.0114 -0.0144  0.2619
   96SAPS   H3X 9561   5.435   2.845   7.092 -0.6657 -0.6469  1.3710
   96SAPS   H3Y 9562   5.300   2.974   7.095  0.9792  0.9930  1.9569
   96SAPS   C34 9563   5.441   2.984   7.256 -0.8086  0.8205 -0.7091
   96SAPS   H4X 9564   5.428   3.089   7.290  1.0442  1.1488 -0.9342
   96SAPS   H4Y 9565   5.546   2.957   7.277 -1.2699 -1.8842 -1.4613
   96SAPS   C35 9566   5.372   2.885   7.352  1.1015 -0.2147 -0.2199
   96SAPS   H5X 9567   5.362   2.788   7.299 -0.8395  0.7908 -1.8262
   96SAPS   H5Y 9568   5.269   2.925   7.351  0.9839 -0.3881 -3.0237
   96SAPS   C36 9569   5.433   2.872   7.495 -0.6633  0.3093  0.5268
   96SAPS   H6X 9570   5.538   2.838   7.484 -1.2213 -0.6638 -3.2250
   96SAPS   H6Y 9571   5.373   2.792   7.543 -2.5121 -0.0153 -2.1204
   96SAPS   C37 9572   5.419   3.001   7.576  0.3970  0.1955 -0.3370
   96SAPS   H7X 9573   5.312   3.028   7.590  0.6464  0.9428  0.1884
   96SAPS   H7Y 9574   5.459   3.093   7.527  2.5733  0.4809  1.8078
   96SAPS   C38 9575   5.480   2.990   7.726  0.3792 -0.5329 -0.0147
   96SAPS   H8X 9576   5.466   3.093   7.765  1.3015  0.1112 -1.2818
   96SAPS   H8Y 9577   5.584   2.953   7.732  0.9342  1.0888  1.0609
   96SAPS   C39 9578   5.391   2.910   7.820 -0.3831  0.3010  0.0357
   96SAPS   H9X 9579   5.381   2.814   7.765  0.2511  1.0020 -1.3503
   96SAPS   H9Y 9580   5.291   2.953   7.841 -0.8621 -0.9706  0.4543
   96SAPS  C310 9581   5.454   2.871   7.953  0.2121  0.2246  0.1202
   96SAPS  H10X 9582   5.527   2.788   7.943  0.0877  0.2361 -1.1639
   96SAPS  H10Y 9583   5.371   2.824   8.010  2.0315 -1.4261  1.5006
   96SAPS  C311 9584   5.529   2.979   8.029  1.1067 -0.1972  0.1460
   96SAPS  H11X 9585   5.459   3.063   8.044 -1.1330 -2.0180  0.3590
   96SAPS  H11Y 9586   5.622   3.006   7.972  0.8474  1.6458  0.5214
   96SAPS  C312 9587   5.570   2.932   8.171  0.1945  0.1401  0.0924
   96SAPS  H12X 9588   5.628   2.839   8.155 -0.8034 -0.3123 -1.0380
   96SAPS  H12Y 9589   5.483   2.918   8.238 -0.4332  2.0290 -0.2484
   96SAPS  C313 9590   5.661   3.043   8.233 -0.1452 -0.0644  0.1572
   96SAPS  H13X 9591   5.600   3.134   8.250  1.3788  0.6538  2.1963
   96SAPS  H13Y 9592   5.735   3.060   8.152 -2.1209 -0.5501 -1.8517
   96SAPS  C314 9593   5.733   2.994   8.361  0.8158  0.1749  0.2237
   96SAPS  H14X 9594   5.809   2.920   8.328  0.1943 -0.2344 -0.2872
   96SAPS  H14Y 9595   5.656   2.952   8.429 -0.5378 -0.2512 -1.5204
   96SAPS  C315 9596   5.807   3.098   8.445 -0.0683 -0.6664  0.0882
   96SAPS  H15X 9597   5.903   3.113   8.391  0.0095 -0.1593  0.3657
   96SAPS  H15Y 9598   5.851   3.050   8.535  0.3409 -0.3853  0.0415
   96SAPS  C316 9599   5.729   3.229   8.479 -0.4489 -0.2066  0.5567
   96SAPS  H16X 9600   5.632   3.206   8.528 -0.8737 -0.8776 -0.5745
   96SAPS  H16Y 9601   5.711   3.282   8.383  2.3544 -1.4847 -0.7783
   96SAPS  C317 9602   5.804   3.328   8.569  0.3467  0.7052 -0.2694
   96SAPS  H17X 9603   5.912   3.339   8.542  1.4653 -1.4430  2.8015
   96SAPS  H17Y 9604   5.787   3.308   8.676 -0.8548 -2.9116 -1.0160
   96SAPS  C318 9605   5.744   3.472   8.543  0.1443 -0.3938 -0.0690
   96SAPS  H18X 9606   5.797   3.545   8.607 -0.7092 -0.0157  0.2139
   96SAPS  H18Y 9607   5.643   3.475   8.589  0.8697 -0.0964  1.5682
   96SAPS  H18Z 9608   5.756   3.511   8.439 -1.0652  1.0667  0.3040
   97SAPS     N 9609   4.070   2.041   6.205  0.3054 -0.4294 -0.1010
   97SAPS   HN1 9610   4.002   2.097   6.261  2.1943  1.4133  0.4980
   97SAPS   HN2 9611   4.012   1.995   6.132  0.8664  1.3377 -1.7489
   97SAPS   HN3 9612   4.111   1.967   6.265  1.0202  0.6286  0.7560
   97SAPS   C12 9613   4.175   2.119   6.140 -0.0532 -0.5128 -0.5302
   97SAPS  H12A 9614   4.214   2.056   6.061 -1.3695 -1.0526 -0.7682
   97SAPS   C13 9615   4.119   2.248   6.087 -0.2660  0.4856  0.6772
   97SAPS  O13A 9616   4.002   2.287   6.106 -0.5779  0.7350 -0.1562
   97SAPS  O13B 9617   4.192   2.300   5.998  0.2321  0.2759 -0.3787
   97SAPS   C11 9618   4.300   2.154   6.238  0.8654 -0.1150  0.0351
   97SAPS  H11A 9619   4.261   2.215   6.322  2.6124 -2.0270  2.3334
   97SAPS  H11B 9620   4.361   2.221   6.174 -3.6568  1.7986 -2.8175
   97SAPS     P 9621   4.462   2.042   6.389 -0.2515 -0.4074 -0.2781
   97SAPS   O13 9622   4.571   1.945   6.375  0.1205  0.1052  0.0840
   97SAPS   O14 9623   4.510   2.179   6.398 -0.2771  0.0906  0.1866
   97SAPS   O12 9624   4.367   2.037   6.270 -0.3554 -0.2300  0.1716
   97SAPS   O11 9625   4.359   2.002   6.511 -0.7385 -0.5328  0.1603
   97SAPS    C1 9626   4.332   2.103   6.609  0.0771 -0.8681  0.2612
   97SAPS    HA 9627   4.337   2.206   6.568 -0.0052 -1.2489 -0.7150
   97SAPS    HB 9628   4.228   2.089   6.648  0.1856 -0.3822  0.7385
   97SAPS    C2 9629   4.420   2.089   6.736  0.2162  1.3036 -0.1815
   97SAPS    HS 9630   4.519   2.040   6.719 -1.0019 -1.4959  0.1292
   97SAPS   O21 9631   4.354   2.016   6.844 -0.3964 -0.1163 -0.0854
   97SAPS   C21 9632   4.362   1.883   6.829  0.2860  0.0732  0.1624
   97SAPS   O22 9633   4.424   1.823   6.741 -0.0695  0.2969 -0.4942
   97SAPS   C22 9634   4.297   1.820   6.946  0.4428 -0.0052 -0.0696
   97SAPS   H2R 9635   4.214   1.884   6.984 -0.2576 -0.3521 -0.9889
   97SAPS   H2S 9636   4.235   1.734   6.912 -0.8372 -0.6291  3.4075
   97SAPS    C3 9637   4.462   2.229   6.796  0.6319  0.0015 -0.8794
   97SAPS    HX 9638   4.361   2.274   6.795 -0.3540 -2.1056 -0.5189
   97SAPS    HY 9639   4.528   2.292   6.733 -0.2911  1.7972 -0.1236
   97SAPS   O31 9640   4.503   2.214   6.935 -0.0530 -0.2013  0.0065
   97SAPS   C31 9641   4.625   2.200   6.954 -1.0872 -0.1202  0.2839
   97SAPS   O32 9642   4.714   2.185   6.867 -0.0754  0.1350 -0.5997
   97SAPS   C32 9643   4.655   2.203   7.098  0.0400  0.2371 -0.1921
   97SAPS   H2X 9644   4.730   2.127   7.127 -0.5977  0.0478  1.0481
   97SAPS   H2Y 9645   4.571   2.179   7.168 -0.3973 -0.2039 -0.8640
   97SAPS   C23 9646   4.386   1.782   7.069  0.8000 -0.0348 -0.0530
   97SAPS   H3R 9647   4.445   1.692   7.041  0.1218 -0.6444  0.4336
   97SAPS   H3S 9648   4.316   1.756   7.151 -0.2205  0.0220 -0.8733
   97SAPS   C24 9649   4.477   1.893   7.119  0.0402 -0.1879 -0.1159
   97SAPS   H4R 9650   4.405   1.975   7.142  0.7348  0.1119  1.0543
   97SAPS   H4S 9651   4.552   1.932   7.047  2.0076 -1.1202  1.3533
   97SAPS   C25 9652   4.553   1.866   7.242  0.3699  0.7464 -0.0024
   97SAPS   H5R 9653   4.655   1.827   7.225 -0.0460 -1.7896  2.4899
   97SAPS   C26 9654   4.522   1.890   7.371 -0.1958 -0.2432 -0.5323
   97SAPS   H6R 9655   4.584   1.844   7.450 -2.4983 -2.2010  0.2542
   97SAPS   C27 9656   4.389   1.947   7.428  0.2953 -0.5849 -0.0914
   97SAPS   H7R 9657   4.362   1.903   7.527 -0.4297 -0.6248 -0.3055
   97SAPS   H7S 9658   4.303   1.921   7.363  0.3115 -2.0795  0.4536
   97SAPS   C28 9659   4.392   2.099   7.437 -0.7011 -0.0995 -0.1150
   97SAPS   H8R 9660   4.366   2.153   7.345  1.2619  0.2454 -0.5102
   97SAPS   C29 9661   4.414   2.170   7.550  0.4447 -0.1267  0.1318
   97SAPS   H9R 9662   4.398   2.278   7.540 -0.7714 -0.3792 -0.9250
   97SAPS  C210 9663   4.438   2.123   7.688 -0.5759 -0.4644  0.2726
   97SAPS  H10R 9664   4.543   2.136   7.724 -0.5509 -1.5594  0.6218
   97SAPS  H10S 9665   4.415   2.016   7.703 -2.4656 -0.1240  0.0423
   97SAPS  C211 9666   4.358   2.210   7.785 -0.6744  0.2290 -0.5861
   97SAPS  H11R 9667   4.263   2.170   7.822 -0.8223 -0.4513 -1.6598
   97SAPS  C212 9668   4.388   2.329   7.837 -0.2209 -0.1443  0.4216
   97SAPS  H12R 9669   4.309   2.369   7.902 -1.4744 -0.6288 -0.7584
   97SAPS  C213 9670   4.514   2.420   7.820  0.2370  0.4013 -0.2416
   97SAPS  H13R 9671   4.501   2.518   7.770  0.2250 -0.1188 -1.2913
   97SAPS  H13S 9672   4.588   2.364   7.759 -0.3438 -2.3422  1.3799
   97SAPS  C214 9673   4.588   2.444   7.950  0.4653  0.4248  0.1145
   97SAPS  H14R 9674   4.571   2.537   8.006  2.6532 -0.3633  2.2604
   97SAPS  C215 9675   4.665   2.363   8.017 -0.0055 -0.1587 -0.3786
   97SAPS  H15R 9676   4.715   2.392   8.110  0.3155  0.9850 -0.8799
   97SAPS  C216 9677   4.697   2.219   7.981 -0.6446  0.1804 -0.3120
   97SAPS  H16R 9678   4.806   2.210   7.964 -0.5503  0.3931  0.1568
   97SAPS  H16S 9679   4.653   2.183   7.886  2.7204 -2.4077 -1.0524
   97SAPS  C217 9680   4.650   2.130   8.097  0.3931 -0.1056 -0.1328
   97SAPS  H17R 9681   4.540   2.122   8.083  0.6788 -1.4679 -1.9540
   97SAPS  H17S 9682   4.676   2.159   8.201  2.9030 -0.4389 -0.6074
   97SAPS  C218 9683   4.708   1.986   8.089  0.5011  0.3812  0.2974
   97SAPS  H18R 9684   4.816   1.973   8.113  0.9632 -0.2867 -1.9210
   97SAPS  H18S 9685   4.693   1.969   7.980  0.4725 -1.4637  0.5699
   97SAPS  C219 9686   4.625   1.887   8.176 -0.6974  0.2166  0.2872
   97SAPS  H19R 9687   4.519   1.889   8.145 -0.9346 -1.5121  0.8476
   97SAPS  H19S 9688   4.630   1.906   8.286  0.0947 -2.8820  0.8829
   97SAPS  C220 9689   4.669   1.733   8.164  0.2784  0.1146  0.1330
   97SAPS  H20R 9690   4.776   1.705   8.174  0.0175 -1.2308 -0.6535
   97SAPS  H20S 9691   4.643   1.681   8.069  0.3369  0.7632 -0.2449
   97SAPS  H20T 9692   4.603   1.681   8.236 -1.0072 -0.3845 -1.3362
   97SAPS   C33 9693   4.714   2.352   7.136  0.5669  0.5825 -0.1536
   97SAPS   H3X 9694   4.640   2.431   7.110 -0.5032 -0.6942 -1.1167
   97SAPS   H3Y 9695   4.805   2.384   7.082  0.1378  0.0976 -1.1857
   97SAPS   C34 9696   4.726   2.352   7.291 -0.1400 -0.1767  0.2386
   97SAPS   H4X 9697   4.635   2.320   7.346 -0.1928 -1.0277 -0.3237
   97SAPS   H4Y 9698   4.745   2.458   7.317  0.4806 -0.5868  1.5473
   97SAPS   C35 9699   4.854   2.276   7.345 -0.3843 -0.6668  0.1759
   97SAPS   H5X 9700   4.945   2.304   7.287 -0.8043  0.0731 -0.1432
   97SAPS   H5Y 9701   4.826   2.170   7.331 -1.8358 -0.1249 -1.3367
   97SAPS   C36 9702   4.873   2.287   7.499 -0.4855 -0.2062 -0.6956
   97SAPS   H6X 9703   4.777   2.281   7.555 -0.4382 -0.7027 -0.6618
   97SAPS   H6Y 9704   4.915   2.387   7.524  0.2802 -0.5995 -0.3975
   97SAPS   C37 9705   4.959   2.178   7.560 -0.1766  0.2321 -0.3532
   97SAPS   H7X 9706   5.060   2.201   7.518 -0.0181 -1.0664 -0.7327
   97SAPS   H7Y 9707   4.920   2.080   7.524 -2.9596 -0.2626  3.4695
   97SAPS   C38 9708   4.971   2.197   7.710 -0.5229 -0.3279 -0.1052
   97SAPS   H8X 9709   4.876   2.162   7.756 -0.1597 -0.0554  0.8709
   97SAPS   H8Y 9710   4.981   2.306   7.729  1.2688 -0.0676 -2.1772
   97SAPS   C39 9711   5.086   2.121   7.772 -0.2824  0.6738 -0.4368
   97SAPS   H9X 9712   5.176   2.177   7.740  1.0528 -2.4665 -2.5947
   97SAPS   H9Y 9713   5.096   2.019   7.730  1.4992 -0.1940  1.8546
   97SAPS  C310 9714   5.084   2.123   7.919  0.3837 -0.0474 -0.3297
   97SAPS  H10X 9715   4.987   2.079   7.952  1.6867 -1.6326  1.6092
   97SAPS  H10Y 9716   5.076   2.228   7.954  0.2261 -0.6381  1.4772
   97SAPS  C311 9717   5.210   2.070   7.994 -0.2692  0.4586 -0.7630
   97SAPS  H11X 9718   5.305   2.087   7.939 -0.0747 -0.1145 -0.6128
   97SAPS  H11Y 9719   5.217   1.959   7.994 -0.3987  0.4338  0.5761
   97SAPS  C312 9720   5.211   2.129   8.138  0.7970 -0.5250 -0.0531
   97SAPS  H12X 9721   5.121   2.104   8.197 -0.6057  2.3339 -0.8251
   97SAPS  H12Y 9722   5.203   2.239   8.129 -0.0505 -0.6102 -0.4929
   97SAPS  C313 9723   5.343   2.093   8.211 -0.1962 -0.8139 -0.2099
   97SAPS  H13X 9724   5.369   2.168   8.289  0.4739 -0.8469 -0.3879
   97SAPS  H13Y 9725   5.425   2.086   8.136 -0.7204 -0.7311 -0.7913
   97SAPS  C314 9726   5.333   1.964   8.295 -0.1270  0.4895 -0.3301
   97SAPS  H14X 9727   5.331   1.872   8.233  0.3577  1.7053 -2.2386
   97SAPS  H14Y 9728   5.237   1.962   8.350  0.8528  0.6813  1.4798
   97SAPS  C315 9729   5.455   1.934   8.397  0.3682  0.8604 -0.1494
   97SAPS  H15X 9730   5.466   2.027   8.457  1.3766  0.2416  0.6799
   97SAPS  H15Y 9731   5.547   1.919   8.336 -0.2379 -1.0133 -0.6449
   97SAPS  C316 9732   5.442   1.811   8.487  0.2431  0.1218 -0.2571
   97SAPS  H16X 9733   5.417   1.725   8.421  1.5957 -0.8830  0.4846
   97SAPS  H16Y 9734   5.353   1.823   8.551  0.4706  1.5199 -0.1660
   97SAPS  C317 9735   5.568   1.792   8.573  0.2390  0.1470  0.2551
   97SAPS  H17X 9736   5.586   1.885   8.631 -0.3389 -0.6874  1.8548
   97SAPS  H17Y 9737   5.658   1.773   8.511  0.7586  1.0226  0.7163
   97SAPS  C318 9738   5.567   1.693   8.688 -0.8434  0.2574 -0.7031
   97SAPS  H18X 9739   5.571   1.586   8.659  1.5022  0.0968 -0.0310
   97SAPS  H18Y 9740   5.490   1.712   8.765 -0.7199 -1.5802 -0.0742
   97SAPS  H18Z 9741   5.662   1.700   8.745 -2.5303 -0.8071  2.4733
   98SAPS     N 9742   5.541   0.093   5.933  0.6164 -0.0126 -0.5607
   98SAPS   HN1 9743   5.453   0.148   5.921 -2.8146 -4.7795 -0.4365
   98SAPS   HN2 9744   5.622   0.145   5.970  0.0644 -0.3744  1.2741
   98SAPS   HN3 9745   5.567   0.056   5.839  4.9031 -1.3948  0.9462
   98SAPS   C12 9746   5.513  -0.013   6.033 -0.1822 -0.0537  0.6322
   98SAPS  H12A 9747   5.408  -0.037   6.022 -0.2298  0.1406  0.6645
   98SAPS   C13 9748   5.585  -0.151   6.005 -0.7399  1.1076  0.1143
   98SAPS  O13A 9749   5.681  -0.142   5.927 -0.2764  0.2919 -0.8947
   98SAPS  O13B 9750   5.547  -0.259   6.054  0.0115 -0.2745  0.6787
   98SAPS   C11 9751   5.542   0.028   6.180 -0.1622 -0.0464  0.2896
   98SAPS  H11A 9752   5.646   0.065   6.182 -0.4865  0.8796  1.2619
   98SAPS  H11B 9753   5.540  -0.053   6.256 -3.7312  1.0576  1.5818
   98SAPS     P 9754   5.304   0.109   6.284  0.0222  0.1604  0.1002
   98SAPS   O13 9755   5.222   0.208   6.207  0.4757  0.0633  0.1418
   98SAPS   O14 9756   5.255  -0.030   6.279 -0.4931 -0.5810 -0.3091
   98SAPS   O12 9757   5.456   0.129   6.231  0.0964  0.2269 -0.1841
   98SAPS   O11 9758   5.311   0.162   6.431  0.2282  0.0530  0.1280
   98SAPS    C1 9759   5.383   0.094   6.540  0.6152 -0.2259  0.3400
   98SAPS    HA 9760   5.479   0.054   6.501  0.0331  0.7351 -2.2503
   98SAPS    HB 9761   5.409   0.170   6.617  0.0295 -3.0177  3.5121
   98SAPS    C2 9762   5.300  -0.018   6.613 -0.8270 -0.1099  0.0685
   98SAPS    HS 9763   5.253  -0.074   6.530 -0.8743 -0.5535  0.3977
   98SAPS   O21 9764   5.215   0.052   6.696  0.8234  0.2874 -0.4732
   98SAPS   C21 9765   5.107  -0.018   6.738 -0.0549 -0.2870 -0.1479
   98SAPS   O22 9766   5.094  -0.139   6.736 -0.0963  0.2492  0.4802
   98SAPS   C22 9767   4.999   0.069   6.781  0.6039 -0.8806 -0.1408
   98SAPS   H2R 9768   5.001   0.160   6.719 -0.7084 -2.3143 -2.4301
   98SAPS   H2S 9769   4.903   0.021   6.751  0.5252 -0.5314 -0.4541
   98SAPS    C3 9770   5.394  -0.121   6.694  0.2897 -0.4333  0.1157
   98SAPS    HX 9771   5.473  -0.165   6.630 -1.5943 -1.9581 -1.2597
   98SAPS    HY 9772   5.330  -0.202   6.735  0.5994 -0.5035  0.4679
   98SAPS   O31 9773   5.457  -0.053   6.792 -0.0340 -0.1724 -0.0052
   98SAPS   C31 9774   5.548  -0.116   6.858 -0.6037  0.3509 -0.6540
   98SAPS   O32 9775   5.596  -0.224   6.829  0.6461  0.5206 -0.3856
   98SAPS   C32 9776   5.595  -0.048   6.986 -0.3273 -0.2900  0.3178
   98SAPS   H2X 9777   5.669   0.031   6.962 -0.8956  0.2377  0.2624
   98SAPS   H2Y 9778   5.657  -0.119   7.045 -0.6780 -0.1678  0.8402
   98SAPS   C23 9779   5.023   0.108   6.929  1.1072  0.2862  0.6402
   98SAPS   H3R 9780   5.114   0.170   6.938  0.0499  1.9353  0.5227
   98SAPS   H3S 9781   5.030   0.011   6.982  0.2536 -0.8983 -1.3031
   98SAPS   C24 9782   4.908   0.174   7.004  0.8864 -0.0906  0.8352
   98SAPS   H4R 9783   4.814   0.121   6.978  0.3333  2.0633 -1.9896
   98SAPS   H4S 9784   4.894   0.277   6.966 -0.7882 -0.6133 -0.0559
   98SAPS   C25 9785   4.939   0.171   7.152  0.0096  0.1052 -0.3656
   98SAPS   H5R 9786   4.908   0.078   7.203  0.2302 -0.1158 -0.6313
   98SAPS   C26 9787   5.016   0.254   7.228  0.0317  0.1435 -0.2731
   98SAPS   H6R 9788   5.030   0.234   7.335 -0.5694  1.9611  0.1715
   98SAPS   C27 9789   5.086   0.376   7.179 -0.7619 -0.5502  0.8288
   98SAPS   H7R 9790   5.106   0.372   7.070  2.7456 -0.1084  1.3395
   98SAPS   H7S 9791   5.189   0.393   7.219  0.4267  1.3353 -2.6111
   98SAPS   C28 9792   5.019   0.503   7.207 -0.1855  0.5123 -0.0404
   98SAPS   H8R 9793   4.954   0.533   7.123 -0.6779  1.5678  0.6867
   98SAPS   C29 9794   5.024   0.581   7.311  0.4517 -0.0825 -0.0189
   98SAPS   H9R 9795   4.952   0.665   7.315  0.4093 -0.0433 -1.1928
   98SAPS  C210 9796   5.099   0.562   7.433  0.2337 -0.3251 -0.4185
   98SAPS  H10R 9797   5.199   0.521   7.410 -0.0810 -0.6963 -1.1644
   98SAPS  H10S 9798   5.054   0.481   7.493 -0.6861  0.0241 -0.6090
   98SAPS  C211 9799   5.109   0.692   7.510  0.2421 -0.5339 -0.5966
   98SAPS  H11R 9800   5.156   0.776   7.456 -0.4856  1.2954  1.4323
   98SAPS  C212 9801   5.078   0.715   7.643  0.0435 -0.0234  0.2453
   98SAPS  H12R 9802   5.098   0.813   7.689  1.7570  0.3756 -1.2340
   98SAPS  C213 9803   5.021   0.612   7.735 -0.1151  0.5799  0.5047
   98SAPS  H13R 9804   4.982   0.530   7.672 -0.4149  0.1723  1.2116
   98SAPS  H13S 9805   4.934   0.652   7.792 -1.8099  0.4480 -1.8342
   98SAPS  C214 9806   5.131   0.551   7.816 -0.6629 -0.1297  0.4656
   98SAPS  H14R 9807   5.206   0.500   7.755 -0.1048 -0.2655  1.2520
   98SAPS  C215 9808   5.144   0.563   7.948 -0.5048 -0.7642 -0.4041
   98SAPS  H15R 9809   5.237   0.527   7.994 -0.4871 -0.7508 -0.4289
   98SAPS  C216 9810   5.051   0.630   8.039 -0.7172 -0.2431 -0.4431
   98SAPS  H16R 9811   4.993   0.559   8.102 -4.2232  2.4560 -0.2983
   98SAPS  H16S 9812   4.974   0.691   7.987 -1.6271 -0.5702  0.4807
   98SAPS  C217 9813   5.122   0.729   8.133 -0.0419  0.4995 -0.3597
   98SAPS  H17R 9814   5.047   0.772   8.203  0.5317  0.2930  0.4016
   98SAPS  H17S 9815   5.180   0.810   8.084  0.8183  0.1067 -0.0051
   98SAPS  C218 9816   5.220   0.666   8.243  0.2048 -0.6500 -0.3369
   98SAPS  H18R 9817   5.321   0.661   8.197 -0.2430 -3.4901 -1.2024
   98SAPS  H18S 9818   5.189   0.562   8.268  2.6623 -0.9409  1.9202
   98SAPS  C219 9819   5.211   0.748   8.374  0.2770  0.1793  0.0780
   98SAPS  H19R 9820   5.111   0.770   8.419  0.0679  1.1255 -0.8175
   98SAPS  H19S 9821   5.239   0.854   8.356 -1.7113  0.9377  1.0580
   98SAPS  C220 9822   5.307   0.704   8.477  0.5864  0.4856 -0.7494
   98SAPS  H20R 9823   5.278   0.609   8.528  0.5007  0.5091 -0.7552
   98SAPS  H20S 9824   5.315   0.790   8.548  1.9305  1.9471 -2.6048
   98SAPS  H20T 9825   5.412   0.691   8.445  0.3424 -2.3196 -0.6715
   98SAPS   C33 9826   5.479   0.012   7.070 -0.6619  0.0828  0.3296
   98SAPS   H3X 9827   5.395  -0.061   7.078 -0.0286 -0.6950  0.0118
   98SAPS   H3Y 9828   5.447   0.103   7.014 -0.1680 -1.4970 -2.7422
   98SAPS   C34 9829   5.517   0.079   7.209 -0.0480  0.6368  0.5481
   98SAPS   H4X 9830   5.582   0.167   7.189  0.0429  0.5141  0.2978
   98SAPS   H4Y 9831   5.583   0.022   7.278  1.0282  0.6948 -0.4055
   98SAPS   C35 9832   5.384   0.097   7.277 -0.0645 -0.1846 -0.1276
   98SAPS   H5X 9833   5.308   0.018   7.261 -1.3872  1.1402 -0.6040
   98SAPS   H5Y 9834   5.328   0.181   7.230 -1.5530 -0.2467  1.4344
   98SAPS   C36 9835   5.392   0.103   7.432 -0.5437 -0.2852 -0.0735
   98SAPS   H6X 9836   5.484   0.163   7.449 -0.3899 -0.4229 -0.4088
   98SAPS   H6Y 9837   5.418  -0.002   7.459 -2.3829 -0.9046 -0.5516
   98SAPS   C37 9838   5.275   0.161   7.509 -0.0608  0.1021 -0.2090
   98SAPS   H7X 9839   5.188   0.091   7.499  0.3021 -0.0425 -3.8054
   98SAPS   H7Y 9840   5.238   0.253   7.459  0.3662 -0.1196 -0.9588
   98SAPS   C38 9841   5.290   0.175   7.655 -0.4089  0.3554 -0.4547
   98SAPS   H8X 9842   5.203   0.240   7.680 -0.8287 -1.1095  2.3287
   98SAPS   H8Y 9843   5.382   0.234   7.678  0.4552 -0.7787 -0.9465
   98SAPS   C39 9844   5.287   0.041   7.736  0.6326 -0.3115  0.3782
   98SAPS   H9X 9845   5.377  -0.013   7.700 -0.7736 -1.5218 -1.4926
   98SAPS   H9Y 9846   5.194  -0.007   7.699  0.6158  0.7139 -0.9709
   98SAPS  C310 9847   5.283   0.054   7.888  0.2919  0.3527  0.7283
   98SAPS  H10X 9848   5.373   0.112   7.915  1.0088 -1.2929  2.0605
   98SAPS  H10Y 9849   5.307  -0.043   7.936  0.8542  0.5577  0.8696
   98SAPS  C311 9850   5.139   0.099   7.940  0.0161  0.4519  0.8476
   98SAPS  H11X 9851   5.060   0.036   7.893 -0.2349  1.8743 -0.7509
   98SAPS  H11Y 9852   5.118   0.200   7.899 -0.3537 -0.1155 -0.3880
   98SAPS  C312 9853   5.134   0.099   8.099  0.3110 -0.0585  0.0060
   98SAPS  H12X 9854   5.180   0.005   8.136  0.8269  0.2040  0.0543
   98SAPS  H12Y 9855   5.026   0.092   8.123  0.3841  0.4077  0.4758
   98SAPS  C313 9856   5.206   0.222   8.154 -0.5183 -0.0425  0.4872
   98SAPS  H13X 9857   5.163   0.317   8.116  0.4423 -0.2107 -1.1285
   98SAPS  H13Y 9858   5.309   0.221   8.111  0.2240  1.0315  2.1477
   98SAPS  C314 9859   5.235   0.220   8.302  0.9187  0.4577 -0.3316
   98SAPS  H14X 9860   5.335   0.262   8.325  0.3034  1.1480  1.2597
   98SAPS  H14Y 9861   5.246   0.116   8.341 -1.3072 -0.1572 -1.1758
   98SAPS  C315 9862   5.120   0.279   8.393 -0.2539 -0.3865 -0.4863
   98SAPS  H15X 9863   5.028   0.252   8.336 -0.7901  0.6287 -0.1257
   98SAPS  H15Y 9864   5.137   0.388   8.408  1.9305 -0.9397  1.6407
   98SAPS  C316 9865   5.117   0.215   8.534  0.7742 -0.5291 -0.3329
   98SAPS  H16X 9866   5.206   0.233   8.598  1.3278 -2.3931 -0.5302
   98SAPS  H16Y 9867   5.103   0.105   8.525 -3.0881 -0.1379 -0.6478
   98SAPS  C317 9868   5.001   0.267   8.620  0.0995 -0.5135 -0.9840
   98SAPS  H17X 9869   4.909   0.264   8.558 -0.1659  2.7669 -0.9403
   98SAPS  H17Y 9870   5.009   0.369   8.662  1.9221 -1.5283  1.3389
   98SAPS  C318 9871   4.976   0.175   8.746  0.0761 -0.4743  0.5993
   98SAPS  H18X 9872   4.965   0.069   8.715 -3.2171 -0.8062  2.4926
   98SAPS  H18Y 9873   4.882   0.203   8.797  0.1330  0.5242  0.1850
   98SAPS  H18Z 9874   5.066   0.182   8.811 -0.2007 -1.3881  1.0871
   99SAPS     N 9875   2.477   4.671   6.349 -0.2150  0.2498  0.5645
   99SAPS   HN1 9876   2.558   4.701   6.408  0.0518 -0.2974  0.4831
   99SAPS   HN2 9877   2.418   4.634   6.426  0.7586  0.4191  1.4252
   99SAPS   HN3 9878   2.513   4.599   6.284 -2.1798  2.4080 -3.2667
   99SAPS   C12 9879   2.418   4.782   6.276  0.3390 -0.0086 -0.0328
   99SAPS  H12A 9880   2.492   4.809   6.201  1.6021 -2.0608  0.4074
   99SAPS   C13 9881   2.280   4.753   6.212 -0.0672 -0.0551 -0.4080
   99SAPS  O13A 9882   2.224   4.643   6.234 -0.2259 -0.0051 -0.1546
   99SAPS  O13B 9883   2.221   4.844   6.145 -0.4274 -0.0091 -0.1240
   99SAPS   C11 9884   2.399   4.895   6.382 -0.8861  0.1581 -0.3641
   99SAPS  H11A 9885   2.326   4.857   6.457 -2.0955 -0.6151 -1.8652
   99SAPS  H11B 9886   2.353   4.985   6.337 -1.9383  1.3430  2.7694
   99SAPS     P 9887   2.609   5.034   6.388 -0.2706 -0.5619  0.2343
   99SAPS   O13 9888   2.654   4.976   6.258 -0.4807  0.1805 -0.7422
   99SAPS   O14 9889   2.530   5.158   6.379  0.1929 -0.4633  0.0266
   99SAPS   O12 9890   2.517   4.916   6.453  0.0682  0.2601  0.5277
   99SAPS   O11 9891   2.728   5.053   6.484 -0.1310 -1.0770  0.3042
   99SAPS    C1 9892   2.769   4.955   6.571  0.1691 -0.2544  0.3951
   99SAPS    HA 9893   2.727   4.856   6.543 -0.3154 -0.1290  0.6716
   99SAPS    HB 9894   2.879   4.947   6.555  0.3343  1.0113  0.7509
   99SAPS    C2 9895   2.749   4.985   6.716 -0.3560  0.5530 -0.2715
   99SAPS    HS 9896   2.641   5.007   6.731  0.6340  5.2727  1.9912
   99SAPS   O21 9897   2.823   5.101   6.756  0.2065 -0.2447  0.4617
   99SAPS   C21 9898   2.764   5.218   6.740 -0.5928  0.2037 -0.0467
   99SAPS   O22 9899   2.652   5.244   6.709  0.2900  0.3911  0.5173
   99SAPS   C22 9900   2.864   5.316   6.774 -0.2858 -0.7204  0.3059
   99SAPS   H2R 9901   2.950   5.273   6.829 -0.0968 -0.0840  0.5218
   99SAPS   H2S 9902   2.907   5.349   6.677 -0.0966  1.2064  0.9859
   99SAPS    C3 9903   2.793   4.871   6.811  0.3674 -0.5266  0.3231
   99SAPS    HX 9904   2.891   4.822   6.793 -0.1280 -1.5419  0.2666
   99SAPS    HY 9905   2.716   4.792   6.797 -0.4672  0.3482 -0.1183
   99SAPS   O31 9906   2.780   4.910   6.950  0.2316 -0.4559 -0.0746
   99SAPS   C31 9907   2.887   4.964   7.007 -0.0631 -0.4400  0.7492
   99SAPS   O32 9908   2.996   4.974   6.949  0.1390  0.6260 -0.1128
   99SAPS   C32 9909   2.860   5.023   7.149  0.2932 -0.1355 -0.2773
   99SAPS   H2X 9910   2.921   4.974   7.228  0.9258 -1.8131 -1.7331
   99SAPS   H2Y 9911   2.751   5.006   7.163  0.3680 -0.5308 -0.1505
   99SAPS   C23 9912   2.804   5.439   6.849 -0.0115 -0.1252  0.0009
   99SAPS   H3R 9913   2.737   5.401   6.929 -0.7334  1.7414  0.3201
   99SAPS   H3S 9914   2.744   5.508   6.787  1.2466  3.0801  2.0659
   99SAPS   C24 9915   2.912   5.520   6.936 -0.3442 -0.0877 -0.4099
   99SAPS   H4R 9916   2.979   5.448   6.989  0.5014  1.1712  0.2782
   99SAPS   H4S 9917   2.875   5.579   7.022  1.5684  2.0565 -0.9708
   99SAPS   C25 9918   2.996   5.604   6.844  1.2657 -0.3478  0.5600
   99SAPS   H5R 9919   2.957   5.595   6.742 -0.7686  0.9297  1.1771
   99SAPS   C26 9920   3.103   5.673   6.881  0.0774  0.2153  0.4331
   99SAPS   H6R 9921   3.148   5.741   6.807 -1.3806  0.5422 -0.1944
   99SAPS   C27 9922   3.152   5.677   7.023 -0.5089 -0.3465 -0.0132
   99SAPS   H7R 9923   3.233   5.609   7.058  0.8969  1.3639  0.1848
   99SAPS   H7S 9924   3.068   5.669   7.096 -0.4201  0.6943  0.2215
   99SAPS   C28 9925   3.204   5.819   7.046  0.0243 -0.7822  0.2073
   99SAPS   H8R 9926   3.139   5.897   7.004 -1.0539 -1.0595  1.3165
   99SAPS   C29 9927   3.328   5.849   7.076  0.0461 -0.3008 -0.5852
   99SAPS   H9R 9928   3.344   5.955   7.103 -2.7006  0.1963 -0.6198
   99SAPS  C210 9929   3.443   5.756   7.119 -0.3511  0.3163 -0.0641
   99SAPS  H10R 9930   3.484   5.713   7.025  0.1928  0.4882  0.0950
   99SAPS  H10S 9931   3.399   5.663   7.162 -0.5074  0.5960  0.3825
   99SAPS  C211 9932   3.546   5.818   7.208 -0.2321 -0.2368 -0.2383
   99SAPS  H11R 9933   3.626   5.864   7.148 -1.3795  0.8952 -0.9398
   99SAPS  C212 9934   3.547   5.824   7.341  0.1643 -0.3082 -0.6553
   99SAPS  H12R 9935   3.635   5.873   7.387 -0.3303  0.6511 -0.7087
   99SAPS  C213 9936   3.446   5.765   7.439 -0.0821  0.0652  0.5383
   99SAPS  H13R 9937   3.492   5.683   7.499 -2.4284 -0.4604  1.7406
   99SAPS  H13S 9938   3.369   5.707   7.383 -1.0432  0.8495  1.0432
   99SAPS  C214 9939   3.368   5.858   7.521 -0.1300 -0.0761  0.1196
   99SAPS  H14R 9940   3.311   5.929   7.459 -0.3750  0.1430  0.5845
   99SAPS  C215 9941   3.351   5.865   7.657 -0.0379  0.0902 -0.3687
   99SAPS  H15R 9942   3.299   5.951   7.702 -0.0695  0.8086 -1.7335
   99SAPS  C216 9943   3.413   5.767   7.757  0.3187 -0.1684  0.6359
   99SAPS  H16R 9944   3.396   5.806   7.859 -0.4064 -1.2617  0.9589
   99SAPS  H16S 9945   3.524   5.760   7.754  0.4618  0.3417  2.9427
   99SAPS  C217 9946   3.342   5.628   7.764 -0.8436  0.1648 -0.5902
   99SAPS  H17R 9947   3.386   5.568   7.847  2.5855  2.4309 -0.5708
   99SAPS  H17S 9948   3.354   5.562   7.675  1.7833 -0.3330  0.0377
   99SAPS  C218 9949   3.193   5.638   7.783  0.6096 -0.2717 -0.1719
   99SAPS  H18R 9950   3.131   5.664   7.695 -0.5160 -0.1106  0.6525
   99SAPS  H18S 9951   3.174   5.731   7.841 -1.9385 -0.3326 -0.8224
   99SAPS  C219 9952   3.124   5.528   7.863 -0.2743 -0.5608  0.0423
   99SAPS  H19R 9953   3.199   5.499   7.940  1.3692  1.8484 -0.5346
   99SAPS  H19S 9954   3.106   5.439   7.798  1.8068 -0.7132 -0.4117
   99SAPS  C220 9955   2.995   5.573   7.923  0.0986  0.0054 -0.2076
   99SAPS  H20R 9956   3.007   5.663   7.986  1.6716 -0.4398  0.1738
   99SAPS  H20S 9957   2.962   5.491   7.991 -1.1713 -0.6598 -1.5857
   99SAPS  H20T 9958   2.915   5.594   7.849  1.6414  0.1837 -1.8823
   99SAPS   C33 9959   2.883   5.175   7.149 -0.1376 -1.2068 -0.2062
   99SAPS   H3X 9960   2.840   5.218   7.057  0.3888 -0.2834 -0.0308
   99SAPS   H3Y 9961   2.992   5.192   7.158 -0.0654 -1.0089 -1.4041
   99SAPS   C34 9962   2.828   5.238   7.283 -0.3147 -0.6615 -0.0962
   99SAPS   H4X 9963   2.717   5.242   7.291 -0.1673  2.0620  2.2040
   99SAPS   H4Y 9964   2.865   5.342   7.273  0.2783 -0.9283 -0.7007
   99SAPS   C35 9965   2.895   5.175   7.406  0.6252  0.1625 -0.2528
   99SAPS   H5X 9966   3.002   5.183   7.375  0.1565 -0.0191 -2.0187
   99SAPS   H5Y 9967   2.862   5.069   7.405 -0.5646  0.5169 -0.2595
   99SAPS   C36 9968   2.859   5.235   7.536  0.7280 -0.3577 -0.8914
   99SAPS   H6X 9969   2.751   5.251   7.559  0.8757 -0.3348 -0.2018
   99SAPS   H6Y 9970   2.904   5.335   7.552  1.2768 -0.7685  0.1840
   99SAPS   C37 9971   2.901   5.146   7.662 -0.2527  0.1066 -0.2772
   99SAPS   H7X 9972   3.008   5.119   7.653  0.4435  2.4352  0.4908
   99SAPS   H7Y 9973   2.854   5.045   7.658  0.6090 -0.3440  0.4106
   99SAPS   C38 9974   2.900   5.188   7.818 -0.1807  1.1224  0.0283
   99SAPS   H8X 9975   2.951   5.285   7.832 -0.9688  1.5609 -0.0926
   99SAPS   H8Y 9976   2.952   5.105   7.870 -1.5734 -0.9432 -1.6497
   99SAPS   C39 9977   2.756   5.192   7.875  0.0071 -0.1098  0.2578
   99SAPS   H9X 9978   2.703   5.096   7.860  0.7204 -0.3422 -0.8760
   99SAPS   H9Y 9979   2.701   5.262   7.809 -1.1640 -0.6673  0.6280
   99SAPS  C310 9980   2.743   5.243   8.016 -0.0534 -0.4563  0.0436
   99SAPS  H10X 9981   2.795   5.338   8.039  0.2979 -1.4203  3.9491
   99SAPS  H10Y 9982   2.779   5.164   8.085 -0.7675  1.4474  2.7715
   99SAPS  C311 9983   2.602   5.277   8.063  0.1713 -0.2326  0.0729
   99SAPS  H11X 9984   2.546   5.181   8.067  0.2642 -0.2519  1.7103
   99SAPS  H11Y 9985   2.548   5.344   7.995 -1.3445  0.1939  1.6287
   99SAPS  C312 9986   2.610   5.338   8.210 -0.5834  0.1499  0.0276
   99SAPS  H12X 9987   2.665   5.434   8.217  0.4895 -0.4583  0.2011
   99SAPS  H12Y 9988   2.677   5.267   8.264  0.2702  0.8128 -0.1353
   99SAPS  C313 9989   2.478   5.351   8.276  0.0264 -0.3674 -1.1037
   99SAPS  H13X 9990   2.430   5.252   8.294  0.7195 -0.5821 -0.3578
   99SAPS  H13Y 9991   2.416   5.424   8.221  1.0369  1.6369  0.2958
   99SAPS  C314 9992   2.509   5.408   8.419  0.4791 -0.1820  1.0017
   99SAPS  H14X 9993   2.601   5.358   8.455  0.5889 -0.4863  0.3074
   99SAPS  H14Y 9994   2.425   5.375   8.484 -1.3650 -0.9443 -1.5939
   99SAPS  C315 9995   2.535   5.556   8.437  0.8197 -0.8510  1.0186
   99SAPS  H15X 9996   2.450   5.616   8.397  1.7553 -0.5175 -0.5442
   99SAPS  H15Y 9997   2.624   5.596   8.384 -0.4377  1.7311  0.6505
   99SAPS  C316 9998   2.541   5.603   8.586 -0.1418  0.3812 -0.0520
   99SAPS  H16X 9999   2.643   5.591   8.627  0.6411  0.3386 -1.8856
   99SAPS  H16Y10000   2.467   5.558   8.656  1.2686  0.3386  1.4546
   99SAPS  C31710001   2.512   5.759   8.595  0.0241 -0.4844  0.3427
   99SAPS  H17X10002   2.403   5.769   8.572 -0.2575  0.9114  2.0535
   99SAPS  H17Y10003   2.577   5.821   8.529  0.1613  0.8212  1.6529
   99SAPS  C31810004   2.525   5.811   8.739 -0.4117 -0.1932  0.1034
   99SAPS  H18X10005   2.447   5.766   8.803  0.0943  1.0878  1.7016
   99SAPS  H18Y10006   2.517   5.920   8.760 -1.2627 -0.7926  3.5514
   99SAPS  H18Z10007   2.623   5.773   8.777 -0.7442 -1.0546  0.1262
  100SAPS     N10008   0.476   0.900   6.018 -0.4305 -0.3891 -0.5542
  100SAPS   HN110009   0.547   0.970   5.989  1.8039 -0.3178  4.0997
  100SAPS   HN210010   0.519   0.838   6.090  0.4752  0.7364 -0.0901
  100SAPS   HN310011   0.434   0.846   5.940  1.1656 -2.8349  0.1449
  100SAPS   C1210012   0.368   0.967   6.101 -0.0707  0.1644  1.0059
  100SAPS  H12A10013   0.413   1.005   6.191 -2.3339  3.0543  1.0461
  100SAPS   C1310014   0.292   1.080   6.028 -0.6623  0.9544 -0.1362
  100SAPS  O13A10015   0.323   1.101   5.907 -0.1927 -0.7160 -0.7195
  100SAPS  O13B10016   0.191   1.138   6.076 -0.4400  0.1687 -0.0703
  100SAPS   C1110017   0.258   0.862   6.140  0.2369  0.1308  0.2835
  100SAPS  H11A10018   0.202   0.835   6.048 -0.1019  1.6791  0.0052
  100SAPS  H11B10019   0.180   0.908   6.204 -0.9326  1.5283 -2.0118
  100SAPS     P10020   0.240   0.616   6.229  0.2864 -0.2644  0.1114
  100SAPS   O1310021   0.107   0.625   6.161  0.7043  0.4539 -0.0544
  100SAPS   O1410022   0.323   0.498   6.200  0.5959  0.2150  0.1803
  100SAPS   O1210023   0.321   0.743   6.199  0.6747 -0.2474 -0.4201
  100SAPS   O1110024   0.215   0.635   6.385  0.5073  0.6790  0.0875
  100SAPS    C110025   0.310   0.688   6.477  0.1587 -0.3332 -0.2272
  100SAPS    HA10026   0.317   0.797   6.456 -1.0929 -0.0113  0.9158
  100SAPS    HB10027   0.283   0.682   6.584  1.8376 -3.2020  0.1502
  100SAPS    C210028   0.445   0.617   6.488  0.1209 -0.6329  0.0079
  100SAPS    HS10029   0.475   0.570   6.392  2.6916 -0.9560  0.8771
  100SAPS   O2110030   0.427   0.511   6.581  0.3307 -0.2300 -0.1004
  100SAPS   C2110031   0.520   0.419   6.590 -0.1005  0.2159  0.3339
  100SAPS   O2210032   0.614   0.400   6.515 -0.5709  0.4168  0.4171
  100SAPS   C2210033   0.500   0.345   6.713 -0.0104 -0.9502 -0.3005
  100SAPS   H2R10034   0.390   0.336   6.720 -0.1074  0.4751  0.4307
  100SAPS   H2S10035   0.555   0.250   6.697  0.8166 -1.0098  2.2779
  100SAPS    C310036   0.564   0.709   6.540 -0.4227  0.7692  0.8008
  100SAPS    HX10037   0.571   0.796   6.472  1.2426  0.8492  1.0124
  100SAPS    HY10038   0.652   0.644   6.517 -1.2659 -0.2933  0.4711
  100SAPS   O3110039   0.543   0.734   6.680  0.1551 -0.3334  0.2029
  100SAPS   C3110040   0.556   0.861   6.716  0.4101  0.3919 -0.2013
  100SAPS   O3210041   0.587   0.952   6.640  0.3385 -0.2072  0.5964
  100SAPS   C3210042   0.532   0.868   6.866  0.6374 -0.3228 -0.6353
  100SAPS   H2X10043   0.574   0.968   6.891 -0.4660 -0.1148  0.4899
  100SAPS   H2Y10044   0.590   0.784   6.910  1.4624  1.6865  2.4062
  100SAPS   C2310045   0.566   0.410   6.844  0.1858 -0.3998  1.4887
  100SAPS   H3R10046   0.536   0.516   6.853  3.5425  0.6556  1.3700
  100SAPS   H3S10047   0.673   0.420   6.816  0.0421  1.6156  1.5287
  100SAPS   C2410048   0.532   0.340   6.977  0.4314  0.1294 -0.8028
  100SAPS   H4R10049   0.589   0.245   6.985  0.4554 -0.1899 -3.7246
  100SAPS   H4S10050   0.422   0.336   6.988  0.2407  2.0163 -1.6918
  100SAPS   C2510051   0.590   0.433   7.077  0.8395  0.0503  0.9585
  100SAPS   H5R10052   0.690   0.467   7.046  0.6599 -0.6198 -0.4532
  100SAPS   C2610053   0.537   0.465   7.197 -0.5174 -0.0277  0.3777
  100SAPS   H6R10054   0.592   0.529   7.267  0.7798 -1.8436  1.0865
  100SAPS   C2710055   0.408   0.415   7.255  0.2483  0.1739 -0.0258
  100SAPS   H7R10056   0.438   0.327   7.316  1.6719 -0.3789 -1.4570
  100SAPS   H7S10057   0.349   0.372   7.171 -0.0991  1.0221 -0.2204
  100SAPS   C2810058   0.324   0.515   7.332  0.7946 -0.3053  0.2894
  100SAPS   H8R10059   0.250   0.571   7.274  2.7031  1.1610 -0.8748
  100SAPS   C2910060   0.317   0.520   7.464  0.3711  0.2470 -0.3573
  100SAPS   H9R10061   0.243   0.589   7.506  1.2092  0.5491  0.6844
  100SAPS  C21010062   0.394   0.447   7.570 -0.8475 -0.5103  0.3873
  100SAPS  H10R10063   0.467   0.381   7.519 -2.6605 -1.6486 -0.8496
  100SAPS  H10S10064   0.323   0.379   7.621 -1.4559 -0.5461 -0.4712
  100SAPS  C21110065   0.458   0.533   7.673  0.4109 -0.2174  0.2760
  100SAPS  H11R10066   0.561   0.552   7.639  1.1422 -1.3175  1.7663
  100SAPS  C21210067   0.414   0.555   7.797 -0.4614 -0.5848  0.2444
  100SAPS  H12R10068   0.473   0.617   7.866 -0.1288 -1.1389  0.4567
  100SAPS  C21310069   0.284   0.504   7.852  0.3715  0.2685  0.9589
  100SAPS  H13R10070   0.300   0.408   7.906  1.6635 -0.7151 -1.0713
  100SAPS  H13S10071   0.226   0.488   7.759  0.4966  1.3120  0.6927
  100SAPS  C21410072   0.202   0.599   7.933 -0.1370 -0.2668 -0.0755
  100SAPS  H14R10073   0.170   0.691   7.882 -0.8513  0.7637  2.1030
  100SAPS  C21510074   0.164   0.578   8.058  0.0704  0.7226 -0.0529
  100SAPS  H15R10075   0.103   0.655   8.107  0.8917  1.0405  0.5103
  100SAPS  C21610076   0.196   0.454   8.146  0.9180 -1.0618  0.2931
  100SAPS  H16R10077   0.294   0.413   8.113  0.7384 -1.6551  0.4780
  100SAPS  H16S10078   0.115   0.381   8.123 -0.9873  0.8204  0.6582
  100SAPS  C21710079   0.216   0.488   8.294  0.7942 -0.4087 -0.5552
  100SAPS  H17R10080   0.281   0.578   8.304 -0.5822  0.4827  0.8164
  100SAPS  H17S10081   0.277   0.407   8.341  1.5788  0.4520 -0.0549
  100SAPS  C21810082   0.088   0.503   8.365  0.0243  0.2983  0.7981
  100SAPS  H18R10083   0.026   0.412   8.350 -1.8999  1.8688 -1.6448
  100SAPS  H18S10084   0.029   0.584   8.317 -0.3050 -0.7247 -0.6022
  100SAPS  C21910085   0.109   0.533   8.516  0.4197 -0.0890 -0.2262
  100SAPS  H19R10086   0.148   0.451   8.580 -1.7907  1.0929  2.8732
  100SAPS  H19S10087   0.011   0.558   8.562  1.2757  0.9070  1.1601
  100SAPS  C22010088   0.206   0.647   8.547  0.5169  0.7112 -0.5868
  100SAPS  H20R10089   0.187   0.729   8.475 -0.5493  1.6531  0.7018
  100SAPS  H20S10090   0.312   0.629   8.522  0.7932  0.2525  0.8391
  100SAPS  H20T10091   0.185   0.694   8.646 -0.9894  2.3981 -1.6392
  100SAPS   C3310092   0.380   0.867   6.908 -0.5861 -0.5717  0.0522
  100SAPS   H3X10093   0.318   0.807   6.838 -1.0864 -0.5637  0.4741
  100SAPS   H3Y10094   0.338   0.970   6.916  0.6840 -0.1278  1.3727
  100SAPS   C3410095   0.357   0.819   7.055  0.7353  0.3323 -0.1716
  100SAPS   H4X10096   0.395   0.716   7.072 -1.9918 -0.7841 -0.3872
  100SAPS   H4Y10097   0.249   0.811   7.079  0.2405  2.1187 -1.5788
  100SAPS   C3510098   0.410   0.923   7.156 -0.3796  0.1125 -0.0574
  100SAPS   H5X10099   0.353   1.016   7.174  1.4832  1.2983 -0.0759
  100SAPS   H5Y10100   0.511   0.940   7.112 -0.0509 -2.5777 -0.5348
  100SAPS   C3610101   0.431   0.860   7.299  0.3484  0.3373  0.7335
  100SAPS   H6X10102   0.525   0.901   7.339  1.1632 -2.2742  1.6591
  100SAPS   H6Y10103   0.443   0.750   7.292  0.7202  0.4242 -0.1243
  100SAPS   C3710104   0.324   0.890   7.406  0.1794 -1.0054  0.5094
  100SAPS   H7X10105   0.254   0.805   7.409 -1.6340  0.4412  1.7264
  100SAPS   H7Y10106   0.263   0.977   7.373  2.4593  0.0350 -1.1953
  100SAPS   C3810107   0.385   0.929   7.546 -0.7348 -0.1187  0.5995
  100SAPS   H8X10108   0.441   1.023   7.529 -0.4639 -0.5338 -1.0492
  100SAPS   H8Y10109   0.467   0.854   7.558  2.0390  1.7240 -4.0281
  100SAPS   C3910110   0.297   0.938   7.660 -0.3131  0.2968  0.0041
  100SAPS   H9X10111   0.263   0.834   7.676 -1.1982  0.7615  1.2736
  100SAPS   H9Y10112   0.209   1.001   7.636 -2.1848 -2.7047 -1.6682
  100SAPS  C31010113   0.382   0.985   7.778  0.4533 -0.8059  0.3178
  100SAPS  H10X10114   0.417   1.089   7.759 -2.5948  0.5336  1.4200
  100SAPS  H10Y10115   0.467   0.914   7.788  0.9728 -0.1995  0.2692
  100SAPS  C31110116   0.298   0.980   7.907 -0.2539 -0.5350 -0.1138
  100SAPS  H11X10117   0.278   0.876   7.940  2.7066 -0.7671  1.2429
  100SAPS  H11Y10118   0.200   1.031   7.896 -0.4367 -0.7299  0.6014
  100SAPS  C31210119   0.364   1.043   8.030  0.2179 -0.8870 -0.0894
  100SAPS  H12X10120   0.389   1.151   8.023  2.1581 -1.4129 -3.9373
  100SAPS  H12Y10121   0.468   1.001   8.030  0.7146  0.2997 -0.3887
  100SAPS  C31310122   0.282   1.009   8.159 -0.1603 -0.0553 -0.0141
  100SAPS  H13X10123   0.260   0.901   8.159  0.4619 -0.2071 -1.5328
  100SAPS  H13Y10124   0.179   1.051   8.159  0.2257  0.9304  0.4626
  100SAPS  C31410125   0.369   1.052   8.277  0.5217 -0.6870  0.8050
  100SAPS  H14X10126   0.420   1.148   8.253  2.9741 -2.2308 -0.5581
  100SAPS  H14Y10127   0.446   0.973   8.289  0.9917 -0.3680  0.0001
  100SAPS  C31510128   0.303   1.073   8.415 -0.1705 -0.4508 -0.5977
  100SAPS  H15X10129   0.256   0.977   8.445 -1.1032 -0.7279 -2.7423
  100SAPS  H15Y10130   0.230   1.154   8.393  1.3004  1.2243  0.3985
  100SAPS  C31610131   0.391   1.116   8.536 -0.2598  0.7070 -0.9282
  100SAPS  H16X10132   0.323   1.155   8.614 -1.2845 -2.0467 -0.3603
  100SAPS  H16Y10133   0.456   1.203   8.509 -1.3586  1.6331 -0.6644
  100SAPS  C31710134   0.471   1.006   8.599 -0.1077 -0.0063 -0.3710
  100SAPS  H17X10135   0.544   0.964   8.526 -1.5146 -2.3990 -0.5311
  100SAPS  H17Y10136   0.410   0.921   8.636  3.2044 -2.1854  0.5831
  100SAPS  C31810137   0.561   1.047   8.714  0.5179 -0.2092  0.0949
  100SAPS  H18X10138   0.518   1.124   8.782  0.5088 -0.4922  0.4173
  100SAPS  H18Y10139   0.650   1.093   8.667 -0.2230  0.8033 -0.3600
  100SAPS  H18Z10140   0.607   0.959   8.766 -0.9410 -0.4616  1.0283
  101OSM      N10141   4.704   0.923  11.184  0.2306  0.5551  0.1788
  101OSM    C1510142   4.829   1.001  11.221 -0.4766  0.5163  0.3075
  101OSM   H15A10143   4.897   1.002  11.137 -3.3967  0.3440 -2.2317
  101OSM   H15B10144   4.894   0.958  11.296 -0.9832 -1.6640 -0.4051
  101OSM   H15C10145   4.811   1.102  11.254 -1.5011  0.2456  0.6217
  101OSM    C1410146   4.736   0.782  11.176  1.1542  0.1791  0.0843
  101OSM   H14A10147   4.764   0.753  11.276 -2.0118  1.5842  1.5333
  101OSM   H14B10148   4.813   0.754  11.106 -1.5410 -0.9839 -2.6694
  101OSM   H14C10149   4.649   0.722  11.152  0.9498 -0.2212  1.7383
  101OSM    C1310150   4.603   0.951  11.291 -0.0825  0.0732 -0.3329
  101OSM   H13A10151   4.637   0.917  11.389 -0.4186  1.9640  0.4788
  101OSM   H13B10152   4.513   0.895  11.268 -0.2076 -0.3605  1.1016
  101OSM   H13C10153   4.573   1.054  11.299  0.5636  0.3607 -1.4677
  101OSM    C1210154   4.647   0.981  11.055  0.0343  0.1385 -0.5564
  101OSM   H12A10155   4.623   1.087  11.057  1.3981  0.4680 -0.4446
  101OSM   H12B10156   4.552   0.937  11.028 -1.2609  2.1489  0.4524
  101OSM    C1110157   4.714   0.946  10.920 -0.1001 -1.3311 -1.0092
  101OSM   H11A10158   4.674   1.024  10.853  2.6564  1.3751  0.2554
  101OSM   H11B10159   4.683   0.848  10.878  0.1116 -1.9390  0.2074
  101OSM      P10160   4.952   0.845  10.852 -0.2557  0.3403  0.4005
  101OSM    O1310161   5.089   0.904  10.843  0.2855 -0.4926 -0.2305
  101OSM    O1410162   4.929   0.716  10.919 -0.1108  0.1174 -0.0892
  101OSM    O1110163   4.907   0.826  10.704  0.6981  0.1160 -0.4671
  101OSM    O1210164   4.854   0.959  10.912 -0.3151 -0.7585 -0.4649
  101OSM    C1S10165   4.900   0.936  10.612 -0.1119 -0.1966 -0.4809
  101OSM    H1S10166   4.988   1.003  10.619 -0.3257  0.3386 -2.4191
  101OSM    H1T10167   4.801   0.987  10.614 -0.7121 -1.3505  0.8993
  101OSM     NF10168   4.953   1.010  10.373 -0.5706  0.0601  0.3427
  101OSM    HNF10169   4.896   1.055  10.305  1.1693  0.1007 -1.1925
  101OSM    C2S10170   4.909   0.898  10.464  0.1865  0.2028 -0.7232
  101OSM    H2S10171   4.994   0.827  10.465  0.5197  0.6039  0.7422
  101OSM    C3S10172   4.776   0.826  10.426 -0.8642 -0.3802 -0.3734
  101OSM    H3S10173   4.704   0.910  10.428  0.0440  0.4724  2.8123
  101OSM     O310174   4.732   0.731  10.518 -0.0742 -0.1283 -0.1617
  101OSM    HO310175   4.796   0.747  10.588  0.8319  0.1731 -1.0261
  101OSM    C4S10176   4.793   0.768  10.286 -0.2722  0.2304 -0.2954
  101OSM    H4S10177   4.795   0.837  10.200  0.2473  0.8956  0.2346
  101OSM    C5S10178   4.817   0.643  10.255 -0.3822  0.6417  0.1281
  101OSM    H5S10179   4.816   0.569  10.336 -2.2701  2.6879  2.1483
  101OSM    C6S10180   4.844   0.577  10.117  0.3234  0.3798  0.0369
  101OSM    H6S10181   4.774   0.494  10.094  0.3282 -0.0349  1.4697
  101OSM    H6T10182   4.940   0.525  10.135 -0.5229 -0.7958  1.2987
  101OSM    C7S10183   4.834   0.679  10.004 -0.1514 -0.6438  0.0848
  101OSM    H7S10184   4.885   0.774  10.033 -1.2342  0.0693 -0.2844
  101OSM    H7T10185   4.727   0.707  10.007 -0.0171 -0.1965  2.7428
  101OSM    C8S10186   4.876   0.634   9.864  0.6148  0.2550 -0.0092
  101OSM    H8S10187   4.809   0.552   9.830  0.3764  0.4511 -0.0154
  101OSM    H8T10188   4.983   0.605   9.854  0.0176 -2.3162  0.1773
  101OSM    C9S10189   4.857   0.753   9.759  0.5318  0.0386 -1.2235
  101OSM    H9S10190   4.930   0.835   9.776  1.0513 -0.4730 -0.9260
  101OSM    H9T10191   4.754   0.793   9.769  1.0086  0.7201  2.5119
  101OSM   C10S10192   4.872   0.718   9.616 -0.0580  0.1591 -0.2369
  101OSM   H10S10193   4.823   0.621   9.593 -0.7989 -0.0889  2.1147
  101OSM   H10T10194   4.980   0.690   9.610  0.5245  2.0147  0.8007
  101OSM   C11S10195   4.817   0.830   9.524  0.4075 -1.0804 -0.9254
  101OSM   H11S10196   4.877   0.921   9.540  0.1711 -1.0796  0.0270
  101OSM   H11T10197   4.714   0.839   9.564  0.7316 -2.5761  0.3811
  101OSM   C12S10198   4.809   0.783   9.388 -0.4680 -0.7911  0.6214
  101OSM   H12S10199   4.736   0.853   9.341 -0.2022 -0.8197  0.1677
  101OSM   H12T10200   4.771   0.679   9.377 -3.1159  0.0438  1.1217
  101OSM   C13S10201   4.935   0.792   9.299 -0.5539  0.4571 -0.1746
  101OSM   H13S10202   4.912   0.744   9.201  1.2035 -1.7800  0.4082
  101OSM   H13T10203   5.008   0.721   9.345  0.3728  1.9744  0.7748
  101OSM   C14S10204   5.010   0.925   9.289 -1.0745 -0.2842 -0.2132
  101OSM   H14S10205   5.099   0.905   9.353 -0.9876  0.1625 -0.1889
  101OSM   H14T10206   4.951   1.009   9.332  1.1098  0.6034  1.2320
  101OSM   C15S10207   5.043   0.956   9.139  0.4870  0.3058 -0.1459
  101OSM   H15S10208   5.084   1.060   9.141 -0.5442  0.7172  0.5154
  101OSM   H15T10209   4.946   0.961   9.085  1.5262  1.6036 -1.9986
  101OSM   C16S10210   5.141   0.864   9.066 -0.1801  0.4871  0.0796
  101OSM   H16S10211   5.106   0.760   9.051 -0.0281  0.4298  0.1168
  101OSM   H16T10212   5.245   0.863   9.105  0.8318  1.1985 -2.4565
  101OSM   C17S10213   5.156   0.920   8.930 -0.0082  1.2445  0.3876
  101OSM   H17S10214   5.187   1.026   8.920 -0.5520  1.2661 -1.2982
  101OSM   H17T10215   5.059   0.911   8.878  0.5552 -1.3657 -0.3486
  101OSM   C18S10216   5.247   0.834   8.842 -0.5108  0.3810  0.7933
  101OSM   H18S10217   5.204   0.732   8.831  3.3921 -1.5273  1.6442
  101OSM   H18T10218   5.340   0.822   8.902 -1.1913  1.5114  2.1382
  101OSM   H18U10219   5.289   0.878   8.749  1.2599  2.7489  2.5753
  101OSM    C1F10220   5.078   1.054  10.372 -0.7484  0.0753 -0.0513
  101OSM     OF10221   5.164   1.021  10.460 -0.4564 -0.0456  0.0302
  101OSM    C2F10222   5.120   1.147  10.273 -0.5730  0.0556  0.2337
  101OSM    H2F10223   5.217   1.194  10.298  1.6398 -3.3866 -1.2010
  101OSM    H2G10224   5.046   1.230  10.263 -0.8966 -0.4549 -2.2442
  101OSM    C3F10225   5.141   1.075  10.139  0.5280 -1.1913 -0.1618
  101OSM    H3F10226   5.042   1.048  10.097  0.9711 -1.6946 -0.8972
  101OSM    H3G10227   5.204   0.983  10.137 -0.1173 -1.6287 -0.8365
  101OSM    C4F10228   5.210   1.159  10.026  0.7025 -0.7941  0.4656
  101OSM    H4F10229   5.242   1.080   9.955 -1.2610 -0.0187 -1.3799
  101OSM    H4G10230   5.303   1.204  10.068  0.4221 -1.0698  1.4200
  101OSM    C5F10231   5.122   1.258   9.948 -0.4765  0.4162  0.3057
  101OSM    H5F10232   5.082   1.343  10.007  0.7133  0.5438  0.9534
  101OSM    H5G10233   5.039   1.196   9.907  2.7710 -3.2344 -1.4106
  101OSM    C6F10234   5.201   1.324   9.829 -1.2378  0.1118  0.1386
  101OSM    H6F10235   5.244   1.243   9.767 -0.2355 -1.0399  2.2308
  101OSM    H6G10236   5.292   1.374   9.869 -0.2455 -2.6283  1.5151
  101OSM    C7F10237   5.121   1.415   9.724 -0.2330  0.2714  0.8785
  101OSM    H7F10238   5.065   1.491   9.782  0.8827  0.5945  1.5752
  101OSM    H7G10239   5.054   1.349   9.665  0.4585  0.3326 -0.0064
  101OSM    C8F10240   5.205   1.502   9.625  0.0920 -0.1706 -0.0546
  101OSM    H8F10241   5.293   1.546   9.677 -0.8441 -0.4685  1.8895
  101OSM    H8G10242   5.137   1.581   9.588 -0.2940 -0.0039  0.9710
  101OSM    C9F10243   5.254   1.411   9.513  0.0872  0.4801 -0.4815
  101OSM    H9F10244   5.360   1.381   9.506  0.4882  1.9168 -0.8398
  101OSM   C10F10245   5.173   1.390   9.409 -0.8774  0.2219 -0.3434
  101OSM   H10F10246   5.208   1.329   9.324 -1.7816 -1.9545  0.7589
  101OSM   C11F10247   5.034   1.447   9.382 -0.0925 -0.0537 -0.0338
  101OSM   H11F10248   5.044   1.555   9.359  1.4516 -0.1867 -0.1184
  101OSM   H11G10249   4.976   1.443   9.477  2.5149  1.6457  1.7594
  101OSM   C12F10250   4.959   1.384   9.268  0.3732 -0.1924  1.5011
  101OSM   H12F10251   4.853   1.414   9.280  0.4765  0.6335  0.4066
  101OSM   H12G10252   4.957   1.273   9.261 -1.0349 -0.2745  2.7057
  101OSM   C13F10253   5.005   1.436   9.127  0.0671 -0.6694 -0.0773
  101OSM   H13F10254   5.115   1.427   9.114 -0.1056  0.2647 -2.8758
  101OSM   H13G10255   4.981   1.545   9.132  2.3294 -0.1491  1.4641
  101OSM   C14F10256   4.942   1.367   9.009  0.0444  0.3594 -0.1672
  101OSM   H14F10257   4.833   1.381   9.026  0.0291 -0.2322  0.2229
  101OSM   H14G10258   4.951   1.257   9.019  2.2794  0.3761 -1.3580
  101OSM   C15F10259   4.980   1.416   8.867 -1.0500  0.4325  0.5875
  101OSM   H15F10260   4.956   1.522   8.888  1.0854  1.0058  0.3245
  101OSM   H15G10261   4.907   1.380   8.791 -0.9369 -0.1737  0.7611
  101OSM   C16F10262   5.124   1.380   8.829 -0.0627  1.3359  0.3734
  101OSM   H16F10263   5.134   1.272   8.850 -2.2603  0.8690 -0.6920
  101OSM   H16G10264   5.194   1.427   8.903  0.8989 -0.6854  0.8022
  101OSM   C17F10265   5.163   1.412   8.689 -0.2029 -0.3635  0.0869
  101OSM   H17F10266   5.133   1.515   8.660 -0.1569 -1.5608 -5.3437
  101OSM   H17G10267   5.109   1.336   8.628 -2.2291  1.4682 -0.5465
  101OSM   C18F10268   5.309   1.390   8.668 -0.4574 -0.2062  0.3851
  101OSM   H18F10269   5.375   1.427   8.750  1.8462 -2.8359 -0.1402
  101OSM   H18G10270   5.341   1.436   8.572 -0.3911 -0.2429  0.3897
  101OSM   H18H10271   5.334   1.282   8.667 -0.3711 -0.2755  2.7389
  102OSM      N10272   4.528   1.398  10.683 -1.5068  0.1864  0.1575
  102OSM    C1510273   4.410   1.323  10.726  0.0177 -0.2055  0.1754
  102OSM   H15A10274   4.348   1.404  10.762  0.2568  0.2355 -0.3863
  102OSM   H15B10275   4.427   1.254  10.807 -1.5232  1.1338  1.7195
  102OSM   H15C10276   4.348   1.272  10.653 -0.4537 -1.4226  1.3829
  102OSM    C1410277   4.572   1.465  10.807  0.3321  0.0491 -0.0456
  102OSM   H14A10278   4.590   1.405  10.895  3.1377  0.0498 -0.5477
  102OSM   H14B10279   4.508   1.547  10.835  0.8516 -0.3828  2.6527
  102OSM   H14C10280   4.667   1.512  10.789  0.4234 -0.6640 -1.5446
  102OSM    C1310281   4.634   1.302  10.648  0.2534 -0.3530 -0.1422
  102OSM   H13A10282   4.601   1.241  10.565 -1.5818  0.1363  0.1707
  102OSM   H13B10283   4.650   1.232  10.728  2.5628 -0.3612 -0.5444
  102OSM   H13C10284   4.727   1.346  10.618  0.9932 -0.4051  1.9139
  102OSM    C1210285   4.485   1.496  10.574  0.2812  0.0728  1.0767
  102OSM   H12A10286   4.464   1.431  10.491 -1.4408 -1.6192  2.7173
  102OSM   H12B10287   4.569   1.555  10.540  0.8127 -1.2424  0.0290
  102OSM    C1110288   4.363   1.588  10.595  0.8979 -0.5428 -0.6322
  102OSM   H11A10289   4.270   1.541  10.633 -0.2831  1.5465 -0.8416
  102OSM   H11B10290   4.349   1.639  10.498  4.8880 -0.0582 -1.1236
  102OSM      P10291   4.392   1.844  10.685 -0.3183  0.4961 -0.1074
  102OSM    O1310292   4.252   1.874  10.722 -0.5893  0.1324 -0.0111
  102OSM    O1410293   4.494   1.899  10.779  0.3628 -0.3337  0.0466
  102OSM    O1110294   4.428   1.869  10.532  0.9031 -0.2729 -0.2666
  102OSM    O1210295   4.409   1.687  10.698  0.0563 -0.2058  0.1660
  102OSM    C1S10296   4.556   1.834  10.489  0.2279 -0.5197 -0.2415
  102OSM    H1S10297   4.574   1.728  10.514 -1.1367 -0.5080  0.9510
  102OSM    H1T10298   4.628   1.892  10.550 -0.1819  0.2893 -0.5039
  102OSM     NF10299   4.681   1.776  10.290  0.3648 -0.1216  0.9809
  102OSM    HNF10300   4.743   1.837  10.241 -0.7418  0.6164  0.4425
  102OSM    C2S10301   4.568   1.857  10.336  0.1788 -0.4838 -0.0139
  102OSM    H2S10302   4.477   1.811  10.292 -1.8026  1.7517  1.5148
  102OSM    C3S10303   4.567   2.009  10.292  0.0025 -0.2942 -0.1056
  102OSM    H3S10304   4.654   2.063  10.335  0.5826 -0.5357 -0.9599
  102OSM     O310305   4.442   2.071  10.337 -0.1902  0.2186  0.2570
  102OSM    HO310306   4.406   2.006  10.397 -0.1733  0.5717  0.6582
  102OSM    C4S10307   4.588   2.028  10.145 -0.3302  0.6141  0.5752
  102OSM    H4S10308   4.691   2.047  10.110 -0.4041 -0.7507 -0.5011
  102OSM    C5S10309   4.485   2.003  10.053  0.6648  0.1538 -0.0599
  102OSM    H5S10310   4.389   1.964  10.090  0.9663 -1.1220 -0.5647
  102OSM    C6S10311   4.494   2.005   9.905 -0.0385 -0.1776 -0.4055
  102OSM    H6S10312   4.482   2.109   9.868  0.1867  0.4317  1.1617
  102OSM    H6T10313   4.405   1.956   9.860 -0.4832 -0.2188  0.4953
  102OSM    C7S10314   4.615   1.930   9.852  0.2005 -0.1175  0.2527
  102OSM    H7S10315   4.618   1.822   9.877 -2.9895 -0.0700  1.2763
  102OSM    H7T10316   4.713   1.978   9.873 -0.1305  1.1414 -0.9719
  102OSM    C8S10317   4.605   1.928   9.694 -0.6066 -0.4323  0.4854
  102OSM    H8S10318   4.507   1.888   9.661 -1.0637  0.2232  1.0045
  102OSM    H8T10319   4.687   1.858   9.669 -1.9152 -1.2342 -1.8134
  102OSM    C9S10320   4.626   2.060   9.619  0.6668 -0.5343 -0.3103
  102OSM    H9S10321   4.723   2.106   9.648  0.0354  0.8882 -0.4203
  102OSM    H9T10322   4.543   2.128   9.645  0.5945 -1.0855  1.0269
  102OSM   C10S10323   4.630   2.055   9.466  0.2578 -0.0344 -0.0239
  102OSM   H10S10324   4.571   1.965   9.436  0.3951  0.0290 -0.4859
  102OSM   H10T10325   4.733   2.043   9.428  0.5950  0.4763  0.7208
  102OSM   C11S10326   4.568   2.175   9.407 -0.8480 -0.3135  0.5781
  102OSM   H11S10327   4.624   2.250   9.467 -0.3410 -1.2465  1.3068
  102OSM   H11T10328   4.461   2.177   9.436 -0.4857  2.2819  2.0851
  102OSM   C12S10329   4.592   2.203   9.255  0.2755  0.3782  0.3178
  102OSM   H12S10330   4.564   2.119   9.187  2.4129 -0.5408  0.4974
  102OSM   H12T10331   4.697   2.232   9.234  0.6678 -2.4788 -2.3676
  102OSM   C13S10332   4.517   2.324   9.193 -0.3090 -0.5866 -0.5075
  102OSM   H13S10333   4.514   2.407   9.267 -0.0287  0.0900 -1.2370
  102OSM   H13T10334   4.408   2.302   9.183 -0.2259 -2.1478  1.3233
  102OSM   C14S10335   4.571   2.370   9.062 -1.0293  0.6646 -0.5134
  102OSM   H14S10336   4.553   2.292   8.985  0.2724 -0.0197 -0.1518
  102OSM   H14T10337   4.680   2.375   9.084 -0.5782  4.7915 -2.5610
  102OSM   C15S10338   4.507   2.502   9.012 -0.5171 -0.9012 -0.1053
  102OSM   H15S10339   4.481   2.573   9.094 -2.6855 -0.7020 -0.9185
  102OSM   H15T10340   4.411   2.470   8.968  0.3986 -0.6394 -2.4420
  102OSM   C16S10341   4.590   2.574   8.914 -0.7228  0.2289  0.4165
  102OSM   H16S10342   4.630   2.495   8.846 -0.9672  0.3954  0.0727
  102OSM   H16T10343   4.673   2.631   8.960 -0.3842 -0.1315  0.2516
  102OSM   C17S10344   4.509   2.670   8.830 -0.2947  0.4597  0.0205
  102OSM   H17S10345   4.501   2.773   8.872  0.1816  0.3288  0.4336
  102OSM   H17T10346   4.411   2.627   8.799  0.9113 -0.4663 -2.8804
  102OSM   C18S10347   4.579   2.707   8.689  0.9663  0.8718 -0.1201
  102OSM   H18S10348   4.509   2.781   8.645 -0.1193 -0.0439 -0.0020
  102OSM   H18T10349   4.579   2.625   8.614  0.2453  1.8388 -1.2112
  102OSM   H18U10350   4.681   2.750   8.702  0.9962  1.1414 -1.2089
  102OSM    C1F10351   4.682   1.641  10.296 -0.1028  0.5133 -0.7816
  102OSM     OF10352   4.583   1.571  10.319 -0.6647 -0.0238 -0.0286
  102OSM    C2F10353   4.817   1.581  10.291 -0.0484  0.4716 -0.1933
  102OSM    H2F10354   4.822   1.498  10.364 -0.3874 -0.8983 -1.6631
  102OSM    H2G10355   4.896   1.656  10.312 -0.4871  1.3106 -1.3766
  102OSM    C3F10356   4.837   1.519  10.150 -0.1931 -0.1498  0.2390
  102OSM    H3F10357   4.771   1.432  10.127 -1.3355  0.9647 -0.9026
  102OSM    H3G10358   4.944   1.490  10.154  0.2104  1.2800  0.4036
  102OSM    C4F10359   4.810   1.610  10.024 -0.9918 -0.4143  0.3406
  102OSM    H4F10360   4.888   1.689  10.022 -1.2596 -0.1327 -1.7667
  102OSM    H4G10361   4.717   1.665  10.048  0.1392  0.6292  2.6297
  102OSM    C5F10362   4.798   1.520   9.898  0.0544  0.3344  0.1345
  102OSM    H5F10363   4.712   1.457   9.929 -0.3610  0.0720 -1.4583
  102OSM    H5G10364   4.891   1.464   9.874  1.4019  2.7618 -0.6551
  102OSM    C6F10365   4.751   1.588   9.765  0.7554 -0.2259  0.0677
  102OSM    H6F10366   4.826   1.669   9.748  0.6061  0.5900  2.8127
  102OSM    H6G10367   4.656   1.642   9.785  0.8951 -0.6353  2.0327
  102OSM    C7F10368   4.735   1.491   9.647 -0.1597 -0.3988  1.5414
  102OSM    H7F10369   4.668   1.409   9.677 -0.7509 -0.6707 -0.3784
  102OSM    H7G10370   4.834   1.450   9.617 -0.5790  1.6436 -3.9203
  102OSM    C8F10371   4.688   1.558   9.506  0.0340 -0.0397  0.0552
  102OSM    H8F10372   4.593   1.606   9.537 -1.0037 -1.7601 -0.3103
  102OSM    H8G10373   4.661   1.483   9.428  1.3931 -0.5750  0.0761
  102OSM    C9F10374   4.795   1.651   9.449  0.4066  0.1225 -0.7502
  102OSM    H9F10375   4.895   1.641   9.494 -0.1253 -2.1721  0.0712
  102OSM   C10F10376   4.778   1.719   9.336 -0.4474  0.7193 -0.2028
  102OSM   H10F10377   4.857   1.779   9.288  0.5022  1.5496  2.2388
  102OSM   C11F10378   4.653   1.710   9.261  0.5135 -0.3646 -0.3239
  102OSM   H11F10379   4.565   1.719   9.329 -0.5567  0.9124 -1.8087
  102OSM   H11G10380   4.660   1.615   9.205  0.8301  0.7986 -2.3443
  102OSM   C12F10381   4.641   1.835   9.163  0.2234 -0.8680 -0.2548
  102OSM   H12F10382   4.672   1.923   9.224  1.4392 -3.3012  2.9036
  102OSM   H12G10383   4.537   1.855   9.129  0.2947  1.2915  0.6288
  102OSM   C13F10384   4.721   1.815   9.032 -0.0057 -0.0480 -0.8002
  102OSM   H13F10385   4.703   1.712   8.993 -2.1729 -0.5019  1.1205
  102OSM   H13G10386   4.831   1.822   9.043  0.2651 -2.9445 -0.7680
  102OSM   C14F10387   4.669   1.894   8.911  0.0937  0.3097  0.1021
  102OSM   H14F10388   4.711   1.996   8.904  2.3385 -0.5930 -0.4511
  102OSM   H14G10389   4.558   1.894   8.912  0.0448  0.5107 -1.8657
  102OSM   C15F10390   4.698   1.821   8.780 -0.3884 -0.4955 -0.1899
  102OSM   H15F10391   4.632   1.862   8.700 -1.0913 -0.4560  0.4039
  102OSM   H15G10392   4.680   1.711   8.780 -1.2177 -0.3854 -1.2162
  102OSM   C16F10393   4.845   1.828   8.737 -0.1130 -0.8448 -0.1848
  102OSM   H16F10394   4.914   1.796   8.819 -2.8852 -0.9490  2.2845
  102OSM   H16G10395   4.865   1.935   8.718 -0.8850 -0.8552 -1.1382
  102OSM   C17F10396   4.879   1.753   8.611  0.5243  0.0887  0.8785
  102OSM   H17F10397   4.822   1.799   8.527  0.1239 -0.6216  0.7493
  102OSM   H17G10398   4.843   1.648   8.615  0.8593 -0.1107 -0.5349
  102OSM   C18F10399   5.027   1.758   8.573 -0.4279 -0.0072 -0.2325
  102OSM   H18F10400   5.054   1.865   8.556 -2.6885  0.2687 -2.8315
  102OSM   H18G10401   5.055   1.718   8.473 -2.3671  2.6734 -2.0179
  102OSM   H18H10402   5.080   1.703   8.653  0.0824 -1.1435 -1.3180
  103OSM      N10403   4.915   4.188  11.234 -0.4147  0.5878  0.0814
  103OSM    C1510404   4.907   4.334  11.266  0.3062  0.0960 -0.2222
  103OSM   H15A10405   4.923   4.390  11.175 -0.8634 -0.9261 -1.1115
  103OSM   H15B10406   4.984   4.377  11.328 -1.0137  1.4419  0.5391
  103OSM   H15C10407   4.808   4.365  11.295  0.6572  0.6972  0.3439
  103OSM    C1410408   4.892   4.111  11.364  0.6350  0.2735 -0.2544
  103OSM   H14A10409   4.895   4.006  11.338  1.4073  1.0250 -3.7252
  103OSM   H14B10410   4.795   4.132  11.406  0.5048 -0.2753 -0.2712
  103OSM   H14C10411   4.979   4.137  11.424 -0.2626 -1.3486  1.8928
  103OSM    C1310412   4.798   4.144  11.148 -0.2137 -0.6815  0.7372
  103OSM   H13A10413   4.795   4.041  11.118 -1.3742 -0.3741 -0.3355
  103OSM   H13B10414   4.795   4.205  11.058 -1.0935 -4.2571 -1.8809
  103OSM   H13C10415   4.705   4.170  11.197 -0.7931  1.0459 -1.1294
  103OSM    C1210416   5.041   4.150  11.162  0.1203  0.1847  0.3307
  103OSM   H12A10417   5.121   4.205  11.209 -1.9346  1.6772  2.2943
  103OSM   H12B10418   5.047   4.187  11.061 -0.9444 -2.6929 -0.8887
  103OSM    C1110419   5.083   4.005  11.172  0.0112  0.4792  0.2433
  103OSM   H11A10420   5.005   3.936  11.134  1.6130 -1.3514  0.1393
  103OSM   H11B10421   5.097   3.983  11.280 -0.1684  0.9122  0.3558
  103OSM      P10422   5.275   3.858  11.076  0.4347 -0.5707  0.2064
  103OSM    O1310423   5.415   3.876  11.023  0.1041 -0.1168 -0.9421
  103OSM    O1410424   5.257   3.767  11.196 -0.4725 -0.2946 -0.0860
  103OSM    O1110425   5.180   3.794  10.964  0.0560  0.4033  0.4229
  103OSM    O1210426   5.201   3.993  11.094  0.1900 -0.6247  0.5191
  103OSM    C1S10427   5.230   3.742  10.837  0.4943  0.2687 -0.0132
  103OSM    H1S10428   5.252   3.633  10.837 -0.1477  0.0756 -2.5309
  103OSM    H1T10429   5.322   3.792  10.802  0.1295 -0.0670 -1.5369
  103OSM     NF10430   5.185   3.710  10.603  0.2205  0.5270  0.3818
  103OSM    HNF10431   5.233   3.781  10.552  0.4594  0.7234  0.8698
  103OSM    C2S10432   5.123   3.760  10.721 -0.3952  0.1171 -0.7741
  103OSM    H2S10433   5.038   3.693  10.748  0.2891 -0.7198 -0.6503
  103OSM    C3S10434   5.069   3.919  10.706 -0.0289  0.8389  0.1954
  103OSM    H3S10435   5.153   3.985  10.676  1.1040  0.2432  1.8902
  103OSM     O310436   5.002   3.974  10.824 -0.3240 -0.1611 -0.2874
  103OSM    HO310437   5.010   3.906  10.891  0.3170 -0.9186 -1.1056
  103OSM    C4S10438   4.969   3.922  10.594  0.3075 -0.7823 -0.1061
  103OSM    H4S10439   4.895   3.841  10.599  1.0789 -1.5503 -0.9074
  103OSM    C5S10440   4.952   4.027  10.513  0.2871  0.0437  0.7764
  103OSM    H5S10441   5.027   4.107  10.514 -0.3298  0.6275  0.8891
  103OSM    C6S10442   4.846   4.038  10.413  0.1177  0.4768  0.3172
  103OSM    H6S10443   4.907   4.059  10.323 -0.0642  0.8711  0.2807
  103OSM    H6T10444   4.778   4.118  10.451  1.3601  1.4308  0.6021
  103OSM    C7S10445   4.762   3.916  10.376  0.8297  0.1807 -0.2668
  103OSM    H7S10446   4.696   3.874  10.455 -0.0488 -0.1879 -1.1695
  103OSM    H7T10447   4.824   3.831  10.340  0.0581 -0.2144 -0.6870
  103OSM    C8S10448   4.663   3.953  10.262 -0.2857  0.3755  0.6339
  103OSM    H8S10449   4.624   4.056  10.278 -1.9466  0.0189 -0.8284
  103OSM    H8T10450   4.575   3.886  10.254 -0.8085  1.1886 -0.6758
  103OSM    C9S10451   4.726   3.953  10.121  0.8478  0.1555 -0.1867
  103OSM    H9S10452   4.780   3.857  10.108  0.1920 -0.1506 -0.6806
  103OSM    H9T10453   4.796   4.039  10.110  0.4305  0.9966  2.7466
  103OSM   C10S10454   4.621   3.963  10.008 -0.0150  0.2025  0.3148
  103OSM   H10S10455   4.558   4.054  10.017 -0.8105 -0.0679 -1.8137
  103OSM   H10T10456   4.547   3.880  10.008 -2.6830  2.3929  2.3032
  103OSM   C11S10457   4.698   3.956   9.872  0.6309  0.0044 -0.1830
  103OSM   H11S10458   4.745   3.857   9.857  1.8492  0.4236  0.7117
  103OSM   H11T10459   4.774   4.037   9.869 -0.3732  0.9447 -1.9052
  103OSM   C12S10460   4.604   3.980   9.752  0.0186 -0.0741 -0.3377
  103OSM   H12S10461   4.555   4.079   9.762  0.7394  0.3343 -0.7148
  103OSM   H12T10462   4.521   3.907   9.743 -0.6949  0.7460 -0.5538
  103OSM   C13S10463   4.686   3.998   9.624 -0.0171 -1.0090 -0.7511
  103OSM   H13S10464   4.713   3.896   9.589  0.6626 -1.1669  0.2047
  103OSM   H13T10465   4.781   4.045   9.656 -0.0605 -0.4987 -1.3589
  103OSM   C14S10466   4.616   4.079   9.515  0.1119  0.2595  0.0526
  103OSM   H14S10467   4.593   4.180   9.553  2.7565  0.4109  1.5186
  103OSM   H14T10468   4.515   4.033   9.507  0.0174 -0.3963  3.4516
  103OSM   C15S10469   4.695   4.101   9.386 -0.1961  0.3875 -0.6353
  103OSM   H15S10470   4.792   4.143   9.422  2.1031 -4.2956 -0.5012
  103OSM   H15T10471   4.643   4.170   9.317 -3.1234 -0.9524  0.0913
  103OSM   C16S10472   4.727   3.971   9.313  0.4741 -0.0662 -0.4074
  103OSM   H16S10473   4.640   3.913   9.275  1.1408 -0.4276 -1.4448
  103OSM   H16T10474   4.770   3.900   9.387 -1.3049 -2.3568 -1.4117
  103OSM   C17S10475   4.812   4.001   9.192 -0.3141 -0.2933 -0.8218
  103OSM   H17S10476   4.896   4.066   9.224 -0.1855  0.4256 -2.5257
  103OSM   H17T10477   4.763   4.069   9.119  1.3814  0.3866 -1.3611
  103OSM   C18S10478   4.858   3.880   9.111 -0.3204  0.4465 -1.0038
  103OSM   H18S10479   4.775   3.834   9.054 -3.2489  0.3510  2.9180
  103OSM   H18T10480   4.903   3.804   9.179 -0.6776  0.7202 -0.4529
  103OSM   H18U10481   4.945   3.903   9.046 -0.6512  0.0067 -1.6103
  103OSM    C1F10482   5.204   3.581  10.578 -0.6847  0.4788  0.2435
  103OSM     OF10483   5.145   3.498  10.650 -0.4705 -0.6394 -0.1949
  103OSM    C2F10484   5.291   3.538  10.467  0.4326  0.4353  0.0113
  103OSM    H2F10485   5.374   3.611  10.456  0.1015  0.7352 -0.5324
  103OSM    H2G10486   5.231   3.534  10.373 -0.1399  3.3396  0.1373
  103OSM    C3F10487   5.339   3.389  10.478  0.4450 -0.0031 -0.0515
  103OSM    H3F10488   5.252   3.323  10.500 -0.2332 -0.2213 -2.9583
  103OSM    H3G10489   5.406   3.387  10.567  0.5656  1.3312 -0.0940
  103OSM    C4F10490   5.424   3.334  10.365  0.4228  0.2378  0.2215
  103OSM    H4F10491   5.410   3.225  10.347 -0.0895  0.5436 -1.4827
  103OSM    H4G10492   5.531   3.335  10.393 -0.1717  0.1820  2.7328
  103OSM    C5F10493   5.415   3.408  10.225  0.3129  0.7626 -0.1136
  103OSM    H5F10494   5.449   3.512  10.244 -1.1976  1.4582 -1.1312
  103OSM    H5G10495   5.315   3.429  10.183 -0.4620 -1.2437  0.5732
  103OSM    C6F10496   5.495   3.339  10.115  0.0438  0.0995 -0.8797
  103OSM    H6F10497   5.440   3.245  10.093  1.0514 -0.9974  0.9206
  103OSM    H6G10498   5.591   3.311  10.164  0.2487  1.6805 -0.3309
  103OSM    C7F10499   5.516   3.431   9.989  0.3767  0.3172 -0.5522
  103OSM    H7F10500   5.568   3.525  10.018  0.8886 -0.8803  2.7570
  103OSM    H7G10501   5.419   3.465   9.945  1.7435  3.5900 -1.3602
  103OSM    C8F10502   5.597   3.359   9.870 -0.3507  0.0289 -0.0415
  103OSM    H8F10503   5.664   3.281   9.912  0.0866  0.3145 -0.2011
  103OSM    H8G10504   5.659   3.436   9.819 -0.6792  1.1888  1.2449
  103OSM    C9F10505   5.516   3.285   9.766 -0.9154  0.3107  0.0863
  103OSM    H9F10506   5.446   3.209   9.803 -0.9416  0.9044  1.3080
  103OSM   C10F10507   5.503   3.323   9.636  0.5727 -0.5309 -0.2341
  103OSM   H10F10508   5.441   3.254   9.577  0.7067 -0.5017 -0.4077
  103OSM   C11F10509   5.570   3.441   9.570  0.1233  0.4277 -0.5446
  103OSM   H11F10510   5.644   3.407   9.495 -0.5217  0.3412 -1.1451
  103OSM   H11G10511   5.607   3.513   9.646  0.6940  1.4380 -1.7498
  103OSM   C12F10512   5.473   3.520   9.479  0.2106  0.7079 -0.0275
  103OSM   H12F10513   5.533   3.611   9.459 -0.2553  0.8421 -0.8329
  103OSM   H12G10514   5.384   3.550   9.538 -0.6895 -0.4697 -0.7501
  103OSM   C13F10515   5.440   3.445   9.353  0.3966  0.9184 -0.1933
  103OSM   H13F10516   5.531   3.386   9.326 -0.9174 -1.3005 -0.0813
  103OSM   H13G10517   5.358   3.378   9.388  1.7394 -0.0028  1.3491
  103OSM   C14F10518   5.389   3.530   9.230 -0.0925 -0.2281 -0.2906
  103OSM   H14F10519   5.401   3.464   9.142 -1.0606  1.7958 -2.0484
  103OSM   H14G10520   5.449   3.624   9.223  0.4936 -0.5855 -0.1051
  103OSM   C15F10521   5.244   3.577   9.243  0.1693  0.6324 -0.6999
  103OSM   H15F10522   5.217   3.635   9.152  0.3885  1.8957  0.0242
  103OSM   H15G10523   5.223   3.645   9.328  1.2860  0.8163 -0.5519
  103OSM   C16F10524   5.151   3.451   9.241  0.0830  0.4583  0.5607
  103OSM   H16F10525   5.164   3.384   9.328 -1.4441 -1.6574 -0.7298
  103OSM   H16G10526   5.190   3.388   9.157  1.8720  3.5931 -1.1667
  103OSM   C17F10527   4.999   3.480   9.216  0.5768 -0.8621  0.4225
  103OSM   H17F10528   4.958   3.554   9.288 -0.5725 -1.5492  0.4970
  103OSM   H17G10529   4.942   3.387   9.236 -0.6146 -0.5197 -1.2476
  103OSM   C18F10530   4.975   3.528   9.075  0.2337 -0.5920  0.0978
  103OSM   H18F10531   5.048   3.471   9.013  1.5403  2.4487 -1.3507
  103OSM   H18G10532   4.993   3.637   9.067 -0.7721 -0.2372  1.9735
  103OSM   H18H10533   4.870   3.517   9.041  0.4952  1.1592 -1.3889
  104OSM      N10534   2.670   2.798  10.975 -0.1789 -0.3227  0.2664
  104OSM    C1510535   2.770   2.764  11.079 -0.5995 -0.1089 -0.2380
  104OSM   H15A10536   2.834   2.851  11.085 -0.8310  0.2036 -1.8618
  104OSM   H15B10537   2.818   2.670  11.060 -2.7555 -1.4811  0.6936
  104OSM   H15C10538   2.732   2.766  11.180  1.2353  0.6681  0.4831
  104OSM    C1410539   2.618   2.934  11.000  0.2710 -0.1792 -0.0343
  104OSM   H14A10540   2.692   3.011  10.983  0.0060 -0.0029 -0.3899
  104OSM   H14B10541   2.573   2.947  11.097  2.0011 -0.5904  0.8785
  104OSM   H14C10542   2.541   2.954  10.928  1.8464  1.5899 -1.3532
  104OSM    C1310543   2.746   2.800  10.844  0.2974  0.3185  0.3730
  104OSM   H13A10544   2.798   2.708  10.822 -0.6036 -0.1483  0.1491
  104OSM   H13B10545   2.810   2.887  10.839  1.6640 -0.6714  0.3094
  104OSM   H13C10546   2.674   2.810  10.764 -0.3581 -0.7372  0.8131
  104OSM    C1210547   2.556   2.698  10.981  0.5122  0.5952 -0.5045
  104OSM   H12A10548   2.503   2.710  11.074 -1.1103 -0.3103 -1.2557
  104OSM   H12B10549   2.597   2.598  10.972 -0.2345 -0.1297  2.9626
  104OSM    C1110550   2.454   2.706  10.867  0.3101 -0.4801 -0.2385
  104OSM   H11A10551   2.379   2.626  10.887 -0.0397 -0.0826  0.0532
  104OSM   H11B10552   2.508   2.692  10.771 -1.1021 -1.5352 -0.9185
  104OSM      P10553   2.251   2.875  10.897 -0.0033  0.2942 -0.3511
  104OSM    O1310554   2.157   2.756  10.895  0.5362  0.0876 -0.4556
  104OSM    O1410555   2.268   2.959  11.015 -0.0347 -0.2392 -0.4793
  104OSM    O1110556   2.220   2.975  10.777  0.0698  0.3776  0.4871
  104OSM    O1210557   2.391   2.834  10.855  0.0913 -0.1462 -0.2136
  104OSM    C1S10558   2.319   3.075  10.732  0.0460  0.0803 -0.1595
  104OSM    H1S10559   2.407   3.085  10.798 -1.5711  0.5539  2.0289
  104OSM    H1T10560   2.271   3.175  10.736 -0.1157 -0.0298  0.9450
  104OSM     NF10561   2.449   3.171  10.548 -0.3630 -0.7993  0.3764
  104OSM    HNF10562   2.416   3.254  10.503  1.2970  0.1191  0.7416
  104OSM    C2S10563   2.362   3.061  10.583 -0.1797  0.0539  0.1093
  104OSM    H2S10564   2.415   2.966  10.559  0.0417  0.5494 -1.5128
  104OSM    C3S10565   2.236   3.060  10.493  0.3940  0.2500 -0.7090
  104OSM    H3S10566   2.178   3.150  10.522  2.4518  0.4041  3.7674
  104OSM     O310567   2.150   2.944  10.525 -0.6832 -0.0900 -0.0866
  104OSM    HO310568   2.174   2.931  10.617 -0.6994 -0.0948 -0.0834
  104OSM    C4S10569   2.270   3.063  10.346 -0.4754 -0.5773 -0.2124
  104OSM    H4S10570   2.282   3.166  10.311  2.5765 -0.0511  1.9036
  104OSM    C5S10571   2.289   2.965  10.261  0.0792  0.1009 -0.5177
  104OSM    H5S10572   2.247   2.867  10.289 -0.4301  0.8024  1.3795
  104OSM    C6S10573   2.331   2.982  10.122  0.0567  0.2555 -0.1953
  104OSM    H6S10574   2.434   2.939  10.118 -0.2027 -0.4611  0.6067
  104OSM    H6T10575   2.345   3.088  10.091  1.0147  0.6500  1.4598
  104OSM    C7S10576   2.234   2.921  10.016  0.4976  0.2884 -0.4982
  104OSM    H7S10577   2.136   2.971  10.031 -0.3653 -1.6600  0.8443
  104OSM    H7T10578   2.209   2.813  10.030  0.8385  0.1912 -0.6235
  104OSM    C8S10579   2.280   2.928   9.865 -0.1369  0.2737 -0.1230
  104OSM    H8S10580   2.187   2.904   9.809 -0.0214  0.5064 -0.4121
  104OSM    H8T10581   2.358   2.855   9.835 -1.1971 -0.7653 -0.4346
  104OSM    C9S10582   2.336   3.067   9.825 -0.3917 -0.9574  0.1815
  104OSM    H9S10583   2.416   3.106   9.891 -1.1325  0.1515  0.4539
  104OSM    H9T10584   2.261   3.149   9.824  0.0557 -0.5102  1.5690
  104OSM   C10S10585   2.414   3.067   9.695  0.1966  0.1847  0.5197
  104OSM   H10S10586   2.501   2.999   9.706  1.8454  2.3558  1.7283
  104OSM   H10T10587   2.448   3.170   9.674 -0.3064  0.5496  1.4745
  104OSM   C11S10588   2.324   3.023   9.583  0.1653 -0.0900  0.0465
  104OSM   H11S10589   2.225   3.073   9.594  0.4538  0.8101 -1.3217
  104OSM   H11T10590   2.300   2.917   9.608  0.8142 -0.5275 -1.1529
  104OSM   C12S10591   2.391   3.029   9.447  0.0853  0.1912  0.4612
  104OSM   H12S10592   2.485   2.971   9.456 -0.7411 -1.7488 -2.2752
  104OSM   H12T10593   2.408   3.138   9.435  0.7052  0.2763  1.9194
  104OSM   C13S10594   2.292   2.993   9.344  0.1059  0.0614 -0.0854
  104OSM   H13S10595   2.206   3.062   9.338  0.2243  0.2268  0.1096
  104OSM   H13T10596   2.241   2.898   9.369 -0.4187  0.4208  0.2054
  104OSM   C14S10597   2.362   2.980   9.204  0.3741  0.2159  0.2235
  104OSM   H14S10598   2.276   2.958   9.138 -1.5875  2.7597  1.7096
  104OSM   H14T10599   2.431   2.893   9.199 -0.6106 -0.6011  0.5973
  104OSM   C15S10600   2.419   3.119   9.152 -0.1394  0.6195  0.5698
  104OSM   H15S10601   2.507   3.133   9.218  0.9727 -1.4956 -0.3684
  104OSM   H15T10602   2.344   3.199   9.172  0.9946  2.0597 -0.7315
  104OSM   C16S10603   2.454   3.114   9.001  0.1867 -0.6615  0.9404
  104OSM   H16S10604   2.493   3.014   8.974  0.4668  0.1428 -2.0352
  104OSM   H16T10605   2.525   3.193   8.969 -1.8328  0.6179 -0.6687
  104OSM   C17S10606   2.331   3.148   8.922 -0.2615 -0.2110 -0.1170
  104OSM   H17S10607   2.293   3.252   8.931 -0.6643 -0.4468  1.1454
  104OSM   H17T10608   2.257   3.068   8.947  2.8082 -2.7615  1.4773
  104OSM   C18S10609   2.372   3.131   8.780 -0.4573 -0.0822  0.6689
  104OSM   H18S10610   2.454   3.201   8.751 -0.0265 -1.4454 -1.6473
  104OSM   H18T10611   2.289   3.138   8.708  2.5199  2.3697 -2.9072
  104OSM   H18U10612   2.405   3.026   8.765  1.1706  0.2147  1.8687
  104OSM    C1F10613   2.582   3.163  10.580  0.5580  1.0257 -0.2741
  104OSM     OF10614   2.628   3.049  10.602 -0.1256  0.2274  0.6494
  104OSM    C2F10615   2.665   3.283  10.558 -0.0732  0.6286 -1.0161
  104OSM    H2F10616   2.732   3.287  10.646 -1.9519 -3.0148  0.8223
  104OSM    H2G10617   2.602   3.375  10.560  0.3510  0.9166  1.3880
  104OSM    C3F10618   2.731   3.289  10.420  0.1545 -0.4486 -1.1648
  104OSM    H3F10619   2.787   3.196  10.398  0.7505 -0.0414 -1.4080
  104OSM    H3G10620   2.805   3.372  10.422  1.1094 -1.2867 -0.5167
  104OSM    C4F10621   2.636   3.313  10.305  0.6982  0.4540 -0.9130
  104OSM    H4F10622   2.544   3.368  10.336  1.2750  1.6199 -1.2060
  104OSM    H4G10623   2.592   3.215  10.279 -0.0099  0.3943  0.4037
  104OSM    C5F10624   2.705   3.384  10.185  0.0091 -0.2042 -0.2568
  104OSM    H5F10625   2.796   3.324  10.165 -0.0019 -0.5576  0.7014
  104OSM    H5G10626   2.729   3.486  10.221  0.3603 -0.2319 -0.4034
  104OSM    C6F10627   2.617   3.392  10.058  0.2437 -0.0798  0.6020
  104OSM    H6F10628   2.540   3.466  10.088 -0.2111 -0.7685  1.1534
  104OSM    H6G10629   2.559   3.300  10.039 -1.1400  0.1953  3.0379
  104OSM    C7F10630   2.693   3.419   9.936 -0.0564  0.1797 -0.1533
  104OSM    H7F10631   2.783   3.356   9.921  0.0895  0.0509  1.1544
  104OSM    H7G10632   2.731   3.523   9.949 -0.2799  0.3623 -0.8786
  104OSM    C8F10633   2.610   3.401   9.807  0.3392 -0.6336 -0.2621
  104OSM    H8F10634   2.507   3.438   9.822 -0.5725 -1.1997 -4.1860
  104OSM    H8G10635   2.603   3.292   9.789  2.5710 -1.1950  1.7004
  104OSM    C9F10636   2.663   3.472   9.690  0.2099 -0.2861 -0.5061
  104OSM    H9F10637   2.654   3.582   9.695 -2.4827 -0.2928 -2.8146
  104OSM   C10F10638   2.711   3.412   9.577 -0.2092 -0.1295  0.1256
  104OSM   H10F10639   2.752   3.481   9.503  0.9683 -0.5382  0.3799
  104OSM   C11F10640   2.714   3.262   9.548  0.2150  0.0491  0.3979
  104OSM   H11F10641   2.616   3.215   9.526  1.4509 -1.8034 -1.6076
  104OSM   H11G10642   2.743   3.204   9.639  0.0169 -0.9529 -0.1646
  104OSM   C12F10643   2.826   3.228   9.433  0.4366 -0.2718 -0.2670
  104OSM   H12F10644   2.851   3.123   9.457 -2.0456 -0.7058  0.7423
  104OSM   H12G10645   2.912   3.297   9.446 -0.9854  1.2742  1.7714
  104OSM   C13F10646   2.768   3.232   9.301 -0.2310 -0.2804  0.7604
  104OSM   H13F10647   2.748   3.339   9.281 -0.0225 -0.6017 -1.3401
  104OSM   H13G10648   2.668   3.184   9.309  0.0359 -0.7891  1.2082
  104OSM   C14F10649   2.844   3.161   9.181  0.1108 -0.4514 -0.1426
  104OSM   H14F10650   2.785   3.185   9.090 -0.4955 -1.1510  0.0534
  104OSM   H14G10651   2.836   3.052   9.198  0.3005 -0.6070 -1.0116
  104OSM   C15F10652   2.990   3.197   9.156  0.2932 -0.0296 -0.1514
  104OSM   H15F10653   3.030   3.135   9.073 -0.0900  2.1958 -2.0966
  104OSM   H15G10654   3.049   3.177   9.247 -1.6664 -1.2972  0.9298
  104OSM   C16F10655   3.011   3.344   9.104  0.2264  0.6786  0.0040
  104OSM   H16F10656   2.979   3.429   9.167  1.8907  1.7153 -0.4679
  104OSM   H16G10657   2.964   3.344   9.003 -0.7452 -1.4934  0.3917
  104OSM   C17F10658   3.164   3.377   9.074 -0.1117  0.4721  0.1364
  104OSM   H17F10659   3.198   3.298   9.004 -0.8042  2.4242 -2.5592
  104OSM   H17G10660   3.213   3.357   9.172 -3.6436 -0.7524  1.8123
  104OSM   C18F10661   3.198   3.512   9.006  0.0171 -0.1906 -0.2205
  104OSM   H18F10662   3.306   3.529   8.984 -0.1113  2.5256  0.7844
  104OSM   H18G10663   3.166   3.596   9.072  2.2864  0.6541 -0.1104
  104OSM   H18H10664   3.151   3.517   8.905 -0.9980  0.0046  0.2483
  105OSM      N10665   3.021   1.392  11.033  0.2754  0.3598 -0.9184
  105OSM    C1510666   3.093   1.514  11.069  0.0104  0.0301  0.4908
  105OSM   H15A10667   3.194   1.497  11.036  0.4041 -0.8825  2.0675
  105OSM   H15B10668   3.096   1.539  11.174 -1.4601 -0.1705  0.5972
  105OSM   H15C10669   3.061   1.592  11.002  1.0366 -0.0762 -0.1353
  105OSM    C1410670   3.071   1.343  10.900 -0.3403  0.4734  0.2239
  105OSM   H14A10671   3.022   1.251  10.873 -0.2920  0.5186 -0.0132
  105OSM   H14B10672   3.178   1.329  10.901 -0.3021  0.4978  2.2257
  105OSM   H14C10673   3.050   1.413  10.821 -0.1844  1.0019  0.6427
  105OSM    C1310674   3.057   1.286  11.132  0.1226 -0.7480 -0.3914
  105OSM   H13A10675   3.026   1.314  11.232  0.9969  1.7411 -0.7208
  105OSM   H13B10676   3.165   1.280  11.129  0.1943 -0.8965  1.3561
  105OSM   H13C10677   3.017   1.187  11.121  0.7902 -1.3767  2.2571
  105OSM    C1210678   2.869   1.411  11.027 -0.4851 -0.3704 -0.9579
  105OSM   H12A10679   2.831   1.462  11.114  2.3123  0.2771 -0.0269
  105OSM   H12B10680   2.815   1.318  11.020 -0.3723 -0.4017 -1.4650
  105OSM    C1110681   2.819   1.495  10.911 -0.2930  0.3356 -0.4961
  105OSM   H11A10682   2.708   1.487  10.912 -0.4168  1.2497 -2.3728
  105OSM   H11B10683   2.846   1.445  10.815 -0.1806  0.2745 -0.4319
  105OSM      P10684   2.811   1.747  10.833 -0.0070  0.2570 -0.4258
  105OSM    O1310685   2.663   1.738  10.833  0.1234 -0.2756 -0.9076
  105OSM    O1410686   2.872   1.868  10.891  0.4163  0.3027 -0.1135
  105OSM    O1110687   2.860   1.746  10.682 -0.0871 -0.3685  0.7203
  105OSM    O1210688   2.871   1.629  10.907 -0.2618  0.7338  0.2856
  105OSM    C1S10689   2.992   1.693  10.657  0.0924 -0.0748 -0.0225
  105OSM    H1S10690   3.016   1.599  10.712 -1.6960 -0.7729 -0.3721
  105OSM    H1T10691   3.062   1.773  10.688  0.2724 -1.2577  2.9126
  105OSM     NF10692   3.121   1.579  10.474 -0.2214 -0.2638  0.6721
  105OSM    HNF10693   3.194   1.604  10.411 -1.2600  1.4193  0.0439
  105OSM    C2S10694   3.005   1.662  10.506  0.1156  0.3852 -0.6229
  105OSM    H2S10695   2.921   1.600  10.468 -0.1274  0.4079 -0.1334
  105OSM    C3S10696   2.995   1.796  10.432  0.0719  0.5139 -0.4797
  105OSM    H3S10697   3.088   1.854  10.454  0.4500  0.3468 -1.5401
  105OSM     O310698   2.880   1.874  10.463 -0.4147 -0.0946  0.1793
  105OSM    HO310699   2.859   1.837  10.549  1.2990 -0.8400  0.3231
  105OSM    C4S10700   2.992   1.766  10.289  0.2951 -0.1191  0.4438
  105OSM    H4S10701   2.947   1.670  10.259  1.7736 -0.4348 -0.8360
  105OSM    C5S10702   3.062   1.840  10.205  0.2335 -0.2672  0.7515
  105OSM    H5S10703   3.108   1.930  10.248 -0.8782 -0.4366  2.3843
  105OSM    C6S10704   3.066   1.824  10.052 -0.8064 -0.3278  0.4823
  105OSM    H6S10705   3.172   1.812  10.022 -0.8140 -1.5214  0.8494
  105OSM    H6T10706   3.032   1.920  10.009 -2.4642 -0.5450  1.2273
  105OSM    C7S10707   2.998   1.707   9.983 -0.6165  0.2344  0.4183
  105OSM    H7S10708   2.888   1.705   9.998 -0.5098  1.8906  1.7563
  105OSM    H7T10709   3.037   1.619  10.039 -1.5185 -0.3102  0.2011
  105OSM    C8S10710   3.029   1.704   9.826  0.2289  0.0349  0.3400
  105OSM    H8S10711   3.139   1.719   9.829  0.2334 -0.0160  0.4495
  105OSM    H8T10712   2.981   1.797   9.789  1.2357  0.9959  1.3165
  105OSM    C9S10713   3.000   1.566   9.766 -0.0559 -0.3373  0.2584
  105OSM    H9S10714   3.070   1.503   9.826  1.6004  0.8276 -0.3897
  105OSM    H9T10715   3.033   1.547   9.662  2.1989 -1.7949  1.1427
  105OSM   C10S10716   2.861   1.514   9.780  0.3014 -0.7514  0.0921
  105OSM   H10S10717   2.800   1.534   9.690 -0.9963  0.0230  1.1006
  105OSM   H10T10718   2.799   1.563   9.858 -0.6702 -0.2253 -0.9822
  105OSM   C11S10719   2.851   1.360   9.781  0.4452 -0.0665 -0.3515
  105OSM   H11S10720   2.741   1.344   9.788  0.5995 -0.9184  0.3150
  105OSM   H11T10721   2.901   1.309   9.867 -2.9119 -0.8462  1.3131
  105OSM   C12S10722   2.899   1.284   9.651  0.7875  0.0813 -0.7714
  105OSM   H12S10723   2.966   1.203   9.689  0.1958  0.4242  1.1112
  105OSM   H12T10724   2.970   1.349   9.594  2.2717 -0.7275  0.0839
  105OSM   C13S10725   2.786   1.216   9.575 -0.9514 -0.2950 -0.6919
  105OSM   H13S10726   2.701   1.287   9.570 -1.9318 -1.4533 -0.9668
  105OSM   H13T10727   2.741   1.120   9.607  0.2080 -0.6604 -0.1359
  105OSM   C14S10728   2.831   1.200   9.436 -0.2497  0.2689 -0.9649
  105OSM   H14S10729   2.908   1.277   9.412  0.3777 -0.2080 -0.4944
  105OSM   H14T10730   2.745   1.200   9.365 -0.2042  2.4309 -1.0901
  105OSM   C15S10731   2.914   1.063   9.414  0.9414  0.1044 -0.4429
  105OSM   H15S10732   2.841   0.981   9.400  0.5916  0.2633  0.4156
  105OSM   H15T10733   2.985   1.041   9.497  0.2969 -2.6897 -0.5474
  105OSM   C16S10734   2.989   1.062   9.279 -0.2995 -0.0270 -0.7894
  105OSM   H16S10735   3.057   0.974   9.271 -1.9624 -1.2317 -2.6444
  105OSM   H16T10736   3.057   1.148   9.295  1.7240 -1.7897  0.7202
  105OSM   C17S10737   2.896   1.088   9.160 -0.3234 -0.1167  0.2456
  105OSM   H17S10738   2.833   1.177   9.179 -0.3402 -0.4162  1.7405
  105OSM   H17T10739   2.837   0.998   9.136  0.6518 -0.2268 -1.9020
  105OSM   C18S10740   2.968   1.128   9.031 -0.1739 -0.1280 -0.5663
  105OSM   H18S10741   2.897   1.171   8.956 -0.9530 -0.0929  0.1798
  105OSM   H18T10742   3.017   1.040   8.984 -0.4027 -0.1065 -0.8515
  105OSM   H18U10743   3.037   1.211   9.056 -1.8320  0.9013  0.7994
  105OSM    C1F10744   3.125   1.455  10.523 -0.4732  1.4778  0.2147
  105OSM     OF10745   3.033   1.407  10.593  0.2760  0.3261 -0.0894
  105OSM    C2F10746   3.236   1.376  10.477 -0.0923 -0.3400 -0.2622
  105OSM    H2F10747   3.314   1.368  10.556  0.6718 -1.2495 -1.0684
  105OSM    H2G10748   3.299   1.428  10.401 -2.0456 -0.1146 -1.8047
  105OSM    C3F10749   3.203   1.233  10.432  0.1359  0.0882  0.2890
  105OSM    H3F10750   3.155   1.186  10.520  0.1386 -1.2882 -0.4193
  105OSM    H3G10751   3.299   1.184  10.404 -0.3310 -0.2768 -0.7131
  105OSM    C4F10752   3.108   1.236  10.311  0.7502 -0.8547 -0.4365
  105OSM    H4F10753   3.020   1.295  10.344  1.9111  0.4448  0.4209
  105OSM    H4G10754   3.075   1.130  10.309 -0.5680 -0.4625 -0.7388
  105OSM    C5F10755   3.176   1.285  10.184 -0.1516 -0.6902  0.1068
  105OSM    H5F10756   3.286   1.280  10.199  0.2243  2.5763 -0.7152
  105OSM    H5G10757   3.142   1.386  10.153  0.2160 -1.5729 -3.5309
  105OSM    C6F10758   3.137   1.198  10.055 -0.9767 -0.5107  0.0124
  105OSM    H6F10759   3.176   1.247   9.963  1.9090  1.9678  2.3483
  105OSM    H6G10760   3.032   1.166  10.038 -0.2763 -1.9257 -2.1098
  105OSM    C7F10761   3.210   1.062  10.071 -0.1284  0.0395  0.1817
  105OSM    H7F10762   3.147   0.999  10.137 -3.4233  2.5386 -0.3481
  105OSM    H7G10763   3.313   1.080  10.109 -0.3205  1.3064  0.1227
  105OSM    C8F10764   3.224   0.988   9.938  0.0005 -0.1566 -0.1221
  105OSM    H8F10765   3.272   0.891   9.964  0.9167  0.1444 -0.6544
  105OSM    H8G10766   3.284   1.041   9.861  0.5733 -0.2046  0.2865
  105OSM    C9F10767   3.089   0.962   9.873  0.3029  0.6813 -0.4041
  105OSM    H9F10768   3.002   0.999   9.929 -0.2487  0.0180 -0.7983
  105OSM   C10F10769   3.074   0.875   9.778  0.3614 -0.3063 -0.2982
  105OSM   H10F10770   2.970   0.851   9.752  0.2158 -2.5952  1.9715
  105OSM   C11F10771   3.184   0.790   9.720 -0.2175  0.6250  0.0414
  105OSM   H11F10772   3.184   0.694   9.777  0.9689  1.3344  1.3141
  105OSM   H11G10773   3.286   0.835   9.724  0.1063  0.1765 -2.1555
  105OSM   C12F10774   3.155   0.766   9.568 -0.3046  0.6395 -0.4795
  105OSM   H12F10775   3.243   0.722   9.516 -0.1495 -1.1506  1.1608
  105OSM   H12G10776   3.115   0.858   9.519 -2.7685 -1.4339 -2.6608
  105OSM   C13F10777   3.047   0.661   9.543  0.5127 -0.2266 -0.0485
  105OSM   H13F10778   2.957   0.686   9.603 -0.8722 -1.1566 -1.6631
  105OSM   H13G10779   3.075   0.555   9.562 -2.8304 -1.3969 -1.0476
  105OSM   C14F10780   3.001   0.656   9.401 -0.2740 -0.2391  1.0215
  105OSM   H14F10781   2.981   0.761   9.373 -0.0461 -0.3495  0.4235
  105OSM   H14G10782   2.907   0.598   9.398  0.3228 -1.2148 -0.3520
  105OSM   C15F10783   3.093   0.578   9.308  1.1327  0.3023  0.4550
  105OSM   H15F10784   3.124   0.477   9.344 -1.4581  0.2016  2.7571
  105OSM   H15G10785   3.190   0.632   9.310  0.5432  1.4009  2.3327
  105OSM   C16F10786   3.034   0.560   9.166  0.4705  0.7422  0.3889
  105OSM   H16F10787   2.934   0.511   9.166  0.7515  0.0981 -1.3427
  105OSM   H16G10788   3.100   0.498   9.101  3.0957  3.6660  0.0568
  105OSM   C17F10789   2.999   0.690   9.105  0.2927 -0.4341  0.3195
  105OSM   H17F10790   3.092   0.750   9.118 -0.7650  1.3046  0.1779
  105OSM   H17G10791   2.917   0.748   9.153  2.1301 -0.2749  3.5982
  105OSM   C18F10792   2.962   0.678   8.959 -0.3324  0.2767  0.0569
  105OSM   H18F10793   2.863   0.632   8.940 -0.5341  0.7877 -0.1545
  105OSM   H18G10794   3.036   0.620   8.899 -1.4251 -3.1241  1.7779
  105OSM   H18H10795   2.956   0.781   8.917  2.1198  0.3065 -0.3892
  106OSM      N10796   4.273   2.436  11.109 -0.2441 -0.3262  0.3831
  106OSM    C1510797   4.374   2.438  11.215  0.1060  0.4100 -0.3404
  106OSM   H15A10798   4.358   2.355  11.282  0.9463  1.1503  0.8103
  106OSM   H15B10799   4.370   2.525  11.280  0.2123  1.8738 -2.2017
  106OSM   H15C10800   4.477   2.424  11.187  0.2398 -0.5429  0.5974
  106OSM    C1410801   4.144   2.391  11.162  0.5078  1.1747  0.0839
  106OSM   H14A10802   4.068   2.361  11.092  0.2402 -0.7355  1.1268
  106OSM   H14B10803   4.087   2.464  11.219  0.1717  0.7407  0.3087
  106OSM   H14C10804   4.149   2.301  11.221 -2.2869  0.4004 -0.7181
  106OSM    C1310805   4.253   2.568  11.044  0.1315 -0.0698  0.4833
  106OSM   H13A10806   4.340   2.609  10.996 -0.5921  1.4953  0.4583
  106OSM   H13B10807   4.215   2.647  11.107 -2.0876 -0.3640 -0.3624
  106OSM   H13C10808   4.174   2.566  10.971 -0.1243  0.1572  0.7478
  106OSM    C1210809   4.325   2.329  11.006  0.2901 -0.0513 -0.8442
  106OSM   H12A10810   4.328   2.235  11.058 -1.1582  0.4805  0.2780
  106OSM   H12B10811   4.430   2.352  10.992  0.6655 -0.0043  1.6967
  106OSM    C1110812   4.259   2.321  10.873  0.5642 -0.0161  0.4954
  106OSM   H11A10813   4.307   2.246  10.807  0.4950  1.7518 -1.6813
  106OSM   H11B10814   4.274   2.418  10.822 -0.3223 -1.2588 -2.3059
  106OSM      P10815   4.016   2.374  10.804  0.9044 -0.1436  0.0348
  106OSM    O1310816   3.880   2.315  10.817  0.4731  0.1656  0.3378
  106OSM    O1410817   4.022   2.518  10.833  0.0923 -0.0191  1.1051
  106OSM    O1110818   4.070   2.361  10.653  0.0539 -0.3195  0.0260
  106OSM    O1210819   4.118   2.292  10.885 -0.1277  0.0076 -0.2550
  106OSM    C1S10820   4.098   2.229  10.603  0.4525 -0.6453 -0.0749
  106OSM    H1S10821   4.012   2.160  10.616 -1.8118  2.2842  1.6872
  106OSM    H1T10822   4.188   2.189  10.655  0.9868  1.8657  1.0839
  106OSM     NF10823   4.162   2.114  10.387 -0.4931 -0.3884  0.0588
  106OSM    HNF10824   4.256   2.103  10.353 -0.0251  0.4486  1.0402
  106OSM    C2S10825   4.132   2.238  10.449 -0.1862  0.1026  0.5821
  106OSM    H2S10826   4.037   2.270  10.402 -0.0974 -0.2280  0.1764
  106OSM    C3S10827   4.235   2.351  10.422  0.5564  0.0812 -0.2141
  106OSM    H3S10828   4.332   2.312  10.458  1.4211  0.9965 -1.4829
  106OSM     O310829   4.216   2.475  10.484  0.1994  0.0381  0.1521
  106OSM    HO310830   4.152   2.451  10.552  0.3391 -0.6675  0.0426
  106OSM    C4S10831   4.243   2.379  10.273 -0.6038  0.5289 -0.8500
  106OSM    H4S10832   4.147   2.384  10.220 -0.6489 -1.2388 -0.9919
  106OSM    C5S10833   4.349   2.384  10.193 -0.6766 -1.0214 -0.2252
  106OSM    H5S10834   4.445   2.346  10.231 -0.1144 -0.2739 -0.8762
  106OSM    C6S10835   4.363   2.406  10.045 -0.4020 -0.4932  1.2530
  106OSM    H6S10836   4.436   2.334  10.002 -1.1533  0.2705 -1.5368
  106OSM    H6T10837   4.397   2.510  10.024 -2.1508 -0.2317 -0.5552
  106OSM    C7S10838   4.238   2.384   9.953 -0.8025  0.1072  0.0921
  106OSM    H7S10839   4.164   2.466   9.968 -0.7577  0.0111  0.9071
  106OSM    H7T10840   4.197   2.288   9.992  0.1940  0.4288  2.0589
  106OSM    C8S10841   4.261   2.362   9.805 -0.3294 -0.0723  0.4515
  106OSM    H8S10842   4.172   2.306   9.769 -1.1306 -0.4601  2.8428
  106OSM    H8T10843   4.351   2.298   9.798 -0.8665 -1.1474  2.5793
  106OSM    C9S10844   4.271   2.497   9.731  0.9448 -0.6705 -0.0234
  106OSM    H9S10845   4.365   2.550   9.759 -0.7421  2.7083 -0.1630
  106OSM    H9T10846   4.179   2.559   9.746  0.6761 -1.1591  0.3611
  106OSM   C10S10847   4.295   2.477   9.574  0.1973 -0.4466 -0.0332
  106OSM   H10S10848   4.371   2.396   9.573 -2.1814 -2.8756 -3.1764
  106OSM   H10T10849   4.333   2.574   9.535 -0.1549  1.3688  3.6475
  106OSM   C11S10850   4.163   2.431   9.499 -0.5332 -0.0900  0.0721
  106OSM   H11S10851   4.082   2.503   9.524 -0.9885 -0.4827 -0.2488
  106OSM   H11T10852   4.126   2.333   9.534 -1.2922  0.3591  0.5459
  106OSM   C12S10853   4.166   2.448   9.345 -0.8021  0.1043 -0.2191
  106OSM   H12S10854   4.222   2.359   9.311  1.0049  1.7456 -1.7735
  106OSM   H12T10855   4.228   2.537   9.320 -0.5842 -0.0031 -0.0705
  106OSM   C13S10856   4.028   2.450   9.280  0.5291  0.6913 -0.2825
  106OSM   H13S10857   3.959   2.532   9.310  0.3484  0.4042  0.0929
  106OSM   H13T10858   3.970   2.362   9.313 -0.8218  2.2648  1.7552
  106OSM   C14S10859   4.040   2.458   9.123 -0.1143  0.0734 -1.0334
  106OSM   H14S10860   4.065   2.354   9.092 -3.3713 -0.7141 -1.3960
  106OSM   H14T10861   4.122   2.523   9.085  0.7485 -1.0902 -1.2172
  106OSM   C15S10862   3.905   2.487   9.058  0.2656 -0.5893 -0.3471
  106OSM   H15S10863   3.871   2.587   9.092 -0.8438 -1.9319  2.8634
  106OSM   H15T10864   3.826   2.416   9.090 -2.8014  2.1617 -1.2058
  106OSM   C16S10865   3.904   2.471   8.905  0.3534 -0.0716  0.6353
  106OSM   H16S10866   3.960   2.559   8.865  2.9709 -0.8808  2.2733
  106OSM   H16T10867   3.798   2.468   8.871 -0.7889  1.3321  3.6530
  106OSM   C17S10868   3.972   2.346   8.853 -0.1155  0.1934  0.0690
  106OSM   H17S10869   3.928   2.248   8.881  3.0358 -1.3728 -0.0438
  106OSM   H17T10870   4.076   2.339   8.890  0.3995  0.1454 -1.3084
  106OSM   C18S10871   3.984   2.346   8.699  0.2608 -0.1844  0.6186
  106OSM   H18S10872   3.882   2.332   8.659 -1.1235  0.4105  3.7048
  106OSM   H18T10873   4.063   2.280   8.658 -0.8515  0.1122 -2.2481
  106OSM   H18U10874   4.007   2.451   8.668  0.0216 -0.1164  0.6700
  106OSM    C1F10875   4.068   2.024  10.378  0.3884 -0.0022 -0.1664
  106OSM     OF10876   3.953   2.058  10.400  0.6686 -0.4099  0.8141
  106OSM    C2F10877   4.105   1.884  10.343 -0.1925 -0.9089 -0.4366
  106OSM    H2F10878   4.098   1.819  10.433 -2.8423 -0.6867 -0.3931
  106OSM    H2G10879   4.213   1.891  10.321 -0.5011  1.1320 -1.5111
  106OSM    C3F10880   4.031   1.829  10.226 -0.0489  0.2081  0.9611
  106OSM    H3F10881   3.924   1.826  10.257 -0.5268  0.3826 -0.5763
  106OSM    H3G10882   4.065   1.723  10.218 -1.7423 -0.2627 -1.1176
  106OSM    C4F10883   4.053   1.896  10.092 -0.3360 -0.0319  0.2079
  106OSM    H4F10884   4.162   1.895  10.070 -0.4169  1.3142 -0.3465
  106OSM    H4G10885   4.027   2.004  10.089  0.2514  0.0965 -1.2264
  106OSM    C5F10886   3.970   1.824   9.990 -0.0286  0.6601 -0.1845
  106OSM    H5F10887   3.868   1.802  10.029  0.6538 -0.0760  1.2677
  106OSM    H5G10888   4.012   1.729   9.949 -2.0478 -0.8448  1.0317
  106OSM    C6F10889   3.942   1.906   9.864  0.0997 -0.3998  0.7271
  106OSM    H6F10890   3.876   1.990   9.893  1.0647  1.1425 -1.3583
  106OSM    H6G10891   3.887   1.841   9.792 -0.1994 -0.3995  0.9518
  106OSM    C7F10892   4.065   1.952   9.784  0.0037 -0.1056 -0.1204
  106OSM    H7F10893   4.132   1.871   9.750  1.2487  0.6948  0.3275
  106OSM    H7G10894   4.136   2.009   9.848  1.4365 -1.7817 -0.1523
  106OSM    C8F10895   4.027   2.034   9.666  0.6560  0.2415  0.6839
  106OSM    H8F10896   3.991   2.130   9.710 -0.8099 -0.2048  0.5014
  106OSM    H8G10897   3.949   1.996   9.596 -0.8674  4.1179 -0.0298
  106OSM    C9F10898   4.159   2.068   9.596  0.5471  0.8399 -0.2779
  106OSM    H9F10899   4.250   2.068   9.659  0.8987  2.1602 -0.7422
  106OSM   C10F10900   4.170   2.087   9.463  0.4140 -0.9220  0.2399
  106OSM   H10F10901   4.270   2.110   9.422  0.2601 -1.7096 -0.6150
  106OSM   C11F10902   4.054   2.088   9.366 -0.2133  0.4500 -0.4548
  106OSM   H11F10903   4.084   2.159   9.286  1.4696 -1.6625 -1.8256
  106OSM   H11G10904   3.961   2.128   9.411 -0.3952 -0.4432 -0.0199
  106OSM   C12F10905   4.013   1.958   9.301  0.4648  0.0274  0.0580
  106OSM   H12F10906   3.912   1.971   9.257 -0.3805 -2.0957  1.2050
  106OSM   H12G10907   3.988   1.875   9.370  0.7137 -1.9284 -2.0517
  106OSM   C13F10908   4.106   1.884   9.201  0.2847 -0.3056 -0.3762
  106OSM   H13F10909   4.069   1.786   9.164  2.3562 -1.3389  0.0784
  106OSM   H13G10910   4.198   1.871   9.263 -0.5551 -0.3801  0.8878
  106OSM   C14F10911   4.137   1.971   9.076 -0.0585 -0.2970 -0.1064
  106OSM   H14F10912   4.153   2.071   9.122  0.3499 -0.3772 -0.0645
  106OSM   H14G10913   4.046   1.977   9.014 -0.6785 -2.3053  0.5261
  106OSM   C15F10914   4.262   1.930   9.013 -1.0839 -0.1747 -0.0531
  106OSM   H15F10915   4.257   1.820   8.993  2.5301 -0.4263 -0.2074
  106OSM   H15G10916   4.347   1.941   9.083  0.6882 -2.0662 -1.7776
  106OSM   C16F10917   4.291   2.002   8.877  0.7473 -0.6645 -0.3733
  106OSM   H16F10918   4.193   1.986   8.827  0.1634 -1.4470  0.9818
  106OSM   H16G10919   4.369   1.946   8.821 -0.2956  1.2133 -4.0558
  106OSM   C17F10920   4.317   2.155   8.883 -0.4308  0.3561 -0.5338
  106OSM   H17F10921   4.408   2.169   8.944  0.3466 -2.5529 -0.8831
  106OSM   H17G10922   4.231   2.207   8.931 -0.0392  0.9697 -0.4979
  106OSM   C18F10923   4.325   2.227   8.748  0.0509 -0.1865  0.2714
  106OSM   H18F10924   4.318   2.336   8.767  0.3833 -0.2133  0.5596
  106OSM   H18G10925   4.249   2.193   8.675 -2.6990  1.0105  2.4148
  106OSM   H18H10926   4.425   2.197   8.711 -1.0568 -1.2372 -2.0583
  107OSM      N10927   6.284   4.379  11.290 -0.1634 -0.7805 -0.2635
  107OSM    C1510928   6.149   4.357  11.361  0.3517  0.7288  0.7486
  107OSM   H15A10929   6.143   4.252  11.381  0.5290 -0.3546 -3.7523
  107OSM   H15B10930   6.076   4.380  11.285 -0.1353  0.3051  1.0914
  107OSM   H15C10931   6.149   4.415  11.452 -1.9199 -0.0920  1.3383
  107OSM    C1410932   6.315   4.525  11.285 -0.2404 -0.0172  1.0137
  107OSM   H14A10933   6.236   4.578  11.234  1.0356  1.4170  0.4792
  107OSM   H14B10934   6.410   4.548  11.241 -0.6187  1.0769  0.7559
  107OSM   H14C10935   6.321   4.562  11.386  0.6886  1.3783  0.4714
  107OSM    C1310936   6.393   4.317  11.376 -0.5688 -0.1502  0.9321
  107OSM   H13A10937   6.384   4.356  11.476 -1.2209 -1.7351  1.5275
  107OSM   H13B10938   6.487   4.344  11.330 -0.4948  1.2961  1.8790
  107OSM   H13C10939   6.383   4.210  11.368 -1.0054 -0.0434 -0.1352
  107OSM    C1210940   6.280   4.325  11.141 -0.2777 -0.1496  0.3356
  107OSM   H12A10941   6.187   4.357  11.096 -0.4915  0.5987  1.2773
  107OSM   H12B10942   6.283   4.217  11.150  1.5236 -0.0612  1.2298
  107OSM    C1110943   6.391   4.367  11.044 -0.0900 -0.6030 -0.7666
  107OSM   H11A10944   6.356   4.469  11.018 -1.3371 -1.2617 -1.8112
  107OSM   H11B10945   6.383   4.308  10.951 -0.9309 -3.4382  0.9721
  107OSM      P10946   6.637   4.432  11.079  0.2385 -0.1444 -0.0575
  107OSM    O1310947   6.622   4.549  11.169  0.0439  0.4389  0.2584
  107OSM    O1410948   6.766   4.361  11.098  0.0981  0.0036  0.4269
  107OSM    O1110949   6.625   4.482  10.926 -0.0227  0.4781 -0.2302
  107OSM    O1210950   6.518   4.336  11.107  0.1628 -0.1133 -0.5558
  107OSM    C1S10951   6.657   4.406  10.804 -0.5294 -0.0203 -0.1024
  107OSM    H1S10952   6.689   4.300  10.818 -0.4695 -0.1869 -1.3731
  107OSM    H1T10953   6.743   4.460  10.758  2.0664 -2.3146  1.7360
  107OSM     NF10954   6.597   4.336  10.577  0.2249 -0.7678 -0.4801
  107OSM    HNF10955   6.617   4.402  10.505 -1.5726 -0.1313 -0.4406
  107OSM    C2S10956   6.540   4.400  10.700  0.0683 -0.5340 -0.8392
  107OSM    H2S10957   6.457   4.332  10.728  0.1102 -0.3840 -0.3303
  107OSM    C3S10958   6.472   4.539  10.681 -0.0643  0.0537 -0.1172
  107OSM    H3S10959   6.552   4.605  10.644 -1.5192  1.4406 -0.9016
  107OSM     O310960   6.419   4.592  10.805 -0.2506  0.0187 -0.5339
  107OSM    HO310961   6.470   4.544  10.870 -3.0826 -3.8054 -0.8318
  107OSM    C4S10962   6.366   4.543  10.574  0.1352  0.1045 -0.0724
  107OSM    H4S10963   6.319   4.447  10.547 -0.0703 -0.8157  3.1918
  107OSM    C5S10964   6.325   4.649  10.514  0.4353  0.4092  0.0894
  107OSM    H5S10965   6.366   4.747  10.541  1.7145 -0.3535  0.9745
  107OSM    C6S10966   6.221   4.636  10.403 -0.2262 -0.6029  0.0995
  107OSM    H6S10967   6.166   4.733  10.399 -0.4243 -0.7004  0.4168
  107OSM    H6T10968   6.140   4.560  10.413 -0.3229 -0.7956 -1.6837
  107OSM    C7S10969   6.275   4.601  10.260 -0.3962  0.4429 -0.1948
  107OSM    H7S10970   6.338   4.510  10.267 -1.4704 -0.4695 -1.6399
  107OSM    H7T10971   6.346   4.679  10.226  2.0281 -1.3968  0.3912
  107OSM    C8S10972   6.163   4.585  10.158 -0.2934 -0.1527 -0.1050
  107OSM    H8S10973   6.095   4.671  10.173  1.4354  0.9648  1.9991
  107OSM    H8T10974   6.111   4.488  10.174  1.5831 -1.3075 -0.6210
  107OSM    C9S10975   6.218   4.611  10.013  0.3431  0.5766 -0.2129
  107OSM    H9S10976   6.292   4.529  10.003  0.3416 -0.3742  4.8700
  107OSM    H9T10977   6.278   4.705  10.018  1.7984 -0.2710 -1.0327
  107OSM   C10S10978   6.104   4.618   9.905 -0.2525 -0.0422  0.4189
  107OSM   H10S10979   6.051   4.712   9.929 -1.4692 -1.2049  2.6417
  107OSM   H10T10980   6.027   4.541   9.930 -0.0259 -0.6339 -0.6317
  107OSM   C11S10981   6.132   4.634   9.756 -0.2412  0.0366 -0.2938
  107OSM   H11S10982   6.184   4.729   9.728  0.1701  0.3077  1.2594
  107OSM   H11T10983   6.032   4.648   9.711 -0.2600  1.0548  0.0327
  107OSM   C12S10984   6.224   4.523   9.697 -0.0890  0.6478 -0.1664
  107OSM   H12S10985   6.321   4.521   9.751  0.1137 -0.0072 -0.5476
  107OSM   H12T10986   6.228   4.540   9.588 -0.2916  2.9345  0.1356
  107OSM   C13S10987   6.168   4.383   9.730 -0.3025 -0.0700  0.2097
  107OSM   H13S10988   6.064   4.379   9.689 -0.0551  2.1092 -0.7641
  107OSM   H13T10989   6.167   4.385   9.841 -2.1145 -0.7749  0.2447
  107OSM   C14S10990   6.259   4.264   9.681  0.2039  0.0911 -0.5775
  107OSM   H14S10991   6.225   4.163   9.713  1.1423 -0.2112 -0.5179
  107OSM   H14T10992   6.360   4.283   9.722  0.5066  0.0971 -1.3160
  107OSM   C15S10993   6.267   4.262   9.525 -0.2260  0.5840  0.5640
  107OSM   H15S10994   6.309   4.360   9.494 -1.8543  0.6694 -1.5805
  107OSM   H15T10995   6.164   4.259   9.485  0.4788  1.5296 -1.5018
  107OSM   C16S10996   6.348   4.146   9.466 -0.2679  0.5456 -0.4305
  107OSM   H16S10997   6.306   4.044   9.481  1.0148  0.1999  1.0619
  107OSM   H16T10998   6.450   4.144   9.511 -0.4733 -1.5116  0.0615
  107OSM   C17S10999   6.371   4.165   9.316 -0.1847 -0.4150 -0.7447
  107OSM   H17S11000   6.427   4.261   9.311  0.6265 -0.6557  2.1097
  107OSM   H17T11001   6.271   4.176   9.270 -0.1843  1.3840 -0.4102
  107OSM   C18S11002   6.450   4.050   9.254 -0.1294 -0.1462 -0.2241
  107OSM   H18S11003   6.390   3.957   9.257 -0.3408 -0.0199 -0.4577
  107OSM   H18T11004   6.539   4.039   9.320  1.0189 -0.8688 -1.8196
  107OSM   H18U11005   6.482   4.076   9.151  0.2659 -3.1525 -0.9538
  107OSM    C1F11006   6.645   4.217  10.582 -0.0032 -0.3007 -0.1243
  107OSM     OF11007   6.603   4.135  10.663  0.2589  0.5093 -0.3620
  107OSM    C2F11008   6.751   4.184  10.487 -0.2305  0.8640  0.0537
  107OSM    H2F11009   6.840   4.140  10.536  0.2541  1.2582 -0.4679
  107OSM    H2G11010   6.789   4.271  10.430 -0.9158  0.3509 -1.2134
  107OSM    C3F11011   6.704   4.078  10.385 -0.1200 -0.2076 -0.3550
  107OSM    H3F11012   6.627   4.122  10.318  0.5398  1.3316 -0.1646
  107OSM    H3G11013   6.668   3.990  10.442  1.4853  0.0552  1.1396
  107OSM    C4F11014   6.826   4.022  10.308 -0.1435 -0.3999  0.8960
  107OSM    H4F11015   6.881   3.958  10.381  1.1395  1.2224  1.4075
  107OSM    H4G11016   6.896   4.100  10.273 -3.5614  1.9725 -1.1544
  107OSM    C5F11017   6.777   3.949  10.178 -0.2273  0.0474  0.4972
  107OSM    H5F11018   6.698   4.006  10.126 -0.4838 -0.1945  0.6165
  107OSM    H5G11019   6.712   3.861  10.199 -1.4339 -0.2524 -3.7283
  107OSM    C6F11020   6.898   3.905  10.091 -0.2853 -0.0271  0.3409
  107OSM    H6F11021   6.976   3.867  10.161 -1.4665 -0.6577  1.3467
  107OSM    H6G11022   6.954   3.988  10.042  0.9256 -1.5929 -1.1044
  107OSM    C7F11023   6.872   3.790   9.995 -0.0152  0.4094 -0.5166
  107OSM    H7F11024   6.764   3.796   9.971 -0.3128  1.1617  0.9148
  107OSM    H7G11025   6.868   3.704  10.064  0.4813  2.0672  1.7028
  107OSM    C8F11026   6.965   3.781   9.873 -0.1343  0.1741 -0.1228
  107OSM    H8F11027   7.002   3.883   9.845 -0.1752  0.0430 -0.6690
  107OSM    H8G11028   6.926   3.743   9.776 -0.4143 -0.2935  0.1752
  107OSM    C9F11029   7.076   3.691   9.920  0.3502  0.3267 -0.3852
  107OSM    H9F11030   7.042   3.592   9.955  0.3419  0.4277 -0.1046
  107OSM   C10F11031   7.202   3.710   9.917  0.0318 -0.0722  0.5739
  107OSM   H10F11032   7.261   3.633   9.968 -0.9673 -1.4527 -0.2815
  107OSM   C11F11033   7.286   3.830   9.873 -0.5281 -0.0555  0.3181
  107OSM   H11F11034   7.389   3.829   9.916 -0.0544  2.1312 -0.6352
  107OSM   H11G11035   7.233   3.926   9.891 -2.0939 -0.4093 -2.0400
  107OSM   C12F11036   7.303   3.812   9.716 -0.2588 -0.6603 -0.6825
  107OSM   H12F11037   7.204   3.801   9.667 -0.6790 -3.4800  0.5639
  107OSM   H12G11038   7.351   3.713   9.699  0.7647 -0.5102  1.0804
  107OSM   C13F11039   7.396   3.919   9.661 -0.3794 -0.0451 -0.5851
  107OSM   H13F11040   7.482   3.915   9.731 -0.0136 -1.6849 -1.0917
  107OSM   H13G11041   7.354   4.022   9.663  0.0729  0.1438  1.1899
  107OSM   C14F11042   7.444   3.896   9.517  0.6075  0.3053  0.4323
  107OSM   H14F11043   7.446   3.786   9.501  1.2411  0.3169  0.4210
  107OSM   H14G11044   7.541   3.948   9.500  0.8548  1.5329  4.5636
  107OSM   C15F11045   7.338   3.957   9.423  0.6441 -0.3753  0.4769
  107OSM   H15F11046   7.332   4.068   9.432 -0.4977 -0.3825  0.0223
  107OSM   H15G11047   7.233   3.931   9.450 -0.8152  1.6029 -2.6667
  107OSM   C16F11048   7.356   3.908   9.279  0.1796  0.4817 -0.0218
  107OSM   H16F11049   7.266   3.944   9.225 -0.9356  0.9658  2.0511
  107OSM   H16G11050   7.350   3.798   9.270 -0.2410  0.4256  0.8085
  107OSM   C17F11051   7.484   3.975   9.206  0.2800  0.3341 -0.0549
  107OSM   H17F11052   7.571   3.935   9.263  0.2734 -0.0253 -0.2925
  107OSM   H17G11053   7.484   4.086   9.215 -1.4830  0.7306 -3.4315
  107OSM   C18F11054   7.483   3.947   9.050 -0.5775 -0.9123 -0.0429
  107OSM   H18F11055   7.518   3.846   9.020 -3.6573 -1.9266 -0.5433
  107OSM   H18G11056   7.546   4.024   9.001 -3.1382  2.1305  1.0935
  107OSM   H18H11057   7.379   3.947   9.011 -1.6284  1.5286  2.4694
  108OSM      N11058   0.919   1.069  11.002 -0.4526  0.2814 -0.4918
  108OSM    C1511059   1.026   1.107  11.104 -0.0734  0.1541 -0.4091
  108OSM   H15A11060   0.990   1.154  11.195 -1.6108 -0.0060 -0.9162
  108OSM   H15B11061   1.103   1.174  11.067  0.2489  1.1490  1.8432
  108OSM   H15C11062   1.075   1.017  11.137  0.2727  1.0503  1.7413
  108OSM    C1411063   0.977   0.970  10.905  0.1678 -0.3309  0.6730
  108OSM   H14A11064   0.905   0.920  10.843 -0.0231  0.8402 -0.0719
  108OSM   H14B11065   1.040   0.893  10.948  1.7552  0.9828  0.7998
  108OSM   H14C11066   1.043   1.021  10.836 -0.7342 -1.1657 -0.8713
  108OSM    C1311067   0.812   1.003  11.072 -0.5103  0.3995  0.1069
  108OSM   H13A11068   0.734   0.973  11.004 -2.4528  0.1352  2.3148
  108OSM   H13B11069   0.761   1.076  11.134 -3.2333 -0.1300 -1.3276
  108OSM   H13C11070   0.831   0.909  11.121 -1.6734  0.5022  0.8114
  108OSM    C1211071   0.879   1.194  10.928 -0.0996 -1.1270  0.0037
  108OSM   H12A11072   0.818   1.165  10.844  1.5798 -0.5244 -1.5058
  108OSM   H12B11073   0.965   1.242  10.883 -0.8521 -1.8704 -2.3682
  108OSM    C1111074   0.806   1.298  11.013 -0.7353 -0.1648 -0.6751
  108OSM   H11A11075   0.818   1.392  10.955  1.1026 -0.2590 -0.5043
  108OSM   H11B11076   0.853   1.326  11.110 -0.9996 -1.2401 -0.2174
  108OSM      P11077   0.557   1.283  10.944  0.2412 -0.1950  0.2826
  108OSM    O1311078   0.516   1.150  10.892  0.6969 -0.1007 -0.2470
  108OSM    O1411079   0.452   1.362  11.000  0.4971  0.3402 -0.3642
  108OSM    O1111080   0.635   1.369  10.834  0.4950 -0.4069  0.3070
  108OSM    O1211081   0.673   1.252  11.045  0.2682 -0.2568  0.3325
  108OSM    C1S11082   0.657   1.334  10.701 -0.0484 -0.1232 -0.0027
  108OSM    H1S11083   0.641   1.226  10.681  0.6196 -0.5629  1.6162
  108OSM    H1T11084   0.761   1.356  10.669  0.9353 -1.2280  2.1920
  108OSM     NF11085   0.576   1.357  10.467 -0.0831 -0.9665  0.0697
  108OSM    HNF11086   0.630   1.415  10.407  0.9691 -1.8621  0.1167
  108OSM    C2S11087   0.560   1.413  10.606 -0.1710 -0.5856  0.1637
  108OSM    H2S11088   0.456   1.389  10.636 -0.3733 -0.7765 -0.6646
  108OSM    C3S11089   0.586   1.562  10.607 -0.2152 -0.7082 -0.0276
  108OSM    H3S11090   0.694   1.583  10.588 -0.3844 -0.3167 -0.5840
  108OSM     O311091   0.559   1.623  10.731 -0.3258 -0.3545  0.1468
  108OSM    HO311092   0.574   1.543  10.782 -0.3229 -0.3386  0.1707
  108OSM    C4S11093   0.501   1.631  10.499 -0.0151 -0.0812 -0.4813
  108OSM    H4S11094   0.392   1.615  10.502 -0.1299  0.7586  0.0965
  108OSM    C5S11095   0.559   1.712  10.406  0.3262 -0.2111  0.8406
  108OSM    H5S11096   0.668   1.725  10.400  0.2898 -0.4105 -0.5819
  108OSM    C6S11097   0.486   1.785  10.295 -0.1520 -0.3339 -0.4422
  108OSM    H6S11098   0.502   1.892  10.323 -2.5820 -0.1586  0.5738
  108OSM    H6T11099   0.377   1.768  10.314 -0.2945  1.0040  0.0550
  108OSM    C7S11100   0.531   1.767  10.144  0.6764 -0.3716 -0.5426
  108OSM    H7S11101   0.492   1.666  10.117 -1.4087  0.1011  0.5520
  108OSM    H7T11102   0.642   1.767  10.134  0.8157  2.8632  0.1609
  108OSM    C8S11103   0.489   1.879  10.056 -0.0135 -0.0435 -0.8297
  108OSM    H8S11104   0.531   1.979  10.081 -0.1258  0.1441 -1.3817
  108OSM    H8T11105   0.379   1.881  10.074  0.0564 -0.8579 -0.2754
  108OSM    C9S11106   0.511   1.844   9.914  0.1315 -0.0067  0.7114
  108OSM    H9S11107   0.460   1.915   9.847  1.3986  0.6086  0.3638
  108OSM    H9T11108   0.468   1.744   9.890 -1.7005  0.7908  0.5198
  108OSM   C10S11109   0.657   1.849   9.858  0.1194 -0.5889  0.3919
  108OSM   H10S11110   0.715   1.783   9.927 -1.5791 -2.5510  0.0741
  108OSM   H10T11111   0.699   1.951   9.869 -0.4394 -0.1512 -1.3130
  108OSM   C11S11112   0.680   1.800   9.717  0.5489 -0.0505  1.5490
  108OSM   H11S11113   0.644   1.696   9.705  1.3018 -0.4459  2.5872
  108OSM   H11T11114   0.791   1.807   9.712  0.4901  0.1730 -1.7332
  108OSM   C12S11115   0.642   1.903   9.608  0.3543  0.4276  0.3617
  108OSM   H12S11116   0.679   2.005   9.632 -1.5704  0.6428  2.9169
  108OSM   H12T11117   0.532   1.910   9.618 -0.0835 -2.3085 -1.4961
  108OSM   C13S11118   0.695   1.868   9.469  0.4574  0.2279 -0.4623
  108OSM   H13S11119   0.665   1.762   9.454 -0.8984  0.4131  0.7222
  108OSM   H13T11120   0.804   1.885   9.464  0.4668  0.1479 -0.5281
  108OSM   C14S11121   0.615   1.933   9.348  0.4735 -0.7197  0.0155
  108OSM   H14S11122   0.642   2.041   9.348  2.3789 -1.0540 -3.2747
  108OSM   H14T11123   0.505   1.932   9.363  0.5584 -0.8198  0.6743
  108OSM   C15S11124   0.665   1.861   9.220 -0.2674 -0.6301 -0.5035
  108OSM   H15S11125   0.624   1.757   9.213  0.9393 -1.0344 -2.6629
  108OSM   H15T11126   0.774   1.845   9.229 -0.1273 -0.1006 -1.2164
  108OSM   C16S11127   0.638   1.933   9.079 -0.3446  0.1141 -0.6276
  108OSM   H16S11128   0.716   1.893   9.011  2.0637 -1.9176  3.0060
  108OSM   H16T11129   0.651   2.043   9.088 -1.3675  0.2539 -0.6552
  108OSM   C17S11130   0.488   1.905   9.036 -0.3053 -0.0096  0.5212
  108OSM   H17S11131   0.430   1.939   9.125  0.0849 -1.0257  1.1734
  108OSM   H17T11132   0.464   1.797   9.038  0.2555 -0.3087 -2.9717
  108OSM   C18S11133   0.438   1.963   8.907 -0.0756  0.2608 -1.0905
  108OSM   H18S11134   0.332   1.932   8.890 -0.3733  0.5953  0.0990
  108OSM   H18T11135   0.499   1.933   8.819 -0.6427  0.0336 -1.4181
  108OSM   H18U11136   0.434   2.074   8.906  0.2016  0.2768 -0.5529
  108OSM    C1F11137   0.535   1.237  10.432 -0.1844 -0.4379  0.2364
  108OSM     OF11138   0.449   1.179  10.497  0.3769 -0.2332  0.2985
  108OSM    C2F11139   0.598   1.166  10.316 -0.2219 -0.5121 -0.2456
  108OSM    H2F11140   0.656   1.082  10.359  1.3130  1.5427  1.9977
  108OSM    H2G11141   0.676   1.239  10.284  0.0191 -0.4334  0.5068
  108OSM    C3F11142   0.485   1.122  10.220 -0.5617 -0.5842 -0.2898
  108OSM    H3F11143   0.422   1.213  10.209  0.7824  0.5626  1.0992
  108OSM    H3G11144   0.431   1.038  10.269 -0.7137 -1.8304 -2.4498
  108OSM    C4F11145   0.530   1.061  10.084  0.5877  0.4698 -0.8724
  108OSM    H4F11146   0.500   1.134  10.006  0.3840  0.9601 -0.3358
  108OSM    H4G11147   0.460   0.975  10.070  1.0715  0.0466 -0.7018
  108OSM    C5F11148   0.670   1.004  10.090 -0.6031  0.1129 -0.1600
  108OSM    H5F11149   0.693   0.939  10.177  0.9484  1.6505  0.6360
  108OSM    H5G11150   0.738   1.092  10.099  0.3839 -0.6846  0.3160
  108OSM    C6F11151   0.715   0.931   9.964  0.0980 -0.2609 -0.3151
  108OSM    H6F11152   0.639   0.851   9.947 -0.4720  0.7625 -3.2751
  108OSM    H6G11153   0.814   0.884   9.980  0.2534  0.3737  0.6743
  108OSM    C7F11154   0.740   1.018   9.843 -0.2409 -0.1739 -0.0434
  108OSM    H7F11155   0.837   1.070   9.830  0.6271 -1.7156  0.0571
  108OSM    H7G11156   0.674   1.107   9.853 -0.4772 -0.3467 -0.0384
  108OSM    C8F11157   0.720   0.948   9.710  0.5483 -0.3449 -0.3688
  108OSM    H8F11158   0.714   1.017   9.623 -1.5469  0.0961  0.0785
  108OSM    H8G11159   0.620   0.901   9.704 -0.9818  2.7810 -2.0527
  108OSM    C9F11160   0.833   0.861   9.676  0.7262 -0.3614 -0.3772
  108OSM    H9F11161   0.831   0.759   9.715  0.3634  0.2334  1.2483
  108OSM   C10F11162   0.939   0.897   9.601  0.3487 -0.3145 -0.0994
  108OSM   H10F11163   1.013   0.823   9.566  1.1248  0.7115 -0.6950
  108OSM   C11F11164   0.958   1.036   9.545 -0.4240 -0.7623 -0.3211
  108OSM   H11F11165   1.066   1.060   9.554 -0.8758  1.1513  0.5125
  108OSM   H11G11166   0.912   1.113   9.610 -0.3430 -0.9826 -0.0008
  108OSM   C12F11167   0.937   1.062   9.399  0.1946  0.1177  0.3379
  108OSM   H12F11168   0.830   1.051   9.373 -0.2083  1.9849  1.0263
  108OSM   H12G11169   0.987   0.981   9.342 -0.9141 -0.7593  0.5892
  108OSM   C13F11170   0.980   1.213   9.369  0.5481 -0.4570 -0.6712
  108OSM   H13F11171   1.059   1.248   9.439  1.3776  1.5990 -2.5137
  108OSM   H13G11172   0.897   1.286   9.375  0.4321 -0.6914  0.8572
  108OSM   C14F11173   1.046   1.219   9.229 -0.4173  0.7441 -0.2169
  108OSM   H14F11174   1.132   1.149   9.224  0.5241  1.8802 -0.4285
  108OSM   H14G11175   1.103   1.314   9.216  1.3738 -0.3094 -0.4323
  108OSM   C15F11176   0.954   1.219   9.108 -0.3449  0.2997 -0.0960
  108OSM   H15F11177   0.878   1.301   9.114  0.3594  1.0607 -1.1747
  108OSM   H15G11178   0.901   1.122   9.115  0.9460 -0.2581  3.9144
  108OSM   C16F11179   1.029   1.238   8.974 -0.2410 -0.2902 -0.2830
  108OSM   H16F11180   1.119   1.173   8.975  1.0734  1.4693  0.4409
  108OSM   H16G11181   1.075   1.337   8.956  1.3565 -1.1970 -1.5025
  108OSM   C17F11182   0.951   1.212   8.838 -0.5487 -0.4113  0.6300
  108OSM   H17F11183   0.847   1.248   8.845 -0.1436  0.5863  1.9180
  108OSM   H17G11184   0.960   1.101   8.829 -0.9248 -0.3292 -1.0761
  108OSM   C18F11185   1.020   1.279   8.723  0.0611  0.1320 -0.4780
  108OSM   H18F11186   1.111   1.223   8.693 -0.3262 -0.0315 -1.4080
  108OSM   H18G11187   1.025   1.388   8.743 -2.7576 -0.2460  3.5786
  108OSM   H18H11188   0.965   1.278   8.626  1.9387  1.5680 -1.6054
  109OSM      N11189   1.087   2.879  10.994 -0.0146 -0.1473  0.1841
  109OSM    C1511190   1.187   2.788  11.061  0.1212  0.4720  0.0947
  109OSM   H15A11191   1.287   2.826  11.055  1.0823 -2.0828 -2.9165
  109OSM   H15B11192   1.190   2.693  11.010  1.5303  1.0884 -1.0373
  109OSM   H15C11193   1.163   2.763  11.164 -1.1972 -0.0266 -0.3060
  109OSM    C1411194   0.962   2.806  10.954  0.6819  0.2461  0.2033
  109OSM   H14A11195   0.987   2.725  10.889  0.7622 -2.4831  3.3706
  109OSM   H14B11196   0.888   2.864  10.900 -2.2544 -2.3044  1.2290
  109OSM   H14C11197   0.915   2.757  11.039 -0.4045  0.2392 -0.3786
  109OSM    C1311198   1.051   2.978  11.096  0.5726 -0.4058  0.0940
  109OSM   H13A11199   1.008   2.940  11.187  1.5701  2.0204  1.6654
  109OSM   H13B11200   0.985   3.053  11.056 -0.0931 -0.8974  0.2615
  109OSM   H13C11201   1.134   3.035  11.134  1.5312 -0.6261 -1.5507
  109OSM    C1211202   1.150   2.936  10.873 -0.0003  0.1656 -0.0432
  109OSM   H12A11203   1.075   2.959  10.799  0.2706  0.9814 -0.0776
  109OSM   H12B11204   1.202   2.854  10.826 -0.6588 -1.1527  1.4095
  109OSM    C1111205   1.251   3.050  10.888  0.7695 -0.3305  0.5234
  109OSM   H11A11206   1.190   3.124  10.943 -1.1043 -2.3693  1.3676
  109OSM   H11B11207   1.273   3.099  10.791 -0.6104  0.2011  0.4653
  109OSM      P11208   1.476   2.944  10.917 -0.2887  0.1293 -0.1862
  109OSM    O1311209   1.599   2.993  10.982 -0.1158 -0.0595 -0.6543
  109OSM    O1411210   1.457   2.797  10.930 -0.4035 -0.4512  0.0948
  109OSM    O1111211   1.469   2.989  10.764 -0.3757 -0.1956 -0.2706
  109OSM    O1211212   1.360   3.020  10.978  0.4597  0.3342  0.0891
  109OSM    C1S11213   1.415   2.902  10.664  0.3429 -0.4328 -0.3619
  109OSM    H1S11214   1.311   2.928  10.635  0.1095  0.1608  0.9326
  109OSM    H1T11215   1.418   2.796  10.696 -0.1795 -0.2030  0.4843
  109OSM     NF11216   1.434   2.833  10.426 -0.1896 -0.0878 -0.0127
  109OSM    HNF11217   1.492   2.758  10.394  0.2740  0.2508  0.0286
  109OSM    C2S11218   1.494   2.920  10.531  0.9300  0.2040 -0.2711
  109OSM    H2S11219   1.473   3.024  10.497 -0.1696  0.0758 -0.0011
  109OSM    C3S11220   1.646   2.897  10.547 -0.5684  0.6115  0.8419
  109OSM    H3S11221   1.658   2.788  10.569  2.8950  0.5195 -0.9293
  109OSM     O311222   1.704   2.974  10.652 -0.2967  0.0958  0.1096
  109OSM    HO311223   1.634   3.006  10.708 -0.0285  2.7452 -0.8975
  109OSM    C4S11224   1.717   2.929  10.415 -0.2927 -0.2507  0.3830
  109OSM    H4S11225   1.710   2.857  10.332  2.0955  0.3537 -0.4258
  109OSM    C5S11226   1.800   3.032  10.393  0.2511  0.2747  0.0711
  109OSM    H5S11227   1.795   3.109  10.471  2.7224  0.5960 -0.0264
  109OSM    C6S11228   1.867   3.074  10.263 -0.4496 -0.3300  0.0640
  109OSM    H6S11229   1.957   3.009  10.260  1.1335  1.5913  2.2685
  109OSM    H6T11230   1.893   3.181  10.275 -2.0120 -0.0406  1.1805
  109OSM    C7S11231   1.780   3.083  10.131  0.3707 -0.7136 -0.5408
  109OSM    H7S11232   1.682   3.133  10.143  1.1361  0.9487 -1.0119
  109OSM    H7T11233   1.748   2.978  10.111  0.1684 -0.8300  0.3305
  109OSM    C8S11234   1.856   3.121  10.006 -0.2579  0.3537  0.2974
  109OSM    H8S11235   1.931   3.040   9.996  0.9325  1.5842 -1.1349
  109OSM    H8T11236   1.892   3.223  10.029  0.6501  0.0767  0.1246
  109OSM    C9S11237   1.779   3.132   9.875  0.1790  1.0473 -0.2274
  109OSM    H9S11238   1.707   3.217   9.880 -1.4047 -0.1433 -1.5230
  109OSM    H9T11239   1.722   3.037   9.868  1.1827  0.2250  1.8597
  109OSM   C10S11240   1.867   3.144   9.756  0.0994  0.6154  0.1866
  109OSM   H10S11241   1.935   3.056   9.765 -1.1378 -0.2979  1.0451
  109OSM   H10T11242   1.934   3.232   9.759  0.1421  0.5569  2.1715
  109OSM   C11S11243   1.798   3.133   9.621 -0.1816 -0.3467 -0.1799
  109OSM   H11S11244   1.732   3.221   9.603 -2.5361 -1.5624  1.8334
  109OSM   H11T11245   1.721   3.052   9.622  0.9018 -1.4212 -1.4115
  109OSM   C12S11246   1.900   3.105   9.506 -0.1355  0.0103  0.0092
  109OSM   H12S11247   1.950   3.007   9.517  1.0873  0.6220  0.0543
  109OSM   H12T11248   1.977   3.184   9.513  0.5077 -0.6406  0.4462
  109OSM   C13S11249   1.845   3.123   9.363 -0.3587 -0.0924 -0.1812
  109OSM   H13S11250   1.777   3.211   9.367 -0.8185 -0.3369 -1.6988
  109OSM   H13T11251   1.786   3.031   9.344 -1.2831  0.4717 -0.0930
  109OSM   C14S11252   1.954   3.142   9.261  0.3459  0.2365 -0.2963
  109OSM   H14S11253   2.002   3.042   9.253 -1.6229 -0.8510  0.6204
  109OSM   H14T11254   2.025   3.225   9.276 -0.8003  1.4851 -1.4521
  109OSM   C15S11255   1.889   3.193   9.134  0.0058 -0.3707 -0.2863
  109OSM   H15S11256   1.840   3.292   9.146 -1.5750 -1.1135 -0.3122
  109OSM   H15T11257   1.803   3.123   9.128  1.4967 -2.2587 -1.0039
  109OSM   C16S11258   1.971   3.173   9.005 -0.3980  0.7612 -0.1435
  109OSM   H16S11259   2.010   3.069   9.006 -0.0499  0.8623 -1.1283
  109OSM   H16T11260   2.063   3.235   9.006  0.7139 -0.7682 -1.2968
  109OSM   C17S11261   1.903   3.215   8.873 -0.3711 -0.2807 -0.0100
  109OSM   H17S11262   1.857   3.315   8.886 -0.6475 -0.7195  3.5652
  109OSM   H17T11263   1.822   3.138   8.873  0.3678 -1.1958  3.1257
  109OSM   C18S11264   1.983   3.199   8.747 -0.4664  0.2157 -0.1063
  109OSM   H18S11265   1.917   3.187   8.659 -1.2263 -2.1981  0.7122
  109OSM   H18T11266   2.051   3.112   8.742  1.6151  1.8082 -3.1782
  109OSM   H18U11267   2.055   3.283   8.737  1.9182 -1.9563 -2.9754
  109OSM    C1F11268   1.309   2.837  10.377  0.1171 -0.1340 -0.4477
  109OSM     OF11269   1.234   2.932  10.402 -0.2410  0.1936 -0.1809
  109OSM    C2F11270   1.274   2.729  10.281 -0.1094  0.1200 -0.1228
  109OSM    H2F11271   1.164   2.719  10.291 -0.3864  0.1531 -2.6324
  109OSM    H2G11272   1.314   2.631  10.316 -3.5213 -0.8265  1.5710
  109OSM    C3F11273   1.294   2.756  10.129  0.1917  0.5463 -0.7318
  109OSM    H3F11274   1.390   2.810  10.113  1.4118 -1.1987  0.3212
  109OSM    H3G11275   1.212   2.823  10.096 -0.3419  0.4737  0.3876
  109OSM    C4F11276   1.275   2.624  10.044  0.3728  0.0198  0.3655
  109OSM    H4F11277   1.176   2.582  10.071 -0.5222  0.4844 -1.9326
  109OSM    H4G11278   1.346   2.543  10.070 -0.9623 -1.6338 -0.8585
  109OSM    C5F11279   1.283   2.642   9.892  0.2430  0.0354 -0.1001
  109OSM    H5F11280   1.365   2.711   9.862 -1.8861  2.9955  0.5507
  109OSM    H5G11281   1.189   2.700   9.880  0.1989  0.4245  1.7880
  109OSM    C6F11282   1.293   2.512   9.819 -0.1340 -0.2405  0.7860
  109OSM    H6F11283   1.213   2.439   9.847  1.1943 -1.6639  1.0036
  109OSM    H6G11284   1.393   2.471   9.842 -0.5923 -0.7585  1.9376
  109OSM    C7F11285   1.278   2.528   9.673  0.2151  0.0093 -0.3094
  109OSM    H7F11286   1.331   2.442   9.626  0.1644  0.3397 -0.9880
  109OSM    H7G11287   1.339   2.617   9.645  0.3469  0.4614  1.3187
  109OSM    C8F11288   1.134   2.530   9.616  0.4080  0.4238  0.8480
  109OSM    H8F11289   1.070   2.468   9.682 -0.9510  1.3554  0.4586
  109OSM    H8G11290   1.140   2.486   9.514 -0.5676 -1.7303  1.6752
  109OSM    C9F11291   1.064   2.662   9.620  0.7940 -0.5503 -0.5787
  109OSM    H9F11292   0.998   2.675   9.707 -0.5753 -0.2794 -1.6245
  109OSM   C10F11293   1.052   2.755   9.530 -0.1154 -0.5452 -0.3120
  109OSM   H10F11294   1.009   2.850   9.563  1.2134  0.4856 -1.4298
  109OSM   C11F11295   1.111   2.773   9.392  0.0467 -0.2725 -0.3727
  109OSM   H11F11296   1.157   2.679   9.357 -2.0360 -1.4870 -0.0046
  109OSM   H11G11297   1.193   2.849   9.388 -0.3201  0.1128 -0.6861
  109OSM   C12F11298   1.003   2.810   9.288  0.2912 -0.1083 -0.0681
  109OSM   H12F11299   0.976   2.912   9.322  0.3088  0.0930 -0.6415
  109OSM   H12G11300   0.919   2.738   9.287  1.9183 -2.0796 -0.2217
  109OSM   C13F11301   1.059   2.830   9.149  0.3673  0.0884 -0.0797
  109OSM   H13F11302   1.088   2.730   9.113 -1.2188 -0.3286 -0.2972
  109OSM   H13G11303   1.154   2.886   9.155  1.1760 -1.3833  1.6675
  109OSM   C14F11304   0.952   2.897   9.051 -0.6196  0.5463  0.0340
  109OSM   H14F11305   0.964   3.007   9.060  2.9536  0.3466 -0.7394
  109OSM   H14G11306   0.847   2.864   9.064 -0.0241 -0.9446  1.5454
  109OSM   C15F11307   0.990   2.877   8.897  0.0762 -0.4327  0.0789
  109OSM   H15F11308   1.099   2.896   8.892  0.0158  0.1314  0.8182
  109OSM   H15G11309   0.942   2.952   8.831  1.3470 -0.3988 -0.8508
  109OSM   C16F11310   0.990   2.730   8.852  0.2844 -0.1443 -0.2723
  109OSM   H16F11311   0.910   2.669   8.900  0.1527  0.0817 -0.2029
  109OSM   H16G11312   1.088   2.684   8.878  0.8598  1.8532  1.3232
  109OSM   C17F11313   0.970   2.721   8.696 -0.1097  0.1157  0.1225
  109OSM   H17F11314   1.054   2.776   8.650 -0.9464  0.9944 -0.4042
  109OSM   H17G11315   0.881   2.781   8.667  1.6341  2.0904 -1.4512
  109OSM   C18F11316   0.963   2.584   8.637 -0.1063 -0.1553  0.1005
  109OSM   H18F11317   1.038   2.508   8.667  2.3170  1.1242 -2.2935
  109OSM   H18G11318   0.953   2.578   8.527 -1.2329  2.7206 -0.0603
  109OSM   H18H11319   0.876   2.531   8.681 -0.3134  0.4455  0.4278
  110OSM      N11320   3.137   2.484  11.137  0.3409 -0.1918 -0.1584
  110OSM    C1511321   3.250   2.416  11.201  0.9162  0.1291  0.1599
  110OSM   H15A11322   3.212   2.322  11.237  3.2900 -0.9276  0.0810
  110OSM   H15B11323   3.276   2.479  11.285 -0.4386 -0.8080  1.3119
  110OSM   H15C11324   3.333   2.421  11.131  0.0319  4.5036 -0.8815
  110OSM    C1411325   3.014   2.435  11.203  0.3695 -0.1722 -0.3674
  110OSM   H14A11326   2.999   2.329  11.196 -0.4245 -0.0333 -0.8748
  110OSM   H14B11327   2.931   2.492  11.163 -0.1118 -0.3309  0.4033
  110OSM   H14C11328   3.011   2.474  11.303  0.4365  3.2169 -1.5542
  110OSM    C1311329   3.146   2.635  11.153  0.6425 -0.0034 -0.3597
  110OSM   H13A11330   3.170   2.657  11.256  1.4527  1.9276 -0.9161
  110OSM   H13B11331   3.058   2.691  11.126  0.7681 -0.0361 -0.8367
  110OSM   H13C11332   3.228   2.683  11.101  0.8556  0.3900  0.3267
  110OSM    C1211333   3.123   2.452  10.985  0.0837  0.3548 -0.4769
  110OSM   H12A11334   3.118   2.345  10.973 -2.4381  0.3168  0.3888
  110OSM   H12B11335   3.219   2.492  10.956  0.8898  0.2404  1.8139
  110OSM    C1111336   3.026   2.524  10.886  0.2333 -0.2252 -0.3466
  110OSM   H11A11337   3.039   2.484  10.783 -1.6542 -0.0352 -0.6829
  110OSM   H11B11338   3.060   2.629  10.873 -0.1791 -0.0545 -0.0454
  110OSM      P11339   2.806   2.389  10.916  0.3945  0.6365 -0.2416
  110OSM    O1311340   2.878   2.264  10.945  0.0068  0.0701  0.3598
  110OSM    O1411341   2.672   2.408  10.972  0.1748 -0.1295  0.4144
  110OSM    O1111342   2.777   2.373  10.760  0.1792 -0.0422  0.8352
  110OSM    O1211343   2.892   2.519  10.929 -0.3590 -0.4964  0.0402
  110OSM    C1S11344   2.708   2.471  10.675 -0.3222  1.1978  0.8195
  110OSM    H1S11345   2.734   2.574  10.708  0.4371  0.7045  1.8368
  110OSM    H1T11346   2.598   2.465  10.684 -0.4407  3.7648  1.9558
  110OSM     NF11347   2.704   2.563  10.453 -0.5306 -0.1755  0.2886
  110OSM    HNF11348   2.629   2.537  10.393 -0.3984  0.0473  0.0243
  110OSM    C2S11349   2.758   2.454  10.527  0.0734 -0.4683 -0.1236
  110OSM    H2S11350   2.868   2.466  10.528 -0.0245  0.8557 -1.5814
  110OSM    C3S11351   2.725   2.315  10.470 -0.1934  0.4473 -0.0495
  110OSM    H3S11352   2.620   2.301  10.437  0.9706  2.0581 -5.4194
  110OSM     O311353   2.739   2.209  10.564 -0.0796  0.9801  0.1439
  110OSM    HO311354   2.766   2.261  10.640  3.9999  0.8918 -1.0387
  110OSM    C4S11355   2.798   2.306  10.341  0.2538  0.0126 -0.5480
  110OSM    H4S11356   2.743   2.357  10.261 -0.3473 -0.4885 -0.4566
  110OSM    C5S11357   2.905   2.232  10.311 -0.5793 -0.1808 -0.5825
  110OSM    H5S11358   2.952   2.167  10.386 -1.4105  0.9667  0.9884
  110OSM    C6S11359   2.973   2.234  10.173  0.0964 -0.6493 -0.0760
  110OSM    H6S11360   3.010   2.130  10.161  1.6536 -0.6963  3.7212
  110OSM    H6T11361   3.063   2.299  10.179 -0.6221  0.2877  0.8235
  110OSM    C7S11362   2.898   2.296  10.053  0.5069  0.2744 -0.0333
  110OSM    H7S11363   2.891   2.403  10.082 -1.2389 -0.1247  1.1179
  110OSM    H7T11364   2.794   2.263  10.037  0.1749  0.4059  1.6091
  110OSM    C8S11365   2.970   2.281   9.919 -0.1761  0.5780 -0.7349
  110OSM    H8S11366   2.954   2.177   9.884 -1.2752  0.8839 -1.1795
  110OSM    H8T11367   3.075   2.311   9.939  1.1115 -2.3033 -2.4348
  110OSM    C9S11368   2.936   2.385   9.813 -0.4683  0.8676  1.1267
  110OSM    H9S11369   2.969   2.489   9.831  0.7113  0.8179 -0.5978
  110OSM    H9T11370   2.827   2.374   9.794 -0.0544 -1.9695 -0.1501
  110OSM   C10S11371   2.990   2.346   9.675  0.8628  0.5530 -0.4386
  110OSM   H10S11372   2.959   2.243   9.648  0.0739  1.0194 -1.3984
  110OSM   H10T11373   3.101   2.346   9.682  0.9542  1.9864 -1.4005
  110OSM   C11S11374   2.946   2.408   9.550  0.3132 -0.2436 -0.0012
  110OSM   H11S11375   2.969   2.515   9.570  0.5341 -0.2771 -0.0746
  110OSM   H11T11376   2.839   2.390   9.528  0.5778 -0.9761 -0.7406
  110OSM   C12S11377   3.023   2.372   9.427  1.0167  0.3649  0.2655
  110OSM   H12S11378   2.999   2.264   9.416 -0.8504  0.6683  0.9348
  110OSM   H12T11379   3.132   2.388   9.439  1.1793 -1.1015  1.0263
  110OSM   C13S11380   2.971   2.452   9.312 -0.0948  0.0493 -0.1138
  110OSM   H13S11381   2.969   2.560   9.338  1.2905 -0.1230  0.8242
  110OSM   H13T11382   2.864   2.423   9.300 -0.6620  2.0465 -0.1803
  110OSM   C14S11383   3.050   2.420   9.183  0.7865 -1.1178  0.0462
  110OSM   H14S11384   3.059   2.310   9.173 -3.0141 -1.5203 -0.7413
  110OSM   H14T11385   3.148   2.468   9.201 -0.3930  1.4693  0.0839
  110OSM   C15S11386   2.963   2.472   9.068 -0.4238  0.4173 -0.4676
  110OSM   H15S11387   2.921   2.569   9.102 -3.4695 -0.9018 -0.1886
  110OSM   H15T11388   2.874   2.406   9.069 -0.6166  0.5805  3.1369
  110OSM   C16S11389   3.042   2.482   8.936  0.3909  0.1857 -0.6240
  110OSM   H16S11390   3.146   2.515   8.954  0.2412  1.0485 -1.2436
  110OSM   H16T11391   2.998   2.548   8.858 -2.1923 -2.9635 -2.0688
  110OSM   C17S11392   3.033   2.342   8.869 -0.2397 -0.3463 -0.0552
  110OSM   H17S11393   2.928   2.321   8.839 -0.5598 -0.3685  1.0432
  110OSM   H17T11394   3.072   2.256   8.929 -2.1783 -0.6008  0.9121
  110OSM   C18S11395   3.120   2.332   8.739  0.4675 -0.4476 -0.0213
  110OSM   H18S11396   3.230   2.327   8.749  0.6887  1.5613 -1.0940
  110OSM   H18T11397   3.110   2.424   8.678  0.3071 -0.4036  0.0692
  110OSM   H18U11398   3.090   2.237   8.688 -0.7516  0.0492 -0.2622
  110OSM    C1F11399   2.743   2.689  10.457 -0.2304  0.0220  0.4478
  110OSM     OF11400   2.829   2.725  10.537 -0.2599 -0.0082  0.5010
  110OSM    C2F11401   2.680   2.790  10.370 -0.4532  0.0146  0.1277
  110OSM    H2F11402   2.588   2.838  10.409 -0.7222 -0.6915  0.3703
  110OSM    H2G11403   2.658   2.737  10.275 -0.6490  0.6353 -0.1845
  110OSM    C3F11404   2.780   2.896  10.326 -0.5450  0.2230  0.2482
  110OSM    H3F11405   2.881   2.855  10.306 -0.1073  1.1489  0.5045
  110OSM    H3G11406   2.801   2.972  10.405 -1.8476 -0.5796  1.4062
  110OSM    C4F11407   2.736   2.964  10.201 -0.0824 -0.2600  0.4548
  110OSM    H4F11408   2.798   3.055  10.185  1.5444 -1.4389 -0.2129
  110OSM    H4G11409   2.630   2.995  10.214  0.6337  1.8862  1.7048
  110OSM    C5F11410   2.765   2.882  10.079 -0.2944 -0.3365  0.1135
  110OSM    H5F11411   2.727   2.777  10.084  0.6629 -0.8902 -2.5699
  110OSM    H5G11412   2.876   2.874  10.076 -0.2363  0.7132 -1.9305
  110OSM    C6F11413   2.717   2.948   9.949  0.7452  0.3825  0.5978
  110OSM    H6F11414   2.787   3.033   9.932 -0.0317  1.1958  1.3826
  110OSM    H6G11415   2.616   2.994   9.958  0.8812  0.3243  3.0755
  110OSM    C7F11416   2.722   2.855   9.822 -0.5017 -0.1814  0.3784
  110OSM    H7F11417   2.748   2.923   9.738  1.8233 -0.0793  1.1181
  110OSM    H7G11418   2.617   2.822   9.804 -0.9183  1.3026 -0.0730
  110OSM    C8F11419   2.823   2.737   9.832  0.8895  0.1662  0.2436
  110OSM    H8F11420   2.807   2.675   9.741  0.6517  2.0038 -1.0193
  110OSM    H8G11421   2.789   2.671   9.915  0.5290  0.7389  0.5622
  110OSM    C9F11422   2.965   2.776   9.845  0.5623  0.1883 -0.1725
  110OSM    H9F11423   2.999   2.780   9.950 -1.3686 -1.6876  0.5882
  110OSM   C10F11424   3.045   2.825   9.747  0.0494  0.2580 -0.0362
  110OSM   H10F11425   3.152   2.826   9.771 -0.0019 -0.1891  0.2167
  110OSM   C11F11426   2.995   2.829   9.606  0.2533 -0.5176 -0.0701
  110OSM   H11F11427   2.972   2.935   9.582  3.0867  0.2532  0.3143
  110OSM   H11G11428   2.902   2.770   9.588 -0.4778  1.5295 -4.1491
  110OSM   C12F11429   3.097   2.787   9.504  0.0366 -0.5662  0.8310
  110OSM   H12F11430   3.126   2.682   9.522  0.0619 -0.3242  2.3202
  110OSM   H12G11431   3.186   2.852   9.520 -0.1509 -0.2963  0.7768
  110OSM   C13F11432   3.067   2.831   9.363 -0.1016  0.3863  0.6918
  110OSM   H13F11433   3.045   2.940   9.367  0.8368  0.7288 -1.8507
  110OSM   H13G11434   2.969   2.789   9.336 -0.4606  0.8432  1.2564
  110OSM   C14F11435   3.173   2.798   9.259  0.0204  0.0501  0.7917
  110OSM   H14F11436   3.169   2.690   9.233 -0.1986  0.2857 -0.2116
  110OSM   H14G11437   3.277   2.820   9.291 -1.0630  2.5582  3.0027
  110OSM   C15F11438   3.135   2.860   9.130  0.2437 -0.5838 -0.0218
  110OSM   H15F11439   3.146   2.970   9.126  0.1820 -0.6067 -1.1563
  110OSM   H15G11440   3.026   2.840   9.119  0.2740 -0.5361 -0.4397
  110OSM   C16F11441   3.213   2.803   9.013  0.1362 -0.0022  0.3060
  110OSM   H16F11442   3.223   2.693   9.023  1.0122  0.0669  0.2052
  110OSM   H16G11443   3.318   2.836   9.023 -0.8705  3.5345  0.6559
  110OSM   C17F11444   3.164   2.861   8.879  0.1339 -0.2560  0.0406
  110OSM   H17F11445   3.180   2.971   8.881 -0.2535 -0.1934  2.6693
  110OSM   H17G11446   3.058   2.834   8.862  0.8666 -2.4371 -1.4489
  110OSM   C18F11447   3.232   2.799   8.758 -0.3060  0.4511 -0.1970
  110OSM   H18F11448   3.340   2.824   8.754  0.1585 -0.8718  2.1862
  110OSM   H18G11449   3.187   2.840   8.665  0.6877  0.7572 -0.5448
  110OSM   H18H11450   3.229   2.688   8.767  0.2460  0.5655  2.1822
  111OSM      N11451   3.061   0.721  11.207 -0.2582  0.0191  0.0211
  111OSM    C1511452   2.922   0.689  11.269  0.1059 -1.2644  0.0252
  111OSM   H15A11453   2.935   0.588  11.305  3.9498 -1.3138 -1.0765
  111OSM   H15B11454   2.837   0.698  11.203  0.1759  2.2574  0.2147
  111OSM   H15C11455   2.903   0.746  11.359  2.5313 -4.1894  2.5918
  111OSM    C1411456   3.066   0.872  11.193  0.2403 -0.3550  0.0059
  111OSM   H14A11457   2.984   0.924  11.147  1.7069  1.1840 -1.0064
  111OSM   H14B11458   3.155   0.911  11.146 -0.3382  0.8718 -0.1001
  111OSM   H14C11459   3.078   0.915  11.292  1.5049 -0.7167  0.0264
  111OSM    C1311460   3.166   0.667  11.303 -0.7316  0.2936 -1.1674
  111OSM   H13A11461   3.154   0.719  11.397  0.8889  0.1811 -0.8751
  111OSM   H13B11462   3.268   0.678  11.269 -1.0143  1.2488 -1.7356
  111OSM   H13C11463   3.146   0.563  11.321 -1.6088  0.6680  0.1924
  111OSM    C1211464   3.075   0.654  11.068 -0.1417 -0.3131 -0.2390
  111OSM   H12A11465   2.983   0.670  11.013  0.1753  2.1033 -0.2026
  111OSM   H12B11466   3.088   0.547  11.075  0.6487 -0.1171  2.6892
  111OSM    C1111467   3.193   0.704  10.978 -0.4965  0.3597  0.6459
  111OSM   H11A11468   3.183   0.814  10.963 -0.1280  0.2725 -0.3153
  111OSM   H11B11469   3.165   0.663  10.878 -0.9491 -0.5827  1.1466
  111OSM      P11470   3.388   0.531  10.984  0.2813 -0.0202 -0.4654
  111OSM    O1311471   3.518   0.527  11.057  0.4591 -0.2160 -0.2767
  111OSM    O1411472   3.293   0.421  10.999 -0.7645  0.1198  0.5734
  111OSM    O1111473   3.424   0.546  10.828 -0.1148  0.2704 -0.9426
  111OSM    O1211474   3.323   0.669  11.022 -0.4365  0.6334  0.7144
  111OSM    C1S11475   3.528   0.455  10.785  0.1040 -0.1540  0.0777
  111OSM    H1S11476   3.569   0.389  10.864 -0.4825  0.4802  0.9297
  111OSM    H1T11477   3.613   0.519  10.751  1.4005 -0.9110  1.7296
  111OSM     NF11478   3.636   0.328  10.607  0.1845 -0.1333 -0.5155
  111OSM    HNF11479   3.698   0.384  10.553  1.2354 -0.0278  0.7665
  111OSM    C2S11480   3.506   0.376  10.655  0.7223 -0.7802 -0.0875
  111OSM    H2S11481   3.425   0.300  10.667 -0.2020  0.0844 -0.6370
  111OSM    C3S11482   3.436   0.469  10.552 -0.3762 -0.2812  0.0191
  111OSM    H3S11483   3.512   0.548  10.535  0.8855 -1.4702 -0.1162
  111OSM     O311484   3.314   0.529  10.590  0.1749 -1.1292  0.0929
  111OSM    HO311485   3.318   0.530  10.686  3.1382  1.6237  0.1170
  111OSM    C4S11486   3.418   0.395  10.424 -0.2793  0.4939 -0.3949
  111OSM    H4S11487   3.494   0.416  10.348  1.0474  0.5903  0.9267
  111OSM    C5S11488   3.324   0.301  10.399 -0.2513 -0.7823  0.3635
  111OSM    H5S11489   3.238   0.285  10.466 -1.3014  0.6189 -0.5747
  111OSM    C6S11490   3.309   0.225  10.266 -0.4105 -0.1374 -0.1495
  111OSM    H6S11491   3.210   0.246  10.221  0.4137 -0.5299 -2.2564
  111OSM    H6T11492   3.317   0.114  10.275  0.1525 -0.1003 -0.2045
  111OSM    C7S11493   3.407   0.251  10.146  0.0979 -0.1337  0.6489
  111OSM    H7S11494   3.509   0.234  10.185  0.6859  2.8503  0.6559
  111OSM    H7T11495   3.393   0.358  10.119  1.7809 -0.0869 -0.1374
  111OSM    C8S11496   3.362   0.168  10.023  0.1681  0.5121  0.2279
  111OSM    H8S11497   3.252   0.162  10.011 -0.0128  1.3183  1.3531
  111OSM    H8T11498   3.404   0.065  10.030 -0.8917 -0.0229 -0.9309
  111OSM    C9S11499   3.416   0.230   9.890 -0.4416  0.5082  0.8751
  111OSM    H9S11500   3.526   0.234   9.896 -0.2952 -0.8742 -0.1663
  111OSM    H9T11501   3.382   0.335   9.882  1.7746  1.2842  1.0155
  111OSM   C10S11502   3.366   0.138   9.774  0.4560  0.1223  0.0063
  111OSM   H10S11503   3.255   0.137   9.782  0.3661 -0.0044 -1.1798
  111OSM   H10T11504   3.412   0.037   9.784  0.0056 -0.0457  0.4217
  111OSM   C11S11505   3.398   0.205   9.640 -0.2815  0.4681 -1.1585
  111OSM   H11S11506   3.508   0.199   9.625 -0.1697  0.6286 -0.4333
  111OSM   H11T11507   3.362   0.310   9.640 -1.3328  0.1194 -0.5619
  111OSM   C12S11508   3.324   0.132   9.527  0.0543  0.3500  0.4313
  111OSM   H12S11509   3.215   0.130   9.545 -0.4263  1.5893 -2.0081
  111OSM   H12T11510   3.361   0.028   9.516  0.5141  0.4432  1.0303
  111OSM   C13S11511   3.336   0.212   9.402  0.6636 -0.4153  0.1922
  111OSM   H13S11512   3.444   0.236   9.395  0.7017  1.1467  3.9013
  111OSM   H13T11513   3.287   0.311   9.413 -0.5030 -1.2046  2.8927
  111OSM   C14S11514   3.290   0.148   9.271  0.5228 -0.3027  0.1721
  111OSM   H14S11515   3.181   0.127   9.270  0.6192 -0.7984 -0.9627
  111OSM   H14T11516   3.339   0.050   9.252 -0.5742 -0.6131 -1.2312
  111OSM   C15S11517   3.305   0.248   9.147  0.1395  0.2619 -0.2619
  111OSM   H15S11518   3.415   0.258   9.139  0.3569  0.2166  1.9588
  111OSM   H15T11519   3.281   0.354   9.167 -0.2343 -0.0448  1.0600
  111OSM   C16S11520   3.253   0.187   9.013 -0.3380  0.1999  0.2794
  111OSM   H16S11521   3.272   0.262   8.933 -3.6458 -0.4202 -1.2720
  111OSM   H16T11522   3.144   0.165   9.014  0.1306 -2.4621  0.1509
  111OSM   C17S11523   3.319   0.053   8.971  0.1611  0.3510 -0.3208
  111OSM   H17S11524   3.270  -0.029   9.029  0.4123  0.9891  0.8057
  111OSM   H17T11525   3.425   0.070   8.997 -0.1470  0.0469  1.2318
  111OSM   C18S11526   3.319   0.029   8.823 -0.7726  0.0186  0.4887
  111OSM   H18S11527   3.395   0.095   8.775 -1.5514  0.1714 -0.5772
  111OSM   H18T11528   3.219   0.054   8.783 -0.0953 -1.3973 -2.3577
  111OSM   H18U11529   3.349  -0.073   8.791  0.2347  0.7037 -0.8642
  111OSM    C1F11530   3.683   0.213  10.659 -0.0082  0.2004 -0.0462
  111OSM     OF11531   3.612   0.148  10.734  0.0809  0.3279 -0.2102
  111OSM    C2F11532   3.823   0.176  10.633 -0.1183 -0.4941 -0.1998
  111OSM    H2F11533   3.864   0.105  10.707  1.3205  1.8175  1.3447
  111OSM    H2G11534   3.887   0.266  10.637  1.5224 -1.6112 -0.4716
  111OSM    C3F11535   3.840   0.099  10.500 -0.8436  0.3231 -0.0648
  111OSM    H3F11536   3.779   0.005  10.501 -2.1265  1.0887 -1.7120
  111OSM    H3G11537   3.947   0.068  10.501 -0.5162  1.2078 -2.5229
  111OSM    C4F11538   3.822   0.186  10.375 -0.0761 -0.1501 -0.3342
  111OSM    H4F11539   3.891   0.273  10.387  0.7611 -0.7258 -0.8401
  111OSM    H4G11540   3.720   0.229  10.375  0.7871  2.0609  0.5711
  111OSM    C5F11541   3.840   0.101  10.246  0.2433  0.2282 -0.0632
  111OSM    H5F11542   3.768   0.017  10.235 -0.5775  0.8443  0.5633
  111OSM    H5G11543   3.943   0.059  10.255  0.1849  0.5875  3.9696
  111OSM    C6F11544   3.830   0.197  10.127 -0.4087 -0.2307 -0.8522
  111OSM    H6F11545   3.915   0.269  10.129 -0.5171 -0.1226  0.2957
  111OSM    H6G11546   3.734   0.250  10.144 -0.9887 -1.4620 -0.1414
  111OSM    C7F11547   3.836   0.126   9.992 -0.4837  0.0115 -0.1507
  111OSM    H7F11548   3.741   0.068   9.983 -1.3022  1.3456 -0.3525
  111OSM    H7G11549   3.928   0.065   9.983 -0.8196 -0.4299 -0.6534
  111OSM    C8F11550   3.846   0.236   9.885 -0.1827  0.3321 -1.0133
  111OSM    H8F11551   3.943   0.287   9.906 -0.8263  1.4039 -0.5739
  111OSM    H8G11552   3.767   0.311   9.903  0.5443  0.7750  0.5447
  111OSM    C9F11553   3.833   0.195   9.742 -0.2037 -0.2441 -0.6597
  111OSM    H9F11554   3.780   0.102   9.717 -0.1438 -0.1178 -1.2905
  111OSM   C10F11555   3.887   0.255   9.630 -0.1545  0.3963 -0.5519
  111OSM   H10F11556   3.855   0.215   9.533  0.2288  0.8732 -0.8767
  111OSM   C11F11557   3.980   0.372   9.630  0.6476 -0.3533 -0.0266
  111OSM   H11F11558   4.081   0.328   9.646 -0.1031 -1.7832  1.0638
  111OSM   H11G11559   3.964   0.432   9.721  0.2243  0.6904 -0.7806
  111OSM   C12F11560   4.001   0.462   9.506  0.3039 -0.0530 -0.0600
  111OSM   H12F11561   4.084   0.533   9.528  0.3528  0.1912 -0.9868
  111OSM   H12G11562   3.911   0.525   9.491  1.4873  1.8181  0.3457
  111OSM   C13F11563   4.044   0.392   9.373 -0.5560  0.0362 -0.1879
  111OSM   H13F11564   3.985   0.300   9.351 -1.0026  0.5065 -1.0030
  111OSM   H13G11565   4.153   0.374   9.385 -0.7490  0.4363  3.1761
  111OSM   C14F11566   4.036   0.493   9.256 -0.3949 -0.2840 -0.1112
  111OSM   H14F11567   4.082   0.592   9.274 -0.0566 -0.3647 -0.5376
  111OSM   H14G11568   3.930   0.512   9.226 -0.0621 -0.8287 -1.7086
  111OSM   C15F11569   4.109   0.442   9.129  0.0318 -0.6324  0.2008
  111OSM   H15F11570   4.110   0.332   9.114  0.3055 -0.4985 -0.9181
  111OSM   H15G11571   4.219   0.460   9.129  0.2928 -2.0774 -0.2548
  111OSM   C16F11572   4.049   0.503   9.003  0.0530  0.3465 -0.1857
  111OSM   H16F11573   4.037   0.612   9.021  2.4078  0.8458 -1.1907
  111OSM   H16G11574   3.948   0.460   8.992  0.8683 -2.0299  0.9711
  111OSM   C17F11575   4.122   0.489   8.870  0.0987  0.0612 -1.1826
  111OSM   H17F11576   4.112   0.385   8.832 -1.8989 -0.2387  0.0521
  111OSM   H17G11577   4.230   0.510   8.884 -0.0413  0.2803 -0.4285
  111OSM   C18F11578   4.061   0.587   8.762  0.5252 -0.6325 -0.1977
  111OSM   H18F11579   3.959   0.560   8.728  0.3930  2.4310 -2.7012
  111OSM   H18G11580   4.114   0.602   8.665  3.1323  0.4347  1.2840
  111OSM   H18H11581   4.039   0.684   8.811  2.0416 -0.4271  0.1364
  112OSM      N11582   5.626   4.141  11.319 -0.3491  0.0933 -0.0029
  112OSM    C1511583   5.609   3.998  11.325 -0.0379  0.1037  0.9465
  112OSM   H15A11584   5.701   3.957  11.284  0.2826  0.6334  1.1171
  112OSM   H15B11585   5.528   3.968  11.261  0.3446 -1.6257  1.2170
  112OSM   H15C11586   5.586   3.960  11.424  0.1407 -0.7076  0.6798
  112OSM    C1411587   5.523   4.199  11.414  0.5479  0.1927 -0.6352
  112OSM   H14A11588   5.529   4.307  11.407 -0.4549  0.2896 -0.1502
  112OSM   H14B11589   5.531   4.162  11.515  1.9251  1.1523 -0.3577
  112OSM   H14C11590   5.423   4.179  11.379  1.3708  1.1408 -3.8079
  112OSM    C1311591   5.766   4.174  11.363  0.4903  0.5445  0.6625
  112OSM   H13A11592   5.838   4.131  11.295  0.3341 -0.9204  1.3854
  112OSM   H13B11593   5.786   4.145  11.465  1.1026 -0.7378  0.1988
  112OSM   H13C11594   5.791   4.279  11.350 -1.8090  1.1088  0.3679
  112OSM    C1211595   5.607   4.205  11.180 -0.2924  0.8075  0.0667
  112OSM   H12A11596   5.501   4.203  11.157  0.0791  0.9279 -1.7955
  112OSM   H12B11597   5.655   4.146  11.103  0.3699  1.4791 -0.0397
  112OSM    C1111598   5.651   4.352  11.152  0.5119  0.1887 -0.2625
  112OSM   H11A11599   5.639   4.390  11.049 -0.6509 -0.3231 -0.3296
  112OSM   H11B11600   5.760   4.339  11.167  0.3996  0.2957  0.7343
  112OSM      P11601   5.457   4.515  11.217 -0.1385 -0.0716 -0.1301
  112OSM    O1311602   5.373   4.503  11.336 -0.2971  0.0338 -0.0837
  112OSM    O1411603   5.479   4.653  11.170 -0.3656 -0.3836 -0.3497
  112OSM    O1111604   5.389   4.431  11.100  0.1551 -0.4600 -0.4107
  112OSM    O1211605   5.600   4.444  11.255  0.3945  0.3070  0.6655
  112OSM    C1S11606   5.261   4.466  11.050  0.3619  0.1046 -0.0069
  112OSM    H1S11607   5.230   4.569  11.075  1.9942  0.5032  0.5162
  112OSM    H1T11608   5.189   4.399  11.100  0.1214  0.9683  0.8183
  112OSM     NF11609   5.109   4.465  10.860  0.0436 -0.1152 -0.4192
  112OSM    HNF11610   5.047   4.387  10.863  1.4056 -1.3032 -1.4783
  112OSM    C2S11611   5.249   4.441  10.894  0.7986 -0.4123 -0.5417
  112OSM    H2S11612   5.319   4.509  10.841  0.1864  1.4679  0.9634
  112OSM    C3S11613   5.297   4.294  10.861 -0.3421 -0.4102 -0.3335
  112OSM    H3S11614   5.231   4.226  10.919 -0.7957  0.0292 -0.3222
  112OSM     O311615   5.431   4.268  10.903  0.1323 -0.3520 -0.5124
  112OSM    HO311616   5.443   4.343  10.962 -0.1979  0.2298 -1.1780
  112OSM    C4S11617   5.283   4.262  10.713 -0.2649 -0.4357  0.0690
  112OSM    H4S11618   5.203   4.188  10.701 -1.2089  0.3637  1.1460
  112OSM    C5S11619   5.361   4.302  10.602  0.0722  0.4884 -0.0979
  112OSM    H5S11620   5.457   4.353  10.619  0.2237  1.3631 -3.0066
  112OSM    C6S11621   5.334   4.258  10.459 -0.1360 -0.3322  0.3801
  112OSM    H6S11622   5.242   4.196  10.455  0.1435 -0.6966 -0.5428
  112OSM    H6T11623   5.412   4.193  10.415  0.2741  1.1404 -1.1993
  112OSM    C7S11624   5.300   4.378  10.368  0.1726 -0.2219  0.3694
  112OSM    H7S11625   5.379   4.456  10.376  1.3724 -1.4155  0.3995
  112OSM    H7T11626   5.200   4.420  10.393 -0.8397 -1.6455 -1.0500
  112OSM    C8S11627   5.293   4.337  10.219 -0.3264  0.0772  0.0246
  112OSM    H8S11628   5.196   4.284  10.209  0.0545 -0.8146  0.9064
  112OSM    H8T11629   5.375   4.266  10.196  1.4501  1.5881  1.3775
  112OSM    C9S11630   5.283   4.453  10.121 -0.5418  0.4926 -0.1935
  112OSM    H9S11631   5.359   4.528  10.149 -0.6600  1.2381 -1.7988
  112OSM    H9T11632   5.190   4.506  10.150 -2.7215 -3.1092  0.0776
  112OSM   C10S11633   5.280   4.417   9.976  0.4322  0.1603  0.7151
  112OSM   H10S11634   5.195   4.355   9.941  0.3042 -0.0747  1.4263
  112OSM   H10T11635   5.377   4.367   9.954 -0.5833 -1.4297 -0.3397
  112OSM   C11S11636   5.283   4.537   9.881  0.7709  0.2036  0.8690
  112OSM   H11S11637   5.369   4.599   9.914 -0.9075  2.3266  1.4440
  112OSM   H11T11638   5.190   4.597   9.890 -1.6966 -2.5441 -3.1886
  112OSM   C12S11639   5.308   4.495   9.741  0.0560  0.4492 -0.4727
  112OSM   H12S11640   5.235   4.418   9.707  0.6856 -0.3809  0.0116
  112OSM   H12T11641   5.403   4.438   9.747 -1.0621 -1.4251  0.8584
  112OSM   C13S11642   5.324   4.607   9.638 -0.3873 -0.0857 -0.8959
  112OSM   H13S11643   5.419   4.659   9.662 -1.1504  0.7869  0.3422
  112OSM   H13T11644   5.238   4.677   9.645 -1.0231 -0.5868 -3.0899
  112OSM   C14S11645   5.344   4.553   9.496  0.7209 -0.5548 -0.3549
  112OSM   H14S11646   5.258   4.485   9.479 -0.2778  0.5475  0.1418
  112OSM   H14T11647   5.438   4.496   9.480  0.3219 -1.0434 -1.0064
  112OSM   C15S11648   5.362   4.668   9.395 -0.3448  0.6128  0.7399
  112OSM   H15S11649   5.464   4.710   9.408  1.3930 -3.2757  0.8073
  112OSM   H15T11650   5.288   4.747   9.421  0.4583  1.5790  0.1523
  112OSM   C16S11651   5.334   4.630   9.246 -0.1529  0.6543  0.0320
  112OSM   H16S11652   5.253   4.554   9.247  1.2140 -0.8343  0.7784
  112OSM   H16T11653   5.424   4.582   9.202 -0.8687  0.5332 -1.3638
  112OSM   C17S11654   5.298   4.741   9.156  1.0495  0.1646 -0.1818
  112OSM   H17S11655   5.382   4.813   9.143 -0.2303  1.5004 -1.5394
  112OSM   H17T11656   5.214   4.793   9.207 -0.1803 -2.4689  0.6334
  112OSM   C18S11657   5.249   4.687   9.020  0.5592  0.4710 -0.4984
  112OSM   H18S11658   5.325   4.612   8.987  0.3838  0.2860 -0.4827
  112OSM   H18T11659   5.246   4.775   8.953 -0.0073  0.9592  0.1532
  112OSM   H18U11660   5.147   4.643   9.026  0.3192  1.0478 -0.2935
  112OSM    C1F11661   5.062   4.590  10.842 -0.2934  0.3963  0.8722
  112OSM     OF11662   5.139   4.684  10.842 -0.6530 -0.6306  0.7544
  112OSM    C2F11663   4.921   4.607  10.805  0.4837 -0.5302  0.5810
  112OSM    H2F11664   4.875   4.681  10.874  0.8326 -1.0998  1.4471
  112OSM    H2G11665   4.868   4.511  10.822 -0.3872 -0.0271  0.7716
  112OSM    C3F11666   4.913   4.655  10.662  0.1942  0.3932  0.6341
  112OSM    H3F11667   4.955   4.758  10.654 -3.0414  1.7796 -0.3958
  112OSM    H3G11668   4.804   4.660  10.643  0.1950 -4.1264 -1.7293
  112OSM    C4F11669   4.972   4.559  10.560  0.0555  0.6049 -0.0849
  112OSM    H4F11670   5.074   4.531  10.593 -0.3752 -0.0202  0.7559
  112OSM    H4G11671   4.986   4.611  10.462  1.5916 -2.8400 -1.8891
  112OSM    C5F11672   4.876   4.436  10.530  0.5630 -0.1416  0.1059
  112OSM    H5F11673   4.840   4.403  10.630  0.1618 -2.7114 -0.7997
  112OSM    H5G11674   4.938   4.350  10.496  0.1704 -0.0644 -0.8327
  112OSM    C6F11675   4.758   4.456  10.436  0.2056  0.7157 -0.7061
  112OSM    H6F11676   4.693   4.543  10.461 -1.2180 -0.5639  0.2734
  112OSM    H6G11677   4.692   4.367  10.431 -1.8154  2.0668  0.2050
  112OSM    C7F11678   4.805   4.479  10.290  0.2381 -0.1707  0.4150
  112OSM    H7F11679   4.865   4.392  10.256  0.8812 -0.7946  2.9412
  112OSM    H7G11680   4.874   4.566  10.288  0.2575 -0.0768  2.6462
  112OSM    C8F11681   4.697   4.526  10.191 -0.6098  0.0484  0.2465
  112OSM    H8F11682   4.744   4.582  10.107  3.1781 -2.0363  0.7213
  112OSM    H8G11683   4.641   4.591  10.261  0.5486 -0.3581  1.6076
  112OSM    C9F11684   4.626   4.405  10.135  0.5210 -0.0543  0.7747
  112OSM    H9F11685   4.534   4.384  10.191  0.0432  1.6451  0.6944
  112OSM   C10F11686   4.658   4.345  10.020 -0.3960  0.0721 -0.2858
  112OSM   H10F11687   4.598   4.260   9.984  0.1490  0.2447 -1.7051
  112OSM   C11F11688   4.773   4.364   9.924  0.0307  0.9852 -0.5924
  112OSM   H11F11689   4.823   4.269   9.894 -0.2477  0.5209  0.3776
  112OSM   H11G11690   4.851   4.414   9.986 -1.7147  0.8212  1.8683
  112OSM   C12F11691   4.733   4.429   9.795  0.5577  0.1796 -0.2775
  112OSM   H12F11692   4.702   4.533   9.818  0.9064  0.4800 -1.1181
  112OSM   H12G11693   4.647   4.383   9.740  1.3511 -0.8762 -0.6760
  112OSM   C13F11694   4.849   4.422   9.691  0.3705 -0.0053 -0.0410
  112OSM   H13F11695   4.909   4.328   9.694  0.3012 -0.2036 -2.6642
  112OSM   H13G11696   4.904   4.512   9.725 -1.6251  0.6262  1.6972
  112OSM   C14F11697   4.789   4.449   9.555 -0.1692 -0.0408 -0.5306
  112OSM   H14F11698   4.740   4.548   9.566  0.2078 -0.0477  1.5210
  112OSM   H14G11699   4.717   4.365   9.543  0.1926 -0.8088  2.0945
  112OSM   C15F11700   4.897   4.450   9.445 -0.1755  0.0839 -0.5937
  112OSM   H15F11701   4.916   4.343   9.422 -2.2545 -0.4181 -0.2328
  112OSM   H15G11702   4.986   4.505   9.480 -0.8093  1.1461 -0.6209
  112OSM   C16F11703   4.843   4.506   9.308  0.0487  0.1972  0.6390
  112OSM   H16F11704   4.822   4.615   9.315 -1.2378 -0.0741  1.2876
  112OSM   H16G11705   4.748   4.454   9.281  0.4654 -0.0472 -0.4225
  112OSM   C17F11706   4.947   4.470   9.197  0.9768  0.9513 -0.1321
  112OSM   H17F11707   4.993   4.373   9.223 -1.5789  0.1597  1.7406
  112OSM   H17G11708   5.031   4.543   9.197  1.6696  0.1954 -1.3634
  112OSM   C18F11709   4.887   4.470   9.052  0.3831 -0.1553 -0.7938
  112OSM   H18F11710   4.818   4.384   9.041  1.3779 -0.8621 -1.7370
  112OSM   H18G11711   4.972   4.465   8.980  1.4400  0.4835  0.3711
  112OSM   H18H11712   4.832   4.567   9.045  0.2502  0.0012  1.5263
  113OSM      N11713   1.848   0.252  10.968  1.4792 -0.6755  0.2685
  113OSM    C1511714   1.885   0.227  10.829 -0.8552  0.3621  0.0631
  113OSM   H15A11715   1.887   0.318  10.771 -0.6099  0.2303 -0.1398
  113OSM   H15B11716   1.815   0.153  10.791 -0.2365 -2.7443  4.1887
  113OSM   H15C11717   1.979   0.173  10.827 -1.7671 -1.5675  2.5063
  113OSM    C1411718   1.726   0.339  10.983  0.7154  0.4325  0.8273
  113OSM   H14A11719   1.645   0.327  10.913  1.7645  1.6773 -0.6747
  113OSM   H14B11720   1.745   0.445  10.971  0.4884  0.4853  0.9366
  113OSM   H14C11721   1.689   0.322  11.083  0.7920 -0.7383  0.6703
  113OSM    C1311722   1.789   0.123  11.023  0.1802 -0.1386 -0.2193
  113OSM   H13A11723   1.780   0.140  11.129 -2.7837 -2.2419  0.0140
  113OSM   H13B11724   1.850   0.036  11.003 -0.1410 -0.4682  0.2185
  113OSM   H13C11725   1.690   0.114  10.979 -0.7116 -0.2462  1.7268
  113OSM    C1211726   1.956   0.311  11.051  0.0462  0.4870 -0.3701
  113OSM   H12A11727   2.037   0.241  11.031  0.2132  1.1749 -2.2685
  113OSM   H12B11728   1.927   0.305  11.155  0.0760  2.1157 -0.2425
  113OSM    C1111729   1.997   0.455  11.009 -0.2463  0.1647 -0.4427
  113OSM   H11A11730   1.912   0.527  11.005  0.9467  1.6172 -0.0884
  113OSM   H11B11731   2.050   0.455  10.911  2.5421  2.0225  0.9489
  113OSM      P11732   2.240   0.518  11.097  0.0015  0.2863 -0.1643
  113OSM    O1311733   2.296   0.608  11.198 -0.0222  0.9524  0.0610
  113OSM    O1411734   2.295   0.379  11.094 -0.4497  0.1491  0.4027
  113OSM    O1111735   2.250   0.589  10.957  0.6278  0.4075  0.3181
  113OSM    O1211736   2.085   0.504  11.111 -0.0710  0.1284  0.3884
  113OSM    C1S11737   2.340   0.532  10.859 -0.4037  0.1772 -0.1984
  113OSM    H1S11738   2.349   0.422  10.870 -0.7961  0.1613  0.0014
  113OSM    H1T11739   2.439   0.576  10.882 -0.6672  1.7319 -1.7957
  113OSM     NF11740   2.332   0.468  10.615 -0.5988 -0.2989  0.2861
  113OSM    HNF11741   2.420   0.475  10.569 -0.6121  1.1811  0.4303
  113OSM    C2S11742   2.293   0.568  10.713  0.0445 -0.1133  0.9132
  113OSM    H2S11743   2.184   0.575  10.734  0.2995 -0.2488  2.4133
  113OSM    C3S11744   2.340   0.715  10.672  0.3363 -0.0493 -0.2837
  113OSM    H3S11745   2.441   0.702  10.627  0.8112  2.6160 -0.1930
  113OSM     O311746   2.345   0.809  10.785  0.1326  0.7733  0.2205
  113OSM    HO311747   2.312   0.760  10.861 -1.4521  0.5734 -0.5756
  113OSM    C4S11748   2.261   0.781  10.566  0.2657 -0.1194 -0.1635
  113OSM    H4S11749   2.282   0.736  10.468  0.8505  0.6815 -0.4113
  113OSM    C5S11750   2.164   0.873  10.578 -0.3651 -0.1190  0.0829
  113OSM    H5S11751   2.125   0.916  10.672 -2.1502 -0.9714 -0.2249
  113OSM    C6S11752   2.099   0.947  10.466 -0.9637 -0.4015  0.1967
  113OSM    H6S11753   2.056   1.044  10.500  1.3082  1.7322 -2.5806
  113OSM    H6T11754   2.008   0.898  10.424 -2.0002  1.6251 -0.0558
  113OSM    C7S11755   2.192   0.990  10.355 -0.0013 -0.4501  0.8220
  113OSM    H7S11756   2.245   0.906  10.305  0.5905  0.5368 -0.2667
  113OSM    H7T11757   2.287   1.039  10.387  0.3635 -0.9719  0.5578
  113OSM    C8S11758   2.115   1.066  10.251 -0.5938 -0.2365  0.5300
  113OSM    H8S11759   2.035   1.130  10.296 -1.6731 -0.6945 -0.6840
  113OSM    H8T11760   2.057   0.995  10.188  1.2945  0.4080 -2.0958
  113OSM    C9S11761   2.211   1.161  10.176 -0.1138  0.6896  0.3869
  113OSM    H9S11762   2.295   1.186  10.243  1.3671 -0.4968 -0.9395
  113OSM    H9T11763   2.170   1.255  10.133 -0.0357  0.3445 -0.4819
  113OSM   C10S11764   2.293   1.086  10.059 -0.6194  0.3165  0.1233
  113OSM   H10S11765   2.328   0.986  10.094  2.7976  0.4826 -2.2684
  113OSM   H10T11766   2.389   1.139  10.039  0.9824 -2.5401 -0.3254
  113OSM   C11S11767   2.216   1.051   9.934 -0.8454 -0.3498 -0.2222
  113OSM   H11S11768   2.117   1.013   9.967 -0.0451 -2.9418 -0.6242
  113OSM   H11T11769   2.272   0.972   9.880  2.6610  1.0032  1.1317
  113OSM   C12S11770   2.202   1.172   9.841  0.1109 -0.1191 -0.2375
  113OSM   H12S11771   2.306   1.211   9.827  0.5835 -1.4327 -0.5019
  113OSM   H12T11772   2.145   1.255   9.889  0.4853 -0.2727  0.4845
  113OSM   C13S11773   2.154   1.145   9.699 -0.1717 -0.6791 -0.4760
  113OSM   H13S11774   2.159   1.248   9.659  1.4616  0.6315  2.7088
  113OSM   H13T11775   2.049   1.110   9.697 -0.1693 -0.7193  0.0435
  113OSM   C14S11776   2.255   1.050   9.632  0.5007 -0.1258 -0.0234
  113OSM   H14S11777   2.220   0.945   9.645  1.1218 -0.2048  1.1549
  113OSM   H14T11778   2.349   1.053   9.690 -1.4807  1.2201  3.4391
  113OSM   C15S11779   2.283   1.095   9.488 -0.6740  0.0627  0.5182
  113OSM   H15S11780   2.329   1.196   9.492 -1.4499  0.3929  1.7276
  113OSM   H15T11781   2.183   1.096   9.441 -0.6498 -1.4520  0.3965
  113OSM   C16S11782   2.385   1.004   9.411  0.1914  0.2658 -0.5835
  113OSM   H16S11783   2.359   0.896   9.410 -0.2063  0.2928  1.6316
  113OSM   H16T11784   2.485   1.001   9.460 -0.9536  0.6923  1.9721
  113OSM   C17S11785   2.399   1.042   9.257 -0.0215 -0.0917 -0.3899
  113OSM   H17S11786   2.440   1.145   9.245  0.3231 -0.1232  0.4928
  113OSM   H17T11787   2.294   1.037   9.220 -0.2043 -1.4744  0.2725
  113OSM   C18S11788   2.496   0.951   9.179 -0.1089 -0.3489  0.1117
  113OSM   H18S11789   2.458   0.847   9.185 -3.4920  0.7832  0.1886
  113OSM   H18T11790   2.600   0.955   9.216  0.5685 -2.6573 -1.2867
  113OSM   H18U11791   2.501   0.996   9.077 -0.0126  0.8853  0.6475
  113OSM    C1F11792   2.263   0.358  10.615 -0.0182 -0.0809 -0.9318
  113OSM     OF11793   2.162   0.352  10.685 -0.8217  0.1100 -0.1008
  113OSM    C2F11794   2.310   0.242  10.533  0.6809 -1.0056 -0.5864
  113OSM    H2F11795   2.407   0.275  10.489  0.6626  1.8397  1.2513
  113OSM    H2G11796   2.244   0.251  10.444  1.1275  0.8742 -0.7666
  113OSM    C3F11797   2.306   0.109  10.609  0.3366 -0.2392 -0.0137
  113OSM    H3F11798   2.199   0.088  10.628 -0.2390  1.1736 -1.4531
  113OSM    H3G11799   2.365   0.113  10.703  1.3875  0.0352 -0.6656
  113OSM    C4F11800   2.379   0.003  10.530  0.5466  0.4705  0.6638
  113OSM    H4F11801   2.357  -0.098  10.570  1.3048  0.8758  2.1925
  113OSM    H4G11802   2.488   0.020  10.543  1.0424 -1.8227 -0.0950
  113OSM    C5F11803   2.365  -0.006  10.370 -0.3493 -0.1651  0.1273
  113OSM    H5F11804   2.417   0.081  10.326  0.0717 -0.7881 -0.6432
  113OSM    H5G11805   2.256   0.001  10.350 -0.5239  0.7342  1.2565
  113OSM    C6F11806   2.430  -0.130  10.308  0.0296 -0.3949 -0.5686
  113OSM    H6F11807   2.389  -0.226  10.346 -0.6309 -0.3031 -1.0331
  113OSM    H6G11808   2.539  -0.136  10.324 -0.3446 -0.5283  2.4307
  113OSM    C7F11809   2.410  -0.134  10.150 -0.1464 -0.5098  0.0566
  113OSM    H7F11810   2.474  -0.050  10.116  0.6911 -0.3743  1.8973
  113OSM    H7G11811   2.301  -0.120  10.129  0.2708  1.0246 -1.2928
  113OSM    C8F11812   2.473  -0.260  10.081 -0.2379  0.4835  0.1267
  113OSM    H8F11813   2.572  -0.259  10.133  0.5923  2.0838 -1.3706
  113OSM    H8G11814   2.487  -0.241   9.973 -2.5993  1.6663 -0.0166
  113OSM    C9F11815   2.384  -0.378  10.106  0.1008 -0.2073  0.4442
  113OSM    H9F11816   2.299  -0.358  10.172 -0.8281 -0.8194 -0.5362
  113OSM   C10F11817   2.390  -0.494  10.039 -0.2758 -0.2886 -0.4490
  113OSM   H10F11818   2.315  -0.570  10.065  0.4182 -1.3193 -1.3959
  113OSM   C11F11819   2.505  -0.535   9.941  0.4549  0.3322  0.5737
  113OSM   H11F11820   2.557  -0.623   9.984 -0.1249  0.1488  0.9017
  113OSM   H11G11821   2.585  -0.458   9.930  3.7089 -2.7708  0.5407
  113OSM   C12F11822   2.467  -0.575   9.791  0.1833 -0.1619 -0.9513
  113OSM   H12F11823   2.358  -0.590   9.778 -0.2884 -0.5044  2.6361
  113OSM   H12G11824   2.509  -0.675   9.767 -1.1677 -1.7250  2.5992
  113OSM   C13F11825   2.504  -0.463   9.693  0.0902  0.5519 -0.4578
  113OSM   H13F11826   2.594  -0.408   9.727 -1.4615  2.1373  1.3070
  113OSM   H13G11827   2.416  -0.397   9.691 -0.2126  0.2368  1.0945
  113OSM   C14F11828   2.525  -0.528   9.552 -0.1515  0.5445  0.2341
  113OSM   H14F11829   2.436  -0.588   9.522  0.5159  1.0253 -2.9923
  113OSM   H14G11830   2.610  -0.599   9.559 -1.8883 -1.6046  0.7184
  113OSM   C15F11831   2.533  -0.429   9.430 -0.0850  0.3851  0.7594
  113OSM   H15F11832   2.629  -0.375   9.438 -0.7994  1.7298  0.6150
  113OSM   H15G11833   2.448  -0.358   9.440 -1.6092 -1.1651 -0.5575
  113OSM   C16F11834   2.529  -0.511   9.299  0.1581 -0.4603  0.2098
  113OSM   H16F11835   2.438  -0.575   9.292  0.1011 -0.3630  0.0605
  113OSM   H16G11836   2.622  -0.572   9.294  2.0567  2.3261 -1.2003
  113OSM   C17F11837   2.524  -0.425   9.169  0.6162  0.4381  0.3323
  113OSM   H17F11838   2.596  -0.340   9.169  1.3795 -0.1163 -2.4278
  113OSM   H17G11839   2.426  -0.375   9.164  1.6081  2.3259 -2.2918
  113OSM   C18F11840   2.537  -0.506   9.040  0.2357  0.3248  0.2256
  113OSM   H18F11841   2.444  -0.564   9.022  0.4570  0.1660 -0.4359
  113OSM   H18G11842   2.621  -0.577   9.029 -0.6809 -0.7536 -0.0804
  113OSM   H18H11843   2.546  -0.439   8.951  1.5322  0.4992  0.4766
  114OSM      N11844   3.713   2.984  11.318  0.1925 -0.3047 -0.0767
  114OSM    C1511845   3.689   2.923  11.451 -0.0706 -0.2653  0.0665
  114OSM   H15A11846   3.698   2.996  11.531 -2.5911 -1.3862  1.4577
  114OSM   H15B11847   3.756   2.842  11.474  0.3418 -1.2928 -4.1012
  114OSM   H15C11848   3.593   2.876  11.454  0.4437 -1.5319 -1.7386
  114OSM    C1411849   3.607   3.090  11.287  0.0469  0.1326  0.9519
  114OSM   H14A11850   3.630   3.141  11.194  0.5937 -0.0048  1.0121
  114OSM   H14B11851   3.580   3.163  11.362 -2.3847 -0.5254  0.8181
  114OSM   H14C11852   3.514   3.036  11.275 -0.5471  0.6399  2.9163
  114OSM    C1311853   3.847   3.049  11.328 -0.0310 -0.0477 -0.0911
  114OSM   H13A11854   3.876   3.110  11.244  1.8227  1.1647  1.3242
  114OSM   H13B11855   3.915   2.974  11.365  1.7155  0.6847 -1.6730
  114OSM   H13C11856   3.854   3.124  11.406  1.8784  0.7450 -0.9754
  114OSM    C1211857   3.721   2.873  11.205  0.1615  1.1793 -0.3231
  114OSM   H12A11858   3.804   2.805  11.221  1.0294  0.9542 -4.4398
  114OSM   H12B11859   3.744   2.914  11.108 -1.8783  1.8641 -0.5585
  114OSM    C1111860   3.593   2.780  11.181  0.0323  0.1005 -0.8580
  114OSM   H11A11861   3.576   2.717  11.271  0.2754 -2.2126 -2.3705
  114OSM   H11B11862   3.621   2.713  11.097 -0.2698  1.0630 -1.7526
  114OSM      P11863   3.418   2.851  11.001  0.4156 -0.1670 -0.3922
  114OSM    O1311864   3.377   2.718  10.949 -0.1782 -0.3656 -0.1126
  114OSM    O1411865   3.320   2.960  10.975  0.0617  0.0932 -0.1894
  114OSM    O1111866   3.549   2.901  10.928  0.2848  0.0825 -0.4391
  114OSM    O1211867   3.469   2.846  11.151  0.3130 -0.2227 -0.2522
  114OSM    C1S11868   3.584   2.854  10.803 -0.4801  0.6636 -0.4961
  114OSM    H1S11869   3.497   2.855  10.734 -0.1482 -0.0484 -0.9409
  114OSM    H1T11870   3.621   2.750  10.816 -3.0720 -0.1003  1.5893
  114OSM     NF11871   3.717   2.896  10.608  0.1612  0.1856  0.1274
  114OSM    HNF11872   3.793   2.833  10.615 -0.3705 -0.5239 -0.3092
  114OSM    C2S11873   3.680   2.948  10.731 -0.0029 -0.5299 -0.2919
  114OSM    H2S11874   3.619   3.039  10.716 -0.6936 -1.0499 -0.7158
  114OSM    C3S11875   3.797   2.975  10.822  0.0228 -0.0649 -0.2930
  114OSM    H3S11876   3.818   2.875  10.865  2.1917  0.6324  0.4259
  114OSM     O311877   3.778   3.058  10.939  0.2052  0.1787 -0.5467
  114OSM    HO311878   3.685   3.043  10.961  0.1560  0.2693 -0.6907
  114OSM    C4S11879   3.911   3.039  10.746 -0.6432 -0.4848 -0.1315
  114OSM    H4S11880   3.897   3.145  10.721 -1.3069 -0.2660  1.1037
  114OSM    C5S11881   4.034   2.986  10.730  0.4668 -0.1332  0.2961
  114OSM    H5S11882   4.050   2.886  10.773 -1.9300 -0.0406  1.5380
  114OSM    C6S11883   4.138   3.067  10.652  0.0240  0.4229  0.1683
  114OSM    H6S11884   4.227   3.003  10.633  1.1717  2.3976 -1.4967
  114OSM    H6T11885   4.171   3.148  10.720 -1.7828  0.3591  1.1952
  114OSM    C7S11886   4.093   3.127  10.513 -0.1548  0.3733 -0.2511
  114OSM    H7S11887   4.016   3.205  10.534  0.2953  1.5079 -2.4927
  114OSM    H7T11888   4.058   3.043  10.449 -1.1594 -2.0204  3.1600
  114OSM    C8S11889   4.210   3.203  10.454 -0.1561  0.4576  0.0699
  114OSM    H8S11890   4.298   3.139  10.430 -1.6224 -1.2096 -1.1305
  114OSM    H8T11891   4.241   3.261  10.544 -1.4140  0.8661  0.2468
  114OSM    C9S11892   4.172   3.295  10.340  0.3018 -0.5101  0.5975
  114OSM    H9S11893   4.265   3.312  10.281  0.1236 -0.7093  0.2608
  114OSM    H9T11894   4.128   3.389  10.379  0.3819 -0.4027  0.4298
  114OSM   C10S11895   4.088   3.221  10.238 -0.9298 -0.5608 -0.8321
  114OSM   H10S11896   3.989   3.204  10.286 -0.6788  1.7901  0.6959
  114OSM   H10T11897   4.143   3.126  10.224 -0.6327 -1.0135  2.5715
  114OSM   C11S11898   4.077   3.302  10.107 -0.3737 -0.0784 -0.1678
  114OSM   H11S11899   4.174   3.313  10.054 -1.1479 -0.4091 -1.7066
  114OSM   H11T11900   4.031   3.402  10.121  1.0361  0.2914  2.6109
  114OSM   C12S11901   4.000   3.233  10.002  0.3846 -0.5190  0.0205
  114OSM   H12S11902   3.898   3.215  10.044  0.8249 -0.0970  1.3219
  114OSM   H12T11903   4.036   3.129   9.986 -1.4070 -1.3351  0.9582
  114OSM   C13S11904   3.976   3.318   9.871 -0.6162 -0.0438 -0.6455
  114OSM   H13S11905   3.944   3.420   9.901 -0.3015  0.1605 -0.9959
  114OSM   H13T11906   3.886   3.281   9.817 -3.0695  2.0955  1.6594
  114OSM   C14S11907   4.106   3.311   9.783  0.1256  0.2663  0.6744
  114OSM   H14S11908   4.152   3.214   9.811 -1.3755 -0.6030  0.2694
  114OSM   H14T11909   4.179   3.390   9.810 -3.3574  3.2648  2.0727
  114OSM   C15S11910   4.086   3.323   9.631 -0.0379  0.0329 -0.7957
  114OSM   H15S11911   4.066   3.431   9.618 -1.4115  0.4953  3.6160
  114OSM   H15T11912   3.996   3.266   9.600  0.0708  0.2776 -1.5757
  114OSM   C16S11913   4.205   3.290   9.535 -0.4703  0.6837  0.0666
  114OSM   H16S11914   4.214   3.180   9.544  2.2790  1.0122  3.9695
  114OSM   H16T11915   4.301   3.333   9.569  0.1468 -0.7883  0.2592
  114OSM   C17S11916   4.183   3.328   9.385 -0.0774  0.3171  0.4530
  114OSM   H17S11917   4.261   3.286   9.318 -0.1182  1.7799 -0.5732
  114OSM   H17T11918   4.198   3.438   9.374  0.1640  0.3449  1.0399
  114OSM   C18S11919   4.039   3.306   9.338 -0.1136  0.1825  0.0649
  114OSM   H18S11920   4.017   3.200   9.362  1.3588  0.0123  0.7633
  114OSM   H18T11921   4.025   3.327   9.230 -3.9362 -3.9581 -0.5268
  114OSM   H18U11922   3.981   3.381   9.396 -0.4083 -0.4470  0.6011
  114OSM    C1F11923   3.657   2.909  10.492 -0.0542 -0.1012  0.2723
  114OSM     OF11924   3.553   2.970  10.490  0.0733 -0.0517 -0.0970
  114OSM    C2F11925   3.716   2.850  10.368  0.0775 -0.0527 -0.1905
  114OSM    H2F11926   3.796   2.776  10.389 -0.2642  0.0586  1.6599
  114OSM    H2G11927   3.749   2.943  10.317  1.9797  0.1089  1.2404
  114OSM    C3F11928   3.607   2.792  10.271  0.3707 -0.1737 -0.9421
  114OSM    H3F11929   3.530   2.871  10.257  0.0264 -0.2218  0.5858
  114OSM    H3G11930   3.557   2.709  10.325  1.4040  0.3541  0.9061
  114OSM    C4F11931   3.679   2.756  10.140  0.4220  0.3848 -0.4008
  114OSM    H4F11932   3.621   2.680  10.084  0.3722  0.0259  0.1247
  114OSM    H4G11933   3.768   2.693  10.157 -2.2072 -4.6616 -3.0259
  114OSM    C5F11934   3.694   2.871  10.042  0.0477 -0.2074  0.4012
  114OSM    H5F11935   3.745   2.954  10.097  0.5985 -1.1049  1.2971
  114OSM    H5G11936   3.599   2.909  10.000  1.4117  0.4287 -2.3179
  114OSM    C6F11937   3.790   2.827   9.930 -0.1314  0.5188 -0.4364
  114OSM    H6F11938   3.757   2.731   9.886  1.6227 -0.5339  0.4184
  114OSM    H6G11939   3.888   2.807   9.978 -0.0793  2.0933  0.1560
  114OSM    C7F11940   3.809   2.929   9.818 -0.1489 -0.2812 -0.2050
  114OSM    H7F11941   3.831   3.025   9.871 -1.1870 -0.8761  1.3534
  114OSM    H7G11942   3.713   2.934   9.763 -1.9273  0.4067  2.7589
  114OSM    C8F11943   3.927   2.895   9.720 -0.1310  0.1643 -0.1675
  114OSM    H8F11944   4.003   2.872   9.797 -2.0333 -1.7231  1.2452
  114OSM    H8G11945   3.952   2.988   9.664 -2.9656 -0.4669 -2.7439
  114OSM    C9F11946   3.903   2.786   9.622  0.2854  0.4517  1.0724
  114OSM    H9F11947   3.907   2.686   9.667 -1.2890 -0.4034 -0.5785
  114OSM   C10F11948   3.921   2.787   9.490 -0.2390  0.4713  0.3083
  114OSM   H10F11949   3.909   2.690   9.440  0.0947  0.1201  0.9067
  114OSM   C11F11950   3.960   2.900   9.402 -0.0446 -0.4061  0.2142
  114OSM   H11F11951   3.930   2.993   9.454  0.9133  0.0204  0.0153
  114OSM   H11G11952   3.900   2.904   9.308  0.3753 -0.1268 -0.0457
  114OSM   C12F11953   4.110   2.912   9.360  0.2324  0.2738 -0.5457
  114OSM   H12F11954   4.165   2.906   9.457  0.5113 -2.0268 -0.7848
  114OSM   H12G11955   4.125   3.009   9.308 -0.3267  0.0042 -1.2216
  114OSM   C13F11956   4.159   2.810   9.254 -0.1487  0.0541  0.3444
  114OSM   H13F11957   4.138   2.831   9.147 -0.8860 -1.0317  0.2660
  114OSM   H13G11958   4.108   2.714   9.275  0.0339 -0.0942  0.1106
  114OSM   C14F11959   4.313   2.787   9.257 -0.3833  0.3653  0.3774
  114OSM   H14F11960   4.348   2.714   9.181  1.4626  2.2864 -0.7029
  114OSM   H14G11961   4.346   2.738   9.351  1.1181  0.1805 -0.2269
  114OSM   C15F11962   4.388   2.918   9.220 -0.6886 -0.3775 -0.1227
  114OSM   H15F11963   4.495   2.898   9.238 -1.2122 -1.0821  2.7086
  114OSM   H15G11964   4.367   2.999   9.292 -0.4003 -0.3809 -0.0356
  114OSM   C16F11965   4.360   2.967   9.081 -0.2769  0.2177  0.4482
  114OSM   H16F11966   4.279   3.042   9.091  1.0872  1.4940  2.7647
  114OSM   H16G11967   4.339   2.873   9.025  3.0383 -0.8744  0.8534
  114OSM   C17F11968   4.472   3.044   9.001 -0.4552 -0.3687 -0.3748
  114OSM   H17F11969   4.437   3.079   8.901  0.8515  1.6716 -0.1880
  114OSM   H17G11970   4.553   2.971   8.979 -0.0067 -0.0994  0.3402
  114OSM   C18F11971   4.511   3.171   9.086 -0.3362  0.0190  0.4937
  114OSM   H18F11972   4.416   3.226   9.106  0.4275  0.9476  1.7075
  114OSM   H18G11973   4.579   3.240   9.032  0.3422 -0.1360  1.1314
  114OSM   H18H11974   4.557   3.135   9.180  0.6859 -1.8140 -0.6432
  115OSM      N11975   5.854   0.903  11.512  0.1574 -0.1224 -0.3126
  115OSM    C1511976   5.744   0.800  11.499  0.5773  0.6283  0.4165
  115OSM   H15A11977   5.680   0.810  11.413 -0.3979 -3.6838  0.3996
  115OSM   H15B11978   5.681   0.786  11.585 -0.2052 -1.9116 -0.4698
  115OSM   H15C11979   5.790   0.703  11.490 -0.0119  0.2321  1.5707
  115OSM    C1411980   5.791   1.036  11.526  0.3517 -0.4405 -0.9036
  115OSM   H14A11981   5.738   1.070  11.438 -2.8357 -0.9191  0.6905
  115OSM   H14B11982   5.854   1.118  11.556 -0.3515 -0.7967  1.7780
  115OSM   H14C11983   5.715   1.029  11.602 -0.6089 -4.3713 -1.9599
  115OSM    C1311984   5.928   0.870  11.640  0.4373 -0.1451 -0.1679
  115OSM   H13A11985   5.875   0.870  11.734  3.1785 -0.5030  1.4675
  115OSM   H13B11986   6.008   0.939  11.659 -1.3154  2.2783 -1.0610
  115OSM   H13C11987   5.980   0.777  11.623 -0.8852 -1.0137  0.3402
  115OSM    C1211988   5.948   0.890  11.391  0.0786  0.0884 -0.2322
  115OSM   H12A11989   5.971   0.785  11.387  2.5187  0.4681  1.3559
  115OSM   H12B11990   6.047   0.922  11.419 -0.7836  2.4120  0.4265
  115OSM    C1111991   5.919   0.945  11.244 -0.1159  0.5145  0.7335
  115OSM   H11A11992   6.006   0.921  11.180 -0.9089 -0.5516  0.0157
  115OSM   H11B11993   5.914   1.056  11.252 -0.0487  0.6787 -1.2127
  115OSM      P11994   5.798   0.746  11.122  0.2518 -0.1770 -0.1252
  115OSM    O1311995   5.892   0.651  11.185 -0.1021 -0.0957  0.0278
  115OSM    O1411996   5.670   0.681  11.105 -0.0798  0.2631  0.0799
  115OSM    O1111997   5.866   0.785  10.984 -0.1767 -0.5608  0.4291
  115OSM    O1211998   5.798   0.887  11.197  0.6011  0.9557 -0.3025
  115OSM    C1S11999   5.860   0.695  10.871 -0.0370 -0.0326 -0.3294
  115OSM    H1S12000   5.752   0.680  10.853 -0.1280  0.4371 -0.1854
  115OSM    H1T12001   5.912   0.598  10.886  1.1967  0.4427 -1.3223
  115OSM     NF12002   5.899   0.673  10.629 -0.5269  1.0703  0.8101
  115OSM    HNF12003   5.986   0.648  10.589 -0.8507 -0.2516  0.8798
  115OSM    C2S12004   5.917   0.766  10.741 -0.1456 -0.8757 -0.4372
  115OSM    H2S12005   5.846   0.849  10.722 -3.3522 -3.0247  1.2098
  115OSM    C3S12006   6.064   0.812  10.759 -0.1869  0.1290  0.3948
  115OSM    H3S12007   6.127   0.721  10.767  1.9949  1.1303 -2.9062
  115OSM     O312008   6.090   0.875  10.887  0.7177  0.3669  0.2107
  115OSM    HO312009   6.013   0.839  10.933  0.2542 -0.0924 -0.8851
  115OSM    C4S12010   6.129   0.892  10.646 -0.5229 -0.1106 -0.8980
  115OSM    H4S12011   6.216   0.832  10.614 -0.9802 -1.8905  0.9706
  115OSM    C5S12012   6.092   1.010  10.587 -0.1755 -0.7395 -0.2121
  115OSM    H5S12013   5.997   1.059  10.615  0.0440  0.9350 -2.1307
  115OSM    C6S12014   6.175   1.086  10.482  0.1848  0.2772  0.0144
  115OSM    H6S12015   6.149   1.194  10.483 -0.6325  0.1596 -2.1029
  115OSM    H6T12016   6.151   1.040  10.383  0.5019  1.6021 -0.7082
  115OSM    C7S12017   6.333   1.080  10.495  0.1327 -0.4618 -0.2546
  115OSM    H7S12018   6.368   0.976  10.509  2.6200  0.5658  1.9915
  115OSM    H7T12019   6.350   1.128  10.594 -0.4006 -0.6065 -0.0882
  115OSM    C8S12020   6.405   1.155  10.380 -0.2530 -0.1803  0.3252
  115OSM    H8S12021   6.512   1.159  10.409  0.0545 -0.0145 -0.8048
  115OSM    H8T12022   6.361   1.257  10.385 -1.1710 -0.5674  0.3118
  115OSM    C9S12023   6.392   1.099  10.241  0.2300 -0.0058 -0.2382
  115OSM    H9S12024   6.286   1.078  10.217  0.0309  1.7620 -1.0708
  115OSM    H9T12025   6.452   1.006  10.225 -0.6051 -0.6709  0.3949
  115OSM   C10S12026   6.450   1.198  10.143 -0.1735  0.0820 -0.4283
  115OSM   H10S12027   6.556   1.217  10.171 -0.4680  0.7003  0.3239
  115OSM   H10T12028   6.381   1.285  10.155 -0.2529 -0.2022  1.4316
  115OSM   C11S12029   6.446   1.143  10.007 -0.3206  0.3164  0.1685
  115OSM   H11S12030   6.345   1.134   9.960  0.2316 -0.9718 -0.8706
  115OSM   H11T12031   6.470   1.034  10.011 -0.4504  0.2679 -0.2633
  115OSM   C12S12032   6.539   1.215   9.909 -0.2295  0.1621 -0.2053
  115OSM   H12S12033   6.644   1.224   9.942 -0.4181 -0.4437  0.5799
  115OSM   H12T12034   6.504   1.320   9.903 -1.9019 -0.3251  0.4664
  115OSM   C13S12035   6.549   1.149   9.777 -0.0914  0.6659  0.6018
  115OSM   H13S12036   6.447   1.129   9.739  0.4981  0.7559 -1.1148
  115OSM   H13T12037   6.599   1.050   9.787 -1.7379 -0.3838 -0.9445
  115OSM   C14S12038   6.611   1.220   9.659 -0.2427  0.1806 -0.2077
  115OSM   H14S12039   6.714   1.260   9.671 -0.0838  0.0947 -1.2106
  115OSM   H14T12040   6.553   1.311   9.633  1.2030  1.1560 -0.1319
  115OSM   C15S12041   6.614   1.127   9.537  0.1194  0.0155 -0.4188
  115OSM   H15S12042   6.521   1.068   9.531 -1.0513  1.7583 -0.1918
  115OSM   H15T12043   6.692   1.049   9.544  0.0211  0.0311  1.0697
  115OSM   C16S12044   6.633   1.198   9.397  0.3024  0.0846 -0.2857
  115OSM   H16S12045   6.557   1.279   9.391  0.1051 -0.0911 -0.1259
  115OSM   H16T12046   6.619   1.135   9.307  1.3742  1.1371 -1.2437
  115OSM   C17S12047   6.777   1.252   9.377 -0.1987 -0.3020  0.1098
  115OSM   H17S12048   6.850   1.170   9.394  1.3049  1.3778  2.1766
  115OSM   H17T12049   6.794   1.329   9.455 -0.4179 -0.7608  0.6136
  115OSM   C18S12050   6.797   1.334   9.255  0.4094  1.1986  0.5857
  115OSM   H18S12051   6.890   1.391   9.232  0.6008  0.5435 -0.3059
  115OSM   H18T12052   6.708   1.400   9.248  0.0902  0.7068 -0.0348
  115OSM   H18U12053   6.799   1.260   9.172  2.3201 -1.1107  2.5113
  115OSM    C1F12054   5.781   0.637  10.580 -0.1933 -0.5740 -0.6310
  115OSM     OF12055   5.678   0.703  10.605  0.3771  0.5988  0.4235
  115OSM    C2F12056   5.777   0.517  10.490  0.3109 -0.2069  0.3520
  115OSM    H2F12057   5.692   0.456  10.526 -0.7679 -0.2327 -2.0508
  115OSM    H2G12058   5.875   0.465  10.502  0.4915  0.1880  0.6072
  115OSM    C3F12059   5.737   0.556  10.345 -0.3943  0.1667 -0.6298
  115OSM    H3F12060   5.813   0.629  10.311 -1.0757  1.2163  0.0538
  115OSM    H3G12061   5.642   0.613  10.346  0.0257  0.8939  1.3759
  115OSM    C4F12062   5.718   0.448  10.233  0.0681  0.8318  0.5362
  115OSM    H4F12063   5.630   0.385  10.260  1.3833 -1.4654 -0.2044
  115OSM    H4G12064   5.793   0.366  10.242 -2.3148 -1.5956 -0.4122
  115OSM    C5F12065   5.689   0.495  10.094 -0.1081  0.3345  0.5382
  115OSM    H5F12066   5.758   0.573  10.056  1.0588 -0.0290  1.8458
  115OSM    H5G12067   5.588   0.542  10.083 -0.0200  0.7377  1.4087
  115OSM    C6F12068   5.682   0.378   9.988  0.0624  0.8062 -0.9049
  115OSM    H6F12069   5.596   0.312  10.013 -1.0909  2.9793  1.4185
  115OSM    H6G12070   5.775   0.321   9.969  0.3278  1.0328 -0.3289
  115OSM    C7F12071   5.633   0.429   9.847 -0.5946  0.5548  0.2377
  115OSM    H7F12072   5.526   0.456   9.860 -1.1088 -0.8595 -0.8568
  115OSM    H7G12073   5.638   0.350   9.770  1.1680  0.3526  0.5022
  115OSM    C8F12074   5.706   0.549   9.782 -0.5717  0.2625 -0.5051
  115OSM    H8F12075   5.688   0.643   9.839  1.2696 -0.3133  1.1384
  115OSM    H8G12076   5.657   0.573   9.685 -3.5787  0.3865  0.9199
  115OSM    C9F12077   5.854   0.512   9.760  0.1812  0.0658  0.1645
  115OSM    H9F12078   5.907   0.487   9.852  0.1662 -1.3404 -0.1823
  115OSM   C10F12079   5.930   0.521   9.652  0.1665  0.0106  0.4724
  115OSM   H10F12080   6.036   0.496   9.666  0.5512  2.6522  3.1963
  115OSM   C11F12081   5.893   0.571   9.516  0.1325 -0.3117 -0.2636
  115OSM   H11F12082   5.789   0.611   9.525  2.0303  5.6461 -0.7794
  115OSM   H11G12083   5.878   0.484   9.449  0.7551  0.2668 -1.1707
  115OSM   C12F12084   5.967   0.686   9.447 -0.0686 -0.4123 -0.0381
  115OSM   H12F12085   6.067   0.642   9.425  0.5737  0.6715  0.6226
  115OSM   H12G12086   5.986   0.768   9.519  1.2518 -0.9174  0.2232
  115OSM   C13F12087   5.909   0.732   9.319  0.1707  0.1348 -0.1088
  115OSM   H13F12088   5.977   0.799   9.262  0.2553 -0.7845 -1.1133
  115OSM   H13G12089   5.810   0.780   9.339 -0.2131 -0.1321 -1.2819
  115OSM   C14F12090   5.882   0.621   9.220 -0.5346  0.4769 -0.3585
  115OSM   H14F12091   5.796   0.558   9.250 -1.5253 -1.3788 -5.9685
  115OSM   H14G12092   5.972   0.557   9.225  0.0853  1.2429 -1.4438
  115OSM   C15F12093   5.859   0.677   9.077 -0.3153 -0.2155 -0.7208
  115OSM   H15F12094   5.952   0.719   9.033  0.0915 -0.3297  0.0080
  115OSM   H15G12095   5.786   0.760   9.081  1.6207  1.5692 -0.1365
  115OSM   C16F12096   5.826   0.573   8.969 -0.7089  0.2307  0.3508
  115OSM   H16F12097   5.739   0.514   9.005 -1.6446  1.2585 -0.1713
  115OSM   H16G12098   5.914   0.505   8.970  0.1337  1.2893  0.6576
  115OSM   C17F12099   5.786   0.637   8.832  0.0322  0.0707  0.0537
  115OSM   H17F12100   5.830   0.584   8.745  4.1581  1.9864  0.7290
  115OSM   H17G12101   5.846   0.731   8.834  2.1645 -1.1984 -0.8759
  115OSM   C18F12102   5.641   0.661   8.813  0.7152 -0.5693  1.0570
  115OSM   H18F12103   5.627   0.715   8.718  2.4534  0.2308  1.2192
  115OSM   H18G12104   5.614   0.739   8.887  2.2292  0.2053  0.8302
  115OSM   H18H12105   5.585   0.566   8.827  1.3313 -1.1352 -0.1046
  116OSM      N12106   5.207   5.354  11.386  0.5348  0.8532  0.0626
  116OSM    C1512107   5.120   5.465  11.358 -1.0906  0.0223 -0.3152
  116OSM   H15A12108   5.127   5.540  11.436  0.7891 -1.6916  1.3061
  116OSM   H15B12109   5.017   5.433  11.366 -0.5637 -1.3094  2.6484
  116OSM   H15C12110   5.156   5.508  11.266  1.6951  1.0956  1.1545
  116OSM    C1412111   5.341   5.403  11.366 -0.3575 -0.1883  1.1089
  116OSM   H14A12112   5.361   5.493  11.422  0.2732 -0.3405  1.1390
  116OSM   H14B12113   5.357   5.410  11.260 -1.7144 -1.9449  0.7358
  116OSM   H14C12114   5.408   5.328  11.406  1.0685  0.7692  0.5964
  116OSM    C1312115   5.190   5.301  11.525 -0.1272  0.0246 -0.2251
  116OSM   H13A12116   5.095   5.254  11.545  0.8652 -1.3344  1.5759
  116OSM   H13B12117   5.200   5.389  11.587 -2.0300  0.6013 -0.6791
  116OSM   H13C12118   5.267   5.232  11.557 -0.0078  1.0739  1.9704
  116OSM    C1212119   5.176   5.233  11.287  0.5837  0.2207  0.4337
  116OSM   H12A12120   5.070   5.218  11.301  0.2917  2.2971  0.6892
  116OSM   H12B12121   5.214   5.138  11.323 -1.4332 -1.5764 -1.8805
  116OSM    C1112122   5.216   5.237  11.133  0.3306  0.1653  0.3950
  116OSM   H11A12123   5.178   5.143  11.087 -0.7775  0.4665  0.6800
  116OSM   H11B12124   5.327   5.240  11.131  0.3383  0.0326  0.6021
  116OSM      P12125   5.005   5.343  11.023  0.2121  0.2136  0.1948
  116OSM    O1312126   4.936   5.265  11.126  0.4767  0.1258 -0.0559
  116OSM    O1412127   4.955   5.473  10.983  0.0113  0.2271 -0.0049
  116OSM    O1112128   4.997   5.267  10.891  0.4273  0.1171  0.2431
  116OSM    O1212129   5.161   5.350  11.061  0.4621  0.5619  0.1695
  116OSM    C1S12130   5.092   5.279  10.784  0.1427 -0.3631  0.1261
  116OSM    H1S12131   5.196   5.272  10.823 -0.0815  0.0725  0.8275
  116OSM    H1T12132   5.085   5.385  10.751 -2.2234 -0.7090 -0.7062
  116OSM     NF12133   5.168   5.217  10.554  0.0171 -0.5268 -0.6709
  116OSM    HNF12134   5.138   5.250  10.464  0.1159  1.4347 -0.0323
  116OSM    C2S12135   5.067   5.188  10.658 -0.1951 -0.1982  0.2011
  116OSM    H2S12136   5.080   5.081  10.683  0.2878 -1.0582 -3.2132
  116OSM    C3S12137   4.919   5.211  10.607  0.6726 -0.4897  0.1837
  116OSM    H3S12138   4.908   5.319  10.585  1.7447 -0.6556 -1.3855
  116OSM     O312139   4.819   5.187  10.709  0.1484  0.2998  0.2583
  116OSM    HO312140   4.875   5.196  10.787 -0.7424 -0.3311  0.9995
  116OSM    C4S12141   4.890   5.119  10.490  0.5632 -0.1364  0.5393
  116OSM    H4S12142   4.931   5.170  10.402 -0.2107  3.0559  1.8984
  116OSM    C5S12143   4.830   4.999  10.485  1.3194 -0.2388 -0.1142
  116OSM    H5S12144   4.794   4.952  10.578 -0.8270  0.1967 -0.6909
  116OSM    C6S12145   4.802   4.915  10.363 -0.5670 -0.5989  0.5045
  116OSM    H6S12146   4.692   4.915  10.345 -0.7349 -0.6035  1.4902
  116OSM    H6T12147   4.837   4.812  10.387  0.7889 -0.6530 -1.4264
  116OSM    C7S12148   4.876   4.976  10.234 -0.0920  0.6138  0.5662
  116OSM    H7S12149   4.983   4.966  10.264 -0.6641  0.5377  2.6649
  116OSM    H7T12150   4.844   5.082  10.224 -0.2306  0.5032 -0.3035
  116OSM    C8S12151   4.839   4.896  10.108  0.0454  0.2851 -0.8000
  116OSM    H8S12152   4.731   4.878  10.089 -0.7455  1.0388  2.4099
  116OSM    H8T12153   4.885   4.795  10.107 -0.0183  0.2451 -0.2021
  116OSM    C9S12154   4.913   4.966   9.993  0.3009  0.3446 -0.2381
  116OSM    H9S12155   5.018   4.996  10.016  0.4331  0.7844 -1.3697
  116OSM    H9T12156   4.857   5.059   9.972  0.9190  0.9115  0.5686
  116OSM   C10S12157   4.900   4.872   9.868  0.6764  0.4624 -0.1342
  116OSM   H10S12158   4.795   4.837   9.860  1.1876 -2.1652  2.5752
  116OSM   H10T12159   4.963   4.780   9.874 -0.5447 -0.4579 -0.9953
  116OSM   C11S12160   4.942   4.940   9.738 -0.1256  0.1718 -0.7871
  116OSM   H11S12161   5.043   4.987   9.733 -1.0617  2.3903 -0.2503
  116OSM   H11T12162   4.881   5.029   9.708  0.4492  0.2537 -1.7489
  116OSM   C12S12163   4.928   4.845   9.615  0.1151 -0.8602  0.5096
  116OSM   H12S12164   4.821   4.851   9.588  0.7140 -0.1822 -2.0207
  116OSM   H12T12165   4.947   4.742   9.651  0.3775 -1.2038 -0.5624
  116OSM   C13S12166   5.007   4.873   9.487 -0.3780 -0.1710  0.8180
  116OSM   H13S12167   4.988   4.791   9.415  1.9278  0.4976 -0.6559
  116OSM   H13T12168   5.117   4.886   9.495 -0.3837  1.8956 -1.3624
  116OSM   C14S12169   4.943   4.999   9.424 -0.0259 -0.2087  0.0504
  116OSM   H14S12170   4.983   5.079   9.490 -1.9369  0.4486  0.4547
  116OSM   H14T12171   4.833   4.993   9.434 -0.1469  2.0324  0.4377
  116OSM   C15S12172   4.986   5.023   9.279 -0.0339  0.7272  0.5057
  116OSM   H15S12173   5.095   5.036   9.262 -0.0295 -1.3457 -1.4703
  116OSM   H15T12174   4.931   5.114   9.247  2.6776  2.0673 -0.7120
  116OSM   C16S12175   4.931   4.900   9.192 -0.2979 -0.3270 -0.0382
  116OSM   H16S12176   4.829   4.883   9.233 -0.5097  1.3594  0.2148
  116OSM   H16T12177   5.000   4.813   9.189  0.6590  0.4164 -0.2908
  116OSM   C17S12178   4.907   4.937   9.046 -1.1950 -0.2961 -0.2405
  116OSM   H17S12179   4.991   4.996   9.004 -0.6037 -1.5012 -0.7912
  116OSM   H17T12180   4.819   5.005   9.047  0.8590  2.5742 -1.2678
  116OSM   C18S12181   4.892   4.823   8.948  0.2862  0.7142  0.1242
  116OSM   H18S12182   4.984   4.760   8.944  0.4297  0.7845  1.7919
  116OSM   H18T12183   4.868   4.845   8.842 -2.3097 -1.5670  0.1482
  116OSM   H18U12184   4.806   4.764   8.987  1.7441 -0.0402  2.4072
  116OSM    C1F12185   5.293   5.196  10.571  0.1519  0.6166 -0.0072
  116OSM     OF12186   5.343   5.171  10.679  0.2753  0.5106 -0.0563
  116OSM    C2F12187   5.382   5.209  10.449 -0.7297 -0.1324  0.1066
  116OSM    H2F12188   5.355   5.147  10.361  2.6892 -0.0275 -1.1806
  116OSM    H2G12189   5.486   5.173  10.466 -0.7468 -0.4786 -0.4963
  116OSM    C3F12190   5.429   5.356  10.418  0.2328  0.3740  0.6567
  116OSM    H3F12191   5.489   5.384  10.507 -0.2874 -0.7222  1.3698
  116OSM    H3G12192   5.339   5.421  10.409  0.1528  0.4495  1.9062
  116OSM    C4F12193   5.532   5.358  10.300 -0.5203  0.8937  0.3617
  116OSM    H4F12194   5.472   5.376  10.208 -0.8344 -0.0246  0.3726
  116OSM    H4G12195   5.584   5.261  10.289  2.6693  2.5454 -0.1538
  116OSM    C5F12196   5.634   5.475  10.310  0.3437  0.2340 -0.5678
  116OSM    H5F12197   5.690   5.462  10.405  0.9851  2.5621 -0.5612
  116OSM    H5G12198   5.573   5.568  10.307 -1.3068 -0.8148 -0.9677
  116OSM    C6F12199   5.735   5.474  10.196  0.0670 -0.1679  0.2765
  116OSM    H6F12200   5.684   5.484  10.098  0.1058  0.1447  0.2868
  116OSM    H6G12201   5.779   5.372  10.202  0.3743 -0.0750 -0.2958
  116OSM    C7F12202   5.853   5.577  10.206 -0.8212  0.0907  0.1024
  116OSM    H7F12203   5.905   5.558  10.303  0.2015 -2.0040 -0.7888
  116OSM    H7G12204   5.814   5.680  10.208 -0.5231  0.2257 -0.7517
  116OSM    C8F12205   5.948   5.568  10.081  0.2389  0.3189  0.3879
  116OSM    H8F12206   5.956   5.458  10.068  0.4867  0.0807  2.2473
  116OSM    H8G12207   6.044   5.614  10.112  0.2800  0.5674 -0.1021
  116OSM    C9F12208   5.896   5.637   9.956 -1.0827 -0.3512  0.3079
  116OSM    H9F12209   5.864   5.743   9.964 -0.7023 -0.2247  0.1707
  116OSM   C10F12210   5.879   5.565   9.842  0.1201  0.0714  0.0283
  116OSM   H10F12211   5.840   5.625   9.758  0.1517  1.1853  0.7820
  116OSM   C11F12212   5.893   5.418   9.810 -0.3498 -0.3603  0.4532
  116OSM   H11F12213   5.872   5.347   9.894 -3.4383  0.1574  0.2340
  116OSM   H11G12214   5.997   5.398   9.776  0.4489  3.4041  0.2550
  116OSM   C12F12215   5.795   5.369   9.701 -0.9052 -0.8011 -1.0960
  116OSM   H12F12216   5.691   5.400   9.725  0.0101  0.0131  2.3583
  116OSM   H12G12217   5.802   5.259   9.693 -0.5782 -0.6729 -2.7993
  116OSM   C13F12218   5.838   5.417   9.560 -0.4994  0.0207  0.9212
  116OSM   H13F12219   5.946   5.391   9.564 -0.6285 -0.8206 -0.3760
  116OSM   H13G12220   5.846   5.526   9.545 -2.0161  0.0098 -0.2780
  116OSM   C14F12221   5.774   5.339   9.447 -0.1452 -0.0245 -0.0987
  116OSM   H14F12222   5.665   5.342   9.467 -0.0981  0.3421  0.1126
  116OSM   H14G12223   5.816   5.236   9.447 -0.5598 -0.1963 -0.5684
  116OSM   C15F12224   5.814   5.384   9.304 -0.0246 -0.3267  0.5386
  116OSM   H15F12225   5.924   5.377   9.289 -0.3112 -0.6956 -1.5919
  116OSM   H15G12226   5.777   5.489   9.299 -0.7813 -0.6219 -0.2256
  116OSM   C16F12227   5.742   5.299   9.195  0.8488  0.5881 -0.3998
  116OSM   H16F12228   5.631   5.305   9.198  0.8358  0.1043  1.3601
  116OSM   H16G12229   5.783   5.196   9.194 -0.2889  0.0680  1.5832
  116OSM   C17F12230   5.775   5.346   9.051 -0.4948 -0.9869  0.0007
  116OSM   H17F12231   5.766   5.272   8.968  0.2887 -0.1919 -0.8302
  116OSM   H17G12232   5.880   5.384   9.056 -0.7239 -0.1211 -1.2022
  116OSM   C18F12233   5.710   5.471   9.002 -0.4303  0.0442 -0.0946
  116OSM   H18F12234   5.603   5.450   8.981 -0.5098 -0.2900  0.6249
  116OSM   H18G12235   5.773   5.528   8.929  0.4682  2.1677  2.2013
  116OSM   H18H12236   5.692   5.547   9.080 -3.5457 -2.0534  1.4258
  117OSM      N12237   3.215   6.277  11.454  0.4657  0.2715  0.8021
  117OSM    C1512238   3.082   6.232  11.510 -0.1231 -0.0921  0.3339
  117OSM   H15A12239   3.000   6.286  11.466 -1.8726 -2.7136  0.1638
  117OSM   H15B12240   3.075   6.245  11.617 -1.9948  0.1417  0.2225
  117OSM   H15C12241   3.054   6.133  11.474 -0.0214 -0.4176  1.1394
  117OSM    C1412242   3.246   6.426  11.482 -0.0371 -0.7769 -0.5489
  117OSM   H14A12243   3.329   6.457  11.420 -0.1535 -0.2094 -0.4263
  117OSM   H14B12244   3.254   6.455  11.585  2.4579 -0.4972 -0.7539
  117OSM   H14C12245   3.165   6.486  11.443  0.4007  2.3187  2.7928
  117OSM    C1312246   3.323   6.194  11.522  1.0705 -0.1293  0.2508
  117OSM   H13A12247   3.296   6.091  11.508 -0.9302  0.2693  0.8466
  117OSM   H13B12248   3.335   6.228  11.624 -0.3062  0.8870  0.1080
  117OSM   H13C12249   3.416   6.218  11.473  0.9797  4.1427  1.7200
  117OSM    C1212250   3.229   6.246  11.301  0.2101  0.6582  0.3968
  117OSM   H12A12251   3.207   6.141  11.290  0.1161  0.6955  0.2221
  117OSM   H12B12252   3.329   6.268  11.265  0.6585  1.3284  1.9454
  117OSM    C1112253   3.138   6.329  11.209  0.1577  0.1141  0.2089
  117OSM   H11A12254   3.161   6.297  11.105 -0.4406  0.2925  0.0173
  117OSM   H11B12255   3.169   6.435  11.221 -0.4442  0.1913  1.1390
  117OSM      P12256   2.888   6.406  11.212 -0.4344  0.5091  0.4320
  117OSM    O1312257   2.756   6.338  11.210 -0.1103 -0.2045 -0.5350
  117OSM    O1412258   2.899   6.519  11.308  0.1435  0.0851 -0.0689
  117OSM    O1112259   2.912   6.463  11.068 -0.1026  0.5855  0.8010
  117OSM    O1212260   3.004   6.308  11.245  0.1520 -0.4583 -0.7364
  117OSM    C1S12261   2.908   6.374  10.953 -0.0112 -0.0452  0.3502
  117OSM    H1S12262   2.806   6.332  10.948 -1.1051  2.3289  1.1144
  117OSM    H1T12263   2.965   6.282  10.980 -0.7183 -1.0955 -1.5428
  117OSM     NF12264   2.930   6.341  10.713  0.4943 -0.1068 -0.0767
  117OSM    HNF12265   3.011   6.290  10.684  1.0636  0.5474  0.3211
  117OSM    C2S12266   2.944   6.441  10.819  0.1595  0.0323  0.1814
  117OSM    H2S12267   2.879   6.527  10.793  0.2325  0.2238  0.6270
  117OSM    C3S12268   3.094   6.491  10.836 -0.5371 -0.1858 -0.0790
  117OSM    H3S12269   3.153   6.400  10.861  0.3690  0.3743 -0.1531
  117OSM     O312270   3.114   6.589  10.944  0.7095  0.1260 -0.3609
  117OSM    HO312271   3.033   6.582  10.994  1.1947 -0.3328  0.3925
  117OSM    C4S12272   3.144   6.562  10.710 -0.5392  1.1408  0.1984
  117OSM    H4S12273   3.071   6.631  10.665 -2.4815 -1.2616 -0.5622
  117OSM    C5S12274   3.266   6.532  10.660  0.1288  0.0165 -0.4957
  117OSM    H5S12275   3.333   6.460  10.709 -0.1378 -0.0653 -0.2438
  117OSM    C6S12276   3.320   6.602  10.536 -0.3251 -0.2514  1.3878
  117OSM    H6S12277   3.403   6.673  10.558  2.0822 -2.5006  0.1128
  117OSM    H6T12278   3.239   6.655  10.481  1.4297  2.4447  1.2033
  117OSM    C7S12279   3.389   6.503  10.436  0.1255  0.8902 -0.4198
  117OSM    H7S12280   3.306   6.436  10.405 -0.7047  1.1196  1.2018
  117OSM    H7T12281   3.465   6.444  10.492  0.3034  0.5368 -1.0165
  117OSM    C8S12282   3.459   6.569  10.318  0.1646 -0.1695 -0.3223
  117OSM    H8S12283   3.551   6.621  10.350  1.5065 -2.2944 -0.5139
  117OSM    H8T12284   3.393   6.645  10.272  2.8151  1.1844 -2.1359
  117OSM    C9S12285   3.490   6.477  10.205 -0.2253  0.0287  0.1126
  117OSM    H9S12286   3.407   6.406  10.187  0.8586 -1.2403  0.0010
  117OSM    H9T12287   3.576   6.411  10.231 -0.5091 -0.2686  0.2958
  117OSM   C10S12288   3.536   6.566  10.089  0.7266 -0.4650 -0.3820
  117OSM   H10S12289   3.621   6.632  10.118  1.9618 -0.5302 -3.4136
  117OSM   H10T12290   3.451   6.632  10.061  0.1815 -0.9746  0.0570
  117OSM   C11S12291   3.558   6.485   9.961 -0.1234  0.2435  0.2093
  117OSM   H11S12292   3.464   6.453   9.913  0.6538  0.1090 -1.2921
  117OSM   H11T12293   3.618   6.397   9.991 -0.4142 -0.6894 -1.7967
  117OSM   C12S12294   3.645   6.557   9.864 -0.2384 -0.2894 -1.0161
  117OSM   H12S12295   3.733   6.597   9.918 -1.3678 -0.5074  1.1116
  117OSM   H12T12296   3.582   6.640   9.825  0.3969 -0.1914 -1.8581
  117OSM   C13S12297   3.690   6.463   9.755  0.0700 -0.7267  0.4540
  117OSM   H13S12298   3.601   6.401   9.729  1.0855 -1.9762 -0.1055
  117OSM   H13T12299   3.776   6.410   9.800  0.9031 -0.0654 -0.3330
  117OSM   C14S12300   3.748   6.545   9.637  0.4021  0.0279 -0.0395
  117OSM   H14S12301   3.782   6.468   9.565  1.6243  0.2664  0.2633
  117OSM   H14T12302   3.842   6.593   9.673  0.4666 -1.6668  2.3048
  117OSM   C15S12303   3.661   6.635   9.550  0.1751 -0.5156 -0.1207
  117OSM   H15S12304   3.629   6.721   9.613 -2.2706 -2.4760  1.4823
  117OSM   H15T12305   3.564   6.592   9.517  0.0684  1.0319 -2.0749
  117OSM   C16S12306   3.720   6.685   9.418  0.2288 -0.3657  0.3006
  117OSM   H16S12307   3.710   6.598   9.349 -1.7556 -0.8225  1.0646
  117OSM   H16T12308   3.826   6.700   9.447 -0.0250  0.7895  0.6827
  117OSM   C17S12309   3.651   6.807   9.363  0.2604  0.0414  0.2379
  117OSM   H17S12310   3.626   6.889   9.434  2.0838  1.5794 -0.7885
  117OSM   H17T12311   3.556   6.766   9.322  0.7499 -1.0779  0.1933
  117OSM   C18S12312   3.726   6.858   9.242 -0.6175 -0.5616 -0.3133
  117OSM   H18S12313   3.660   6.940   9.204 -0.0818 -0.0250 -0.0978
  117OSM   H18T12314   3.727   6.792   9.153 -0.0068 -0.1438 -0.6158
  117OSM   H18U12315   3.827   6.891   9.275 -1.5522  1.7775  0.4850
  117OSM    C1F12316   2.814   6.306  10.659  0.4930 -1.1568  0.1325
  117OSM     OF12317   2.711   6.355  10.708 -0.4674  0.1572 -0.2650
  117OSM    C2F12318   2.800   6.219  10.538 -0.6269 -0.1699 -0.5307
  117OSM    H2F12319   2.796   6.119  10.585  0.5296  0.3161  0.6701
  117OSM    H2G12320   2.885   6.230  10.468 -0.8378  1.5160 -0.5597
  117OSM    C3F12321   2.670   6.245  10.461 -0.9837 -0.0351 -0.5092
  117OSM    H3F12322   2.681   6.338  10.402 -0.9280 -0.7215 -1.5943
  117OSM    H3G12323   2.581   6.252  10.528 -0.1418 -1.2761  0.7902
  117OSM    C4F12324   2.648   6.130  10.356 -0.1917  0.3065 -0.6724
  117OSM    H4F12325   2.747   6.096  10.318 -0.6258 -1.9344  0.0976
  117OSM    H4G12326   2.581   6.175  10.279 -0.2326 -0.4187 -1.0611
  117OSM    C5F12327   2.581   6.011  10.415 -0.0429 -0.1180  0.2852
  117OSM    H5F12328   2.492   6.047  10.471  0.3525  0.6832  0.4140
  117OSM    H5G12329   2.646   5.957  10.488 -1.0344 -1.3478  0.3052
  117OSM    C6F12330   2.545   5.905  10.311  0.4818  0.5004  0.2926
  117OSM    H6F12331   2.635   5.889  10.249 -0.0001  0.8741 -0.5166
  117OSM    H6G12332   2.468   5.948  10.243 -2.4699  0.0325  3.0552
  117OSM    C7F12333   2.485   5.781  10.363 -0.0745  0.1052  0.0594
  117OSM    H7F12334   2.399   5.806  10.429  0.3238 -0.1022  0.6712
  117OSM    H7G12335   2.552   5.717  10.425 -0.5928  0.3330  0.8858
  117OSM    C8F12336   2.432   5.693  10.250  0.0447  0.4005  0.4286
  117OSM    H8F12337   2.376   5.758  10.180  0.9119  1.3153  0.5472
  117OSM    H8G12338   2.360   5.619  10.293 -0.1921  0.3889  0.0143
  117OSM    C9F12339   2.552   5.623  10.196 -0.4040 -0.0372  0.1352
  117OSM    H9F12340   2.599   5.559  10.273 -0.3927  1.3555  1.3300
  117OSM   C10F12341   2.610   5.643  10.075  0.3970  0.4054 -0.5654
  117OSM   H10F12342   2.692   5.585  10.029 -0.0089  0.0482 -0.8411
  117OSM   C11F12343   2.561   5.741   9.973 -0.3885 -0.4868 -0.8828
  117OSM   H11F12344   2.627   5.830   9.960 -1.6142  0.2716 -2.2722
  117OSM   H11G12345   2.467   5.786  10.011 -0.1769 -2.1721  1.8402
  117OSM   C12F12346   2.552   5.662   9.837 -0.3824  0.2179 -0.1185
  117OSM   H12F12347   2.485   5.574   9.841  1.5858 -1.3347  0.4260
  117OSM   H12G12348   2.652   5.621   9.809 -0.0326 -0.9147  2.4975
  117OSM   C13F12349   2.500   5.745   9.729  0.6576  0.4802  0.0225
  117OSM   H13F12350   2.531   5.850   9.748 -1.8094  0.8159  2.8184
  117OSM   H13G12351   2.391   5.750   9.746  0.7034  1.1043  0.1348
  117OSM   C14F12352   2.541   5.698   9.593  0.1713 -0.2463 -0.6877
  117OSM   H14F12353   2.499   5.597   9.569 -0.3606  0.1984 -1.6906
  117OSM   H14G12354   2.651   5.680   9.595  0.1145 -0.9032 -1.9467
  117OSM   C15F12355   2.519   5.796   9.480 -0.2770  0.1209  0.1820
  117OSM   H15F12356   2.588   5.883   9.489 -0.4783  0.1999  1.0047
  117OSM   H15G12357   2.418   5.842   9.481  0.2655  1.4543  2.8541
  117OSM   C16F12358   2.565   5.732   9.342  0.6178  0.2089 -0.5871
  117OSM   H16F12359   2.496   5.649   9.317 -0.2755  0.7857 -0.1210
  117OSM   H16G12360   2.670   5.698   9.356  0.5881  0.1683 -0.4583
  117OSM   C17F12361   2.561   5.835   9.227  0.1038 -0.3287 -0.4604
  117OSM   H17F12362   2.594   5.791   9.130 -2.0338 -1.0144 -0.9403
  117OSM   H17G12363   2.643   5.903   9.259  0.6547 -0.6976 -1.0579
  117OSM   C18F12364   2.424   5.901   9.200 -0.2223  0.5312  0.5256
  117OSM   H18F12365   2.433   5.980   9.122 -0.1830  0.1735  0.1653
  117OSM   H18G12366   2.386   5.952   9.291  0.1532 -3.2841  3.0379
  117OSM   H18H12367   2.358   5.824   9.154 -0.7130  0.9882  0.4580
  118OSM      N12368   1.289   2.238  11.237 -0.1272 -0.5990 -0.1946
  118OSM    C1512369   1.346   2.267  11.372  0.5615 -0.7780  0.1150
  118OSM   H15A12370   1.275   2.313  11.440  1.4234 -0.2041  0.6523
  118OSM   H15B12371   1.429   2.334  11.385 -1.5649  1.8989  1.0210
  118OSM   H15C12372   1.372   2.176  11.424  0.7672 -1.8509 -1.7884
  118OSM    C1412373   1.167   2.153  11.240  0.1027 -0.1691 -0.3109
  118OSM   H14A12374   1.090   2.210  11.290 -0.1526 -0.3617 -0.4829
  118OSM   H14B12375   1.174   2.067  11.305 -2.2241 -0.2925 -0.1220
  118OSM   H14C12376   1.139   2.119  11.141  0.7714 -0.7962 -0.2968
  118OSM    C1312377   1.250   2.375  11.172  0.3704  0.1871 -0.1101
  118OSM   H13A12378   1.230   2.355  11.068  0.3703 -0.6599  0.0403
  118OSM   H13B12379   1.326   2.450  11.183  0.4502  0.1817 -0.6084
  118OSM   H13C12380   1.160   2.419  11.213 -1.0211 -0.4646 -2.2506
  118OSM    C1212381   1.395   2.163  11.153  0.5823 -0.7231  0.4117
  118OSM   H12A12382   1.399   2.061  11.190 -0.4710 -0.4809  1.2437
  118OSM   H12B12383   1.489   2.213  11.168 -0.5649  1.6016  0.1863
  118OSM    C1112384   1.364   2.154  10.999 -0.3464  0.1552  0.4181
  118OSM   H11A12385   1.453   2.107  10.952 -0.2833 -1.2219  1.8077
  118OSM   H11B12386   1.355   2.256  10.957 -0.2178  0.5813  1.4013
  118OSM      P12387   1.246   1.920  10.960 -0.0737  0.1322  0.3244
  118OSM    O1312388   1.335   1.878  11.071  0.1510 -0.1060  0.2342
  118OSM    O1412389   1.111   1.872  10.966  0.1227  0.0069  0.0348
  118OSM    O1112390   1.311   1.860  10.826  0.2978 -0.6127  0.6847
  118OSM    O1212391   1.252   2.076  10.956  0.3149 -0.4580 -0.0512
  118OSM    C1S12392   1.374   1.942  10.720 -0.0516 -0.0146 -0.2571
  118OSM    H1S12393   1.484   1.939  10.737 -0.3782  0.2809  2.3624
  118OSM    H1T12394   1.337   2.045  10.734 -1.5673 -0.8796  3.1809
  118OSM     NF12395   1.437   1.940  10.489 -0.5597  0.1660  0.8333
  118OSM    HNF12396   1.406   2.025  10.446 -1.2542 -1.3972 -2.0161
  118OSM    C2S12397   1.340   1.890  10.579  1.0286 -0.0532  0.0834
  118OSM    H2S12398   1.339   1.779  10.575 -0.1778 -0.0373 -3.4143
  118OSM    C3S12399   1.193   1.938  10.555  0.2338 -0.0433 -1.0136
  118OSM    H3S12400   1.202   2.048  10.564  1.3305  0.0707 -2.9480
  118OSM     O312401   1.099   1.908  10.660  0.2331  0.1431 -0.0671
  118OSM    HO312402   1.150   1.887  10.739 -0.1146 -0.7656 -0.0723
  118OSM    C4S12403   1.141   1.896  10.430  0.3828 -1.0538  0.1491
  118OSM    H4S12404   1.158   1.788  10.418  1.3898 -0.9234  0.3089
  118OSM    C5S12405   1.065   1.967  10.347 -0.1891  0.5953  0.0157
  118OSM    H5S12406   1.027   2.064  10.380  0.7595  1.0910 -0.3376
  118OSM    C6S12407   1.003   1.917  10.221 -0.2192 -0.2419 -0.5627
  118OSM    H6S12408   0.893   1.930  10.228 -0.1819  0.3224 -0.9551
  118OSM    H6T12409   1.022   1.808  10.215 -3.0474 -1.0036  2.0856
  118OSM    C7S12410   1.070   1.985  10.104 -0.1433  0.2468  0.0619
  118OSM    H7S12411   1.179   1.964  10.095 -0.3464 -0.4188 -1.3002
  118OSM    H7T12412   1.060   2.095  10.114 -3.1793  0.0093  0.6429
  118OSM    C8S12413   1.017   1.934   9.969  0.1674 -0.0272  0.8294
  118OSM    H8S12414   0.907   1.928   9.962  0.2779 -0.0408 -3.0829
  118OSM    H8T12415   1.056   1.830   9.961  0.3554  0.1670 -1.2420
  118OSM    C9S12416   1.061   2.020   9.853  0.2159  0.0714  0.3100
  118OSM    H9S12417   1.172   2.021   9.852  0.2679 -0.3921 -2.6348
  118OSM    H9T12418   1.033   2.124   9.882  1.5761  0.2872  0.9182
  118OSM   C10S12419   1.001   1.991   9.711 -0.6498 -0.2605 -0.6028
  118OSM   H10S12420   0.897   2.030   9.716 -0.1337  1.0534  1.0243
  118OSM   H10T12421   1.014   1.884   9.685 -1.6130 -0.3685 -0.6669
  118OSM   C11S12422   1.089   2.065   9.605  0.1083 -0.2398 -0.1996
  118OSM   H11S12423   1.186   2.011   9.605  0.0203 -0.3990  0.4546
  118OSM   H11T12424   1.111   2.172   9.628 -0.2672 -0.3596  0.7526
  118OSM   C12S12425   1.021   2.058   9.470 -0.3070  0.5711  0.1482
  118OSM   H12S12426   0.920   2.102   9.483 -0.4903  0.6380 -1.4140
  118OSM   H12T12427   0.999   1.955   9.432  0.4391  0.7289 -0.7467
  118OSM   C13S12428   1.087   2.140   9.362  0.4244 -0.0619 -0.3995
  118OSM   H13S12429   1.185   2.097   9.334 -0.4730 -1.7056 -1.1715
  118OSM   H13T12430   1.100   2.246   9.393 -4.7080  0.6944  0.0821
  118OSM   C14S12431   0.990   2.140   9.243 -0.1823  0.4468  0.3018
  118OSM   H14S12432   0.899   2.195   9.275 -0.2351  1.7681 -1.9423
  118OSM   H14T12433   0.967   2.037   9.210  1.5714  0.2661 -0.5088
  118OSM   C15S12434   1.042   2.202   9.118 -1.4850 -0.5086  0.4392
  118OSM   H15S12435   1.145   2.162   9.107 -0.4423  1.0473  3.3849
  118OSM   H15T12436   1.059   2.311   9.134  0.4433 -0.9331  1.4991
  118OSM   C16S12437   0.944   2.179   8.997 -0.1093 -0.8588  0.1414
  118OSM   H16S12438   0.842   2.221   9.009  0.8699  1.4465  0.8718
  118OSM   H16T12439   0.943   2.068   8.995  0.6961 -0.8693 -0.8290
  118OSM   C17S12440   1.008   2.217   8.864  0.1595  0.8353  0.3470
  118OSM   H17S12441   1.101   2.159   8.843 -0.1719  0.6421 -0.6376
  118OSM   H17T12442   1.036   2.325   8.865  1.0232  0.6933 -1.7479
  118OSM   C18S12443   0.903   2.201   8.761  0.0712 -0.7896  0.6525
  118OSM   H18S12444   0.924   2.269   8.675  1.3039 -0.9873  0.7809
  118OSM   H18T12445   0.800   2.233   8.787  0.0214  1.5418 -1.9213
  118OSM   H18U12446   0.900   2.097   8.721 -0.2377 -0.1537 -1.0946
  118OSM    C1F12447   1.561   1.891  10.469  0.0472  0.0973 -0.4423
  118OSM     OF12448   1.602   1.808  10.552 -0.6036  0.0578 -0.0523
  118OSM    C2F12449   1.650   1.953  10.361 -0.0120 -0.2717 -0.0991
  118OSM    H2F12450   1.706   2.039  10.403  0.4435 -0.5076 -0.2198
  118OSM    H2G12451   1.589   1.977  10.271 -0.8588  0.5213  0.6604
  118OSM    C3F12452   1.753   1.845  10.321  0.2012 -0.9285  0.3862
  118OSM    H3F12453   1.709   1.753  10.276 -0.5161  0.1345 -1.1574
  118OSM    H3G12454   1.805   1.823  10.416  0.0590  0.9001  0.9123
  118OSM    C4F12455   1.848   1.896  10.216 -0.3213 -0.3529 -0.4419
  118OSM    H4F12456   1.943   1.840  10.230 -0.1236  0.2300  0.6511
  118OSM    H4G12457   1.870   2.002  10.240 -1.7948 -0.4611  1.6108
  118OSM    C5F12458   1.782   1.887  10.078 -0.0590  0.2337  1.0960
  118OSM    H5F12459   1.673   1.896  10.097 -0.5117  0.7239 -1.2986
  118OSM    H5G12460   1.794   1.783  10.040 -1.1410  0.6650 -0.5385
  118OSM    C6F12461   1.839   1.973   9.968  0.5525 -0.6532 -0.2308
  118OSM    H6F12462   1.850   2.078  10.005 -0.5233 -0.5785 -0.0917
  118OSM    H6G12463   1.778   1.964   9.876  0.4985  0.7576 -0.3611
  118OSM    C7F12464   1.978   1.918   9.921  0.3408  0.8394 -0.2870
  118OSM    H7F12465   1.964   1.815   9.881 -1.4807  1.1388 -0.5071
  118OSM    H7G12466   2.025   1.908  10.021 -0.8639 -1.9706  0.1095
  118OSM    C8F12467   2.062   2.003   9.824  0.0538 -0.4504 -0.5423
  118OSM    H8F12468   2.063   2.114   9.837 -1.4007 -0.1589 -2.4922
  118OSM    H8G12469   2.015   1.979   9.727 -0.3012 -0.6615 -0.3198
  118OSM    C9F12470   2.205   1.952   9.814  0.3714 -0.8060  0.1423
  118OSM    H9F12471   2.255   1.946   9.912 -1.8814  1.6612  1.5840
  118OSM   C10F12472   2.266   1.901   9.707 -0.2206 -0.3968 -0.3256
  118OSM   H10F12473   2.367   1.859   9.723  0.6940  2.6279  3.6355
  118OSM   C11F12474   2.200   1.876   9.572 -0.4243  0.6231  0.2873
  118OSM   H11F12475   2.166   1.974   9.531  0.2040  0.6551 -0.1759
  118OSM   H11G12476   2.104   1.822   9.583 -0.6838  1.1309  0.5943
  118OSM   C12F12477   2.292   1.795   9.465  0.3305 -0.0800 -0.0381
  118OSM   H12F12478   2.321   1.700   9.514  2.2817  0.0617 -0.8288
  118OSM   H12G12479   2.386   1.853   9.453  0.3287  0.2615  1.3648
  118OSM   C13F12480   2.216   1.781   9.333  0.1355 -0.0366  0.0075
  118OSM   H13F12481   2.178   1.881   9.300  1.7142  0.7668  0.5118
  118OSM   H13G12482   2.131   1.709   9.340 -0.8796  0.7303 -2.9670
  118OSM   C14F12483   2.318   1.737   9.224 -0.0338 -0.6671 -0.2790
  118OSM   H14F12484   2.343   1.631   9.247  3.4752  0.0964  0.1005
  118OSM   H14G12485   2.411   1.796   9.240  0.0473 -0.9936  0.4879
  118OSM   C15F12486   2.278   1.744   9.079  0.0590 -0.0747 -0.4251
  118OSM   H15F12487   2.227   1.839   9.051 -0.0714 -0.1307 -0.3811
  118OSM   H15G12488   2.212   1.658   9.052 -1.0175  0.5821  0.0392
  118OSM   C16F12489   2.386   1.729   8.970  0.5797 -0.3147 -0.1601
  118OSM   H16F12490   2.441   1.633   8.980 -1.1676 -1.3744 -0.1744
  118OSM   H16G12491   2.448   1.821   8.961 -2.0293  1.3622 -3.1650
  118OSM   C17F12492   2.333   1.717   8.824 -0.0494 -0.0826  0.0801
  118OSM   H17F12493   2.269   1.799   8.783  1.0098  0.0525 -1.3781
  118OSM   H17G12494   2.270   1.625   8.827  0.1667 -0.2260  2.8191
  118OSM   C18F12495   2.448   1.694   8.718  0.4717  0.1190  0.5748
  118OSM   H18F12496   2.399   1.688   8.619 -1.2716 -0.9889  1.4680
  118OSM   H18G12497   2.490   1.594   8.742  2.1097  0.2873 -1.3264
  118OSM   H18H12498   2.520   1.777   8.736 -2.6226  3.3501 -0.6405
  119OSM      N12499   2.634   0.008  11.134 -0.6553 -0.3676  0.3669
  119OSM    C1512500   2.568  -0.127  11.155 -0.0268 -0.0138  0.1454
  119OSM   H15A12501   2.598  -0.165  11.251 -0.7779 -1.3295 -0.1179
  119OSM   H15B12502   2.615  -0.196  11.086 -1.1299 -0.0398 -0.6007
  119OSM   H15C12503   2.461  -0.127  11.140 -0.3968  0.8443  2.4903
  119OSM    C1412504   2.627   0.086  11.260 -0.1947 -0.0300 -0.2105
  119OSM   H14A12505   2.663   0.016  11.334  1.4618  0.0371 -0.9096
  119OSM   H14B12506   2.531   0.123  11.293  0.1400 -0.8095  1.7445
  119OSM   H14C12507   2.685   0.177  11.256 -0.5114  0.1805 -0.1007
  119OSM    C1312508   2.778  -0.017  11.093  0.6203 -0.0382  0.1850
  119OSM   H13A12509   2.824  -0.057  11.181 -0.0416 -0.8522  0.1754
  119OSM   H13B12510   2.825   0.071  11.052  1.4689 -1.4475 -2.0017
  119OSM   H13C12511   2.786  -0.101  11.025  1.4723 -1.3993  1.8992
  119OSM    C1212512   2.546   0.081  11.033 -0.3469  1.2748 -0.3405
  119OSM   H12A12513   2.443   0.065  11.063  0.7341 -0.3186  3.0426
  119OSM   H12B12514   2.552   0.024  10.941 -1.0685 -1.0167  0.9466
  119OSM    C1112515   2.574   0.227  11.010  0.1480  0.1692 -1.0000
  119OSM   H11A12516   2.531   0.270  11.103  0.4550  0.2323 -0.8862
  119OSM   H11B12517   2.516   0.264  10.923 -1.4259  0.6385  0.1981
  119OSM      P12518   2.757   0.404  11.014 -0.0767  0.1015 -0.1658
  119OSM    O1312519   2.718   0.449  11.147  1.0763 -0.4307  0.0809
  119OSM    O1412520   2.902   0.406  10.991  0.2986  0.0638 -0.3346
  119OSM    O1112521   2.680   0.476  10.894  0.6363  0.1290  0.1835
  119OSM    O1212522   2.712   0.255  10.996  0.1152  0.7093 -0.1100
  119OSM    C1S12523   2.712   0.445  10.759  0.7202  0.0108 -0.1180
  119OSM    H1S12524   2.627   0.393  10.708 -1.0491  1.0355  1.6380
  119OSM    H1T12525   2.800   0.378  10.750  0.6417  0.1476 -2.7065
  119OSM     NF12526   2.765   0.543  10.542 -0.3049 -0.9576  0.7180
  119OSM    HNF12527   2.861   0.532  10.518 -0.6314 -1.4936 -0.3878
  119OSM    C2S12528   2.734   0.576  10.679 -0.6038 -0.2088 -0.2484
  119OSM    H2S12529   2.639   0.634  10.678 -1.9091 -2.2342  1.0148
  119OSM    C3S12530   2.839   0.665  10.749  0.2394  0.6638 -0.5216
  119OSM    H3S12531   2.917   0.592  10.781 -0.7768  0.8199  2.6334
  119OSM     O312532   2.788   0.735  10.863  0.0113 -0.3622  0.4663
  119OSM    HO312533   2.727   0.672  10.902  0.9848 -1.4256  0.3374
  119OSM    C4S12534   2.907   0.764  10.664  0.7286 -0.6018 -0.0366
  119OSM    H4S12535   2.839   0.847  10.646 -1.7176 -2.0667  1.7820
  119OSM    C5S12536   3.028   0.770  10.614  0.5916 -0.3742 -0.2155
  119OSM    H5S12537   3.102   0.699  10.653  0.8945  0.3976  0.6467
  119OSM    C6S12538   3.071   0.885  10.528 -0.5230 -0.7299  1.9503
  119OSM    H6S12539   3.111   0.974  10.582  0.4452 -0.6293  1.0932
  119OSM    H6T12540   2.987   0.934  10.474  0.7242  0.0233  0.6374
  119OSM    C7S12541   3.160   0.843  10.414  0.4156  0.2017 -0.1477
  119OSM    H7S12542   3.248   0.789  10.457  0.3392 -2.0865 -2.6207
  119OSM    H7T12543   3.193   0.941  10.372  2.3190 -0.2686  0.1532
  119OSM    C8S12544   3.100   0.739  10.310  0.1254  0.0970 -0.9730
  119OSM    H8S12545   3.042   0.799  10.238  0.0596  1.1665 -0.0647
  119OSM    H8T12546   3.044   0.670  10.376  2.0032 -0.4724  0.1055
  119OSM    C9S12547   3.206   0.654  10.232 -0.3378  0.1920 -0.4162
  119OSM    H9S12548   3.297   0.624  10.289 -0.0075  1.0892 -0.4535
  119OSM    H9T12549   3.249   0.714  10.149  2.7318 -1.5807 -0.2747
  119OSM   C10S12550   3.139   0.533  10.173  0.1299  1.5982 -0.3838
  119OSM   H10S12551   3.054   0.502  10.237  0.3837  0.6325 -0.5027
  119OSM   H10T12552   3.218   0.456  10.174  0.3410  1.8085 -0.5495
  119OSM   C11S12553   3.091   0.546  10.027  0.0587 -0.3094 -0.3853
  119OSM   H11S12554   3.188   0.555   9.973  0.0967  1.7059 -0.0522
  119OSM   H11T12555   3.022   0.633  10.017 -0.5105 -0.9331 -2.2373
  119OSM   C12S12556   3.023   0.424   9.975  0.0726  0.5538 -1.1666
  119OSM   H12S12557   2.925   0.412  10.026  1.8810 -1.3046  2.2251
  119OSM   H12T12558   3.094   0.341   9.997  0.4566  1.7701  3.0357
  119OSM   C13S12559   2.995   0.430   9.823  0.0536 -0.1014  0.6101
  119OSM   H13S12560   3.081   0.461   9.759 -0.0993 -0.8146  0.0393
  119OSM   H13T12561   2.925   0.516   9.817  1.1090  0.7491  0.2565
  119OSM   C14S12562   2.937   0.305   9.748  0.6913 -0.6335  0.6267
  119OSM   H14S12563   2.843   0.280   9.801  0.3162 -1.7197 -0.4887
  119OSM   H14T12564   3.003   0.217   9.757  1.2349 -0.2467  0.4691
  119OSM   C15S12565   2.902   0.325   9.596 -0.0299 -0.0073  0.2081
  119OSM   H15S12566   2.987   0.370   9.540 -1.5922  2.3862 -0.4144
  119OSM   H15T12567   2.825   0.405   9.584 -0.5014 -0.4550  0.1999
  119OSM   C16S12568   2.878   0.204   9.514 -0.4570  0.4242  0.1106
  119OSM   H16S12569   2.813   0.139   9.577 -2.1920  2.4835  0.5659
  119OSM   H16T12570   2.975   0.151   9.503 -0.3562  0.7458 -0.5684
  119OSM   C17S12571   2.809   0.230   9.383 -0.5776  0.1023  0.2652
  119OSM   H17S12572   2.759   0.329   9.374 -0.0886  0.3251 -0.0516
  119OSM   H17T12573   2.723   0.166   9.354 -0.7906  0.9528 -1.0556
  119OSM   C18S12574   2.908   0.215   9.265  0.0790  0.7345 -0.2898
  119OSM   H18S12575   2.938   0.109   9.247 -2.6310 -0.0233 -0.7804
  119OSM   H18T12576   2.997   0.276   9.290  0.1706  0.5390 -0.1394
  119OSM   H18U12577   2.875   0.251   9.165  2.4605 -0.4420 -1.6064
  119OSM    C1F12578   2.675   0.519  10.448 -0.1815 -0.4597  0.1748
  119OSM     OF12579   2.557   0.516  10.467  0.2953 -0.0690  0.1358
  119OSM    C2F12580   2.739   0.473  10.311 -0.3513  0.7834 -0.4245
  119OSM    H2F12581   2.826   0.409  10.336 -0.3436 -0.2225 -2.7299
  119OSM    H2G12582   2.765   0.569  10.261 -2.7280  1.4016 -0.6125
  119OSM    C3F12583   2.640   0.383  10.244 -0.4513 -0.5589  0.2281
  119OSM    H3F12584   2.543   0.435  10.252  0.0222  0.0451  5.3651
  119OSM    H3G12585   2.624   0.291  10.304  1.8480  0.1810  2.1526
  119OSM    C4F12586   2.683   0.332  10.107 -0.4725 -0.2792 -0.0796
  119OSM    H4F12587   2.781   0.280  10.109  0.6465  1.7535  0.3976
  119OSM    H4G12588   2.686   0.423  10.044  0.7886 -0.7582 -0.7546
  119OSM    C5F12589   2.584   0.222  10.059  0.3080 -0.3696  0.3649
  119OSM    H5F12590   2.480   0.259  10.062  1.3247  2.9629 -0.9322
  119OSM    H5G12591   2.592   0.134  10.127 -0.3039 -0.3327  0.4900
  119OSM    C6F12592   2.605   0.179   9.913 -0.2361 -0.2500 -0.2501
  119OSM    H6F12593   2.701   0.124   9.921 -0.3522 -0.3658  0.3999
  119OSM    H6G12594   2.609   0.273   9.855  1.3915  0.8291  1.5150
  119OSM    C7F12595   2.505   0.083   9.853 -0.1729 -0.2579 -0.0229
  119OSM    H7F12596   2.408   0.135   9.838 -0.5790 -1.8000 -3.8234
  119OSM    H7G12597   2.475   0.013   9.934  1.0032  0.0993  0.7429
  119OSM    C8F12598   2.557   0.018   9.721  0.2913  0.2427  0.5769
  119OSM    H8F12599   2.649  -0.037   9.749 -0.1962 -0.5049  0.7332
  119OSM    H8G12600   2.583   0.100   9.650 -1.9267 -0.6902 -1.4584
  119OSM    C9F12601   2.448  -0.077   9.672  0.6701  1.0061  0.6494
  119OSM    H9F12602   2.419  -0.152   9.747  0.9339  0.9913  0.7386
  119OSM   C10F12603   2.381  -0.080   9.557 -0.7005 -0.6125 -0.2762
  119OSM   H10F12604   2.317  -0.166   9.533 -1.2677  0.1118 -1.4755
  119OSM   C11F12605   2.400   0.004   9.431  0.2120  0.1535  0.0995
  119OSM   H11F12606   2.438   0.106   9.453 -3.2367  1.5907 -0.0249
  119OSM   H11G12607   2.304   0.025   9.379  0.4551  1.6714  0.2181
  119OSM   C12F12608   2.489  -0.057   9.321 -0.2060 -0.3429 -0.2400
  119OSM   H12F12609   2.454  -0.158   9.292 -1.3518  0.0410 -0.2096
  119OSM   H12G12610   2.591  -0.075   9.362  0.0108 -1.6013 -1.2379
  119OSM   C13F12611   2.517   0.028   9.186  0.4785  0.6468  0.0179
  119OSM   H13F12612   2.557   0.124   9.223 -0.6373  1.3990 -0.6713
  119OSM   H13G12613   2.417   0.051   9.143  0.5598  1.8976  0.4601
  119OSM   C14F12614   2.616  -0.042   9.078  0.2788  1.1193 -0.1270
  119OSM   H14F12615   2.551  -0.111   9.019  0.2243  1.5717 -0.5992
  119OSM   H14G12616   2.690  -0.108   9.128 -1.3431 -0.4002  0.3965
  119OSM   C15F12617   2.677   0.062   8.988  0.1218 -0.0316  0.6956
  119OSM   H15F12618   2.735   0.135   9.047 -1.4771  1.6492  0.2904
  119OSM   H15G12619   2.601   0.127   8.938  0.5828  0.0057  0.0374
  119OSM   C16F12620   2.781   0.008   8.893 -0.2994  0.2982 -0.2983
  119OSM   H16F12621   2.740  -0.072   8.828 -2.4164 -0.7277  2.1261
  119OSM   H16G12622   2.858  -0.050   8.948 -0.8592 -1.0228 -0.8730
  119OSM   C17F12623   2.841   0.124   8.806 -0.1319 -0.6397 -0.3475
  119OSM   H17F12624   2.933   0.080   8.762 -0.2172  0.0777 -1.2657
  119OSM   H17G12625   2.876   0.198   8.881 -0.8964 -1.1766  0.5752
  119OSM   C18F12626   2.752   0.186   8.703  0.7499  0.3569  0.3582
  119OSM   H18F12627   2.668   0.244   8.746  0.1160  0.6104 -1.1478
  119OSM   H18G12628   2.702   0.115   8.634  1.1483  0.2020  0.2254
  119OSM   H18H12629   2.808   0.264   8.646 -2.4372  0.9804 -2.1937
  120OSM      N12630   1.611   3.380  10.926  0.0710 -0.2253  0.5923
  120OSM    C1512631   1.651   3.493  10.833  0.5023 -0.4400  0.0731
  120OSM   H15A12632   1.606   3.583  10.873  0.1102 -1.0001  0.9046
  120OSM   H15B12633   1.628   3.469  10.730  0.7215  0.4958 -0.2068
  120OSM   H15C12634   1.759   3.499  10.839  0.5170  1.9307 -1.2497
  120OSM    C1412635   1.678   3.256  10.888  0.5424 -0.1844  0.6408
  120OSM   H14A12636   1.783   3.280  10.892  0.1378  1.6963  0.7291
  120OSM   H14B12637   1.651   3.228  10.787 -1.2856  0.4237  0.9118
  120OSM   H14C12638   1.648   3.181  10.960 -1.0229  0.4079  0.6465
  120OSM    C1312639   1.661   3.420  11.066 -0.0365 -0.6127  0.6092
  120OSM   H13A12640   1.654   3.527  11.078  1.0574 -0.6620  1.9990
  120OSM   H13B12641   1.764   3.397  11.089 -0.7012 -4.9921  0.1028
  120OSM   H13C12642   1.600   3.361  11.133 -0.9341  0.5848  0.8829
  120OSM    C1212643   1.459   3.377  10.930  0.0389  0.6445 -0.5196
  120OSM   H12A12644   1.425   3.468  10.979 -0.9308  0.0410 -0.0464
  120OSM   H12B12645   1.420   3.300  10.995  1.4618  0.9441  0.7480
  120OSM    C1112646   1.385   3.363  10.797 -0.7396  0.1892 -0.0793
  120OSM   H11A12647   1.280   3.330  10.813 -0.0482 -2.6296 -0.8025
  120OSM   H11B12648   1.419   3.282  10.728  0.1654  0.0932  0.4624
  120OSM      P12649   1.290   3.603  10.758 -0.4163  0.2484 -0.3877
  120OSM    O1312650   1.233   3.577  10.891  0.5339 -0.1322  0.1948
  120OSM    O1412651   1.362   3.731  10.748 -0.3992 -0.1400 -0.4618
  120OSM    O1112652   1.183   3.589  10.648  0.0051 -0.3992 -0.3148
  120OSM    O1212653   1.389   3.485  10.721  0.9003 -0.2801  0.0740
  120OSM    C1S12654   1.199   3.649  10.518 -0.1733  0.3139  0.0332
  120OSM    H1S12655   1.266   3.738  10.520  0.7379 -0.3499 -0.2588
  120OSM    H1T12656   1.101   3.680  10.477  0.1218  0.5025 -0.5456
  120OSM     NF12657   1.272   3.613  10.288  0.5470 -0.7319  0.0207
  120OSM    HNF12658   1.192   3.587  10.234  0.8705 -0.8588 -0.4102
  120OSM    C2S12659   1.263   3.547  10.416  0.7086 -0.4379 -0.6320
  120OSM    H2S12660   1.364   3.524  10.456  0.4292 -1.8228 -0.6726
  120OSM    C3S12661   1.171   3.422  10.426  0.8122 -0.1973  0.0142
  120OSM    H3S12662   1.067   3.445  10.395  1.0240 -0.6862 -1.1071
  120OSM     O312663   1.158   3.357  10.555 -0.3770  0.2745  0.1328
  120OSM    HO312664   1.163   3.435  10.610  0.6515  0.6754 -0.4885
  120OSM    C4S12665   1.220   3.331  10.314 -0.5173  0.6490 -0.2724
  120OSM    H4S12666   1.140   3.314  10.241 -1.5623  0.4697  0.8815
  120OSM    C5S12667   1.326   3.259  10.314  0.4797 -0.5523 -0.1673
  120OSM    H5S12668   1.393   3.250  10.400  1.0924  0.0227 -0.5788
  120OSM    C6S12669   1.368   3.174  10.199 -0.3471  0.7802 -0.1469
  120OSM    H6S12670   1.323   3.073  10.207  1.8417 -0.3944 -1.6162
  120OSM    H6T12671   1.473   3.139  10.213 -1.3135 -2.9041 -0.9682
  120OSM    C7S12672   1.343   3.224  10.053 -0.0160  0.6086 -0.0834
  120OSM    H7S12673   1.411   3.305  10.020  0.5743  0.0013 -0.3947
  120OSM    H7T12674   1.242   3.269  10.066  1.0558  2.4955  2.3800
  120OSM    C8S12675   1.328   3.112   9.947  0.3777  0.0994 -0.3695
  120OSM    H8S12676   1.272   3.160   9.863  1.1419  2.2827  0.2809
  120OSM    H8T12677   1.282   3.019   9.985  0.6436  0.8633  2.0241
  120OSM    C9S12678   1.465   3.066   9.895  0.0742  0.1822  0.7155
  120OSM    H9S12679   1.516   2.996   9.965 -1.4352 -2.0290 -0.2802
  120OSM    H9T12680   1.522   3.159   9.876 -0.2827  0.2601 -0.0061
  120OSM   C10S12681   1.455   2.988   9.760 -0.4321  0.1337 -0.5168
  120OSM   H10S12682   1.376   2.912   9.779  0.1123 -0.3563 -0.1851
  120OSM   H10T12683   1.552   2.936   9.742 -0.1199 -0.3582  2.1549
  120OSM   C11S12684   1.420   3.067   9.628 -0.1406  0.2607  0.2753
  120OSM   H11S12685   1.476   3.160   9.607 -0.4088 -0.2406 -3.1427
  120OSM   H11T12686   1.313   3.094   9.628 -0.6808 -1.7101 -0.8897
  120OSM   C12S12687   1.433   2.981   9.500  0.6110  0.4521  0.7204
  120OSM   H12S12688   1.377   2.889   9.527 -1.4825  1.3965 -0.1085
  120OSM   H12T12689   1.541   2.958   9.512  0.2831 -1.5661  0.0862
  120OSM   C13S12690   1.402   3.043   9.366 -0.2826 -0.0982  0.2138
  120OSM   H13S12691   1.407   3.151   9.393  3.7298 -0.1376  0.1376
  120OSM   H13T12692   1.297   3.012   9.345  0.4205 -1.2714 -1.7622
  120OSM   C14S12693   1.486   3.020   9.242 -0.2494  1.3155 -0.1320
  120OSM   H14S12694   1.498   2.913   9.215  2.6351  1.3550  0.6517
  120OSM   H14T12695   1.586   3.068   9.248  0.5636 -0.3884  0.4552
  120OSM   C15S12696   1.407   3.087   9.123 -0.4791  0.0787 -0.6340
  120OSM   H15S12697   1.386   3.192   9.152  1.1814  0.3237 -0.2419
  120OSM   H15T12698   1.312   3.029   9.120 -0.4693  0.0408 -0.2208
  120OSM   C16S12699   1.480   3.081   8.990  0.1439  0.1419  0.3796
  120OSM   H16S12700   1.467   2.973   8.964  2.0319  0.6364 -3.2688
  120OSM   H16T12701   1.591   3.092   8.997  0.1437 -0.1002  0.8347
  120OSM   C17S12702   1.427   3.171   8.886  0.0390 -0.3235  0.5330
  120OSM   H17S12703   1.489   3.184   8.794 -2.1464  0.5995 -0.9030
  120OSM   H17T12704   1.419   3.270   8.936  2.1586  1.1430 -1.7392
  120OSM   C18S12705   1.282   3.140   8.837 -0.2017 -0.2170  0.1841
  120OSM   H18S12706   1.214   3.141   8.925 -0.4924  2.4854  0.0092
  120OSM   H18T12707   1.280   3.040   8.790  1.5978 -1.4215  2.4453
  120OSM   H18U12708   1.253   3.208   8.754  0.7491  0.6596  0.5403
  120OSM    C1F12709   1.342   3.727  10.263 -1.0770 -0.1193  0.0042
  120OSM     OF12710   1.429   3.767  10.342  0.1158  0.5534  1.2281
  120OSM    C2F12711   1.292   3.818  10.157 -0.5798 -0.5866 -0.5392
  120OSM    H2F12712   1.269   3.914  10.207 -3.1868 -2.0545  1.3320
  120OSM    H2G12713   1.199   3.786  10.104 -1.7138 -2.2900  2.2740
  120OSM    C3F12714   1.402   3.846  10.049 -0.1655 -0.8420  0.0135
  120OSM    H3F12715   1.416   3.759   9.981  0.5855 -0.4652 -0.3317
  120OSM    H3G12716   1.500   3.855  10.100  0.4152  1.0684 -1.3135
  120OSM    C4F12717   1.388   3.972   9.966 -0.1772 -0.1980 -0.9443
  120OSM    H4F12718   1.390   4.061  10.032  0.6350 -1.2867  0.5519
  120OSM    H4G12719   1.289   3.975   9.915 -0.8689  0.0450  0.3729
  120OSM    C5F12720   1.496   3.992   9.857 -0.8947 -0.4651 -0.4588
  120OSM    H5F12721   1.587   3.931   9.875 -1.5148 -1.5566 -0.9585
  120OSM    H5G12722   1.527   4.099   9.850  0.7685 -0.9815 -1.5507
  120OSM    C6F12723   1.440   3.955   9.718 -0.0206 -0.4467  0.1960
  120OSM    H6F12724   1.338   3.997   9.705  0.2586  0.1785 -0.0181
  120OSM    H6G12725   1.420   3.846   9.721 -2.9853 -0.0223 -0.5558
  120OSM    C7F12726   1.532   4.007   9.611 -0.5478  0.6013  0.2852
  120OSM    H7F12727   1.631   3.957   9.616 -0.2636  1.1854  0.4723
  120OSM    H7G12728   1.549   4.116   9.619 -0.1822  0.5694 -0.0329
  120OSM    C8F12729   1.480   3.982   9.467 -0.2479 -0.7104  0.1313
  120OSM    H8F12730   1.385   4.040   9.464 -0.2967 -0.7977  0.0194
  120OSM    H8G12731   1.456   3.874   9.459 -1.9708 -0.4020  0.6120
  120OSM    C9F12732   1.562   4.025   9.348  0.0637 -0.0495  0.2235
  120OSM    H9F12733   1.654   4.083   9.365  1.5477 -1.9915 -0.7934
  120OSM   C10F12734   1.527   3.992   9.223 -0.1640 -0.1431 -0.0834
  120OSM   H10F12735   1.598   4.028   9.147 -0.9502 -1.5570 -1.5582
  120OSM   C11F12736   1.405   3.912   9.182  0.4235 -0.7668  0.3999
  120OSM   H11F12737   1.336   3.880   9.263 -0.6683 -1.1292 -0.6619
  120OSM   H11G12738   1.443   3.813   9.148 -0.3160 -0.6504 -0.8269
  120OSM   C12F12739   1.319   3.959   9.057 -0.7521 -0.2739 -0.7146
  120OSM   H12F12740   1.383   3.938   8.969  2.2034 -1.2770  1.4750
  120OSM   H12G12741   1.309   4.069   9.070  0.2844 -0.1331 -0.9996
  120OSM   C13F12742   1.191   3.875   9.046 -0.4070 -0.4544 -0.4245
  120OSM   H13F12743   1.144   3.880   9.146  0.7891 -1.7592  0.2412
  120OSM   H13G12744   1.213   3.769   9.018 -0.4906 -0.4806 -0.3904
  120OSM   C14F12745   1.085   3.910   8.937 -0.6026 -0.3015 -0.8046
  120OSM   H14F12746   1.064   4.015   8.968  1.0471 -0.3287  0.5609
  120OSM   H14G12747   1.001   3.842   8.962  0.4672 -1.1718  0.5588
  120OSM   C15F12748   1.130   3.895   8.797 -0.2554  0.1819 -0.5418
  120OSM   H15F12749   1.149   3.786   8.787 -0.9283 -0.1378  1.3096
  120OSM   H15G12750   1.213   3.967   8.781  0.8346 -0.8670  0.1825
  120OSM   C16F12751   1.015   3.930   8.707  0.8306 -0.4822  1.3306
  120OSM   H16F12752   0.997   4.039   8.723  1.3701 -0.6681  3.6223
  120OSM   H16G12753   0.921   3.885   8.745 -1.4280  0.9060 -2.1597
  120OSM   C17F12754   1.035   3.887   8.564  0.1735 -0.1835 -0.1082
  120OSM   H17F12755   0.940   3.917   8.514 -0.5577  1.3068  2.0181
  120OSM   H17G12756   1.041   3.776   8.555 -0.2725 -0.0628 -2.6170
  120OSM   C18F12757   1.144   3.960   8.494  0.2143 -0.3057  0.1583
  120OSM   H18F12758   1.120   4.068   8.482  0.3723 -0.5154 -2.6665
  120OSM   H18G12759   1.143   3.926   8.389 -0.0270 -1.7771  0.6166
  120OSM   H18H12760   1.244   3.955   8.542 -0.7387 -2.1840  2.1495
  121OSM      N12761   2.255   1.024  11.128 -0.2194 -0.9119 -0.6620
  121OSM    C1512762   2.186   1.147  11.165  0.0753  0.4181  0.2442
  121OSM   H15A12763   2.149   1.150  11.267  0.7110  0.7818  0.4689
  121OSM   H15B12764   2.101   1.164  11.100  0.4979 -1.2920 -0.8191
  121OSM   H15C12765   2.244   1.238  11.162 -0.3674  0.6803 -0.8083
  121OSM    C1412766   2.313   1.045  10.994 -0.1875  0.1977 -0.7771
  121OSM   H14A12767   2.367   0.957  10.964  2.8992  1.7588 -0.1981
  121OSM   H14B12768   2.376   1.133  10.994 -0.7356  0.6364  1.0931
  121OSM   H14C12769   2.227   1.065  10.931  0.0669  0.5616 -1.0141
  121OSM    C1312770   2.370   1.014  11.228  0.0558 -0.0744 -0.0393
  121OSM   H13A12771   2.419   0.922  11.200  0.2074 -0.1795  0.5573
  121OSM   H13B12772   2.332   1.009  11.329  2.0218  1.0026  0.8061
  121OSM   H13C12773   2.433   1.102  11.227  0.5576 -0.3388  2.2014
  121OSM    C1212774   2.169   0.903  11.137 -0.9777  1.0136  0.1903
  121OSM   H12A12775   2.109   0.918  11.226 -2.6003  3.0704 -1.1642
  121OSM   H12B12776   2.234   0.817  11.144 -0.5080  1.4564  1.7647
  121OSM    C1112777   2.068   0.894  11.027  0.5572  1.1315  0.4103
  121OSM   H11A12778   2.003   0.804  11.034 -0.5593  1.9770  1.0523
  121OSM   H11B12779   2.124   0.889  10.931  0.8982 -1.3139  0.6514
  121OSM      P12780   1.857   1.002  11.113 -0.0706  0.1898  0.1471
  121OSM    O1312781   1.892   0.928  11.238 -0.1208 -0.5054 -0.4764
  121OSM    O1412782   1.791   1.135  11.123  0.2349  0.2119 -0.3683
  121OSM    O1112783   1.756   0.907  11.034 -0.2038  0.1312 -0.2102
  121OSM    O1212784   1.981   1.004  11.017 -0.9438 -0.0786 -1.0269
  121OSM    C1S12785   1.698   0.953  10.905 -0.4820  0.3520 -0.0180
  121OSM    H1S12786   1.747   1.041  10.858 -1.7037  0.0821 -1.8822
  121OSM    H1T12787   1.589   0.976  10.901  0.0179  2.8389 -1.4201
  121OSM     NF12788   1.673   0.911  10.661 -0.3314  0.1763 -0.3383
  121OSM    HNF12789   1.575   0.898  10.644 -0.0951  0.6964 -2.4529
  121OSM    C2S12790   1.730   0.855  10.788 -0.4384  0.4112  0.7404
  121OSM    H2S12791   1.841   0.857  10.779 -0.3953 -0.6943  0.9350
  121OSM    C3S12792   1.692   0.712  10.818 -0.0402  0.0892 -0.5595
  121OSM    H3S12793   1.581   0.697  10.818 -0.1297  0.7353 -0.6612
  121OSM     O312794   1.729   0.664  10.949 -0.2218 -0.0595  0.2310
  121OSM    HO312795   1.740   0.746  10.998  0.6327 -1.5315  2.6437
  121OSM    C4S12796   1.731   0.632  10.704 -0.4169 -0.9192  0.3158
  121OSM    H4S12797   1.647   0.617  10.635 -0.9676 -0.4033  0.8584
  121OSM    C5S12798   1.850   0.585  10.664  0.5174 -0.1604  0.0673
  121OSM    H5S12799   1.944   0.618  10.710 -0.2606  3.2474 -0.4769
  121OSM    C6S12800   1.872   0.516  10.528  0.4041 -0.7740  0.2718
  121OSM    H6S12801   1.787   0.445  10.516 -0.6348  0.2609  1.2404
  121OSM    H6T12802   1.968   0.462  10.519 -0.3359 -1.9031 -1.0454
  121OSM    C7S12803   1.861   0.620  10.420 -0.1968 -0.4868 -0.0329
  121OSM    H7S12804   1.921   0.709  10.448 -0.2763 -0.4218 -0.0676
  121OSM    H7T12805   1.757   0.648  10.392 -0.0958  1.0297  0.9789
  121OSM    C8S12806   1.915   0.563  10.291 -0.2022  0.0986  0.7165
  121OSM    H8S12807   1.848   0.487  10.246 -0.4628  0.2036  0.9229
  121OSM    H8T12808   2.017   0.520  10.302  0.3407  0.7790 -1.1892
  121OSM    C9S12809   1.952   0.671  10.182  0.3544 -0.2329  0.3644
  121OSM    H9S12810   2.024   0.747  10.220 -0.3552  0.0679  1.1459
  121OSM    H9T12811   1.853   0.715  10.159  0.5404 -0.7536 -1.5535
  121OSM   C10S12812   2.009   0.607  10.056  0.0574 -0.3284 -0.2905
  121OSM   H10S12813   1.927   0.533  10.037 -0.4837 -0.4668  2.2280
  121OSM   H10T12814   2.106   0.560  10.081  0.1385  0.7633  1.6543
  121OSM   C11S12815   2.024   0.711   9.947  0.3500  0.3023  0.2419
  121OSM   H11S12816   2.129   0.733   9.918  0.1102  1.3981  0.1857
  121OSM   H11T12817   1.980   0.810   9.973 -0.0025  0.7031 -1.6861
  121OSM   C12S12818   1.956   0.661   9.816 -0.2201  0.4517  0.0186
  121OSM   H12S12819   1.849   0.690   9.826 -0.1648  0.4209  0.7461
  121OSM   H12T12820   1.968   0.552   9.798 -2.2975  0.4309 -1.4727
  121OSM   C13S12821   2.016   0.720   9.687  0.1580 -0.1632 -0.1290
  121OSM   H13S12822   2.110   0.665   9.668 -0.5802 -1.8185  0.7967
  121OSM   H13T12823   2.030   0.831   9.692 -0.4410 -0.0740 -0.3018
  121OSM   C14S12824   1.923   0.692   9.570 -0.8540  0.4767 -0.0280
  121OSM   H14S12825   1.822   0.739   9.575 -1.4576 -0.6398 -1.1611
  121OSM   H14T12826   1.904   0.583   9.565 -0.9601  0.5129 -0.4724
  121OSM   C15S12827   1.984   0.731   9.427  0.3827 -0.3110  0.5760
  121OSM   H15S12828   1.929   0.680   9.344 -0.5998  0.6550  0.6105
  121OSM   H15T12829   2.090   0.698   9.429  0.5956  0.2951 -0.2507
  121OSM   C16S12830   1.976   0.879   9.397  0.0346  0.4618  0.2261
  121OSM   H16S12831   2.032   0.936   9.475  0.9209  0.5679 -0.4600
  121OSM   H16T12832   1.867   0.898   9.399 -0.7306 -3.1392 -0.7778
  121OSM   C17S12833   2.037   0.914   9.261  0.0406  0.4822 -0.6195
  121OSM   H17S12834   2.137   0.866   9.253 -0.2146 -0.2043  0.1458
  121OSM   H17T12835   2.059   1.022   9.245 -0.9977  0.9091  0.6332
  121OSM   C18S12836   1.956   0.869   9.135 -0.2752 -0.8955 -0.1591
  121OSM   H18S12837   1.976   0.762   9.111 -1.7594 -1.6262  1.6002
  121OSM   H18T12838   1.998   0.934   9.055 -0.5654 -0.0052  0.4010
  121OSM   H18U12839   1.848   0.878   9.162  0.3538  0.8662  2.0259
  121OSM    C1F12840   1.730   0.999  10.579 -0.0025  0.1729 -0.0324
  121OSM     OF12841   1.828   1.064  10.613 -0.2255  0.2247 -0.2582
  121OSM    C2F12842   1.672   1.020  10.447 -0.0846  0.2539 -0.1367
  121OSM    H2F12843   1.731   1.101  10.400 -0.7637  1.5907  1.2425
  121OSM    H2G12844   1.565   1.047  10.461 -0.4681 -1.0174 -0.4522
  121OSM    C3F12845   1.669   0.894  10.357  0.3912  0.0044 -1.0987
  121OSM    H3F12846   1.628   0.806  10.411  0.3922  0.7208  0.0916
  121OSM    H3G12847   1.775   0.864  10.338  1.2653  2.4499 -0.4798
  121OSM    C4F12848   1.582   0.917  10.234  0.4856  0.2102  0.0946
  121OSM    H4F12849   1.486   0.952  10.277  0.9230  0.6012  0.7692
  121OSM    H4G12850   1.576   0.816  10.187 -1.3669  0.8737 -1.1920
  121OSM    C5F12851   1.613   1.009  10.121 -0.3268 -0.4466  0.1711
  121OSM    H5F12852   1.615   1.108  10.171 -0.6604 -1.5253  2.4284
  121OSM    H5G12853   1.543   1.011  10.035 -0.3440  1.3818  0.1856
  121OSM    C6F12854   1.756   0.979  10.067 -0.0694  0.4139  0.9466
  121OSM    H6F12855   1.753   0.883  10.012 -1.8708  2.4104 -2.8664
  121OSM    H6G12856   1.823   0.966  10.155  0.7002  0.9248  0.4543
  121OSM    C7F12857   1.808   1.086   9.971  0.4040 -0.3807 -0.0880
  121OSM    H7F12858   1.916   1.108   9.982  0.2482  0.0687  0.5699
  121OSM    H7G12859   1.763   1.183   9.999  2.2522  0.9458 -1.4310
  121OSM    C8F12860   1.806   1.045   9.825  0.1402 -0.2232  0.6445
  121OSM    H8F12861   1.854   0.946   9.811 -0.5121 -0.2567 -1.9938
  121OSM    H8G12862   1.849   1.119   9.753 -1.6183 -0.3326 -0.5976
  121OSM    C9F12863   1.668   1.013   9.774  0.2716 -0.3297  0.4143
  121OSM    H9F12864   1.612   0.946   9.841  1.4950 -1.1054  0.6919
  121OSM   C10F12865   1.613   1.068   9.664 -0.0279  0.0286 -0.1100
  121OSM   H10F12866   1.510   1.041   9.641  0.4567 -1.0386 -1.1018
  121OSM   C11F12867   1.683   1.166   9.572 -0.0512 -0.7292 -0.2041
  121OSM   H11F12868   1.754   1.114   9.504  0.0943 -1.3044  0.3865
  121OSM   H11G12869   1.734   1.236   9.641  1.3509 -0.7753 -1.1442
  121OSM   C12F12870   1.589   1.251   9.481  0.7164 -0.4772  0.3161
  121OSM   H12F12871   1.647   1.338   9.444 -0.1173  0.4516  1.1483
  121OSM   H12G12872   1.500   1.293   9.531 -0.1666 -1.2158 -0.5789
  121OSM   C13F12873   1.524   1.173   9.356  0.4903  0.4605  0.3190
  121OSM   H13F12874   1.489   1.074   9.393  0.6292  0.5011  0.5660
  121OSM   H13G12875   1.605   1.150   9.284  1.1884  0.1892  1.1689
  121OSM   C14F12876   1.406   1.255   9.289  0.6320  0.6731  0.4455
  121OSM   H14F12877   1.318   1.260   9.357  0.4444  0.9043  0.1870
  121OSM   H14G12878   1.376   1.195   9.200  0.4966  0.2500  0.7711
  121OSM   C15F12879   1.434   1.399   9.242 -0.1643 -0.0345  0.1170
  121OSM   H15F12880   1.474   1.462   9.324 -1.2152 -0.6764  1.1573
  121OSM   H15G12881   1.343   1.442   9.194 -0.3476  0.1758  0.6420
  121OSM   C16F12882   1.531   1.406   9.117  0.3612  0.1406 -0.5547
  121OSM   H16F12883   1.639   1.401   9.143  0.2786  0.1722 -0.2085
  121OSM   H16G12884   1.525   1.511   9.080 -1.7944  0.4773  0.6397
  121OSM   C17F12885   1.501   1.317   8.996 -0.4217  0.1251  0.4818
  121OSM   H17F12886   1.397   1.324   8.957 -0.0935 -0.1031 -0.4732
  121OSM   H17G12887   1.510   1.209   9.022  0.7900 -0.1964 -1.0916
  121OSM   C18F12888   1.595   1.350   8.872 -0.3709 -0.2021 -0.4374
  121OSM   H18F12889   1.701   1.315   8.872  0.1181  1.0496  1.8949
  121OSM   H18G12890   1.605   1.459   8.851 -0.2429 -0.4702 -1.8467
  121OSM   H18H12891   1.549   1.309   8.780 -0.4688 -2.3357  0.5023
  122OSM      N12892   2.708   3.519  11.084  0.3907 -0.7966  0.3979
  122OSM    C1512893   2.794   3.616  11.001 -0.3190  0.0638 -0.0744
  122OSM   H15A12894   2.846   3.686  11.065  0.5271  0.1055 -0.7983
  122OSM   H15B12895   2.736   3.664  10.923  3.5405  1.3241 -2.4151
  122OSM   H15C12896   2.874   3.562  10.954  0.4463 -0.2125  1.4799
  122OSM    C1412897   2.807   3.485  11.184  0.3383  0.0366  0.2264
  122OSM   H14A12898   2.865   3.567  11.221  4.0180 -2.2667  0.0769
  122OSM   H14B12899   2.882   3.419  11.143 -0.2788 -1.8019  1.8728
  122OSM   H14C12900   2.763   3.425  11.263  0.7464 -1.6007 -0.7309
  122OSM    C1312901   2.601   3.600  11.147  0.1318 -0.7991 -0.6997
  122OSM   H13A12902   2.532   3.635  11.072  0.9242  1.1963 -0.5714
  122OSM   H13B12903   2.646   3.690  11.187  0.2905 -0.3279 -1.8993
  122OSM   H13C12904   2.551   3.553  11.230 -0.6511  0.2957 -0.5248
  122OSM    C1212905   2.649   3.403  11.012  0.0841 -0.1776 -0.0799
  122OSM   H12A12906   2.577   3.365  11.084  0.1865  0.4715  0.3750
  122OSM   H12B12907   2.721   3.324  10.995  0.5961  0.6521 -1.9498
  122OSM    C1112908   2.567   3.434  10.886 -0.4207  0.2870  0.2792
  122OSM   H11A12909   2.533   3.341  10.836  0.8741  0.7570 -1.5638
  122OSM   H11B12910   2.636   3.486  10.816 -0.2903  2.0045  1.6083
  122OSM      P12911   2.316   3.478  10.954 -0.0456  0.1154 -0.5584
  122OSM    O1312912   2.335   3.371  11.055 -0.5754  0.6609  0.6223
  122OSM    O1412913   2.232   3.590  10.998  0.5079  0.5545 -0.4216
  122OSM    O1112914   2.256   3.420  10.825  0.1865 -0.1213  0.0583
  122OSM    O1212915   2.464   3.530  10.911  0.1937 -0.1832 -0.6346
  122OSM    C1S12916   2.258   3.502  10.705  0.2511 -0.4347  0.9900
  122OSM    H1S12917   2.352   3.475  10.651 -0.0552  1.3439 -0.5385
  122OSM    H1T12918   2.260   3.611  10.728  0.7731  0.7110 -3.3808
  122OSM     NF12919   2.159   3.521  10.487  0.3723 -0.3945  0.3286
  122OSM    HNF12920   2.097   3.594  10.459  1.6838  0.7577  0.3271
  122OSM    C2S12921   2.136   3.473  10.618 -0.2887  0.0398 -0.0629
  122OSM    H2S12922   2.123   3.363  10.629 -1.0379  0.0540 -0.7475
  122OSM    C3S12923   2.001   3.526  10.675  0.4659 -0.2297  0.1430
  122OSM    H3S12924   2.001   3.637  10.678  0.2394 -0.1968 -0.7506
  122OSM     O312925   1.982   3.483  10.810 -0.0521  0.1741  0.3343
  122OSM    HO312926   2.068   3.442  10.823  0.2271 -0.4182 -2.6806
  122OSM    C4S12927   1.891   3.467  10.592  0.6920  0.3405 -0.0917
  122OSM    H4S12928   1.913   3.362  10.566  0.6048  0.4600 -0.6533
  122OSM    C5S12929   1.791   3.527  10.522 -0.6750  0.0110  0.0204
  122OSM    H5S12930   1.797   3.637  10.517  0.3197 -0.0063  0.4571
  122OSM    C6S12931   1.692   3.452  10.438  0.3568 -0.2654  0.2124
  122OSM    H6S12932   1.591   3.451  10.485 -0.1458 -2.5010 -0.7783
  122OSM    H6T12933   1.719   3.345  10.428  0.4060 -0.1446 -1.1068
  122OSM    C7S12934   1.659   3.502  10.292  0.4814  0.6549 -0.6215
  122OSM    H7S12935   1.634   3.609  10.304  1.2125  0.5805  2.4062
  122OSM    H7T12936   1.559   3.461  10.266  0.3038 -0.0445  1.0139
  122OSM    C8S12937   1.762   3.480  10.178  0.0112  0.2496  0.9741
  122OSM    H8S12938   1.766   3.370  10.162 -2.6714  0.5363 -3.3151
  122OSM    H8T12939   1.850   3.524  10.229 -0.1827  1.1712  0.5363
  122OSM    C9S12940   1.733   3.560  10.048  0.4454 -0.4250  0.0085
  122OSM    H9S12941   1.827   3.584   9.994  0.6140  1.7554  1.1502
  122OSM    H9T12942   1.709   3.662  10.085 -0.9794  0.1939 -2.4022
  122OSM   C10S12943   1.625   3.509   9.952 -0.0343 -0.7401  0.3260
  122OSM   H10S12944   1.527   3.519  10.003 -0.9756  0.1639 -1.5274
  122OSM   H10T12945   1.646   3.406   9.917 -2.0004 -0.5576 -1.6244
  122OSM   C11S12946   1.626   3.598   9.824 -0.1473 -0.0092  0.4573
  122OSM   H11S12947   1.728   3.628   9.793  0.5092 -1.6595  0.9241
  122OSM   H11T12948   1.564   3.690   9.833 -0.0627  0.1547 -0.5197
  122OSM   C12S12949   1.568   3.528   9.696 -0.9091 -0.4995 -0.2822
  122OSM   H12S12950   1.463   3.501   9.719 -1.2739 -1.1556 -2.5255
  122OSM   H12T12951   1.625   3.434   9.681 -1.5059 -0.9397  0.1476
  122OSM   C13S12952   1.559   3.605   9.563 -0.5967  0.0508  0.5078
  122OSM   H13S12953   1.662   3.645   9.556 -0.9620  1.6634  3.0064
  122OSM   H13T12954   1.487   3.690   9.569  0.2354  1.0363 -2.0792
  122OSM   C14S12955   1.527   3.520   9.444 -0.2939 -0.1551  0.7136
  122OSM   H14S12956   1.421   3.486   9.452 -0.0666 -2.1946 -2.8446
  122OSM   H14T12957   1.595   3.433   9.439  0.1970  0.1865  1.3154
  122OSM   C15S12958   1.546   3.595   9.312  0.1257 -0.3794  0.6135
  122OSM   H15S12959   1.520   3.702   9.319  1.2178  0.0227 -1.0164
  122OSM   H15T12960   1.479   3.547   9.237  0.0587  0.4422  0.1459
  122OSM   C16S12961   1.687   3.594   9.254 -1.5105  0.0977 -0.6860
  122OSM   H16S12962   1.737   3.495   9.252 -2.0306 -0.3051 -5.3518
  122OSM   H16T12963   1.742   3.662   9.322  1.0488 -3.7800  1.4891
  122OSM   C17S12964   1.687   3.637   9.107 -0.1944 -0.1248  0.0134
  122OSM   H17S12965   1.787   3.680   9.084 -0.4998  0.7193  0.2293
  122OSM   H17T12966   1.610   3.714   9.083 -1.6498 -1.5763 -0.1756
  122OSM   C18S12967   1.676   3.511   9.026  0.1609  0.2831  0.7316
  122OSM   H18S12968   1.601   3.432   9.049  1.4729 -0.9546  0.9067
  122OSM   H18T12969   1.773   3.458   9.027 -0.5506 -1.0718  0.9354
  122OSM   H18U12970   1.657   3.537   8.920  1.5170  4.7606  1.3932
  122OSM    C1F12971   2.237   3.461  10.400 -0.0959 -0.1243 -0.5575
  122OSM     OF12972   2.316   3.371  10.428  0.3106 -0.2995  0.4601
  122OSM    C2F12973   2.236   3.525  10.269 -0.3249 -1.0718 -0.1225
  122OSM    H2F12974   2.335   3.572  10.251  0.0945 -0.5191  3.0675
  122OSM    H2G12975   2.155   3.600  10.261  0.6593 -0.0725 -1.0578
  122OSM    C3F12976   2.198   3.424  10.152 -0.3340 -0.0369 -0.0556
  122OSM    H3F12977   2.121   3.350  10.183  0.3637  0.3258  2.8333
  122OSM    H3G12978   2.286   3.358  10.142  0.7880  1.5027 -0.6816
  122OSM    C4F12979   2.169   3.491  10.015  0.2242  0.6043 -0.0603
  122OSM    H4F12980   2.229   3.585  10.014 -0.4260  1.0171 -0.3782
  122OSM    H4G12981   2.060   3.509  10.007  0.1521  0.6346  0.8533
  122OSM    C5F12982   2.197   3.398   9.891 -0.3953 -0.4188  0.1221
  122OSM    H5F12983   2.136   3.307   9.907 -1.5209  0.4850  1.1537
  122OSM    H5G12984   2.306   3.380   9.879 -0.9608 -2.6291 -2.9609
  122OSM    C6F12985   2.159   3.470   9.759  0.3295 -0.0915 -0.1031
  122OSM    H6F12986   2.159   3.580   9.772  1.9489 -0.1506  0.5169
  122OSM    H6G12987   2.052   3.441   9.749  0.8537 -3.5223  2.4370
  122OSM    C7F12988   2.236   3.427   9.638 -0.2573 -0.2248 -0.3955
  122OSM    H7F12989   2.229   3.317   9.623 -2.0443 -0.1114 -0.7097
  122OSM    H7G12990   2.340   3.455   9.665 -0.9750  1.6622  0.5889
  122OSM    C8F12991   2.175   3.481   9.509 -0.1913  0.4210  0.2230
  122OSM    H8F12992   2.179   3.592   9.509  2.7250  0.4038  0.2401
  122OSM    H8G12993   2.069   3.451   9.497 -0.4570  1.3702  0.1104
  122OSM    C9F12994   2.248   3.431   9.387 -0.5730  0.5736 -0.5163
  122OSM    H9F12995   2.262   3.322   9.392  1.7238  0.7845 -1.2626
  122OSM   C10F12996   2.278   3.498   9.272  0.0364 -0.8798  0.0988
  122OSM   H10F12997   2.331   3.448   9.190  1.1966  1.2566 -0.5398
  122OSM   C11F12998   2.246   3.648   9.242 -0.1862  0.4085 -0.6757
  122OSM   H11F12999   2.333   3.712   9.268 -0.2013  0.2370 -0.1984
  122OSM   H11G13000   2.158   3.683   9.299 -0.4822  1.0889 -1.5289
  122OSM   C12F13001   2.223   3.663   9.091 -0.0969  0.2558 -0.4054
  122OSM   H12F13002   2.314   3.640   9.032  0.1324 -0.4492  0.1987
  122OSM   H12G13003   2.213   3.773   9.086 -1.3749  0.1044 -1.8612
  122OSM   C13F13004   2.091   3.600   9.040 -0.0692  0.2135 -0.4618
  122OSM   H13F13005   2.001   3.632   9.096  0.5374 -0.4842  0.9496
  122OSM   H13G13006   2.101   3.490   9.055 -0.5731  0.3211  0.8295
  122OSM   C14F13007   2.070   3.618   8.888 -0.6055 -0.7732  0.0149
  122OSM   H14F13008   2.045   3.724   8.867 -1.4996 -0.8251  0.7434
  122OSM   H14G13009   1.981   3.557   8.864 -1.0422  0.8832 -3.0357
  122OSM   C15F13010   2.185   3.579   8.794  0.3140  0.4498  0.5075
  122OSM   H15F13011   2.215   3.474   8.817  1.7170  0.8175  0.4604
  122OSM   H15G13012   2.278   3.637   8.814  1.5296 -1.0306 -0.6209
  122OSM   C16F13013   2.159   3.603   8.644 -0.2242 -0.6208 -0.0334
  122OSM   H16F13014   2.133   3.709   8.622 -1.1592 -0.7999  0.1704
  122OSM   H16G13015   2.076   3.536   8.614  0.8418 -1.7189 -0.5827
  122OSM   C17F13016   2.284   3.553   8.565 -0.2800  0.9033  0.3897
  122OSM   H17F13017   2.287   3.443   8.576 -1.2222  0.3803 -3.2033
  122OSM   H17G13018   2.378   3.587   8.613  1.1621 -0.6607 -1.2017
  122OSM   C18F13019   2.270   3.590   8.417 -1.3117 -0.3847 -0.3231
  122OSM   H18F13020   2.354   3.557   8.352  0.4238 -0.1731  1.7344
  122OSM   H18G13021   2.255   3.700   8.407  0.3470 -0.3089 -2.7834
  122OSM   H18H13022   2.185   3.529   8.378 -0.2815 -0.5060 -2.5694
  123OSM      N13023   0.103   2.586   6.039 -0.4068 -0.2643  0.0514
  123OSM    C1513024   0.027   2.705   5.994 -0.2240 -0.0084 -0.4036
  123OSM   H15A13025   0.070   2.743   5.902  0.9877 -1.3432 -0.4171
  123OSM   H15B13026   0.035   2.787   6.063  0.9444 -1.9343  1.8686
  123OSM   H15C13027  -0.079   2.686   5.980 -0.2315 -0.9293  0.7644
  123OSM    C1413028   0.078   2.478   5.942 -0.6209  0.8688  0.3023
  123OSM   H14A13029   0.156   2.403   5.954  2.1551  3.7536  1.9122
  123OSM   H14B13030   0.102   2.512   5.842  0.2122 -0.0613  0.1660
  123OSM   H14C13031  -0.018   2.431   5.958 -0.1371 -0.1325  0.3832
  123OSM    C1313032   0.252   2.621   6.030  0.1095 -0.8172  0.1620
  123OSM   H13A13033   0.316   2.539   6.059  2.5505  1.5755  2.0314
  123OSM   H13B13034   0.277   2.700   6.099 -0.2062  0.2302 -0.8884
  123OSM   H13C13035   0.283   2.649   5.930 -2.0454  2.4350  0.2541
  123OSM    C1213036   0.067   2.546   6.183 -0.7322 -0.1546 -0.5924
  123OSM   H12A13037   0.101   2.444   6.195  2.2259  0.4783 -2.5307
  123OSM   H12B13038  -0.041   2.547   6.191 -0.7472 -0.6453 -0.6477
  123OSM    C1113039   0.121   2.635   6.301 -0.1508 -0.1202 -0.1595
  123OSM   H11A13040   0.229   2.617   6.324 -0.9173 -0.8147  3.5109
  123OSM   H11B13041   0.067   2.608   6.394 -1.5813  0.5988 -0.7520
  123OSM      P13042   0.212   2.880   6.328  0.4929  0.2300  0.3588
  123OSM    O1313043   0.319   2.864   6.234  0.8368 -0.1022  0.8858
  123OSM    O1413044   0.164   3.014   6.349 -0.0864  0.0538  0.1209
  123OSM    O1113045   0.244   2.821   6.465 -0.2044  0.2546  0.3663
  123OSM    O1213046   0.095   2.774   6.288 -0.6851  0.2436 -0.1630
  123OSM    C1S13047   0.152   2.829   6.577  0.0930  0.1496 -1.3751
  123OSM    H1S13048   0.062   2.764   6.573 -1.9165  2.6890 -0.4475
  123OSM    H1T13049   0.099   2.926   6.589 -1.1362 -0.7493  1.4752
  123OSM     NF13050   0.132   2.812   6.820 -1.7391 -0.0800 -0.4080
  123OSM    HNF13051   0.120   2.899   6.868 -1.1206  0.4045 -1.1080
  123OSM    C2S13052   0.226   2.813   6.712  0.8484 -0.2272 -0.0823
  123OSM    H2S13053   0.266   2.710   6.705 -0.0134 -0.6245  0.6165
  123OSM    C3S13054   0.344   2.904   6.731  0.2994  0.0540 -0.0510
  123OSM    H3S13055   0.311   3.009   6.749  2.2275  0.7580 -0.3698
  123OSM     O313056   0.435   2.901   6.617  0.5834 -0.1126  0.0059
  123OSM    HO313057   0.386   2.850   6.552 -1.3724  1.8346 -0.1837
  123OSM    C4S13058   0.422   2.860   6.851  0.8286  0.7500 -0.4254
  123OSM    H4S13059   0.383   2.910   6.941 -0.9561  0.0296 -0.7664
  123OSM    C5S13060   0.529   2.790   6.869 -0.3666 -0.5320  0.5026
  123OSM    H5S13061   0.583   2.752   6.781  0.3909  1.8768 -0.1683
  123OSM    C6S13062   0.589   2.772   7.008  0.8015  0.2651  0.4197
  123OSM    H6S13063   0.680   2.835   7.014  0.3222  1.1788 -1.1789
  123OSM    H6T13064   0.610   2.664   7.020  0.4913 -0.0501 -1.5214
  123OSM    C7S13065   0.519   2.820   7.134  0.1305  0.5688  1.1260
  123OSM    H7S13066   0.415   2.782   7.135  0.7713 -1.3353 -0.1397
  123OSM    H7T13067   0.528   2.931   7.138 -2.9705  0.8716  3.6744
  123OSM    C8S13068   0.594   2.802   7.274  0.6628  0.5788  0.5215
  123OSM    H8S13069   0.695   2.846   7.266  1.7197 -1.9256 -1.9723
  123OSM    H8T13070   0.608   2.692   7.284 -1.3279  0.1531 -0.7520
  123OSM    C9S13071   0.514   2.866   7.385 -0.2889  0.9298  0.4867
  123OSM    H9S13072   0.412   2.825   7.365  0.1489 -0.7771  1.5043
  123OSM    H9T13073   0.511   2.976   7.374  0.7208  0.8478 -0.7568
  123OSM   C10S13074   0.563   2.836   7.529  0.1034  0.4548 -0.2611
  123OSM   H10S13075   0.672   2.858   7.536  0.0942  1.3487 -2.1375
  123OSM   H10T13076   0.554   2.727   7.547  0.2341  0.8054  2.1460
  123OSM   C11S13077   0.480   2.918   7.629 -0.0732  0.2382  0.6443
  123OSM   H11S13078   0.374   2.896   7.606  0.6700 -0.8059 -2.2625
  123OSM   H11T13079   0.492   3.023   7.595  0.6692 -0.0481 -0.0240
  123OSM   C12S13080   0.504   2.899   7.780 -0.2808 -0.4677  0.6191
  123OSM   H12S13081   0.600   2.948   7.807 -0.3616 -1.1824  2.3135
  123OSM   H12T13082   0.495   2.791   7.802 -4.8574 -0.4635 -0.2430
  123OSM   C13S13083   0.394   2.951   7.874  0.3714 -0.6748 -0.1522
  123OSM   H13S13084   0.301   2.896   7.846 -0.3644  0.3381  0.2486
  123OSM   H13T13085   0.381   3.056   7.840  0.5022 -0.1628  1.3366
  123OSM   C14S13086   0.443   2.953   8.020  0.0650 -0.5828  0.3905
  123OSM   H14S13087   0.362   3.001   8.079 -0.7074 -1.5761  0.1586
  123OSM   H14T13088   0.535   3.014   8.034  1.1586 -2.4516  2.0292
  123OSM   C15S13089   0.468   2.810   8.070  0.2238  0.2124  0.4155
  123OSM   H15S13090   0.543   2.751   8.013  0.2589  0.5670  0.0983
  123OSM   H15T13091   0.368   2.762   8.063 -0.3097  1.0308  1.9378
  123OSM   C16S13092   0.525   2.797   8.206  0.4106 -0.1936  0.0455
  123OSM   H16S13093   0.557   2.693   8.231  0.4131 -0.1282  0.3255
  123OSM   H16T13094   0.442   2.807   8.279 -0.8417 -0.9234 -1.2345
  123OSM   C17S13095   0.630   2.897   8.244  0.1707  0.1089  0.4942
  123OSM   H17S13096   0.570   2.990   8.254 -3.2408 -1.7398 -0.7595
  123OSM   H17T13097   0.700   2.903   8.158 -1.0581 -1.9131 -0.7562
  123OSM   C18S13098   0.712   2.868   8.375  0.5372 -0.5796  0.4979
  123OSM   H18S13099   0.793   2.938   8.405 -0.3148 -0.1503  1.9592
  123OSM   H18T13100   0.751   2.766   8.356  2.6377  0.5388 -1.7356
  123OSM   H18U13101   0.640   2.872   8.460  0.0804  0.6006  0.0780
  123OSM    C1F13102   0.045   2.715   6.843  0.5854  0.4069  0.2561
  123OSM     OF13103   0.040   2.610   6.776 -0.0803  0.2713 -0.0980
  123OSM    C2F13104  -0.060   2.748   6.943  0.4637 -0.1637  0.4937
  123OSM    H2F13105  -0.158   2.739   6.891  1.8798  2.5707 -3.0870
  123OSM    H2G13106  -0.041   2.851   6.980 -0.1876  0.1875 -0.1426
  123OSM    C3F13107  -0.058   2.637   7.049  0.4350 -0.1028 -0.6839
  123OSM    H3F13108  -0.052   2.532   7.014 -0.7435 -1.1250  1.9175
  123OSM    H3G13109  -0.155   2.653   7.102  1.1005 -1.4144  0.9925
  123OSM    C4F13110   0.060   2.654   7.150 -0.3781  0.3584 -0.2560
  123OSM    H4F13111   0.064   2.764   7.164 -0.9534  0.7018 -2.4647
  123OSM    H4G13112   0.154   2.623   7.101  0.2559 -0.4731  1.4203
  123OSM    C5F13113   0.053   2.576   7.282  0.2799 -0.2714  0.5160
  123OSM    H5F13114   0.058   2.468   7.254 -0.3610 -0.4422  1.0345
  123OSM    H5G13115  -0.046   2.593   7.329 -0.2055 -1.7540  0.0907
  123OSM    C6F13116   0.160   2.604   7.390  0.4911  0.0684  0.8149
  123OSM    H6F13117   0.189   2.710   7.374  1.7442 -0.4645 -0.6947
  123OSM    H6G13118   0.248   2.540   7.367 -1.1891 -1.5403 -1.6103
  123OSM    C7F13119   0.107   2.588   7.535 -0.0066  0.1967 -0.2635
  123OSM    H7F13120   0.086   2.481   7.555 -3.8229  0.6271 -1.1597
  123OSM    H7G13121   0.013   2.647   7.540 -0.3741 -0.3040 -1.0834
  123OSM    C8F13122   0.188   2.653   7.651 -0.2214 -0.4551  0.1074
  123OSM    H8F13123   0.123   2.665   7.740  0.0796  1.7501  0.0839
  123OSM    H8G13124   0.216   2.751   7.607 -2.5562 -0.2756 -1.1169
  123OSM    C9F13125   0.313   2.574   7.669  0.4244 -0.2072  0.4510
  123OSM    H9F13126   0.384   2.584   7.585  0.0954 -0.8335  0.0953
  123OSM   C10F13127   0.349   2.498   7.771 -0.0979 -0.4733 -0.3707
  123OSM   H10F13128   0.456   2.474   7.784  0.5755  1.0809 -2.6008
  123OSM   C11F13129   0.281   2.488   7.901 -0.4782 -0.1979 -0.1241
  123OSM   H11F13130   0.178   2.449   7.884 -1.3221  0.9975  1.9053
  123OSM   H11G13131   0.274   2.592   7.939  1.3524 -0.1467  0.1308
  123OSM   C12F13132   0.348   2.402   8.011 -0.2438  0.1835  0.5504
  123OSM   H12F13133   0.455   2.433   8.010 -0.1494 -0.0813  1.8045
  123OSM   H12G13134   0.339   2.299   7.970 -1.7963  0.3672  0.3479
  123OSM   C13F13135   0.276   2.417   8.144  0.2213 -0.3156 -0.4002
  123OSM   H13F13136   0.172   2.380   8.132  0.1990  0.0332 -1.3166
  123OSM   H13G13137   0.254   2.525   8.160  0.6792 -0.0650 -1.4423
  123OSM   C14F13138   0.343   2.336   8.254 -0.3131  0.9433 -0.1336
  123OSM   H14F13139   0.452   2.355   8.246  0.1243 -0.4180  1.7599
  123OSM   H14G13140   0.334   2.226   8.238 -0.4426  0.8500  0.5301
  123OSM   C15F13141   0.293   2.359   8.399 -0.1514 -0.5946 -0.1913
  123OSM   H15F13142   0.196   2.308   8.415  0.2718 -1.3710 -0.0555
  123OSM   H15G13143   0.273   2.468   8.410  2.1536  0.1582 -2.4758
  123OSM   C16F13144   0.408   2.332   8.505  0.5358 -0.0985  0.1896
  123OSM   H16F13145   0.459   2.235   8.488 -0.3039 -0.3560 -0.9558
  123OSM   H16G13146   0.356   2.319   8.603 -1.5021 -2.1823 -1.0671
  123OSM   C17F13147   0.519   2.435   8.503 -0.0281  0.4930 -0.2298
  123OSM   H17F13148   0.466   2.531   8.522  0.3060  0.4109  1.2859
  123OSM   H17G13149   0.566   2.446   8.403  0.3731  0.7660 -0.0138
  123OSM   C18F13150   0.630   2.405   8.603 -0.5089 -0.8306  0.2750
  123OSM   H18F13151   0.676   2.307   8.580 -0.5943 -0.6702 -0.6164
  123OSM   H18G13152   0.597   2.413   8.709  1.0030  0.6542  0.6807
  123OSM   H18H13153   0.699   2.488   8.577 -1.6311  0.1712  0.3873
  124OSM      N13154   2.036   0.228   6.393 -0.1443  0.0761  0.0086
  124OSM    C1513155   2.018   0.377   6.422 -0.5856 -0.0698 -0.1083
  124OSM   H15A13156   1.943   0.423   6.360 -1.7851 -2.8038 -0.8179
  124OSM   H15B13157   2.112   0.426   6.400 -2.0836  3.8172  1.2477
  124OSM   H15C13158   2.001   0.392   6.528 -0.5592 -1.1688  0.0637
  124OSM    C1413159   1.898   0.169   6.423 -0.2098  0.3434 -0.1647
  124OSM   H14A13160   1.821   0.185   6.349 -0.9708  0.2730  0.5981
  124OSM   H14B13161   1.873   0.202   6.523 -0.1731 -0.2150  0.0332
  124OSM   H14C13162   1.915   0.062   6.426  1.6496  0.6179  1.1925
  124OSM    C1313163   2.063   0.209   6.250  0.0256  0.0882 -0.3241
  124OSM   H13A13164   2.098   0.109   6.230  0.4552  0.1781 -0.0405
  124OSM   H13B13165   2.142   0.272   6.211 -0.0355  0.7896  0.6411
  124OSM   H13C13166   1.981   0.237   6.186  0.0186 -0.1108 -0.4033
  124OSM    C1213167   2.148   0.176   6.484  0.2098 -0.7105  0.3774
  124OSM   H12A13168   2.179   0.080   6.445  1.6122 -1.3320  2.7690
  124OSM   H12B13169   2.117   0.151   6.585 -1.2287 -0.3944  0.0326
  124OSM    C1113170   2.273   0.268   6.488 -0.3484 -0.2284  0.6722
  124OSM   H11A13171   2.354   0.215   6.542  1.1532 -0.6168 -1.8208
  124OSM   H11B13172   2.244   0.361   6.542  0.9854 -0.3933  1.7227
  124OSM      P13173   2.400   0.422   6.326  0.1242  0.0020  0.1209
  124OSM    O1313174   2.518   0.390   6.243 -0.4806  0.4087 -0.3010
  124OSM    O1413175   2.308   0.523   6.267 -0.2497 -0.4805 -0.3736
  124OSM    O1113176   2.455   0.477   6.463 -0.1121  0.0816 -0.2951
  124OSM    O1213177   2.335   0.289   6.357  0.7484  0.6278  0.2021
  124OSM    C1S13178   2.387   0.586   6.531 -0.6676  0.5036  0.4381
  124OSM    H1S13179   2.300   0.543   6.585  0.2734 -0.0903  1.5383
  124OSM    H1T13180   2.358   0.666   6.460 -2.7062 -0.6032 -0.0755
  124OSM     NF13181   2.417   0.757   6.706 -0.1894 -0.4367 -0.8400
  124OSM    HNF13182   2.436   0.854   6.691 -0.3087 -0.3056 -0.2095
  124OSM    C2S13183   2.487   0.666   6.626 -0.0657 -0.1162  0.9898
  124OSM    H2S13184   2.528   0.588   6.693  3.1767 -0.3519 -1.0612
  124OSM    C3S13185   2.596   0.737   6.543  0.3033 -0.6712  0.1215
  124OSM    H3S13186   2.552   0.827   6.494 -1.2446 -1.1523  0.5695
  124OSM     O313187   2.654   0.664   6.433  0.5473 -0.3759  0.3778
  124OSM    HO313188   2.592   0.591   6.422  0.7534 -0.7144  1.3009
  124OSM    C4S13189   2.699   0.781   6.641 -0.2313  0.2091 -0.5253
  124OSM    H4S13190   2.696   0.890   6.656 -1.9445  0.2939 -1.2262
  124OSM    C5S13191   2.783   0.697   6.709  0.2844 -0.4887 -0.4699
  124OSM    H5S13192   2.784   0.597   6.664 -1.2798 -1.4558  1.5072
  124OSM    C6S13193   2.886   0.743   6.808 -0.7634 -0.4608  0.8242
  124OSM    H6S13194   2.915   0.849   6.789 -1.2727 -0.2335  1.2699
  124OSM    H6T13195   2.974   0.675   6.806  0.3037  0.8894 -0.6310
  124OSM    C7S13196   2.830   0.751   6.950  0.1388 -0.7433  0.0270
  124OSM    H7S13197   2.802   0.654   6.997  1.3169 -0.1713  2.0178
  124OSM    H7T13198   2.740   0.815   6.960 -0.0304 -1.1257  1.1206
  124OSM    C8S13199   2.930   0.815   7.054  0.0586  0.5675 -0.0755
  124OSM    H8S13200   2.976   0.901   7.000 -0.3550 -0.2497 -1.7794
  124OSM    H8T13201   2.996   0.728   7.073 -1.1008 -1.2809 -3.7044
  124OSM    C9S13202   2.871   0.849   7.190  0.2693  0.5520 -0.3857
  124OSM    H9S13203   2.787   0.922   7.185  0.4547  0.7527 -0.5641
  124OSM    H9T13204   2.948   0.894   7.255  0.8640 -0.6568 -0.2334
  124OSM   C10S13205   2.823   0.720   7.264 -0.5052 -0.2718 -0.1057
  124OSM   H10S13206   2.914   0.664   7.294 -2.6510 -2.4498  2.9735
  124OSM   H10T13207   2.755   0.662   7.198 -0.4319 -3.7346  2.5749
  124OSM   C11S13208   2.746   0.752   7.388  0.1086 -0.5291 -0.9741
  124OSM   H11S13209   2.685   0.662   7.409 -0.8275  0.4100  0.5613
  124OSM   H11T13210   2.677   0.835   7.363  1.6725  0.4583 -2.2428
  124OSM   C12S13211   2.832   0.801   7.503 -0.9736  0.3745 -0.3995
  124OSM   H12S13212   2.768   0.835   7.587 -1.8308 -0.9033 -0.5155
  124OSM   H12T13213   2.884   0.896   7.477 -2.4866  0.9354 -1.4942
  124OSM   C13S13214   2.936   0.701   7.553  0.2734 -0.3813  0.6239
  124OSM   H13S13215   3.032   0.752   7.576  1.3718 -0.8168 -2.4759
  124OSM   H13T13216   2.956   0.627   7.472  1.3354  1.4182 -0.8271
  124OSM   C14S13217   2.884   0.611   7.669  0.6855 -0.1960 -0.4438
  124OSM   H14S13218   2.931   0.511   7.671  1.7083  0.2773  0.1156
  124OSM   H14T13219   2.778   0.588   7.650  0.6151 -0.9001  0.7029
  124OSM   C15S13220   2.892   0.686   7.803 -0.3903  0.0760  0.3399
  124OSM   H15S13221   2.841   0.784   7.801 -1.6540 -0.5538  0.3161
  124OSM   H15T13222   2.996   0.724   7.813 -1.1185  2.6686 -1.1052
  124OSM   C16S13223   2.838   0.605   7.923 -0.4425  0.4273 -0.2465
  124OSM   H16S13224   2.909   0.521   7.934 -2.5270 -1.4201 -0.2098
  124OSM   H16T13225   2.740   0.558   7.898  0.0683 -0.6339 -0.2954
  124OSM   C17S13226   2.835   0.681   8.053 -0.6524 -0.0721  0.4732
  124OSM   H17S13227   2.805   0.613   8.136  0.2901  0.4879  1.2962
  124OSM   H17T13228   2.751   0.754   8.047 -2.8538 -2.4448  0.7074
  124OSM   C18S13229   2.969   0.746   8.104  0.5826 -0.5614 -0.2864
  124OSM   H18S13230   3.046   0.666   8.113 -0.2337 -1.2656  0.5662
  124OSM   H18T13231   2.956   0.799   8.201 -1.1455 -0.4609 -0.5418
  124OSM   H18U13232   2.990   0.814   8.018 -0.1267  0.6284  0.4546
  124OSM    C1F13233   2.329   0.724   6.802  0.5992  0.1982 -0.1868
  124OSM     OF13234   2.283   0.607   6.811  0.3368 -0.8204 -0.1141
  124OSM    C2F13235   2.281   0.827   6.910  0.3263  0.3902 -0.1841
  124OSM    H2F13236   2.201   0.775   6.966 -1.3145 -0.5776 -3.1882
  124OSM    H2G13237   2.235   0.915   6.860  1.7124  0.8857 -0.6352
  124OSM    C3F13238   2.394   0.874   6.996  0.1248 -0.5999 -0.0722
  124OSM    H3F13239   2.468   0.929   6.934 -0.5378 -0.8149 -1.0755
  124OSM    H3G13240   2.454   0.793   7.042  2.2234  0.9218  0.0048
  124OSM    C4F13241   2.336   0.973   7.102  0.5168  0.9379  0.3049
  124OSM    H4F13242   2.240   0.944   7.150  0.9979  1.2241  1.4817
  124OSM    H4G13243   2.335   1.073   7.053  0.1946  0.8127  0.0573
  124OSM    C5F13244   2.444   0.989   7.213  0.4702  0.3509  0.5342
  124OSM    H5F13245   2.545   1.013   7.173  1.0878  1.5680  2.7022
  124OSM    H5G13246   2.451   0.888   7.259  0.2207  0.6901  1.3352
  124OSM    C6F13247   2.415   1.096   7.321  0.0356 -0.6991 -0.2015
  124OSM    H6F13248   2.310   1.092   7.355  1.0498 -1.4302  3.2320
  124OSM    H6G13249   2.437   1.198   7.284  0.7806 -0.5723  0.5538
  124OSM    C7F13250   2.497   1.076   7.448  0.4330 -0.3096 -0.7015
  124OSM    H7F13251   2.482   1.171   7.504  1.5339 -0.3564 -0.3053
  124OSM    H7G13252   2.604   1.069   7.420  1.0518  2.3623  0.6814
  124OSM    C8F13253   2.453   0.953   7.528 -0.2804  0.0510 -1.1934
  124OSM    H8F13254   2.476   0.858   7.475 -1.5789 -0.0988 -1.5226
  124OSM    H8G13255   2.343   0.953   7.541 -0.0702 -1.6546  1.3537
  124OSM    C9F13256   2.516   0.955   7.671  0.1210 -0.1141  0.3440
  124OSM    H9F13257   2.619   0.917   7.672  0.6573  1.2792  0.8071
  124OSM   C10F13258   2.463   0.993   7.789  0.2629  0.3520  0.0449
  124OSM   H10F13259   2.516   0.974   7.884  0.1369 -0.5934 -0.0672
  124OSM   C11F13260   2.323   1.051   7.815 -0.0538 -1.2257  0.2383
  124OSM   H11F13261   2.244   1.006   7.752  0.4047 -1.0121 -0.4942
  124OSM   H11G13262   2.314   1.159   7.788 -0.3672 -1.0508  1.0123
  124OSM   C12F13263   2.289   1.030   7.962  0.3127 -0.1202  0.3832
  124OSM   H12F13264   2.294   0.925   8.000 -0.4236 -0.2744  0.0642
  124OSM   H12G13265   2.181   1.050   7.952  0.1226 -1.1747  0.2171
  124OSM   C13F13266   2.368   1.123   8.051  0.8350  0.1176 -0.6179
  124OSM   H13F13267   2.377   1.219   7.997  0.8122  0.6090  0.2389
  124OSM   H13G13268   2.464   1.070   8.069 -0.1570 -1.9517 -1.0231
  124OSM   C14F13269   2.298   1.137   8.185  0.1540  0.1465  0.3270
  124OSM   H14F13270   2.252   1.038   8.208  1.1620 -0.9408 -2.0230
  124OSM   H14G13271   2.223   1.218   8.175 -0.3564 -0.2897  0.5753
  124OSM   C15F13272   2.396   1.179   8.292  0.3002  0.1869 -0.2005
  124OSM   H15F13273   2.442   1.273   8.256 -0.5285  1.2273  1.3295
  124OSM   H15G13274   2.472   1.099   8.304  0.2250  0.3251  1.3475
  124OSM   C16F13275   2.343   1.198   8.439 -1.1183 -0.9059  0.2814
  124OSM   H16F13276   2.433   1.179   8.501  1.2363  1.1800 -2.2121
  124OSM   H16G13277   2.258   1.127   8.453 -0.2839 -2.3397 -1.4999
  124OSM   C17F13278   2.302   1.341   8.462  0.1514  0.0121  0.1399
  124OSM   H17F13279   2.211   1.357   8.400 -1.5461 -1.0423  2.2196
  124OSM   H17G13280   2.386   1.406   8.430  1.1043  0.1097  2.6207
  124OSM   C18F13281   2.278   1.376   8.609  0.1167  0.1801  0.3331
  124OSM   H18F13282   2.361   1.341   8.675 -1.3385 -1.6035  1.3358
  124OSM   H18G13283   2.182   1.330   8.642 -0.3895  2.1381  1.8195
  124OSM   H18H13284   2.254   1.482   8.633 -2.0031 -0.7570  3.0074
  125OSM      N13285   0.697   2.805   6.409 -0.1935  0.0540 -0.9639
  125OSM    C1513286   0.824   2.788   6.331  0.6743  0.8222 -0.2604
  125OSM   H15A13287   0.805   2.724   6.246  1.1430  2.0237 -1.3033
  125OSM   H15B13288   0.901   2.755   6.398 -0.6684 -0.6055  0.6315
  125OSM   H15C13289   0.868   2.882   6.300 -2.0693  2.2391 -0.1204
  125OSM    C1413290   0.724   2.887   6.523  0.3381 -0.1484  0.3033
  125OSM   H14A13291   0.737   2.992   6.501 -0.2542  0.2373  1.6915
  125OSM   H14B13292   0.813   2.860   6.578 -0.4327  1.2510  2.4016
  125OSM   H14C13293   0.637   2.888   6.587  1.1477 -0.7995  1.4634
  125OSM    C1313294   0.588   2.871   6.333 -0.1775 -0.0827 -0.0430
  125OSM   H13A13295   0.499   2.883   6.394 -0.5841 -2.0152 -0.1613
  125OSM   H13B13296   0.563   2.818   6.242 -1.9879  1.0572 -0.2698
  125OSM   H13C13297   0.619   2.968   6.298  1.5332 -1.3477 -2.2632
  125OSM    C1213298   0.641   2.670   6.447 -0.2559 -0.5926  0.1122
  125OSM   H12A13299   0.568   2.683   6.526  0.1649 -1.5215  0.6775
  125OSM   H12B13300   0.721   2.617   6.497  1.4176  1.6732 -0.0279
  125OSM    C1113301   0.575   2.581   6.336 -0.0869 -0.0708  0.0511
  125OSM   H11A13302   0.480   2.632   6.307  0.3383  1.6119  1.4247
  125OSM   H11B13303   0.552   2.485   6.387  1.8442 -1.0491 -0.8011
  125OSM      P13304   0.767   2.443   6.194  0.4150 -0.3049 -0.2904
  125OSM    O1313305   0.730   2.368   6.074  0.0823  0.1497  0.4308
  125OSM    O1413306   0.902   2.505   6.186  0.2748  0.4179 -0.1887
  125OSM    O1113307   0.750   2.348   6.316 -0.4571 -0.7513  0.7965
  125OSM    O1213308   0.669   2.564   6.223  0.5549 -0.6421  0.0756
  125OSM    C1S13309   0.845   2.340   6.424 -0.8252 -0.4158 -0.1777
  125OSM    H1S13310   0.889   2.441   6.443  0.2503 -0.1624 -3.3881
  125OSM    H1T13311   0.941   2.289   6.405 -1.0930 -0.3130 -2.0220
  125OSM     NF13312   0.854   2.302   6.669 -0.3831 -0.6635 -0.4959
  125OSM    HNF13313   0.895   2.230   6.724  1.7799  1.9249  1.5839
  125OSM    C2S13314   0.777   2.277   6.550 -0.2380 -0.2729 -0.1631
  125OSM    H2S13315   0.677   2.323   6.563 -0.2885 -0.3106 -0.4171
  125OSM    C3S13316   0.763   2.128   6.510  0.5638 -0.1511  0.1103
  125OSM    H3S13317   0.863   2.082   6.500  0.9103 -0.1929  2.8496
  125OSM     O313318   0.698   2.103   6.389 -0.1881 -0.1417 -0.1433
  125OSM    HO313319   0.678   2.191   6.357 -1.0324 -1.0376 -2.2376
  125OSM    C4S13320   0.686   2.052   6.613 -0.5835 -0.2558 -0.0177
  125OSM    H4S13321   0.758   2.015   6.688  1.1465  0.9728 -1.0090
  125OSM    C5S13322   0.554   2.027   6.621  1.0743 -0.0334 -0.0752
  125OSM    H5S13323   0.492   2.077   6.545 -0.3301 -0.0125  1.0416
  125OSM    C6S13324   0.474   1.944   6.727  0.8996  0.2884  0.2733
  125OSM    H6S13325   0.416   1.858   6.687 -1.5501  1.1338  1.7913
  125OSM    H6T13326   0.396   2.014   6.765  1.4615  0.2554  1.5365
  125OSM    C7S13327   0.551   1.902   6.842 -0.8093  1.3959  0.0727
  125OSM    H7S13328   0.619   1.978   6.886 -0.9445  1.6014 -0.0686
  125OSM    H7T13329   0.625   1.820   6.832 -0.9102  0.9224  2.6039
  125OSM    C8S13330   0.467   1.836   6.956  0.1991 -0.3348  0.7694
  125OSM    H8S13331   0.433   1.733   6.932 -1.3387  0.3158  0.0519
  125OSM    H8T13332   0.380   1.902   6.976 -0.2720 -0.4015 -0.9813
  125OSM    C9S13333   0.547   1.826   7.086 -0.4571 -0.0103  0.4492
  125OSM    H9S13334   0.607   1.920   7.096  1.3584 -0.9308 -1.2157
  125OSM    H9T13335   0.630   1.753   7.075  0.5462  0.8972  1.6250
  125OSM   C10S13336   0.479   1.801   7.223  0.3841 -0.4476 -0.3759
  125OSM   H10S13337   0.413   1.713   7.211  1.6153 -1.5848  0.9082
  125OSM   H10T13338   0.419   1.887   7.260 -1.6053 -1.4242 -1.1766
  125OSM   C11S13339   0.573   1.761   7.337  1.0964  0.1905  0.3536
  125OSM   H11S13340   0.624   1.849   7.382 -1.8015  2.1388  0.1249
  125OSM   H11T13341   0.647   1.698   7.283  0.7046  0.0375 -0.0132
  125OSM   C12S13342   0.492   1.683   7.443 -0.3941 -0.9782 -0.0154
  125OSM   H12S13343   0.472   1.581   7.402  0.4477 -0.0675 -2.9187
  125OSM   H12T13344   0.391   1.729   7.458 -0.9632 -2.2731  0.2856
  125OSM   C13S13345   0.565   1.675   7.581 -0.4487 -0.8072  0.8377
  125OSM   H13S13346   0.568   1.781   7.614  0.1982  0.0412 -1.7242
  125OSM   H13T13347   0.666   1.628   7.579 -0.6821 -1.3201 -0.5083
  125OSM   C14S13348   0.487   1.591   7.684 -0.1521  0.1531  0.5074
  125OSM   H14S13349   0.460   1.498   7.630  1.0344  0.1566 -0.1344
  125OSM   H14T13350   0.391   1.638   7.713  0.6832  3.0072 -0.9977
  125OSM   C15S13351   0.564   1.558   7.810 -0.3255  0.5188  0.6277
  125OSM   H15S13352   0.608   1.647   7.860  0.2608 -0.4600  1.9173
  125OSM   H15T13353   0.648   1.489   7.787 -0.3111  0.5670  0.5334
  125OSM   C16S13354   0.484   1.488   7.926  0.1418 -0.0747 -0.1925
  125OSM   H16S13355   0.449   1.386   7.898 -0.2332  0.1132 -0.3974
  125OSM   H16T13356   0.425   1.568   7.976  0.8112  0.6775 -0.5856
  125OSM   C17S13357   0.581   1.454   8.039 -0.3100 -0.1356  0.4630
  125OSM   H17S13358   0.645   1.543   8.055  0.8744 -0.9610  0.4153
  125OSM   H17T13359   0.657   1.376   8.017 -0.1425 -0.3002  1.5706
  125OSM   C18S13360   0.509   1.425   8.177  0.3717  0.1070 -0.2153
  125OSM   H18S13361   0.572   1.379   8.257  0.0307 -0.4369 -0.2564
  125OSM   H18T13362   0.410   1.376   8.175  0.2483 -0.0447  3.3596
  125OSM   H18U13363   0.501   1.528   8.220 -1.0164 -0.4134  0.8472
  125OSM    C1F13364   0.846   2.421   6.732 -0.6079  0.3844 -0.3117
  125OSM     OF13365   0.790   2.520   6.684  0.3063  0.2456 -0.4364
  125OSM    C2F13366   0.905   2.424   6.863 -0.5348 -0.6349 -0.8281
  125OSM    H2F13367   1.005   2.376   6.861  1.3686  2.5849  3.1483
  125OSM    H2G13368   0.848   2.368   6.939  0.1241 -0.3791 -0.1322
  125OSM    C3F13369   0.923   2.570   6.913 -0.4426 -0.2501  0.1227
  125OSM    H3F13370   0.828   2.626   6.900 -2.2061 -2.5749  2.0075
  125OSM    H3G13371   0.988   2.618   6.837  0.8592 -1.2860  0.5244
  125OSM    C4F13372   0.969   2.578   7.057 -0.4445  0.3081  0.2747
  125OSM    H4F13373   1.059   2.512   7.062 -0.2895  0.5766  1.2106
  125OSM    H4G13374   0.892   2.530   7.121  0.3852  0.1277  1.1587
  125OSM    C5F13375   0.991   2.723   7.087  0.7728 -0.0563  0.6993
  125OSM    H5F13376   0.898   2.784   7.082  1.0056  0.2240 -0.3915
  125OSM    H5G13377   1.055   2.754   7.002  3.9493 -0.4962  2.7439
  125OSM    C6F13378   1.055   2.738   7.227  0.7261  0.4835  0.4719
  125OSM    H6F13379   1.101   2.838   7.242  0.5072  0.5404  0.7925
  125OSM    H6G13380   1.142   2.670   7.232  2.1694  2.0092 -1.8179
  125OSM    C7F13381   0.961   2.728   7.342  0.1947  0.3601 -0.0754
  125OSM    H7F13382   0.898   2.637   7.329  0.2052  0.0278  1.9244
  125OSM    H7G13383   0.887   2.810   7.339  0.5221  0.6737  0.3644
  125OSM    C8F13384   1.035   2.726   7.477  0.0362  1.3236 -0.3331
  125OSM    H8F13385   0.993   2.802   7.546  1.2776  0.1731  1.8329
  125OSM    H8G13386   1.141   2.756   7.464  0.8387 -1.5879 -1.3089
  125OSM    C9F13387   1.043   2.586   7.532  0.2405 -0.1743 -0.0507
  125OSM    H9F13388   1.076   2.512   7.457 -2.9147 -2.1592  0.3275
  125OSM   C10F13389   1.005   2.539   7.654 -0.1020  0.1671 -0.1076
  125OSM   H10F13390   1.007   2.429   7.665  0.4773  0.3421  2.0791
  125OSM   C11F13391   0.963   2.626   7.769 -0.1609 -0.1093  0.2014
  125OSM   H11F13392   1.001   2.729   7.754 -0.7417 -0.1133 -1.5819
  125OSM   H11G13393   1.013   2.590   7.862 -0.2401 -3.4081 -0.9174
  125OSM   C12F13394   0.811   2.627   7.802  0.1751 -0.0699 -0.5435
  125OSM   H12F13395   0.756   2.643   7.707 -3.0410 -1.7347  0.8959
  125OSM   H12G13396   0.806   2.722   7.858 -1.5537 -0.7566  0.5347
  125OSM   C13F13397   0.752   2.522   7.900  0.1570  0.1507 -0.3356
  125OSM   H13F13398   0.750   2.425   7.846 -0.4585 -1.3607  2.2554
  125OSM   H13G13399   0.645   2.542   7.924  0.1852 -0.7475  0.6034
  125OSM   C14F13400   0.834   2.509   8.031 -0.1425  0.3851 -0.2717
  125OSM   H14F13401   0.869   2.607   8.069 -0.4473  0.0083  1.0586
  125OSM   H14G13402   0.926   2.451   8.010  0.2495  0.0122  2.1080
  125OSM   C15F13403   0.762   2.424   8.136 -0.3514 -0.0930  0.0415
  125OSM   H15F13404   0.747   2.323   8.094 -1.3956  1.0956 -2.6818
  125OSM   H15G13405   0.662   2.472   8.147 -0.1853  0.7910 -1.8846
  125OSM   C16F13406   0.826   2.411   8.278  0.1385 -1.1879  0.3490
  125OSM   H16F13407   0.759   2.344   8.337  1.1459 -3.6804 -1.1925
  125OSM   H16G13408   0.820   2.514   8.318 -0.1386  0.0236 -2.6356
  125OSM   C17F13409   0.970   2.369   8.285 -0.0902  0.0156  0.5967
  125OSM   H17F13410   1.004   2.412   8.382  1.3913 -1.7344  0.9072
  125OSM   H17G13411   1.029   2.396   8.194  0.4404 -1.6512  0.4235
  125OSM   C18F13412   0.983   2.212   8.301 -0.9146  0.0478 -0.5039
  125OSM   H18F13413   0.993   2.179   8.406  0.9318 -1.8175 -1.1769
  125OSM   H18G13414   1.069   2.171   8.243  0.4985  1.6579  0.3750
  125OSM   H18H13415   0.893   2.161   8.260  0.1265 -1.6446 -0.7997
  126OSM      N13416   4.975   2.890   6.768  0.2557 -0.3297  0.2944
  126OSM    C1513417   4.840   2.862   6.824  0.6090  0.2560  0.0188
  126OSM   H15A13418   4.840   2.873   6.931  1.1201 -0.7546  0.1358
  126OSM   H15B13419   4.801   2.762   6.810  4.2700 -1.2959 -0.4093
  126OSM   H15C13420   4.764   2.929   6.786  0.0519 -0.1470  0.3981
  126OSM    C1413421   5.014   3.038   6.787 -0.2828  0.5287 -0.3789
  126OSM   H14A13422   4.993   3.080   6.885  0.3228  1.6015 -0.6924
  126OSM   H14B13423   4.959   3.090   6.709  0.0547 -0.8008 -1.5380
  126OSM   H14C13424   5.119   3.049   6.764 -0.1581  0.1146 -0.0246
  126OSM    C1313425   5.083   2.810   6.831 -0.4511 -0.2515  0.0079
  126OSM   H13A13426   5.182   2.852   6.823  0.4520 -2.2456 -0.1007
  126OSM   H13B13427   5.083   2.705   6.803 -2.4907 -0.0040 -1.1187
  126OSM   H13C13428   5.055   2.816   6.935 -1.2801  0.5961 -0.2471
  126OSM    C1213429   4.973   2.869   6.611  0.0543 -1.0090 -0.6109
  126OSM   H12A13430   5.059   2.917   6.567  0.0641 -0.4847 -0.0453
  126OSM   H12B13431   4.900   2.935   6.568 -0.8159 -0.5279  1.4647
  126OSM    C1113432   4.960   2.730   6.556  0.3854  0.1884 -0.4352
  126OSM   H11A13433   4.930   2.732   6.449 -0.2715  3.8862 -0.3190
  126OSM   H11B13434   4.867   2.692   6.602  0.4673  2.1014  1.4763
  126OSM      P13435   5.047   2.487   6.558 -0.2143  0.3087  0.0753
  126OSM    O1313436   4.922   2.466   6.479  0.0726  0.3624 -0.2584
  126OSM    O1413437   5.165   2.439   6.497  0.7489  0.1084 -0.2723
  126OSM    O1113438   5.037   2.425   6.700  0.5327  0.2996 -0.5326
  126OSM    O1213439   5.070   2.643   6.585  0.1659 -0.0892 -0.4791
  126OSM    C1S13440   5.135   2.422   6.798 -0.5869  1.0065  0.0691
  126OSM    H1S13441   5.126   2.515   6.859  2.0559  1.4189 -0.0440
  126OSM    H1T13442   5.238   2.415   6.755  0.4532 -0.7242  2.6400
  126OSM     NF13443   5.199   2.313   7.016 -0.3326 -0.3481  0.0268
  126OSM    HNF13444   5.283   2.259   7.022  0.0835 -0.0808 -2.4669
  126OSM    C2S13445   5.108   2.304   6.901 -0.0105  0.1690 -0.1222
  126OSM    H2S13446   5.000   2.310   6.926  0.0402  1.3791 -0.1496
  126OSM    C3S13447   5.134   2.171   6.827  0.0314  0.7683 -0.0687
  126OSM    H3S13448   5.228   2.173   6.770  0.6680  0.7073  0.9493
  126OSM     O313449   5.044   2.138   6.718 -0.4812 -0.1868 -0.7749
  126OSM    HO313450   5.018   2.229   6.699  2.5929  1.4076  1.6875
  126OSM    C4S13451   5.125   2.063   6.929 -0.0155 -0.7492 -0.3087
  126OSM    H4S13452   5.220   2.034   6.977  0.8981  2.7140  0.2304
  126OSM    C5S13453   5.011   2.007   6.969  0.5015  0.5052 -0.5311
  126OSM    H5S13454   4.918   2.021   6.912  0.9150  1.0760 -1.0780
  126OSM    C6S13455   4.996   1.905   7.080 -0.5817  1.0069  0.0564
  126OSM    H6S13456   5.045   1.810   7.050 -1.6131  1.1349 -2.2663
  126OSM    H6T13457   4.888   1.889   7.100 -1.0364  2.4699 -1.0598
  126OSM    C7S13458   5.063   1.951   7.210 -0.3488  0.7310 -0.2975
  126OSM    H7S13459   4.999   2.029   7.257  1.5274  0.9567  2.0743
  126OSM    H7T13460   5.168   1.988   7.201  0.4893  0.5379  5.3207
  126OSM    C8S13461   5.069   1.833   7.313 -0.3963 -0.2065 -0.7611
  126OSM    H8S13462   5.161   1.840   7.376 -0.2100 -0.3070 -1.0221
  126OSM    H8T13463   5.095   1.743   7.253  0.9837 -0.1023 -0.3591
  126OSM    C9S13464   4.945   1.802   7.402  0.3240  0.0028 -0.2454
  126OSM    H9S13465   4.852   1.820   7.344 -0.3208 -3.8182 -0.6456
  126OSM    H9T13466   4.937   1.869   7.490  1.5360  2.4136 -1.8559
  126OSM   C10S13467   4.944   1.658   7.465 -0.5349  0.0166  0.1432
  126OSM   H10S13468   4.997   1.599   7.388  1.3202  1.2757  0.3979
  126OSM   H10T13469   4.845   1.622   7.502  0.5316 -1.9192  1.2810
  126OSM   C11S13470   5.037   1.655   7.593  0.2067 -0.7751  0.5803
  126OSM   H11S13471   5.134   1.703   7.570 -1.3420  1.3504 -2.2355
  126OSM   H11T13472   5.053   1.552   7.629 -0.9553 -0.2558  2.7642
  126OSM   C12S13473   4.973   1.729   7.713  0.3330 -0.3127 -0.1962
  126OSM   H12S13474   4.871   1.686   7.725 -0.3532  0.8779 -1.3827
  126OSM   H12T13475   4.947   1.834   7.686 -1.0092 -0.7430 -0.6626
  126OSM   C13S13476   5.060   1.713   7.839  0.3593 -0.0292  0.4228
  126OSM   H13S13477   5.160   1.762   7.840  0.3433  0.0316 -0.7129
  126OSM   H13T13478   5.082   1.604   7.836 -1.6480 -0.4408 -1.0360
  126OSM   C14S13479   4.985   1.737   7.972 -0.4940 -0.1469  0.2068
  126OSM   H14S13480   4.883   1.692   7.970 -0.9720  0.8938  0.3261
  126OSM   H14T13481   4.966   1.846   7.977  1.2866  0.1501  1.7662
  126OSM   C15S13482   5.053   1.694   8.100 -0.4185 -0.1639 -0.6361
  126OSM   H15S13483   5.029   1.759   8.187 -2.3912 -0.3716 -0.9849
  126OSM   H15T13484   5.162   1.690   8.079 -0.4799 -2.3051 -0.7926
  126OSM   C16S13485   5.018   1.551   8.140 -0.6456  0.3623  0.2742
  126OSM   H16S13486   5.048   1.485   8.056  2.5289 -0.7292  2.1045
  126OSM   H16T13487   4.915   1.532   8.176 -0.4532 -0.0961  0.5812
  126OSM   C17S13488   5.104   1.499   8.254  0.6648 -0.6406 -0.5614
  126OSM   H17S13489   5.089   1.561   8.345 -1.0492  1.5934 -2.2600
  126OSM   H17T13490   5.208   1.484   8.215  0.6750 -1.1249 -0.3564
  126OSM   C18S13491   5.057   1.360   8.302 -0.6900 -0.0951 -0.1856
  126OSM   H18S13492   5.039   1.285   8.222  0.9540 -0.3834 -0.3033
  126OSM   H18T13493   4.960   1.371   8.356 -0.6830  1.7532 -0.5146
  126OSM   H18U13494   5.132   1.315   8.370 -0.4058  0.3194 -0.2235
  126OSM    C1F13495   5.170   2.405   7.113 -0.7535 -0.0110  0.3536
  126OSM     OF13496   5.056   2.458   7.108  0.4151  0.0815 -0.3616
  126OSM    C2F13497   5.271   2.453   7.213  0.2716  0.0948 -0.5311
  126OSM    H2F13498   5.289   2.556   7.176  2.5407 -0.8119 -2.2087
  126OSM    H2G13499   5.359   2.387   7.197 -0.3703 -0.2075 -3.3165
  126OSM    C3F13500   5.212   2.441   7.352 -0.2414  0.3794 -0.3980
  126OSM    H3F13501   5.187   2.335   7.373  0.3110  0.3798  0.3096
  126OSM    H3G13502   5.122   2.500   7.376 -0.0315  0.6484 -0.2737
  126OSM    C4F13503   5.317   2.469   7.459 -0.0008 -0.5561  0.7255
  126OSM    H4F13504   5.315   2.580   7.459  4.2142 -0.2623 -2.2452
  126OSM    H4G13505   5.420   2.452   7.421 -0.6459  2.0188 -2.7123
  126OSM    C5F13506   5.283   2.398   7.596 -0.0354 -0.3522 -1.0538
  126OSM    H5F13507   5.312   2.292   7.583 -1.8120 -0.9182 -0.6781
  126OSM    H5G13508   5.173   2.395   7.610  0.0259 -5.1616 -0.1317
  126OSM    C6F13509   5.360   2.456   7.714  0.6819  0.2192 -0.2740
  126OSM    H6F13510   5.353   2.567   7.713 -1.2300  0.1251 -0.3825
  126OSM    H6G13511   5.470   2.440   7.705  0.5096 -0.8610 -0.5518
  126OSM    C7F13512   5.319   2.392   7.847 -0.6338 -0.0502  0.3328
  126OSM    H7F13513   5.334   2.282   7.853  2.4082  0.2137 -0.6490
  126OSM    H7G13514   5.210   2.413   7.851 -0.4630  0.9233  0.0043
  126OSM    C8F13515   5.393   2.449   7.964 -0.1842 -0.6062 -0.3951
  126OSM    H8F13516   5.334   2.422   8.054  1.2591  3.0251  1.8524
  126OSM    H8G13517   5.398   2.560   7.959 -1.8997 -0.2368  2.9921
  126OSM    C9F13518   5.532   2.396   7.984  0.4237 -0.2179  0.8025
  126OSM    H9F13519   5.558   2.321   7.909  0.5066 -0.2798  0.8932
  126OSM   C10F13520   5.617   2.427   8.079 -0.4447 -0.1739  0.3352
  126OSM   H10F13521   5.716   2.378   8.080  0.4505  1.5681  0.6372
  126OSM   C11F13522   5.598   2.521   8.197  0.1097 -0.4901  0.7507
  126OSM   H11F13523   5.505   2.580   8.182  1.4622  1.2293 -1.2687
  126OSM   H11G13524   5.679   2.595   8.214 -0.7369  0.7340 -0.4435
  126OSM   C12F13525   5.578   2.452   8.333  0.2324 -0.3440 -0.0412
  126OSM   H12F13526   5.496   2.377   8.335 -0.1899  0.0343 -1.3566
  126OSM   H12G13527   5.539   2.537   8.393  0.5439 -1.2559  1.4940
  126OSM   C13F13528   5.705   2.396   8.402  0.4627  0.3299  0.5748
  126OSM   H13F13529   5.778   2.464   8.451  2.0082 -1.5697  1.0289
  126OSM   H13G13530   5.758   2.327   8.333 -0.7719 -0.2278  0.1648
  126OSM   C14F13531   5.656   2.319   8.524  0.4717  0.4318 -0.0875
  126OSM   H14F13532   5.610   2.226   8.483 -1.1326  0.9807  0.3860
  126OSM   H14G13533   5.571   2.375   8.569 -0.6553  0.4854 -2.1618
  126OSM   C15F13534   5.769   2.292   8.622 -0.6777 -0.2287 -0.0383
  126OSM   H15F13535   5.809   2.392   8.650 -0.1088 -0.2766 -0.6579
  126OSM   H15G13536   5.847   2.235   8.568 -0.8556 -2.0576  1.5157
  126OSM   C16F13537   5.720   2.203   8.744 -0.1690  0.0468 -0.4518
  126OSM   H16F13538   5.688   2.103   8.709  0.7377 -0.7411  0.8489
  126OSM   H16G13539   5.631   2.255   8.785 -0.2506 -2.0937  2.3638
  126OSM   C17F13540   5.818   2.193   8.859 -0.2989 -0.8828 -0.0537
  126OSM   H17F13541   5.923   2.176   8.827 -0.8692  0.2576 -2.8200
  126OSM   H17G13542   5.796   2.107   8.926 -4.8547 -0.9381 -1.2448
  126OSM   C18F13543   5.821   2.317   8.940 -0.1912 -0.4962 -0.1246
  126OSM   H18F13544   5.723   2.340   8.987  0.9985 -0.3024  2.4728
  126OSM   H18G13545   5.861   2.403   8.883 -1.7638 -1.2099 -2.4364
  126OSM   H18H13546   5.899   2.298   9.017 -0.6689 -2.6417 -0.0971
  127OSM      N13547   0.699   6.436   5.935 -0.3255  0.1189 -0.1724
  127OSM    C1513548   0.574   6.523   5.921  0.3362 -0.2604 -0.5563
  127OSM   H15A13549   0.593   6.626   5.946 -1.0701 -0.0733 -0.1708
  127OSM   H15B13550   0.498   6.504   5.995  0.9044  1.0722  0.4137
  127OSM   H15C13551   0.526   6.526   5.825 -2.1250  0.1722  0.5956
  127OSM    C1413552   0.671   6.294   5.888 -0.7052 -0.6952  0.2705
  127OSM   H14A13553   0.763   6.239   5.900  0.0138  0.5796  0.7758
  127OSM   H14B13554   0.637   6.302   5.786 -1.4631  1.6407  0.6506
  127OSM   H14C13555   0.597   6.239   5.945  0.1538 -1.6570  0.4724
  127OSM    C1313556   0.797   6.500   5.848 -0.4753  0.3807  0.7224
  127OSM   H13A13557   0.786   6.457   5.750  0.5266  1.9566 -0.1269
  127OSM   H13B13558   0.895   6.476   5.888  0.2362  2.7867  0.5806
  127OSM   H13C13559   0.794   6.608   5.849  0.8689  0.4824  3.2369
  127OSM    C1213560   0.752   6.448   6.079 -0.0348 -0.1191 -0.2731
  127OSM   H12A13561   0.675   6.405   6.141 -1.7846  1.5658 -1.1805
  127OSM   H12B13562   0.753   6.553   6.100  1.2757  0.0933 -1.2498
  127OSM    C1113563   0.895   6.410   6.124  0.4637  0.0902  0.5150
  127OSM   H11A13564   0.914   6.314   6.072 -1.5491 -1.5167  2.5426
  127OSM   H11B13565   0.898   6.395   6.234  0.4382 -2.6269  0.2155
  127OSM      P13566   1.042   6.633   6.150 -0.3281 -0.2759  0.2065
  127OSM    O1313567   1.189   6.625   6.124  0.2630 -0.2388 -0.1899
  127OSM    O1413568   0.964   6.758   6.113 -0.3506 -0.1256 -0.1423
  127OSM    O1113569   1.021   6.598   6.301  0.1490  0.2327 -0.2239
  127OSM    O1213570   0.990   6.509   6.067 -0.7097 -0.1988 -0.1706
  127OSM    C1S13571   1.027   6.706   6.398 -0.3373 -0.0991  0.0221
  127OSM    H1S13572   0.972   6.800   6.375  0.7258  0.9578  1.6163
  127OSM    H1T13573   1.132   6.740   6.404 -0.3088 -0.3767  1.3725
  127OSM     NF13574   0.999   6.776   6.620 -0.0321  0.0411  0.4848
  127OSM    HNF13575   1.084   6.791   6.670 -0.7952  2.4877  1.2214
  127OSM    C2S13576   1.000   6.661   6.538  0.4374 -0.2005  0.6777
  127OSM    H2S13577   0.899   6.616   6.535  0.5361 -0.4152  0.4704
  127OSM    C3S13578   1.109   6.555   6.581 -0.2438 -0.0611 -0.5766
  127OSM    H3S13579   1.208   6.603   6.568  0.3159 -0.6521  1.2748
  127OSM     O313580   1.116   6.436   6.499 -0.4048  0.1200  0.0909
  127OSM    HO313581   1.061   6.452   6.422  1.6122  0.1717 -1.4090
  127OSM    C4S13582   1.089   6.515   6.725 -0.1301  0.6751 -1.0682
  127OSM    H4S13583   1.003   6.452   6.752  1.4528 -0.7992  0.7728
  127OSM    C5S13584   1.167   6.555   6.826  0.0257  0.2354  0.7355
  127OSM    H5S13585   1.247   6.628   6.809 -0.0622 -0.1761 -1.7644
  127OSM    C6S13586   1.145   6.518   6.970  0.3005  0.1031  0.0090
  127OSM    H6S13587   1.047   6.466   6.978 -0.5169  1.8300  2.3937
  127OSM    H6T13588   1.133   6.612   7.028 -0.8173 -0.0699  0.0941
  127OSM    C7S13589   1.261   6.429   7.018  0.3709 -1.0554 -0.9336
  127OSM    H7S13590   1.347   6.497   7.001  0.8895 -0.9971  1.6086
  127OSM    H7T13591   1.268   6.337   6.955  0.1570 -0.0148 -2.5193
  127OSM    C8S13592   1.263   6.369   7.159  0.2662 -0.1260 -0.1185
  127OSM    H8S13593   1.362   6.323   7.180  1.3711  2.8395  1.7789
  127OSM    H8T13594   1.181   6.294   7.168 -0.0170  0.3625  1.9888
  127OSM    C9S13595   1.245   6.476   7.269 -1.0716 -0.1308 -0.2475
  127OSM    H9S13596   1.173   6.558   7.248 -0.9123 -0.0819 -0.6149
  127OSM    H9T13597   1.345   6.522   7.261 -0.4002 -1.6266 -0.8536
  127OSM   C10S13598   1.226   6.406   7.401  0.1303 -0.4380 -0.8576
  127OSM   H10S13599   1.283   6.311   7.399  0.3989 -0.3033 -3.8181
  127OSM   H10T13600   1.118   6.385   7.415 -0.1940  1.4993 -0.1779
  127OSM   C11S13601   1.276   6.496   7.519  0.1692  0.6818 -0.4111
  127OSM   H11S13602   1.221   6.592   7.508  0.0428  1.4007  4.2753
  127OSM   H11T13603   1.384   6.506   7.498  0.5261 -0.0748  0.9786
  127OSM   C12S13604   1.245   6.439   7.659 -0.0374  0.0427  0.5401
  127OSM   H12S13605   1.318   6.476   7.734  0.1651  2.3021 -0.7068
  127OSM   H12T13606   1.277   6.334   7.644 -1.3396 -0.0403 -2.3742
  127OSM   C13S13607   1.102   6.454   7.700  0.1930 -0.4785 -0.2880
  127OSM   H13S13608   1.050   6.369   7.652  2.1347 -0.6057 -2.3287
  127OSM   H13T13609   1.059   6.549   7.662  1.7228 -0.3579 -1.8539
  127OSM   C14S13610   1.068   6.445   7.851 -0.6745 -0.3639 -0.0181
  127OSM   H14S13611   1.147   6.379   7.893 -1.0865 -0.7191  0.2008
  127OSM   H14T13612   0.971   6.395   7.874 -0.3862 -0.9880 -0.1336
  127OSM   C15S13613   1.061   6.574   7.931 -0.1410  0.1719 -0.3444
  127OSM   H15S13614   0.966   6.621   7.896 -1.5826 -1.6721  0.8947
  127OSM   H15T13615   1.157   6.629   7.922  0.2619 -0.4836 -0.1614
  127OSM   C16S13616   1.043   6.535   8.083 -0.4990  0.0437 -0.5163
  127OSM   H16S13617   1.139   6.484   8.107 -0.1663 -1.4788 -4.3755
  127OSM   H16T13618   0.954   6.469   8.091 -0.8604  0.4243 -1.3364
  127OSM   C17S13619   1.010   6.654   8.176  0.3121  0.2415  0.0234
  127OSM   H17S13620   0.962   6.616   8.268  1.5838  1.0881  1.0689
  127OSM   H17T13621   0.935   6.723   8.132 -0.1005  0.0918  0.4873
  127OSM   C18S13622   1.125   6.752   8.222 -0.0367  0.3384 -0.0277
  127OSM   H18S13623   1.187   6.687   8.287 -0.2688  1.1793  1.0581
  127OSM   H18T13624   1.084   6.821   8.299  3.0798 -0.7768  2.8639
  127OSM   H18U13625   1.181   6.805   8.142  1.1397 -2.7918 -1.4428
  127OSM    C1F13626   0.899   6.868   6.635 -0.3511 -0.5604  0.3835
  127OSM     OF13627   0.793   6.857   6.572  0.6805 -0.0237 -0.0922
  127OSM    C2F13628   0.914   6.979   6.731  0.2150  0.2017  0.3537
  127OSM    H2F13629   0.838   7.050   6.692  1.4397  0.1769 -2.3393
  127OSM    H2G13630   1.017   7.020   6.721  0.3043  0.4199  1.9282
  127OSM    C3F13631   0.871   6.955   6.881  0.6518  0.2892  0.2546
  127OSM    H3F13632   0.764   6.929   6.892  0.7502  0.6481  2.4263
  127OSM    H3G13633   0.892   7.054   6.926  0.7895 -0.0035  0.8370
  127OSM    C4F13634   0.954   6.856   6.964 -0.3365 -0.3000  0.3187
  127OSM    H4F13635   1.064   6.870   6.956 -0.3620  2.6692  3.0868
  127OSM    H4G13636   0.938   6.752   6.927 -0.9444 -0.8944  2.1230
  127OSM    C5F13637   0.912   6.871   7.110  0.0215  0.0696  0.2940
  127OSM    H5F13638   0.938   6.775   7.159  0.8686  1.7079  3.3294
  127OSM    H5G13639   0.803   6.886   7.126 -0.2471  0.6660 -1.8112
  127OSM    C6F13640   0.982   6.987   7.187 -0.1917  0.3541  0.2588
  127OSM    H6F13641   0.949   7.079   7.136 -0.6511 -0.9545 -1.9362
  127OSM    H6G13642   1.091   6.974   7.175 -0.3067 -0.7879  0.3217
  127OSM    C7F13643   0.933   6.989   7.333  0.2418 -0.1593  0.0235
  127OSM    H7F13644   0.822   6.991   7.325  0.0456 -1.9448  1.5801
  127OSM    H7G13645   0.967   7.082   7.384  0.5348 -0.4155  0.3004
  127OSM    C8F13646   0.981   6.870   7.418 -0.6131  0.8632 -0.5069
  127OSM    H8F13647   0.946   6.779   7.365 -1.6975  0.3803  0.9782
  127OSM    H8G13648   0.919   6.874   7.510  1.2186 -0.4915  0.8762
  127OSM    C9F13649   1.135   6.865   7.447 -0.2690 -0.0927  0.0666
  127OSM    H9F13650   1.200   6.872   7.358 -1.6941 -1.4573 -1.1375
  127OSM   C10F13651   1.190   6.852   7.567 -0.2161 -0.2602 -0.5961
  127OSM   H10F13652   1.300   6.858   7.561 -0.2561  1.4206 -0.0655
  127OSM   C11F13653   1.126   6.842   7.709 -0.2704 -0.3676  0.4910
  127OSM   H11F13654   1.189   6.799   7.790  1.0362  1.7265  0.6500
  127OSM   H11G13655   1.028   6.791   7.697  0.4147 -1.6579  0.2067
  127OSM   C12F13656   1.097   6.980   7.761  0.2586  0.0085 -1.0007
  127OSM   H12F13657   1.042   7.044   7.689  0.3724 -0.0376 -1.1291
  127OSM   H12G13658   1.195   7.028   7.783  0.5936 -0.2115 -1.9502
  127OSM   C13F13659   1.021   6.971   7.898 -0.6681 -1.5346 -0.7651
  127OSM   H13F13660   1.084   6.903   7.960 -1.4910 -0.5945  1.1891
  127OSM   H13G13661   0.922   6.922   7.884 -1.8611  0.7096 -0.6842
  127OSM   C14F13662   1.002   7.101   7.974 -0.0534  0.1925  0.4192
  127OSM   H14F13663   0.916   7.097   8.044 -0.7515 -2.7546 -0.4921
  127OSM   H14G13664   0.971   7.188   7.912 -1.4785 -1.2282 -0.9726
  127OSM   C15F13665   1.135   7.140   8.053  0.5970  0.1637  1.0087
  127OSM   H15F13666   1.209   7.177   7.978 -0.6854 -0.8419 -0.8472
  127OSM   H15G13667   1.169   7.043   8.096  0.8250  0.1754  0.8590
  127OSM   C16F13668   1.104   7.235   8.168 -0.4913 -0.9714 -0.5251
  127OSM   H16F13669   1.026   7.206   8.241 -0.1228  0.8452  0.6694
  127OSM   H16G13670   1.071   7.324   8.109  1.4702 -0.4216 -0.8569
  127OSM   C17F13671   1.236   7.255   8.249 -0.4731 -0.0781  0.1906
  127OSM   H17F13672   1.246   7.345   8.314  0.1805 -0.8652  1.2172
  127OSM   H17G13673   1.300   7.276   8.161 -1.2873  1.8954  0.0092
  127OSM   C18F13674   1.290   7.135   8.327  0.6379  0.0303 -0.5858
  127OSM   H18F13675   1.293   7.039   8.272  0.5334  0.2382 -0.9615
  127OSM   H18G13676   1.234   7.119   8.421  3.0917  0.2751  1.0269
  127OSM   H18H13677   1.390   7.161   8.369  1.0791 -2.3132 -0.0708
  128OSM      N13678   3.743   2.654   5.862 -1.1039  0.0212  0.7166
  128OSM    C1513679   3.613   2.581   5.900 -0.0884 -0.2030  0.6657
  128OSM   H15A13680   3.589   2.575   6.005 -3.4875  1.0085  0.0830
  128OSM   H15B13681   3.615   2.477   5.869 -0.0654 -0.8461  2.6491
  128OSM   H15C13682   3.531   2.638   5.860 -0.1613  1.0717  2.5096
  128OSM    C1413683   3.860   2.586   5.921  0.2983 -0.4275  0.0655
  128OSM   H14A13684   3.887   2.488   5.885  2.6171  0.2798 -0.3217
  128OSM   H14B13685   3.842   2.560   6.025  0.1615  0.3507  0.2415
  128OSM   H14C13686   3.952   2.643   5.921  0.5182 -0.6323 -3.2417
  128OSM    C1313687   3.749   2.637   5.708 -0.4836 -0.5848 -0.1980
  128OSM   H13A13688   3.654   2.641   5.657 -1.0335 -0.3780  0.8182
  128OSM   H13B13689   3.801   2.545   5.683 -0.5070 -0.1844 -1.8615
  128OSM   H13C13690   3.814   2.713   5.668 -1.5080  0.4979  0.1737
  128OSM    C1213691   3.736   2.801   5.896  0.6767  0.0655 -0.0080
  128OSM   H12A13692   3.637   2.822   5.858  0.0436  0.7515  1.8697
  128OSM   H12B13693   3.802   2.857   5.831  0.8411 -0.6690 -0.4835
  128OSM    C1113694   3.748   2.840   6.041 -0.3209  0.0786 -0.0659
  128OSM   H11A13695   3.853   2.831   6.075  0.3809  0.6134 -1.9704
  128OSM   H11B13696   3.695   2.764   6.103 -0.9694  1.4738  1.1524
  128OSM      P13697   3.542   3.003   6.069 -0.3979 -0.2215 -0.0242
  128OSM    O1313698   3.523   3.150   6.049 -0.2004 -0.6812  0.3340
  128OSM    O1413699   3.459   2.919   5.976 -0.4961  0.3144  0.3957
  128OSM    O1113700   3.502   2.971   6.222  0.2393  0.1884  0.2473
  128OSM    O1213701   3.699   2.974   6.063  0.1253  0.0676 -1.0335
  128OSM    C1S13702   3.588   3.004   6.335  0.2371 -0.1670  0.7714
  128OSM    H1S13703   3.621   3.110   6.324  0.9498 -0.4205  0.4367
  128OSM    H1T13704   3.678   2.940   6.339 -0.0012 -0.4986  0.8353
  128OSM     NF13705   3.613   3.012   6.577  0.9506 -0.6921  0.6137
  128OSM    HNF13706   3.657   2.944   6.635  2.5044  1.6922  2.3897
  128OSM    C2S13707   3.513   2.990   6.473 -0.4617 -0.1089 -0.3478
  128OSM    H2S13708   3.439   3.073   6.479  1.1145  1.4847 -1.8205
  128OSM    C3S13709   3.432   2.860   6.479  1.2561 -0.5585 -0.0747
  128OSM    H3S13710   3.493   2.768   6.467  1.3868 -0.8017  2.0276
  128OSM     O313711   3.330   2.859   6.376  0.3553  0.1713  0.4132
  128OSM    HO313712   3.372   2.919   6.315  2.8021 -0.2497  1.5329
  128OSM    C4S13713   3.364   2.834   6.613 -0.6247 -0.3875 -0.1980
  128OSM    H4S13714   3.292   2.912   6.642  0.2629  0.2056  0.4308
  128OSM    C5S13715   3.393   2.737   6.701  0.1480 -0.5370  0.0241
  128OSM    H5S13716   3.471   2.662   6.679 -0.3322 -0.3481 -2.6242
  128OSM    C6S13717   3.327   2.718   6.830 -0.1640  0.2730 -0.1293
  128OSM    H6S13718   3.408   2.732   6.904  1.1565 -0.5354 -1.3678
  128OSM    H6T13719   3.287   2.615   6.839 -1.2074  0.7604  1.1789
  128OSM    C7S13720   3.214   2.817   6.881  0.5881 -0.5181  0.0792
  128OSM    H7S13721   3.125   2.822   6.815  1.3623  0.6906 -0.9055
  128OSM    H7T13722   3.234   2.926   6.879 -1.6088 -0.0783  0.0385
  128OSM    C8S13723   3.181   2.790   7.026 -0.9015 -0.4725 -0.0194
  128OSM    H8S13724   3.171   2.680   7.038  2.1057 -0.7857  0.4119
  128OSM    H8T13725   3.080   2.836   7.034 -1.2523 -0.7963 -1.9338
  128OSM    C9S13726   3.279   2.850   7.130 -0.5726 -0.6162 -0.0399
  128OSM    H9S13727   3.292   2.954   7.094 -2.4763 -0.9572 -1.9441
  128OSM    H9T13728   3.375   2.794   7.133 -1.3114 -2.3140 -3.3269
  128OSM   C10S13729   3.222   2.858   7.271 -0.1004 -0.5230 -0.6305
  128OSM   H10S13730   3.189   2.758   7.306  2.3349 -1.3198 -0.4263
  128OSM   H10T13731   3.127   2.915   7.261  0.2580  0.4896  1.2041
  128OSM   C11S13732   3.322   2.932   7.362  0.4091  0.1552 -0.2473
  128OSM   H11S13733   3.342   3.036   7.328  0.4426  0.7209  1.4082
  128OSM   H11T13734   3.412   2.867   7.369  1.0934  1.0064 -0.8814
  128OSM   C12S13735   3.262   2.944   7.504 -0.0841 -0.1075  0.0220
  128OSM   H12S13736   3.233   2.842   7.537  2.4058 -0.7391  0.4461
  128OSM   H12T13737   3.172   3.007   7.487 -0.0539 -0.3113 -0.9103
  128OSM   C13S13738   3.353   2.989   7.619  0.3377 -0.8789 -0.5628
  128OSM   H13S13739   3.386   3.094   7.605  0.5234 -1.1003 -2.0068
  128OSM   H13T13740   3.439   2.918   7.624 -0.1742 -1.7049 -2.4228
  128OSM   C14S13741   3.286   2.985   7.754  0.0668 -0.3580  0.2963
  128OSM   H14S13742   3.241   2.884   7.761 -1.1249  0.2256  1.2255
  128OSM   H14T13743   3.201   3.053   7.772 -0.2276 -0.8740  0.8918
  128OSM   C15S13744   3.385   2.992   7.871 -0.9903 -0.8370  0.4631
  128OSM   H15S13745   3.424   3.095   7.881 -1.1713 -0.9822  3.8841
  128OSM   H15T13746   3.474   2.934   7.838 -0.0962  0.7645 -0.0172
  128OSM   C16S13747   3.325   2.952   8.000  0.1480  0.3951  0.3847
  128OSM   H16S13748   3.273   2.854   7.994 -1.5955  1.2287  1.0287
  128OSM   H16T13749   3.242   3.017   8.036 -0.9432 -0.8810  0.2802
  128OSM   C17S13750   3.422   2.945   8.119  0.0990  0.4506 -0.0927
  128OSM   H17S13751   3.515   2.893   8.089 -1.8039 -1.5366 -2.9675
  128OSM   H17T13752   3.378   2.884   8.200  1.2699  1.7418  1.5947
  128OSM   C18S13753   3.445   3.082   8.176 -0.1886 -0.0071 -0.1627
  128OSM   H18S13754   3.355   3.115   8.234  0.1300 -1.4426  1.2151
  128OSM   H18T13755   3.471   3.159   8.101  0.7379 -0.6084 -0.4701
  128OSM   H18U13756   3.523   3.078   8.255  0.6160 -2.3545 -0.9814
  128OSM    C1F13757   3.661   3.133   6.597 -0.2668 -0.1710  0.3393
  128OSM     OF13758   3.604   3.233   6.555 -0.4480  0.1237 -0.0821
  128OSM    C2F13759   3.778   3.148   6.685 -0.3089  0.1090  0.2666
  128OSM    H2F13760   3.834   3.230   6.636 -0.3139 -0.8193 -1.3894
  128OSM    H2G13761   3.839   3.056   6.673  0.9186  0.9938 -0.4211
  128OSM    C3F13762   3.747   3.183   6.830  0.0098  0.0992  0.2367
  128OSM    H3F13763   3.657   3.246   6.848  0.3560 -0.2215  3.8608
  128OSM    H3G13764   3.832   3.244   6.865 -0.2138  1.4514 -1.4349
  128OSM    C4F13765   3.740   3.053   6.910  0.0983 -0.0628  0.2161
  128OSM    H4F13766   3.834   2.996   6.901 -0.6767 -1.1483 -1.5975
  128OSM    H4G13767   3.667   2.983   6.863  0.6136  1.2130 -2.6846
  128OSM    C5F13768   3.716   3.074   7.059 -0.0987 -0.1308  0.3968
  128OSM    H5F13769   3.614   3.116   7.071 -0.3393 -0.3779 -0.6884
  128OSM    H5G13770   3.796   3.141   7.096 -1.2921  1.5194  0.0806
  128OSM    C6F13771   3.726   2.944   7.146  0.3466 -0.6815 -0.4232
  128OSM    H6F13772   3.827   2.897   7.146 -0.2346 -2.0329  0.7071
  128OSM    H6G13773   3.653   2.871   7.104 -0.3048 -0.0774 -0.3528
  128OSM    C7F13774   3.693   2.943   7.299  0.5696  0.3239 -0.3176
  128OSM    H7F13775   3.707   2.838   7.333 -0.9035  0.4359  0.7224
  128OSM    H7G13776   3.588   2.964   7.326  0.1751 -0.8666 -0.8746
  128OSM    C8F13777   3.790   3.032   7.374  0.2146 -0.4335 -0.4034
  128OSM    H8F13778   3.887   3.024   7.320  0.3143 -0.4032 -0.2286
  128OSM    H8G13779   3.809   2.987   7.473 -1.5388 -2.3198 -0.8481
  128OSM    C9F13780   3.746   3.175   7.389  0.6644  0.5464  0.5614
  128OSM    H9F13781   3.769   3.243   7.306 -1.0763 -0.7455 -1.0641
  128OSM   C10F13782   3.698   3.234   7.501  0.2744  0.5341 -0.6444
  128OSM   H10F13783   3.666   3.339   7.508 -2.3940 -0.3068  2.9124
  128OSM   C11F13784   3.670   3.157   7.633  0.1163 -0.4628  0.2065
  128OSM   H11F13785   3.652   3.049   7.614 -1.3390  0.0771 -1.7052
  128OSM   H11G13786   3.580   3.197   7.683  0.2666  1.0225 -0.6582
  128OSM   C12F13787   3.785   3.159   7.740 -0.1949  0.0452  0.4809
  128OSM   H12F13788   3.811   3.257   7.785  1.4817 -0.8739  1.6631
  128OSM   H12G13789   3.880   3.136   7.686 -0.8298  3.3800 -2.3923
  128OSM   C13F13790   3.767   3.072   7.864 -0.0332 -0.3557  0.2308
  128OSM   H13F13791   3.760   2.963   7.843 -0.4832 -0.4031  0.6160
  128OSM   H13G13792   3.673   3.108   7.910 -0.2263 -1.9940  1.2278
  128OSM   C14F13793   3.859   3.094   7.975  0.0620  0.4851 -1.1106
  128OSM   H14F13794   3.917   3.189   7.963 -1.9767  1.5655 -3.1329
  128OSM   H14G13795   3.927   3.006   7.966 -0.6396 -0.0769 -0.9355
  128OSM   C15F13796   3.783   3.088   8.106  0.1839  0.7037  0.4466
  128OSM   H15F13797   3.728   2.992   8.112 -1.1722  1.3181 -1.3424
  128OSM   H15G13798   3.713   3.169   8.138  1.1313  0.1945  4.4179
  128OSM   C16F13799   3.873   3.082   8.232  0.4781  0.2162  0.3452
  128OSM   H16F13800   3.930   3.176   8.246 -1.8460  1.5384  1.3740
  128OSM   H16G13801   3.951   3.003   8.228 -0.5111 -0.8201  0.7293
  128OSM   C17F13802   3.787   3.058   8.358 -0.6924 -0.3520  0.0607
  128OSM   H17F13803   3.745   2.957   8.338 -1.2038 -0.0873 -0.2314
  128OSM   H17G13804   3.701   3.129   8.354 -0.4701 -0.1261 -1.9418
  128OSM   C18F13805   3.860   3.065   8.492 -0.5280 -0.0673 -0.4071
  128OSM   H18F13806   3.906   3.165   8.506 -0.3423 -0.1265 -0.5912
  128OSM   H18G13807   3.941   2.989   8.491 -0.7330 -0.2857 -1.1647
  128OSM   H18H13808   3.788   3.037   8.571 -1.3761  0.4209 -0.9888
  129OSM      N13809   0.211   0.156   6.323  0.4672  0.4812  0.0567
  129OSM    C1513810   0.225   0.222   6.457  0.4947 -0.3220  0.0263
  129OSM   H15A13811   0.136   0.246   6.514 -0.5049 -1.9360 -0.7934
  129OSM   H15B13812   0.286   0.310   6.444 -0.1471 -0.0451 -1.2654
  129OSM   H15C13813   0.280   0.153   6.520  0.8439  0.4068  0.5496
  129OSM    C1413814   0.125   0.242   6.238 -0.2851 -0.1211 -0.1566
  129OSM   H14A13815   0.118   0.199   6.139  0.4470  0.0265 -0.2816
  129OSM   H14B13816   0.180   0.334   6.228  0.9228 -0.4502  2.6041
  129OSM   H14C13817   0.033   0.261   6.290 -0.5021  1.2700 -1.0001
  129OSM    C1313818   0.344   0.141   6.254  0.1913  0.4884  0.0460
  129OSM   H13A13819   0.352   0.085   6.162  0.5228  1.0506 -0.2726
  129OSM   H13B13820   0.400   0.078   6.322 -0.3483 -1.2410 -1.0545
  129OSM   H13C13821   0.386   0.236   6.225  0.6629  0.1895 -0.2649
  129OSM    C1213822   0.137   0.022   6.344  0.2518 -0.0156  0.1042
  129OSM   H12A13823   0.040   0.053   6.380 -0.7745 -1.1729 -1.5315
  129OSM   H12B13824   0.177  -0.035   6.426 -1.6112  0.3447  1.3369
  129OSM    C1113825   0.122  -0.065   6.218  0.4722 -0.4427 -0.7199
  129OSM   H11A13826   0.091  -0.017   6.123  0.2511  0.2589 -0.3054
  129OSM   H11B13827   0.039  -0.138   6.229 -0.4138  0.7704  1.4516
  129OSM      P13828   0.313  -0.237   6.280  0.5331 -0.2894 -0.2730
  129OSM    O1313829   0.330  -0.355   6.190 -0.0473  0.6412 -0.1477
  129OSM    O1413830   0.437  -0.173   6.337 -0.2916  0.3244  0.2561
  129OSM    O1113831   0.198  -0.250   6.401  0.1187 -0.0184  0.4379
  129OSM    O1213832   0.243  -0.126   6.192 -0.1094 -0.4798  0.2445
  129OSM    C1S13833   0.208  -0.367   6.491  0.0458 -0.7225  0.6398
  129OSM    H1S13834   0.298  -0.429   6.474  1.2100  0.9475  0.4345
  129OSM    H1T13835   0.117  -0.426   6.467 -1.4249  1.4469  0.5926
  129OSM     NF13836   0.250  -0.446   6.713 -0.4938 -0.4206  0.0587
  129OSM    HNF13837   0.174  -0.496   6.754 -1.2117  0.5988  0.0168
  129OSM    C2S13838   0.215  -0.324   6.633  0.0363  0.0957 -0.4426
  129OSM    H2S13839   0.286  -0.240   6.648  0.2585  0.8245 -4.4157
  129OSM    C3S13840   0.078  -0.269   6.667 -0.0364 -0.2947  0.2083
  129OSM    H3S13841  -0.006  -0.339   6.646 -0.2616  0.6272 -2.3716
  129OSM     O313842   0.047  -0.154   6.586 -0.6775 -0.0347 -0.5781
  129OSM    HO313843   0.071  -0.177   6.496  1.2254 -1.6201  0.2677
  129OSM    C4S13844   0.077  -0.235   6.815  0.1626 -1.0850  0.2989
  129OSM    H4S13845   0.019  -0.311   6.870 -1.1532 -0.0588  0.3981
  129OSM    C5S13846   0.102  -0.120   6.880 -0.1216  0.1326  0.4470
  129OSM    H5S13847   0.150  -0.037   6.827 -2.4893  1.6930  0.6181
  129OSM    C6S13848   0.089  -0.106   7.034  0.0156 -0.0245  0.5669
  129OSM    H6S13849  -0.003  -0.048   7.057 -0.0537 -0.3349  1.0841
  129OSM    H6T13850   0.176  -0.047   7.068 -0.6898  2.1582 -1.1423
  129OSM    C7S13851   0.078  -0.231   7.124  0.2189  0.6205 -0.0589
  129OSM    H7S13852   0.163  -0.299   7.100  0.3302  0.2226  1.3850
  129OSM    H7T13853  -0.022  -0.276   7.109  0.3305  0.5633 -0.6462
  129OSM    C8S13854   0.083  -0.194   7.268 -0.2599 -1.0652 -0.2978
  129OSM    H8S13855  -0.018  -0.161   7.300 -0.4787 -2.6980  0.8604
  129OSM    H8T13856   0.150  -0.113   7.304 -1.4870 -0.1512 -0.0044
  129OSM    C9S13857   0.104  -0.315   7.363 -0.1623 -0.0069 -0.5120
  129OSM    H9S13858   0.207  -0.354   7.369  0.0603  0.7303  0.7693
  129OSM    H9T13859   0.036  -0.397   7.330 -1.3622 -1.1311  4.0396
  129OSM   C10S13860   0.077  -0.275   7.515 -0.4057  0.3334  0.1402
  129OSM   H10S13861  -0.033  -0.259   7.527 -0.8156 -1.3997 -1.0015
  129OSM   H10T13862   0.144  -0.188   7.536 -1.0262  0.3881  2.1175
  129OSM   C11S13863   0.135  -0.393   7.596 -0.2992 -0.0920  0.4815
  129OSM   H11S13864   0.238  -0.416   7.563 -0.4302  0.6483 -0.4719
  129OSM   H11T13865   0.081  -0.489   7.582  0.1318 -0.3018  0.2545
  129OSM   C12S13866   0.154  -0.362   7.742  0.0692 -0.3922  0.2115
  129OSM   H12S13867   0.230  -0.281   7.752 -0.0209 -0.2497 -0.2224
  129OSM   H12T13868   0.182  -0.459   7.788 -1.0297 -1.1473 -0.6457
  129OSM   C13S13869   0.033  -0.309   7.825 -0.1614  0.0849  0.0143
  129OSM   H13S13870  -0.028  -0.401   7.836 -0.6136  0.0801 -1.9921
  129OSM   H13T13871  -0.029  -0.241   7.761  1.2186 -0.1394 -1.6516
  129OSM   C14S13872   0.071  -0.247   7.958  0.3114  1.0095  0.2049
  129OSM   H14S13873  -0.012  -0.179   7.984  0.3223  1.2877 -0.4841
  129OSM   H14T13874   0.167  -0.192   7.970  0.5739  0.4907  0.5601
  129OSM   C15S13875   0.065  -0.354   8.063  0.1882 -0.0522 -0.3023
  129OSM   H15S13876  -0.026  -0.416   8.048  0.5381 -0.6902  0.1560
  129OSM   H15T13877   0.038  -0.299   8.156  0.1208  0.2070 -0.4741
  129OSM   C16S13878   0.190  -0.433   8.078 -0.2566 -0.2755 -0.1766
  129OSM   H16S13879   0.272  -0.358   8.071  0.3745 -0.9506 -0.0916
  129OSM   H16T13880   0.201  -0.489   7.983  1.7849  1.5082 -1.0983
  129OSM   C17S13881   0.212  -0.528   8.195 -0.0335  0.0735 -0.1741
  129OSM   H17S13882   0.176  -0.472   8.284  0.2221  1.2746 -0.8137
  129OSM   H17T13883   0.322  -0.539   8.204 -0.1496  0.2161  2.2155
  129OSM   C18S13884   0.148  -0.663   8.179  0.2623 -0.0858 -0.5734
  129OSM   H18S13885   0.040  -0.641   8.168  0.2797  0.2632 -0.0971
  129OSM   H18T13886   0.169  -0.726   8.268  2.0689  0.8300 -0.2973
  129OSM   H18U13887   0.191  -0.706   8.087  2.6490 -0.9323  0.8327
  129OSM    C1F13888   0.377  -0.493   6.723  0.2862 -0.6365 -0.1817
  129OSM     OF13889   0.474  -0.430   6.681 -0.1459  0.0278 -0.0610
  129OSM    C2F13890   0.382  -0.631   6.794 -0.0416 -0.3796 -0.6918
  129OSM    H2F13891   0.454  -0.685   6.729 -0.3352 -0.4220 -0.9890
  129OSM    H2G13892   0.284  -0.684   6.794  0.0520 -0.5903  0.7121
  129OSM    C3F13893   0.444  -0.627   6.937 -0.0327 -0.1227 -0.9435
  129OSM    H3F13894   0.394  -0.555   7.004  0.1192 -1.2378  0.4099
  129OSM    H3G13895   0.546  -0.588   6.915 -0.2535  1.2354  0.2989
  129OSM    C4F13896   0.461  -0.773   6.991 -0.1487  0.5467 -0.4867
  129OSM    H4F13897   0.549  -0.824   6.945 -1.6021 -3.0689  0.3470
  129OSM    H4G13898   0.367  -0.825   6.962 -0.4591  0.1726  1.1306
  129OSM    C5F13899   0.498  -0.764   7.141  0.5458 -0.8636  0.2677
  129OSM    H5F13900   0.420  -0.697   7.183 -0.9111  0.8608 -4.4718
  129OSM    H5G13901   0.589  -0.702   7.157 -0.1758  0.5548 -0.8720
  129OSM    C6F13902   0.545  -0.900   7.204  0.5089  0.1337 -0.1090
  129OSM    H6F13903   0.629  -0.931   7.138 -0.7518 -0.4204 -1.4921
  129OSM    H6G13904   0.464  -0.976   7.199  0.9646 -0.4158  0.7430
  129OSM    C7F13905   0.594  -0.892   7.350 -0.9267  0.2413  0.3011
  129OSM    H7F13906   0.670  -0.812   7.364  0.9088 -1.3497 -0.2017
  129OSM    H7G13907   0.656  -0.983   7.359 -0.2218  0.6621 -0.1839
  129OSM    C8F13908   0.469  -0.891   7.442  1.1548 -0.1221 -0.1972
  129OSM    H8F13909   0.397  -0.968   7.406 -2.2517  2.5677  0.2426
  129OSM    H8G13910   0.411  -0.796   7.438 -0.0935 -0.8561  0.0098
  129OSM    C9F13911   0.492  -0.922   7.589  0.6836  0.2817 -0.2269
  129OSM    H9F13912   0.531  -1.021   7.617  1.6586  0.1210 -1.9943
  129OSM   C10F13913   0.461  -0.841   7.688 -0.3418 -0.0304 -0.1489
  129OSM   H10F13914   0.467  -0.872   7.793  0.2045  1.9776  0.4564
  129OSM   C11F13915   0.404  -0.700   7.681  0.2445  0.5650 -0.2568
  129OSM   H11F13916   0.309  -0.687   7.737  0.8671  0.7606  0.7813
  129OSM   H11G13917   0.364  -0.663   7.583 -0.1035  2.9630  0.7248
  129OSM   C12F13918   0.515  -0.601   7.719 -0.0811 -0.1745  0.0407
  129OSM   H12F13919   0.473  -0.499   7.701 -3.2188 -1.4459 -0.4272
  129OSM   H12G13920   0.599  -0.623   7.650  2.0457  0.0711  2.3862
  129OSM   C13F13921   0.555  -0.603   7.872  0.0227  0.4364  0.9012
  129OSM   H13F13922   0.624  -0.690   7.883 -1.7983 -1.3473 -0.9018
  129OSM   H13G13923   0.466  -0.628   7.934 -1.3527 -1.4901 -1.6298
  129OSM   C14F13924   0.614  -0.468   7.918 -0.0431  0.5700 -0.4543
  129OSM   H14F13925   0.538  -0.389   7.899 -1.9550 -0.5126  2.1222
  129OSM   H14G13926   0.704  -0.456   7.855  0.5622  0.3726  0.3655
  129OSM   C15F13927   0.638  -0.472   8.069 -0.1145  0.0780 -0.4409
  129OSM   H15F13928   0.730  -0.531   8.083  0.9557  1.7431 -0.1950
  129OSM   H15G13929   0.562  -0.537   8.118  0.3854 -1.8105 -2.0406
  129OSM   C16F13930   0.655  -0.339   8.143  0.5156  0.0727  0.4860
  129OSM   H16F13931   0.575  -0.270   8.109 -0.8063 -1.4852  0.3254
  129OSM   H16G13932   0.745  -0.280   8.114 -1.9172  3.4751 -0.7757
  129OSM   C17F13933   0.644  -0.361   8.303  0.4553  0.0029 -0.1338
  129OSM   H17F13934   0.629  -0.469   8.324 -0.7127  0.5248  2.0676
  129OSM   H17G13935   0.550  -0.320   8.347  1.6103  1.1982  1.3571
  129OSM   C18F13936   0.763  -0.311   8.389  0.3571 -0.2572  0.2103
  129OSM   H18F13937   0.858  -0.331   8.334 -1.2374 -1.4646 -2.2713
  129OSM   H18G13938   0.776  -0.357   8.489  0.0650  0.5571  0.6348
  129OSM   H18H13939   0.759  -0.200   8.400  1.0239 -0.2305  0.2461
  130OSM      N13940   3.061   1.398   6.138  0.0794 -0.2319 -0.0894
  130OSM    C1513941   2.951   1.372   6.038 -0.1566  0.8584  0.0393
  130OSM   H15A13942   2.866   1.436   6.058 -0.9137 -0.4285  1.0390
  130OSM   H15B13943   2.912   1.272   6.044 -0.9840  1.1453 -0.4082
  130OSM   H15C13944   2.993   1.396   5.941  2.3689 -0.6706  0.6475
  130OSM    C1413945   3.179   1.316   6.106  0.5768  0.6186  0.4881
  130OSM   H14A13946   3.221   1.335   6.009 -0.3131  0.6776  0.1041
  130OSM   H14B13947   3.160   1.211   6.120  0.3437  0.5980  0.0220
  130OSM   H14C13948   3.251   1.336   6.184  1.6446  0.6647 -0.4866
  130OSM    C1313949   3.096   1.542   6.125  0.4187 -0.1014  0.5547
  130OSM   H13A13950   3.111   1.579   6.025 -1.6175 -0.0486  0.2172
  130OSM   H13B13951   3.179   1.570   6.188  0.6312  1.1465 -0.2576
  130OSM   H13C13952   3.015   1.603   6.163 -2.4191 -3.5274  0.5880
  130OSM    C1213953   3.009   1.365   6.275  0.4114 -0.0171  0.2474
  130OSM   H12A13954   3.017   1.258   6.290 -2.9306 -0.3425  0.6195
  130OSM   H12B13955   2.901   1.367   6.274  0.3096 -1.5625  2.0948
  130OSM    C1113956   3.078   1.438   6.397  0.1233 -0.1688  0.9532
  130OSM   H11A13957   3.021   1.418   6.490  1.0696  0.5926  1.7147
  130OSM   H11B13958   3.059   1.546   6.384 -2.1593 -0.6328 -0.1974
  130OSM      P13959   3.332   1.499   6.465 -0.0330 -0.0993  0.4541
  130OSM    O1313960   3.459   1.462   6.402  0.1780 -0.1935  0.1288
  130OSM    O1413961   3.285   1.637   6.452 -0.3826 -0.6569  0.5097
  130OSM    O1113962   3.323   1.475   6.617 -0.1828  0.2968  0.2169
  130OSM    O1213963   3.212   1.405   6.412  0.3833  0.4968 -0.3892
  130OSM    C1S13964   3.431   1.476   6.706 -0.1698  0.1462 -0.3462
  130OSM    H1S13965   3.515   1.533   6.661 -0.5398 -0.7229 -2.2490
  130OSM    H1T13966   3.471   1.374   6.724  1.9797  1.0580  0.3490
  130OSM     NF13967   3.500   1.579   6.926 -0.2948 -0.3874  0.4777
  130OSM    HNF13968   3.528   1.540   7.013  0.7184 -0.3652  0.1731
  130OSM    C2S13969   3.383   1.535   6.845 -0.0487 -0.0758 -0.5833
  130OSM    H2S13970   3.323   1.624   6.817  1.5092  1.2048 -0.0270
  130OSM    C3S13971   3.292   1.432   6.916  0.3896  0.4963 -0.1532
  130OSM    H3S13972   3.356   1.360   6.972  0.6228 -0.0949 -1.1587
  130OSM     O313973   3.203   1.357   6.834  0.1640 -0.1745 -0.6771
  130OSM    HO313974   3.220   1.387   6.745 -0.5740  0.8354 -0.4987
  130OSM    C4S13975   3.228   1.508   7.031  0.0118 -0.1191 -0.9589
  130OSM    H4S13976   3.292   1.533   7.116  0.6408  1.3839 -1.8458
  130OSM    C5S13977   3.097   1.550   7.042 -0.0442 -0.0215 -0.6526
  130OSM    H5S13978   3.022   1.519   6.968 -1.8592 -0.6277  1.3515
  130OSM    C6S13979   3.030   1.630   7.159  0.1367  0.8299 -0.5037
  130OSM    H6S13980   2.930   1.583   7.172  1.2495 -2.3398 -2.3556
  130OSM    H6T13981   3.014   1.736   7.129  0.9749  1.1253  0.0719
  130OSM    C7S13982   3.103   1.622   7.286  0.4870 -0.3635 -1.0840
  130OSM    H7S13983   3.190   1.691   7.285 -0.0490  0.4440  1.1101
  130OSM    H7T13984   3.144   1.524   7.319  3.5891  0.2383 -2.7883
  130OSM    C8S13985   3.020   1.674   7.404 -0.0495 -0.4510  0.2929
  130OSM    H8S13986   2.930   1.609   7.410 -0.3885  0.0480  0.6953
  130OSM    H8T13987   2.980   1.777   7.404 -0.9500 -0.7863  0.4524
  130OSM    C9S13988   3.114   1.667   7.531 -0.3635  0.6888  0.5350
  130OSM    H9S13989   3.185   1.753   7.524  0.8210 -0.1992  1.2430
  130OSM    H9T13990   3.184   1.580   7.531  1.2618  1.9293 -0.0992
  130OSM   C10S13991   3.037   1.657   7.667 -0.0244 -0.4523 -0.7809
  130OSM   H10S13992   2.997   1.553   7.677  0.8850 -0.7629 -0.2074
  130OSM   H10T13993   2.956   1.731   7.686 -1.6462 -2.4019  0.3418
  130OSM   C11S13994   3.138   1.677   7.782  0.1754 -0.2696  0.2801
  130OSM   H11S13995   3.200   1.766   7.758  2.1002 -1.2649  1.3408
  130OSM   H11T13996   3.208   1.591   7.779  2.5778  1.5864 -2.2718
  130OSM   C12S13997   3.055   1.700   7.912 -0.1730 -0.3032  0.2464
  130OSM   H12S13998   2.994   1.608   7.912 -0.3880 -0.1619  0.0348
  130OSM   H12T13999   2.992   1.791   7.911  1.7070  1.1312 -2.4735
  130OSM   C13S14000   3.143   1.698   8.036 -0.0284 -0.0904 -0.4296
  130OSM   H13S14001   3.096   1.717   8.135 -0.0145 -1.8270 -0.0631
  130OSM   H13T14002   3.226   1.773   8.030  1.4922 -1.3393  2.7391
  130OSM   C14S14003   3.223   1.567   8.068  0.0655 -0.2878  0.6651
  130OSM   H14S14004   3.332   1.587   8.061  0.2975 -1.9913 -2.4781
  130OSM   H14T14005   3.207   1.501   7.980  3.4220  0.5945 -0.7579
  130OSM   C15S14006   3.181   1.497   8.199  0.0126  0.2402  0.1015
  130OSM   H15S14007   3.236   1.401   8.205  0.3876  0.4790  0.5296
  130OSM   H15T14008   3.073   1.475   8.190 -0.1998 -0.6248  3.4576
  130OSM   C16S14009   3.215   1.579   8.331  0.1012 -0.4540 -0.0261
  130OSM   H16S14010   3.163   1.677   8.333  0.3020 -0.3050 -1.4599
  130OSM   H16T14011   3.319   1.616   8.341  0.1064 -0.4636 -0.0460
  130OSM   C17S14012   3.174   1.514   8.464 -0.3681 -0.3214  0.3165
  130OSM   H17S14013   3.215   1.565   8.554 -0.1479 -2.7790  1.7034
  130OSM   H17T14014   3.229   1.417   8.465  0.7367  0.3019  1.5614
  130OSM   C18S14015   3.020   1.501   8.474 -0.3172  0.1451  0.7182
  130OSM   H18S14016   2.995   1.475   8.579 -0.9685 -1.3069  0.2330
  130OSM   H18T14017   2.984   1.425   8.401  0.0937 -0.8819  1.5549
  130OSM   H18U14018   2.998   1.602   8.434  2.3648  0.4655 -0.1668
  130OSM    C1F14019   3.587   1.670   6.884 -0.0370 -1.0375  0.4937
  130OSM     OF14020   3.570   1.733   6.777 -0.2411  0.0947  0.1925
  130OSM    C2F14021   3.706   1.670   6.985  0.1724 -0.3342 -0.0017
  130OSM    H2F14022   3.766   1.583   6.951  2.1960  0.7148  0.6852
  130OSM    H2G14023   3.674   1.661   7.091  0.4530  1.9272  0.3394
  130OSM    C3F14024   3.786   1.806   6.973 -0.4144  0.1956 -0.2451
  130OSM    H3F14025   3.714   1.891   6.977 -1.1509 -0.4498  1.9387
  130OSM    H3G14026   3.832   1.800   6.873  2.2238 -0.7717  0.9209
  130OSM    C4F14027   3.880   1.813   7.096  0.2067  0.5479 -0.4822
  130OSM    H4F14028   3.964   1.878   7.066 -0.6491  1.4894 -0.8910
  130OSM    H4G14029   3.917   1.711   7.119 -0.5615 -0.3768 -2.9972
  130OSM    C5F14030   3.816   1.890   7.213 -0.6068 -0.1357 -0.5581
  130OSM    H5F14031   3.730   1.826   7.243  1.3288 -2.7944 -0.2969
  130OSM    H5G14032   3.788   1.991   7.177  2.5905  1.0998  0.1054
  130OSM    C6F14033   3.911   1.914   7.331  0.1969 -0.4156  0.3850
  130OSM    H6F14034   3.990   1.980   7.288 -0.8704  1.5084  1.2911
  130OSM    H6G14035   3.954   1.818   7.367  0.9788 -0.4096 -0.4715
  130OSM    C7F14036   3.847   1.976   7.459  0.1726 -0.2097 -0.5467
  130OSM    H7F14037   3.763   1.908   7.484 -0.3424  1.3978  2.5720
  130OSM    H7G14038   3.814   2.082   7.448  1.0560  0.3577  1.7959
  130OSM    C8F14039   3.943   1.978   7.582  0.6755  0.2916 -0.0853
  130OSM    H8F14040   4.028   2.044   7.556 -0.7276  1.3812 -2.2315
  130OSM    H8G14041   3.985   1.875   7.590 -1.5566 -0.7184 -0.6286
  130OSM    C9F14042   3.865   2.034   7.693 -0.6092 -0.1566  0.5925
  130OSM    H9F14043   3.771   2.082   7.661 -0.6866 -1.4700 -1.3080
  130OSM   C10F14044   3.902   2.015   7.823 -0.7825 -0.5419 -0.4336
  130OSM   H10F14045   3.847   2.073   7.898  0.8230 -0.5294  0.7840
  130OSM   C11F14046   4.020   1.920   7.884  0.3552 -0.0801 -0.0636
  130OSM   H11F14047   4.090   1.881   7.808  0.8005 -2.1538  1.3212
  130OSM   H11G14048   3.972   1.832   7.932  1.2434 -0.1520  0.7267
  130OSM   C12F14049   4.113   1.996   7.988 -0.3604  0.4744  0.1708
  130OSM   H12F14050   4.136   2.101   7.962 -1.3096  0.9859  1.2906
  130OSM   H12G14051   4.210   1.942   7.990 -0.5906 -0.0110 -0.8855
  130OSM   C13F14052   4.082   1.983   8.136  0.2656  0.6038  0.3448
  130OSM   H13F14053   4.055   1.879   8.164  1.7367  0.1905  0.3078
  130OSM   H13G14054   3.993   2.045   8.161 -1.2489 -1.0460 -0.7274
  130OSM   C14F14055   4.188   2.039   8.230 -0.5420 -0.1304  0.5792
  130OSM   H14F14056   4.287   1.997   8.202 -0.3768  0.1495  0.7331
  130OSM   H14G14057   4.190   1.999   8.333 -1.8937 -1.9401 -0.0522
  130OSM   C15F14058   4.185   2.193   8.236  0.3513  0.1125  0.5863
  130OSM   H15F14059   4.091   2.232   8.279 -0.0624 -0.0381 -0.1635
  130OSM   H15G14060   4.191   2.230   8.131 -2.4401 -1.2356 -0.1360
  130OSM   C16F14061   4.308   2.249   8.314 -0.0202 -0.0322  0.4598
  130OSM   H16F14062   4.396   2.202   8.266 -0.5407 -0.9978  0.4280
  130OSM   H16G14063   4.304   2.218   8.421 -0.6253  0.7984  0.6902
  130OSM   C17F14064   4.313   2.400   8.298  0.8308 -0.6529 -0.2414
  130OSM   H17F14065   4.215   2.451   8.308  1.1960 -0.3221  2.3046
  130OSM   H17G14066   4.344   2.410   8.192  0.3324 -1.7531 -0.5082
  130OSM   C18F14067   4.416   2.466   8.387 -0.0100  0.4723  0.5810
  130OSM   H18F14068   4.514   2.430   8.347 -1.0830 -1.7293 -0.2476
  130OSM   H18G14069   4.390   2.441   8.492  0.5451 -1.0766  0.3794
  130OSM   H18H14070   4.402   2.575   8.374  1.1624  0.5918  0.1502
  131OSM      N14071   1.806   5.891   6.096  0.5995  0.2732  0.0134
  131OSM    C1514072   1.799   5.970   6.230  0.7896  0.7081  0.3099
  131OSM   H15A14073   1.775   6.073   6.210  0.2053  0.1611 -2.2172
  131OSM   H15B14074   1.892   5.967   6.284  0.6501 -0.8374  0.5221
  131OSM   H15C14075   1.722   5.922   6.288  1.5115 -0.1856  0.5622
  131OSM    C1414076   1.929   5.947   6.026  0.2355  0.5847  0.0625
  131OSM   H14A14077   1.927   6.051   5.997 -1.8942  0.8673  1.0479
  131OSM   H14B14078   1.947   5.894   5.934 -0.3167  1.1251 -0.3625
  131OSM   H14C14079   2.015   5.927   6.088 -1.4372 -1.1998  1.9701
  131OSM    C1314080   1.814   5.746   6.136 -0.0861 -0.7084 -0.3705
  131OSM   H13A14081   1.889   5.726   6.211 -0.4477  0.5831  0.3667
  131OSM   H13B14082   1.821   5.677   6.054  1.1296  0.4747 -1.3133
  131OSM   H13C14083   1.722   5.727   6.190 -1.2501  2.9045 -0.8000
  131OSM    C1214084   1.668   5.921   6.026  0.4443 -0.1849  0.6443
  131OSM   H12A14085   1.595   5.908   6.104  0.8398  2.5288  1.5650
  131OSM   H12B14086   1.657   5.850   5.945  0.8837  0.3132  0.1431
  131OSM    C1114087   1.636   6.055   5.975 -0.6451 -0.9301 -0.6680
  131OSM   H11A14088   1.694   6.083   5.884  2.2921 -2.6399  0.5312
  131OSM   H11B14089   1.659   6.138   6.044  1.5834  0.2262 -2.6573
  131OSM      P14090   1.375   6.111   6.003  0.1298 -0.3221 -0.3886
  131OSM    O1314091   1.332   6.229   5.923  0.3758  0.2766  0.5616
  131OSM    O1414092   1.286   5.996   6.024  0.2057  0.4611  0.3946
  131OSM    O1114093   1.422   6.156   6.140 -0.0583  0.2536 -0.5495
  131OSM    O1214094   1.505   6.059   5.928 -0.1273  0.1098 -1.2001
  131OSM    C1S14095   1.335   6.159   6.254 -0.7990 -0.0061  0.7452
  131OSM    H1S14096   1.302   6.055   6.274  0.2412 -0.8242 -1.4512
  131OSM    H1T14097   1.239   6.209   6.231 -0.1151  1.1956  0.3910
  131OSM     NF14098   1.291   6.210   6.485 -0.1244  0.2775 -0.5675
  131OSM    HNF14099   1.242   6.294   6.508 -1.3564 -0.3545 -0.8080
  131OSM    C2S14100   1.393   6.214   6.388 -0.4484  0.5564  0.6658
  131OSM    H2S14101   1.482   6.150   6.408  1.1070  1.7688 -1.8715
  131OSM    C3S14102   1.454   6.352   6.378  0.2370 -0.5592 -0.0708
  131OSM    H3S14103   1.367   6.421   6.381  0.2306 -0.3715 -2.6761
  131OSM     O314104   1.533   6.381   6.265  0.1121  0.1158  0.8024
  131OSM    HO314105   1.537   6.301   6.213  0.2585  0.5466  0.1247
  131OSM    C4S14106   1.531   6.377   6.508 -0.4059  0.6308 -0.1380
  131OSM    H4S14107   1.631   6.331   6.518  0.0652  2.1177  3.7780
  131OSM    C5S14108   1.504   6.462   6.611 -1.0093 -0.1371  0.6010
  131OSM    H5S14109   1.414   6.525   6.600  0.7627  2.5791  0.6613
  131OSM    C6S14110   1.577   6.488   6.735 -0.0046  0.2083  0.0870
  131OSM    H6S14111   1.502   6.500   6.816 -0.3401 -2.9196  0.3818
  131OSM    H6T14112   1.633   6.582   6.718  1.2397 -0.7526 -1.4054
  131OSM    C7S14113   1.689   6.388   6.781  0.1763 -0.1640  0.0646
  131OSM    H7S14114   1.758   6.377   6.696 -0.6913  2.1767 -1.0418
  131OSM    H7T14115   1.631   6.299   6.813 -3.7174  2.1913  0.2797
  131OSM    C8S14116   1.771   6.436   6.903  0.0457 -0.1847  1.0213
  131OSM    H8S14117   1.802   6.541   6.884 -0.0253 -0.6489 -2.1531
  131OSM    H8T14118   1.863   6.374   6.912 -1.0320 -1.7789  1.5460
  131OSM    C9S14119   1.697   6.425   7.036 -0.4663  0.4689 -0.7715
  131OSM    H9S14120   1.643   6.328   7.047 -0.6970  0.8716  3.2027
  131OSM    H9T14121   1.613   6.498   7.033 -0.6648  0.2248 -2.9288
  131OSM   C10S14122   1.783   6.450   7.164  1.2357 -0.3116  0.4538
  131OSM   H10S14123   1.812   6.556   7.179 -1.1136  0.6015 -0.9817
  131OSM   H10T14124   1.874   6.387   7.153  0.9384 -0.6323 -0.2735
  131OSM   C11S14125   1.693   6.403   7.292  0.1552 -0.3258  0.0209
  131OSM   H11S14126   1.679   6.294   7.279 -0.9584 -0.3339  1.0749
  131OSM   H11T14127   1.594   6.450   7.274  1.2228  2.0100 -0.1303
  131OSM   C12S14128   1.753   6.437   7.422 -0.6149 -0.0309  0.2281
  131OSM   H12S14129   1.768   6.547   7.429  1.7144 -0.1736 -1.3847
  131OSM   H12T14130   1.856   6.400   7.406 -1.0007  0.0490 -3.3168
  131OSM   C13S14131   1.689   6.366   7.536  1.2764  0.6604  0.5739
  131OSM   H13S14132   1.707   6.261   7.502 -1.4930  0.8410 -1.9381
  131OSM   H13T14133   1.580   6.382   7.541  1.4359  1.9222  0.2887
  131OSM   C14S14134   1.765   6.382   7.672  0.1351  0.9924 -0.0589
  131OSM   H14S14135   1.751   6.486   7.709  1.1318  2.2436 -2.9052
  131OSM   H14T14136   1.869   6.364   7.640 -0.6558 -2.8706 -0.9135
  131OSM   C15S14137   1.730   6.283   7.791 -0.1258  0.2290  0.7272
  131OSM   H15S14138   1.740   6.175   7.768 -0.0826  0.2182  0.7975
  131OSM   H15T14139   1.622   6.301   7.804 -0.4341  1.0232 -2.1053
  131OSM   C16S14140   1.815   6.307   7.918 -0.6320  0.2810  0.0734
  131OSM   H16S14141   1.828   6.417   7.927  0.4050  0.2955 -1.2700
  131OSM   H16T14142   1.915   6.261   7.907 -0.0594  0.7246  2.6576
  131OSM   C17S14143   1.742   6.242   8.036 -0.1409 -0.2378  0.3269
  131OSM   H17S14144   1.709   6.138   8.018  0.7120 -0.4892  0.1308
  131OSM   H17T14145   1.658   6.311   8.058  0.8748  0.8446  0.9317
  131OSM   C18S14146   1.828   6.241   8.158 -0.1730 -0.0797 -0.1217
  131OSM   H18S14147   1.757   6.225   8.241  0.4654  2.8887  1.1369
  131OSM   H18T14148   1.870   6.340   8.187 -1.1334  0.4350 -0.4380
  131OSM   H18U14149   1.898   6.155   8.155 -2.2386 -1.8349 -0.7272
  131OSM    C1F14150   1.247   6.094   6.531 -0.2187  0.3078 -1.3386
  131OSM     OF14151   1.317   5.991   6.524 -0.1095 -0.2387  0.4807
  131OSM    C2F14152   1.106   6.100   6.588 -0.3910  0.6942  0.5049
  131OSM    H2F14153   1.046   6.051   6.508  1.8099 -0.4803 -0.5433
  131OSM    H2G14154   1.084   6.208   6.589  3.1949  1.5639  1.3459
  131OSM    C3F14155   1.091   6.036   6.726  0.0691  0.4656 -0.4588
  131OSM    H3F14156   1.168   6.091   6.785  1.4853 -0.8521 -1.0136
  131OSM    H3G14157   1.103   5.926   6.723 -1.4395  0.2544  0.1572
  131OSM    C4F14158   0.951   6.062   6.789  0.2029  0.2229 -0.0313
  131OSM    H4F14159   0.881   6.013   6.718  2.3568  0.2531 -2.2866
  131OSM    H4G14160   0.938   6.172   6.796 -3.5213 -0.1267  0.6021
  131OSM    C5F14161   0.917   5.986   6.926 -0.1751  0.0444 -0.2376
  131OSM    H5F14162   0.906   5.878   6.905 -0.5565  0.2026 -0.9037
  131OSM    H5G14163   0.819   6.031   6.954 -0.6241 -1.8877  1.5053
  131OSM    C6F14164   1.004   6.024   7.043  0.3621  0.1651  0.4913
  131OSM    H6F14165   1.004   6.135   7.053 -2.6459  0.0789  2.6705
  131OSM    H6G14166   1.107   5.994   7.012  0.2808  2.4066 -2.4479
  131OSM    C7F14167   0.962   5.944   7.167 -0.3535 -0.5510  1.0806
  131OSM    H7F14168   0.937   5.838   7.150 -2.0507  0.1255 -0.9413
  131OSM    H7G14169   0.869   5.995   7.199  0.1527  1.6782 -0.7244
  131OSM    C8F14170   1.066   5.942   7.279  0.1601 -0.4891 -0.2844
  131OSM    H8F14171   1.074   6.047   7.314 -1.4632  0.2042 -1.8541
  131OSM    H8G14172   1.162   5.909   7.233 -0.0307 -0.7916 -0.4621
  131OSM    C9F14173   1.021   5.848   7.393  0.9667  0.4639 -0.0039
  131OSM    H9F14174   1.026   5.742   7.363  1.7758  0.0651  1.4636
  131OSM   C10F14175   0.971   5.876   7.510 -0.2470  0.4782  0.2350
  131OSM   H10F14176   0.959   5.799   7.587  1.5350  0.6867  0.7698
  131OSM   C11F14177   0.942   6.008   7.558  0.7422  0.5701 -0.1756
  131OSM   H11F14178   0.863   6.058   7.497  1.2494  0.9110 -0.5666
  131OSM   H11G14179   1.028   6.079   7.552  0.5321  0.9334  0.9270
  131OSM   C12F14180   0.894   6.024   7.709 -0.2297  0.3692  0.1296
  131OSM   H12F14181   0.797   5.970   7.711  0.3806 -1.0610 -2.9067
  131OSM   H12G14182   0.873   6.132   7.723 -0.7296  0.1848  0.8562
  131OSM   C13F14183   0.993   5.978   7.804 -0.5324  0.3656 -0.7144
  131OSM   H13F14184   1.095   6.015   7.777 -0.6962  1.3732  0.0187
  131OSM   H13G14185   0.990   5.868   7.819 -1.0358  0.3627 -0.8374
  131OSM   C14F14186   0.955   6.038   7.941 -0.5750  0.5189 -0.2905
  131OSM   H14F14187   0.878   5.978   7.994  0.1123 -1.4334 -1.3916
  131OSM   H14G14188   0.913   6.140   7.930  1.2153  1.7275  2.7622
  131OSM   C15F14189   1.071   6.057   8.038 -0.3694 -0.4751  0.5633
  131OSM   H15F14190   1.049   6.127   8.121  3.2197  1.7675 -0.1546
  131OSM   H15G14191   1.148   6.106   7.974 -0.6884 -1.1834 -0.3909
  131OSM   C16F14192   1.134   5.925   8.086 -0.0612  0.5947  0.3271
  131OSM   H16F14193   1.177   5.895   7.988  0.9152  1.1063  0.5817
  131OSM   H16G14194   1.054   5.857   8.123  1.5063 -0.6190  1.6896
  131OSM   C17F14195   1.252   5.926   8.183  0.3395  0.7618 -0.1468
  131OSM   H17F14196   1.306   5.834   8.154 -1.4068  0.6875 -3.6138
  131OSM   H17G14197   1.219   5.922   8.289  0.3014 -1.2094 -0.2060
  131OSM   C18F14198   1.351   6.044   8.168  0.5677  0.6489 -0.0541
  131OSM   H18F14199   1.371   6.070   8.062  2.4934  0.4707  0.2249
  131OSM   H18G14200   1.448   6.015   8.215 -0.5283 -1.5295  1.0301
  131OSM   H18H14201   1.317   6.141   8.210  1.2775  1.1241 -0.5595
  132OSM      N14202   3.218   5.201   6.191  0.5190 -0.1546  0.1915
  132OSM    C1514203   3.298   5.292   6.102  0.3832 -0.2960  0.1450
  132OSM   H15A14204   3.262   5.299   6.000 -0.0316 -4.0151 -0.0853
  132OSM   H15B14205   3.396   5.251   6.084  0.3838  0.4846 -2.0225
  132OSM   H15C14206   3.313   5.392   6.140 -1.2160 -0.0431  0.1454
  132OSM    C1414207   3.070   5.217   6.160  0.0754 -0.4114 -0.3623
  132OSM   H14A14208   3.028   5.311   6.193 -1.8146 -1.4262  0.2944
  132OSM   H14B14209   3.015   5.136   6.205 -1.4271  0.4242 -0.6096
  132OSM   H14C14210   3.054   5.215   6.053  1.3024  0.2897 -0.5744
  132OSM    C1314211   3.235   5.056   6.153  0.3203 -0.1366 -0.1037
  132OSM   H13A14212   3.210   5.047   6.048 -0.6201  1.4982 -0.0547
  132OSM   H13B14213   3.170   4.987   6.205 -1.1087  0.6759 -0.7581
  132OSM   H13C14214   3.338   5.024   6.165  0.1920  0.2145  2.4169
  132OSM    C1214215   3.246   5.228   6.332 -0.2245 -0.1448  0.0900
  132OSM   H12A14216   3.189   5.164   6.397 -0.7914  0.1053 -0.1562
  132OSM   H12B14217   3.217   5.330   6.352  1.0876  1.1943 -3.8703
  132OSM    C1114218   3.402   5.229   6.370  0.2312 -0.1271  0.0187
  132OSM   H11A14219   3.457   5.147   6.318  0.1801  0.6841 -1.3427
  132OSM   H11B14220   3.412   5.201   6.477  0.3501 -0.8008 -0.1644
  132OSM      P14221   3.405   5.474   6.445 -0.1835 -0.4888  0.4258
  132OSM    O1314222   3.507   5.581   6.442  0.2385 -0.3960 -0.3494
  132OSM    O1414223   3.271   5.515   6.393 -0.2389 -0.1366  1.0033
  132OSM    O1114224   3.405   5.419   6.599 -0.5398  0.1016  0.7204
  132OSM    O1214225   3.459   5.361   6.356 -0.3857 -0.0066  0.1868
  132OSM    C1S14226   3.534   5.389   6.667  0.3143 -0.5349  0.0215
  132OSM    H1S14227   3.621   5.442   6.623 -0.1613  0.6759  0.4913
  132OSM    H1T14228   3.548   5.280   6.653 -2.9500 -0.8203 -2.1684
  132OSM     NF14229   3.669   5.420   6.870  0.2820 -0.3097  0.4892
  132OSM    HNF14230   3.701   5.333   6.907  0.7913 -0.2097  0.2793
  132OSM    C2S14231   3.533   5.427   6.821  0.0859 -0.6514  0.1714
  132OSM    H2S14232   3.498   5.532   6.826  1.0375 -0.3292  0.0849
  132OSM    C3S14233   3.437   5.328   6.890  0.2191  0.7423  0.2488
  132OSM    H3S14234   3.483   5.228   6.880 -0.1571  0.5414  0.4916
  132OSM     O314235   3.303   5.325   6.833 -0.3654 -0.1853  0.1204
  132OSM    HO314236   3.322   5.345   6.741 -2.5315  1.9846  0.0374
  132OSM    C4S14237   3.423   5.359   7.033 -0.0709 -0.0501  0.0204
  132OSM    H4S14238   3.334   5.420   7.053 -1.1091 -0.6768 -2.4262
  132OSM    C5S14239   3.494   5.316   7.135 -0.8132 -0.3455  0.8438
  132OSM    H5S14240   3.578   5.250   7.107 -0.2000  0.7375  0.0682
  132OSM    C6S14241   3.476   5.369   7.272  0.0996 -0.0790  0.1961
  132OSM    H6S14242   3.441   5.474   7.267  2.7758  0.8254 -1.6473
  132OSM    H6T14243   3.570   5.360   7.330 -0.4057  0.2257  1.0952
  132OSM    C7S14244   3.372   5.286   7.342  0.3446  0.0007  0.3033
  132OSM    H7S14245   3.418   5.185   7.355  1.4126  0.6817  2.3490
  132OSM    H7T14246   3.271   5.285   7.296 -0.6149 -2.1912  2.1913
  132OSM    C8S14247   3.342   5.332   7.486 -0.4060 -0.5629  0.7045
  132OSM    H8S14248   3.303   5.433   7.463  1.4007 -0.0615 -0.3982
  132OSM    H8T14249   3.432   5.364   7.543 -0.5752 -0.1092  0.7187
  132OSM    C9S14250   3.250   5.253   7.570 -0.9118 -0.0879 -0.2652
  132OSM    H9S14251   3.172   5.202   7.509 -1.4662  0.3918  0.0313
  132OSM    H9T14252   3.179   5.325   7.617 -3.1657 -0.9682 -2.0725
  132OSM   C10S14253   3.326   5.162   7.676 -0.3965 -0.1413  0.1110
  132OSM   H10S14254   3.409   5.116   7.619  1.4620  2.7498  0.2885
  132OSM   H10T14255   3.244   5.095   7.708 -2.0737  1.1672 -1.2073
  132OSM   C11S14256   3.385   5.252   7.791  0.4744  0.1097 -0.0432
  132OSM   H11S14257   3.310   5.327   7.824  0.2140  0.2230 -0.8742
  132OSM   H11T14258   3.470   5.307   7.745 -1.3373  1.7034 -1.6345
  132OSM   C12S14259   3.433   5.172   7.905 -0.5199  0.6597 -0.0006
  132OSM   H12S14260   3.527   5.221   7.940  0.5209  0.4082 -2.2605
  132OSM   H12T14261   3.453   5.068   7.871 -0.0573  0.9318 -0.5838
  132OSM   C13S14262   3.337   5.179   8.029  0.0532  0.6389  0.0179
  132OSM   H13S14263   3.350   5.283   8.066  1.7567  1.0121 -1.4720
  132OSM   H13T14264   3.371   5.115   8.113  0.3423 -0.8007 -1.1578
  132OSM   C14S14265   3.193   5.141   7.999  0.4428 -0.0063 -0.0134
  132OSM   H14S14266   3.189   5.035   7.968 -1.1523 -0.4984  1.6796
  132OSM   H14T14267   3.146   5.211   7.927 -0.5871  0.1265  0.7668
  132OSM   C15S14268   3.113   5.144   8.126  0.1628 -0.4696 -0.6771
  132OSM   H15S14269   3.171   5.092   8.205  1.6629  2.6165  0.4231
  132OSM   H15T14270   3.019   5.086   8.114  0.4412 -0.6577 -2.2010
  132OSM   C16S14271   3.086   5.282   8.182 -0.1157 -0.7570 -0.0853
  132OSM   H16S14272   2.986   5.314   8.148 -0.0000  1.1091  1.1762
  132OSM   H16T14273   3.156   5.356   8.138 -0.8283  0.3927  0.6649
  132OSM   C17S14274   3.089   5.305   8.331 -0.3396 -0.1608 -0.3611
  132OSM   H17S14275   3.194   5.278   8.356  1.0948  1.1653 -4.2911
  132OSM   H17T14276   3.025   5.231   8.384  1.8681 -3.1904 -1.6409
  132OSM   C18S14277   3.064   5.444   8.385  0.2361 -0.0623  0.2449
  132OSM   H18S14278   2.974   5.487   8.336  1.5574  2.5485 -0.0811
  132OSM   H18T14279   3.144   5.513   8.351  0.1493  0.8526  1.7813
  132OSM   H18U14280   3.049   5.457   8.495 -1.0078  0.4621  0.0318
  132OSM    C1F14281   3.758   5.511   6.856  0.0421 -0.0793  0.2843
  132OSM     OF14282   3.723   5.615   6.803  0.7933 -0.0729  0.2446
  132OSM    C2F14283   3.893   5.481   6.897 -0.3734  0.3269 -0.4153
  132OSM    H2F14284   3.959   5.468   6.808  1.4319  1.7449  0.6515
  132OSM    H2G14285   3.892   5.384   6.951  0.4949 -0.7786 -2.2832
  132OSM    C3F14286   3.959   5.594   6.970 -0.3876 -1.0564 -0.0448
  132OSM    H3F14287   3.968   5.684   6.905  0.5526  0.7613  2.4287
  132OSM    H3G14288   4.061   5.554   6.992  0.9419  3.0970  2.7557
  132OSM    C4F14289   3.897   5.643   7.108  0.0358  0.2124  0.0398
  132OSM    H4F14290   3.790   5.653   7.081  0.9085  1.1442 -3.5151
  132OSM    H4G14291   3.929   5.742   7.148 -1.2980  1.4087 -1.7282
  132OSM    C5F14292   3.925   5.539   7.214 -0.8120 -0.1379  0.0549
  132OSM    H5F14293   4.030   5.548   7.249 -0.9271 -2.3832  1.1636
  132OSM    H5G14294   3.904   5.440   7.169 -0.6826  0.5030 -1.4754
  132OSM    C6F14295   3.825   5.567   7.326  1.0263  0.1741 -0.3490
  132OSM    H6F14296   3.723   5.584   7.287  0.0096  1.1790  2.5092
  132OSM    H6G14297   3.852   5.659   7.383  0.0785 -1.5504  3.1692
  132OSM    C7F14298   3.817   5.458   7.435 -1.1021  0.3550  0.0864
  132OSM    H7F14299   3.920   5.436   7.469 -0.7923  1.5831 -0.0107
  132OSM    H7G14300   3.784   5.372   7.372  2.2658 -0.4745 -0.7644
  132OSM    C8F14301   3.738   5.478   7.565 -0.2741 -0.6114 -0.4126
  132OSM    H8F14302   3.704   5.385   7.613 -2.0464 -0.1281 -0.6710
  132OSM    H8G14303   3.645   5.523   7.526  0.4439  0.8267 -0.5439
  132OSM    C9F14304   3.798   5.575   7.661 -0.1918 -0.1223  0.2809
  132OSM    H9F14305   3.836   5.670   7.621 -0.1333 -1.0519 -1.9834
  132OSM   C10F14306   3.823   5.556   7.794  0.7488  0.1634  0.5990
  132OSM   H10F14307   3.878   5.642   7.835  1.5468  0.1197 -0.3491
  132OSM   C11F14308   3.802   5.429   7.874 -0.4726 -0.3198  0.4303
  132OSM   H11F14309   3.895   5.368   7.869  0.5821  1.2204  0.6878
  132OSM   H11G14310   3.722   5.371   7.822  0.9888 -0.8002 -1.4119
  132OSM   C12F14311   3.759   5.455   8.017 -0.9559 -0.3865 -0.2751
  132OSM   H12F14312   3.821   5.520   8.082 -0.8609 -0.2854 -0.4669
  132OSM   H12G14313   3.776   5.361   8.074  2.9315  0.1870 -0.1718
  132OSM   C13F14314   3.623   5.516   8.024  0.3242  1.1221 -0.7611
  132OSM   H13F14315   3.557   5.435   7.986  0.7567  0.9353 -1.1233
  132OSM   H13G14316   3.604   5.601   7.954 -0.2324  0.1998 -1.7792
  132OSM   C14F14317   3.585   5.550   8.167  0.5504  0.8012  1.0380
  132OSM   H14F14318   3.638   5.642   8.199 -1.3033  1.1652  3.3132
  132OSM   H14G14319   3.605   5.471   8.241 -0.0671  1.2612  1.7109
  132OSM   C15F14320   3.435   5.597   8.190  0.7428  0.5758 -0.7361
  132OSM   H15F14321   3.414   5.569   8.296  2.0443  0.8673 -0.3914
  132OSM   H15G14322   3.358   5.541   8.132  0.8219  0.1892 -0.4742
  132OSM   C16F14323   3.406   5.746   8.179  0.1784  0.5149  0.0500
  132OSM   H16F14324   3.450   5.769   8.079  1.3556  0.9448  0.6531
  132OSM   H16G14325   3.473   5.807   8.243  0.7281 -1.1597  1.1199
  132OSM   C17F14326   3.261   5.788   8.177  0.5945 -0.2851  0.0033
  132OSM   H17F14327   3.211   5.784   8.276  1.1941  1.9935  0.4599
  132OSM   H17G14328   3.210   5.724   8.102  2.0358 -2.3467  0.6815
  132OSM   C18F14329   3.253   5.936   8.131  1.1051  0.4375 -0.2626
  132OSM   H18F14330   3.155   5.980   8.161  1.2511  0.6775 -0.1426
  132OSM   H18G14331   3.275   5.938   8.022 -0.2197 -0.8514 -0.5932
  132OSM   H18H14332   3.338   5.991   8.177  1.1949 -1.6304  2.2298
  133OSM      N14333   4.003   0.002   6.307  0.1026  0.0168  0.2158
  133OSM    C1514334   4.084   0.001   6.178  0.7307 -0.5206 -0.1790
  133OSM   H15A14335   4.031  -0.049   6.098  0.7239 -0.7644 -0.0219
  133OSM   H15B14336   4.184  -0.038   6.189  0.5655 -0.5983  1.1781
  133OSM   H15C14337   4.084   0.101   6.136  0.1759  0.0804  1.2054
  133OSM    C1414338   3.953  -0.143   6.327  0.2203 -0.1883  0.3596
  133OSM   H14A14339   3.905  -0.190   6.242  2.1306 -1.4201 -0.1035
  133OSM   H14B14340   3.881  -0.140   6.408 -0.6012 -1.1776 -0.3110
  133OSM   H14C14341   4.042  -0.201   6.345  1.1121  0.7342 -0.9159
  133OSM    C1314342   4.087   0.049   6.410 -0.6713 -0.2368 -0.2100
  133OSM   H13A14343   4.190   0.033   6.383 -0.4901  2.1782 -1.2455
  133OSM   H13B14344   4.076  -0.001   6.505  0.3668  0.3582  0.2343
  133OSM   H13C14345   4.092   0.154   6.433  0.9901 -0.3777  0.1699
  133OSM    C1214346   3.887   0.094   6.264  0.5302 -0.0852 -0.2410
  133OSM   H12A14347   3.815   0.087   6.344  0.3401 -0.0705 -0.4101
  133OSM   H12B14348   3.830   0.065   6.178 -2.9499  3.9672  0.3669
  133OSM    C1114349   3.915   0.246   6.235 -0.0512 -0.1093 -0.7265
  133OSM   H11A14350   3.826   0.301   6.198 -0.3727 -1.0968 -1.4522
  133OSM   H11B14351   3.990   0.263   6.156 -0.7645 -0.2361 -1.4460
  133OSM      P14352   3.870   0.345   6.476  0.3810 -0.5135 -0.2754
  133OSM    O1314353   3.872   0.491   6.499  0.1972  0.1155  0.5705
  133OSM    O1414354   3.739   0.282   6.448  0.3645  0.6628  0.1279
  133OSM    O1114355   3.944   0.283   6.597 -0.0932 -0.2535 -0.0086
  133OSM    O1214356   3.968   0.313   6.359 -0.0794  0.1209  0.4218
  133OSM    C1S14357   4.058   0.347   6.656  0.3585  0.1755  0.4603
  133OSM    H1S14358   4.078   0.447   6.612  0.4730 -0.8571 -2.0230
  133OSM    H1T14359   4.144   0.279   6.639 -0.1083 -0.4536  0.5716
  133OSM     NF14360   4.153   0.465   6.857 -0.0931  0.4332  0.1408
  133OSM    HNF14361   4.237   0.422   6.890 -0.0714 -0.3181 -0.8573
  133OSM    C2S14362   4.048   0.373   6.809 -0.2293 -0.2624  0.3679
  133OSM    H2S14363   3.950   0.424   6.822  0.5725  1.0518  1.5785
  133OSM    C3S14364   4.031   0.239   6.888  0.7046  0.3097  0.2095
  133OSM    H3S14365   4.124   0.184   6.863  0.7436  1.0449 -1.4143
  133OSM     O314366   3.927   0.155   6.840  0.3782 -0.2985  0.4922
  133OSM    HO314367   3.878   0.190   6.765  1.2568 -2.8766 -1.4066
  133OSM    C4S14368   4.006   0.263   7.034 -0.3193 -0.4892  0.9939
  133OSM    H4S14369   3.906   0.305   7.054 -0.1315 -0.1886  1.3060
  133OSM    C5S14370   4.090   0.249   7.136 -0.0086 -0.9065 -1.0599
  133OSM    H5S14371   4.194   0.212   7.131  0.7705  0.8724  0.6064
  133OSM    C6S14372   4.044   0.292   7.271  0.7489 -0.0882 -0.2364
  133OSM    H6S14373   4.016   0.210   7.340 -1.6561  0.7090 -0.1910
  133OSM    H6T14374   3.955   0.358   7.272  0.5968 -0.2610  1.7951
  133OSM    C7S14375   4.153   0.378   7.341  0.2719 -0.0642 -0.3844
  133OSM    H7S14376   4.187   0.463   7.278  2.8170 -1.3192 -0.8194
  133OSM    H7T14377   4.242   0.314   7.359 -0.1206 -0.3504  0.6479
  133OSM    C8S14378   4.101   0.431   7.482  0.7974  0.7403  0.2451
  133OSM    H8S14379   4.046   0.343   7.523  1.2185 -1.5261 -3.4846
  133OSM    H8T14380   4.043   0.520   7.450 -1.2187 -1.2654 -2.1066
  133OSM    C9S14381   4.210   0.466   7.586 -0.3528 -0.0912 -0.1852
  133OSM    H9S14382   4.298   0.500   7.528 -0.9052  0.9588 -0.4266
  133OSM    H9T14383   4.235   0.378   7.650 -0.7902 -0.0512  0.0460
  133OSM   C10S14384   4.174   0.594   7.672  0.3767 -0.3997  0.2641
  133OSM   H10S14385   4.167   0.678   7.599  1.0177  1.7195  2.4779
  133OSM   H10T14386   4.257   0.611   7.744  1.6615  0.6078 -1.3721
  133OSM   C11S14387   4.045   0.569   7.748 -0.6121  0.2330 -0.0213
  133OSM   H11S14388   3.977   0.512   7.682 -0.6646 -1.1563  1.1920
  133OSM   H11T14389   3.997   0.667   7.769  0.8177  0.7249  1.1368
  133OSM   C12S14390   4.055   0.497   7.886 -0.6712  0.4061  0.6082
  133OSM   H12S14391   4.152   0.522   7.934 -0.3233  0.7224 -0.2539
  133OSM   H12T14392   4.060   0.390   7.857  0.0877  0.6786 -0.2983
  133OSM   C13S14393   3.943   0.520   7.980 -0.1349 -0.7656 -0.0609
  133OSM   H13S14394   3.858   0.466   7.932 -0.1352  0.1339 -1.1144
  133OSM   H13T14395   3.909   0.625   7.985 -0.3641 -0.8200 -0.4035
  133OSM   C14S14396   3.957   0.461   8.116  0.3300 -0.9034 -0.0589
  133OSM   H14S14397   4.046   0.500   8.170  1.7454  0.2494 -3.0546
  133OSM   H14T14398   3.977   0.352   8.108  2.5620 -0.4224 -1.7448
  133OSM   C15S14399   3.834   0.498   8.198  0.3907 -0.0112 -0.6563
  133OSM   H15S14400   3.745   0.496   8.133  0.2715  0.9769 -0.5389
  133OSM   H15T14401   3.849   0.602   8.236  0.0534 -0.3434  0.4342
  133OSM   C16S14402   3.832   0.421   8.333 -0.1195 -0.1826  0.3475
  133OSM   H16S14403   3.933   0.426   8.378  1.5910 -0.0379 -3.1778
  133OSM   H16T14404   3.822   0.314   8.305  1.3399 -0.0047 -0.9528
  133OSM   C17S14405   3.721   0.457   8.433 -0.1209 -0.1666  0.1570
  133OSM   H17S14406   3.726   0.381   8.514 -1.2617 -0.5346 -0.0895
  133OSM   H17T14407   3.616   0.438   8.400 -0.4137 -1.7749  1.8119
  133OSM   C18S14408   3.724   0.602   8.469 -0.6655  0.7423  0.0281
  133OSM   H18S14409   3.822   0.625   8.515  0.7537 -0.5093 -2.2148
  133OSM   H18T14410   3.643   0.627   8.542 -0.9020 -0.4869  0.2162
  133OSM   H18U14411   3.712   0.668   8.381 -0.8540  0.9101  0.1790
  133OSM    C1F14412   4.162   0.594   6.820 -0.0296 -0.5025  0.0077
  133OSM     OF14413   4.071   0.655   6.765 -0.0619 -0.4710  0.1692
  133OSM    C2F14414   4.288   0.665   6.850  0.6288  0.1927  0.4223
  133OSM    H2F14415   4.326   0.717   6.759  3.7610 -1.7187  0.5073
  133OSM    H2G14416   4.364   0.594   6.888  0.0173 -1.0972 -0.6739
  133OSM    C3F14417   4.261   0.783   6.953 -0.0057  0.1587 -0.5257
  133OSM    H3F14418   4.192   0.856   6.906 -0.1216  1.4599  1.5405
  133OSM    H3G14419   4.360   0.834   6.964 -0.9128  1.7097  1.0516
  133OSM    C4F14420   4.208   0.754   7.089 -0.4520 -1.0158  0.0708
  133OSM    H4F14421   4.273   0.677   7.136  0.0768 -0.2819  0.5658
  133OSM    H4G14422   4.107   0.708   7.087 -0.7552 -0.6193  2.6854
  133OSM    C5F14423   4.202   0.874   7.176 -1.1497 -0.3683 -0.5149
  133OSM    H5F14424   4.128   0.951   7.145 -1.8266 -0.9107 -0.2588
  133OSM    H5G14425   4.301   0.923   7.166 -0.4905 -0.8711  2.4848
  133OSM    C6F14426   4.189   0.855   7.328  0.9352  0.5704 -0.6278
  133OSM    H6F14427   4.282   0.800   7.356  1.1374 -0.0031 -2.2942
  133OSM    H6G14428   4.106   0.788   7.359  0.6895  0.5890 -1.2301
  133OSM    C7F14429   4.167   0.987   7.397  0.1654  0.2585  0.2633
  133OSM    H7F14430   4.092   1.061   7.362  0.5540  0.9365  0.8238
  133OSM    H7G14431   4.262   1.044   7.389  0.2185  0.0961 -0.2979
  133OSM    C8F14432   4.146   0.965   7.550  1.2897 -0.4736  0.2270
  133OSM    H8F14433   4.221   0.890   7.583  1.3656 -0.3613  0.3087
  133OSM    H8G14434   4.049   0.914   7.571  1.3585 -0.4791  0.5409
  133OSM    C9F14435   4.160   1.096   7.623 -0.3736 -0.4860  0.0282
  133OSM    H9F14436   4.114   1.181   7.570 -0.6256  0.5163  1.7617
  133OSM   C10F14437   4.241   1.135   7.727  0.0000 -0.0679  0.5232
  133OSM   H10F14438   4.254   1.242   7.747  0.8749 -0.0456 -0.0840
  133OSM   C11F14439   4.334   1.048   7.808 -0.5848  0.9597 -0.4646
  133OSM   H11F14440   4.438   1.069   7.773  0.5530 -2.7526  0.2899
  133OSM   H11G14441   4.307   0.942   7.791  0.8378  0.6781 -1.1326
  133OSM   C12F14442   4.315   1.072   7.953 -0.5724 -0.4364 -0.4755
  133OSM   H12F14443   4.329   1.178   7.984 -1.0422 -0.6018  0.3161
  133OSM   H12G14444   4.399   1.021   8.003 -0.9678 -1.9412 -1.2779
  133OSM   C13F14445   4.175   1.014   8.001  0.5442  0.4030  0.3599
  133OSM   H13F14446   4.100   1.058   7.933  1.6063  0.2811 -0.9463
  133OSM   H13G14447   4.156   1.048   8.105  1.4407 -1.4293  1.1703
  133OSM   C14F14448   4.160   0.866   7.994 -0.0620  0.6972  0.4011
  133OSM   H14F14449   4.253   0.817   7.957 -0.4242  0.6597 -0.4955
  133OSM   H14G14450   4.079   0.832   7.925  2.0434 -1.2033 -1.3018
  133OSM   C15F14451   4.143   0.806   8.133  0.4334  0.1713 -0.4125
  133OSM   H15F14452   4.158   0.697   8.116 -0.4270  0.1190 -0.8658
  133OSM   H15G14453   4.041   0.836   8.165  0.5247 -1.1985  1.3254
  133OSM   C16F14454   4.249   0.857   8.233 -0.4403  0.3966 -0.2142
  133OSM   H16F14455   4.230   0.960   8.272  0.0927 -0.2363  1.7998
  133OSM   H16G14456   4.347   0.868   8.181 -0.3594 -1.2870 -0.4615
  133OSM   C17F14457   4.272   0.770   8.361 -0.0527 -0.2511  0.2814
  133OSM   H17F14458   4.296   0.670   8.319 -1.4758  0.4776 -2.4901
  133OSM   H17G14459   4.177   0.756   8.417  0.7123  2.5970  2.5302
  133OSM   C18F14460   4.383   0.813   8.454  0.4904  0.1746 -0.4055
  133OSM   H18F14461   4.485   0.799   8.412  1.4506  0.4681  1.6991
  133OSM   H18G14462   4.374   0.741   8.538  0.2824 -0.3894 -0.8999
  133OSM   H18H14463   4.362   0.916   8.489 -0.7322  0.0127 -0.6287
  134OSM      N14464   4.883   3.803   6.230  0.9344  0.0418  0.8943
  134OSM    C1514465   4.997   3.836   6.144 -0.2042  0.6567 -0.0579
  134OSM   H15A14466   4.974   3.823   6.039 -0.3677  3.5500 -0.4538
  134OSM   H15B14467   5.075   3.762   6.155  0.4748  1.3743 -0.0098
  134OSM   H15C14468   5.045   3.929   6.170 -0.5641  0.7999  0.1154
  134OSM    C1414469   4.754   3.873   6.194 -0.5970 -0.1870  0.6908
  134OSM   H14A14470   4.726   3.835   6.097 -2.3440 -2.0763  1.8355
  134OSM   H14B14471   4.776   3.978   6.190 -1.6833  0.0292 -0.1375
  134OSM   H14C14472   4.676   3.837   6.259 -1.2017 -2.5196 -1.1753
  134OSM    C1314473   4.858   3.661   6.221 -0.2138  0.4551 -0.8842
  134OSM   H13A14474   4.792   3.627   6.300  0.7460 -0.3623 -0.4158
  134OSM   H13B14475   4.945   3.599   6.237 -0.2846  0.3279 -0.9922
  134OSM   H13C14476   4.820   3.634   6.124 -0.5021  1.0238 -0.9363
  134OSM    C1214477   4.915   3.845   6.378 -0.0175 -0.0005  0.2524
  134OSM   H12A14478   5.011   3.807   6.409  0.8749  1.1185 -1.0183
  134OSM   H12B14479   4.836   3.809   6.442 -0.3940  3.0966  1.7275
  134OSM    C1114480   4.917   3.999   6.413  0.1703  0.1407 -0.9416
  134OSM   H11A14481   4.967   4.044   6.324 -0.1970  0.4245 -1.0041
  134OSM   H11B14482   4.972   4.015   6.508 -1.9923  0.1273  0.3661
  134OSM      P14483   4.688   4.014   6.530 -0.3388  0.1621  0.2469
  134OSM    O1314484   4.577   4.107   6.539  0.0430  0.3239  0.2298
  134OSM    O1414485   4.652   3.876   6.499 -0.1244  0.2423  0.4434
  134OSM    O1114486   4.775   4.022   6.657 -0.0814 -0.2494 -0.6925
  134OSM    O1214487   4.790   4.056   6.417 -0.0867 -0.1926 -1.1001
  134OSM    C1S14488   4.784   4.143   6.742 -0.4850  0.1752 -0.2801
  134OSM    H1S14489   4.712   4.224   6.719  0.5619  0.9520 -0.8899
  134OSM    H1T14490   4.887   4.186   6.734 -0.2008 -0.5771 -0.7640
  134OSM     NF14491   4.743   4.212   6.978 -0.8191 -0.4056 -0.2892
  134OSM    HNF14492   4.823   4.230   7.034 -1.4023 -1.1460  0.8125
  134OSM    C2S14493   4.767   4.098   6.890  0.1456  0.6178  0.0295
  134OSM    H2S14494   4.676   4.034   6.889  1.0488 -0.7212  0.8644
  134OSM    C3S14495   4.879   3.997   6.937 -0.1460 -0.3369  0.3724
  134OSM    H3S14496   4.979   4.045   6.933  0.3155 -1.0843  2.0720
  134OSM     O314497   4.896   3.883   6.854  0.1468 -0.5947 -0.6729
  134OSM    HO314498   4.853   3.917   6.775 -0.0813  0.1729 -0.2303
  134OSM    C4S14499   4.850   3.958   7.084  0.4550 -0.1756 -0.1296
  134OSM    H4S14500   4.905   4.018   7.157  1.0734 -1.7499  0.7629
  134OSM    C5S14501   4.774   3.853   7.132 -0.1653 -0.0018 -0.3355
  134OSM    H5S14502   4.743   3.780   7.055  3.2572  1.0993 -3.0117
  134OSM    C6S14503   4.752   3.809   7.277 -0.3173  0.6972  0.4717
  134OSM    H6S14504   4.740   3.699   7.289  1.6728  0.3112 -0.5804
  134OSM    H6T14505   4.666   3.869   7.313 -1.1649 -0.0724 -0.2197
  134OSM    C7S14506   4.859   3.850   7.381  0.1229  0.4410  0.2806
  134OSM    H7S14507   4.893   3.956   7.371 -1.0153  0.8600  0.7381
  134OSM    H7T14508   4.942   3.779   7.364  1.2949  1.9277 -0.5534
  134OSM    C8S14509   4.816   3.823   7.527 -0.3773  0.1654  0.1276
  134OSM    H8S14510   4.747   3.736   7.522  1.3804 -1.2178 -3.5625
  134OSM    H8T14511   4.765   3.912   7.569 -1.7759 -1.8445  3.0614
  134OSM    C9S14512   4.941   3.782   7.614  0.4269 -0.1833 -0.4449
  134OSM    H9S14513   5.012   3.865   7.596  1.6297 -0.7788  1.3120
  134OSM    H9T14514   4.984   3.684   7.584  2.6559  0.7101 -0.3540
  134OSM   C10S14515   4.902   3.769   7.756  0.1609 -0.3461 -0.0034
  134OSM   H10S14516   4.874   3.665   7.778 -1.8523 -0.1201 -1.2713
  134OSM   H10T14517   4.823   3.841   7.785  1.4404  1.8894 -1.6378
  134OSM   C11S14518   5.016   3.804   7.851  0.2170 -0.0101 -0.4343
  134OSM   H11S14519   5.047   3.909   7.833 -0.2302  0.0756 -0.7187
  134OSM   H11T14520   5.108   3.748   7.826  1.1276  1.9875 -1.8675
  134OSM   C12S14521   4.989   3.806   8.003 -0.2623  1.0130 -0.3406
  134OSM   H12S14522   4.898   3.867   8.021  0.1763  1.0778  2.0464
  134OSM   H12T14523   5.073   3.860   8.051 -2.0011  2.9594  0.6875
  134OSM   C13S14524   4.969   3.671   8.067 -0.1202 -0.2753 -0.0055
  134OSM   H13S14525   5.054   3.607   8.035 -1.4704 -1.9614 -0.3100
  134OSM   H13T14526   4.878   3.631   8.019  0.9889 -2.4652 -0.4181
  134OSM   C14S14527   4.960   3.676   8.221  0.0426 -0.6792  0.4706
  134OSM   H14S14528   5.039   3.745   8.256 -0.3431  2.7695 -4.4340
  134OSM   H14T14529   4.992   3.573   8.249 -0.5625 -0.9561  0.1663
  134OSM   C15S14530   4.825   3.714   8.276 -0.2106 -0.1394 -0.3850
  134OSM   H15S14531   4.743   3.669   8.216  0.2420 -3.2063  1.1106
  134OSM   H15T14532   4.815   3.824   8.261 -0.1535 -0.2059 -0.9357
  134OSM   C16S14533   4.795   3.678   8.421  0.5795 -0.5674 -0.6634
  134OSM   H16S14534   4.878   3.699   8.491  0.9340 -2.5233 -0.4543
  134OSM   H16T14535   4.778   3.569   8.423  1.5893 -0.7270  0.1509
  134OSM   C17S14536   4.671   3.753   8.469 -0.4310 -0.8033  0.8294
  134OSM   H17S14537   4.584   3.715   8.411  0.5810  0.3577 -1.6004
  134OSM   H17T14538   4.667   3.858   8.433 -4.3328 -1.4177 -1.0436
  134OSM   C18S14539   4.643   3.739   8.621 -0.0969  0.1730  0.4824
  134OSM   H18S14540   4.637   3.632   8.648  2.0867  0.4634  2.3555
  134OSM   H18T14541   4.544   3.782   8.648  0.5583  1.0217  1.5872
  134OSM   H18U14542   4.722   3.784   8.684  1.5417 -0.9973 -0.6379
  134OSM    C1F14543   4.634   4.286   6.985  0.0142 -0.4927 -0.0652
  134OSM     OF14544   4.533   4.240   6.933 -0.0866 -0.0870 -0.4946
  134OSM    C2F14545   4.634   4.420   7.054  0.2230  0.4346 -0.1581
  134OSM    H2F14546   4.636   4.503   6.979  0.7367  0.3909 -0.1975
  134OSM    H2G14547   4.729   4.429   7.111 -0.1199 -2.9722  1.1340
  134OSM    C3F14548   4.507   4.428   7.151 -1.0115  0.1602  0.2261
  134OSM    H3F14549   4.412   4.413   7.095 -0.0311 -2.8096 -0.7875
  134OSM    H3G14550   4.503   4.525   7.206  1.3844 -0.7319  2.1850
  134OSM    C4F14551   4.523   4.321   7.267 -0.6115  0.5419  0.0851
  134OSM    H4F14552   4.598   4.240   7.250 -0.3869  0.1938  2.4051
  134OSM    H4G14553   4.432   4.257   7.276 -0.3549  0.3527  1.6710
  134OSM    C5F14554   4.531   4.380   7.412  0.1385  0.0595 -0.0404
  134OSM    H5F14555   4.619   4.449   7.416 -0.2011  0.5185 -0.4207
  134OSM    H5G14556   4.537   4.292   7.479 -2.4682  0.4223  0.7846
  134OSM    C6F14557   4.421   4.479   7.465 -0.4239  0.3819 -0.1931
  134OSM    H6F14558   4.322   4.435   7.444 -0.9170  0.9655  0.8180
  134OSM    H6G14559   4.427   4.573   7.406 -0.7867  0.7095  0.2862
  134OSM    C7F14560   4.422   4.508   7.615  0.2808  0.1066  0.8290
  134OSM    H7F14561   4.331   4.569   7.633 -0.7531 -0.3541 -2.2404
  134OSM    H7G14562   4.513   4.559   7.654  0.7791  0.5353 -0.8073
  134OSM    C8F14563   4.423   4.383   7.706 -0.0945 -0.3025  0.0679
  134OSM    H8F14564   4.514   4.324   7.684 -0.2443 -0.2699 -0.6719
  134OSM    H8G14565   4.335   4.317   7.695  0.6061 -1.4785  1.1698
  134OSM    C9F14566   4.431   4.436   7.850 -0.1685  0.4233 -0.4573
  134OSM    H9F14567   4.340   4.492   7.878 -0.6268 -0.0451 -0.9693
  134OSM   C10F14568   4.524   4.411   7.947  0.2587  0.2447 -0.2909
  134OSM   H10F14569   4.507   4.461   8.043 -1.9541  0.3695 -0.6968
  134OSM   C11F14570   4.652   4.340   7.924 -0.1200  0.2748  0.5122
  134OSM   H11F14571   4.736   4.411   7.909  0.5159 -0.6729 -0.5830
  134OSM   H11G14572   4.649   4.281   7.830 -1.2655 -0.9496  1.2769
  134OSM   C12F14573   4.692   4.239   8.028 -0.3687 -0.5899 -0.1534
  134OSM   H12F14574   4.776   4.179   7.986 -1.8175 -1.2342 -2.2873
  134OSM   H12G14575   4.616   4.160   8.045  0.6618 -2.0291 -1.8622
  134OSM   C13F14576   4.714   4.299   8.159  0.2846 -0.1568  0.0622
  134OSM   H13F14577   4.620   4.346   8.196 -0.1759  0.0232 -1.2791
  134OSM   H13G14578   4.787   4.382   8.164 -0.4008  0.4125  1.0050
  134OSM   C14F14579   4.761   4.193   8.259 -0.3906  0.1088 -0.2282
  134OSM   H14F14580   4.856   4.149   8.221  0.0062 -0.7775  1.7077
  134OSM   H14G14581   4.678   4.120   8.259 -2.2212  2.0958 -0.9117
  134OSM   C15F14582   4.789   4.256   8.396 -0.3487  0.2630 -0.3844
  134OSM   H15F14583   4.691   4.290   8.438 -0.5836 -2.1420  1.2016
  134OSM   H15G14584   4.849   4.349   8.388  1.1171 -0.7720 -1.9328
  134OSM   C16F14585   4.858   4.167   8.500  0.8925  0.5502  0.5795
  134OSM   H16F14586   4.968   4.171   8.489  1.0317  1.6607  2.0574
  134OSM   H16G14587   4.823   4.063   8.482 -1.5104  1.4431 -0.2070
  134OSM   C17F14588   4.817   4.205   8.644  0.7450  0.1629 -0.0128
  134OSM   H17F14589   4.815   4.316   8.650 -0.6724  0.1491  0.2089
  134OSM   H17G14590   4.890   4.167   8.719 -2.3008 -0.0961  3.1213
  134OSM   C18F14591   4.683   4.145   8.692 -0.2474 -0.0518 -0.3808
  134OSM   H18F14592   4.598   4.208   8.658  1.4019  3.9010  2.1176
  134OSM   H18G14593   4.687   4.140   8.803  1.1741  3.3813 -0.1505
  134OSM   H18H14594   4.671   4.043   8.649 -0.2211 -0.8106  1.3418
  135OSM      N14595   5.864   3.775   6.176 -0.3593 -0.4271 -0.7832
  135OSM    C1514596   6.017   3.777   6.192  0.1822 -0.2491 -0.0682
  135OSM   H15A14597   6.042   3.848   6.269  1.7861 -3.7309  2.9415
  135OSM   H15B14598   6.066   3.796   6.098  2.7189 -0.6000  1.1185
  135OSM   H15C14599   6.045   3.679   6.228 -1.3325  0.3175  3.0032
  135OSM    C1414600   5.825   3.917   6.139  0.2028  0.2371 -0.8094
  135OSM   H14A14601   5.719   3.926   6.123 -0.1275  0.5505  1.3157
  135OSM   H14B14602   5.874   3.943   6.046  1.4642  0.9022  0.0122
  135OSM   H14C14603   5.851   3.985   6.218  0.7279  1.5250 -2.0481
  135OSM    C1314604   5.823   3.685   6.067  0.4172 -0.1626  0.2943
  135OSM   H13A14605   5.837   3.581   6.094 -0.9910 -0.7961 -1.2462
  135OSM   H13B14606   5.878   3.699   5.976  2.8455  0.0163  1.6984
  135OSM   H13C14607   5.719   3.705   6.046  0.1300 -0.7051  1.1167
  135OSM    C1214608   5.802   3.730   6.304 -0.0974  0.8569 -0.6067
  135OSM   H12A14609   5.843   3.634   6.331  0.6048  1.3706  0.2100
  135OSM   H12B14610   5.696   3.710   6.302 -0.0758  0.4533  0.9635
  135OSM    C1114611   5.814   3.835   6.424  0.3473  0.5574  0.1335
  135OSM   H11A14612   5.917   3.876   6.418  1.4597 -2.0967 -0.3714
  135OSM   H11B14613   5.819   3.788   6.524  3.6486  2.8535  1.2072
  135OSM      P14614   5.564   3.921   6.445 -0.9093  0.4468  0.0907
  135OSM    O1314615   5.489   4.040   6.400  0.0232 -0.8713  0.2709
  135OSM    O1414616   5.511   3.787   6.398  0.0823 -0.6686  0.0538
  135OSM    O1114617   5.557   3.918   6.601  0.7804  0.1769 -0.6621
  135OSM    O1214618   5.718   3.942   6.404  0.1551 -0.0018 -0.1553
  135OSM    C1S14619   5.621   4.023   6.676 -0.5415  0.9007 -0.5133
  135OSM    H1S14620   5.558   4.113   6.662 -0.3707  0.8855 -1.4661
  135OSM    H1T14621   5.722   4.049   6.638 -1.3194  1.1896 -2.5182
  135OSM     NF14622   5.644   4.096   6.910 -0.2276 -0.2073 -0.2134
  135OSM    HNF14623   5.736   4.103   6.948 -1.2458 -0.5641  2.5310
  135OSM    C2S14624   5.618   3.982   6.826 -0.0162  0.0456  0.3749
  135OSM    H2S14625   5.520   3.935   6.847 -0.0974 -1.5689 -2.9491
  135OSM    C3S14626   5.721   3.869   6.845  0.0822 -0.1217  0.6048
  135OSM    H3S14627   5.815   3.910   6.802 -1.1707  1.8047 -0.4349
  135OSM     O314628   5.681   3.753   6.772  0.0937  0.0685  0.4119
  135OSM    HO314629   5.629   3.793   6.702 -0.6364 -2.0267 -0.3248
  135OSM    C4S14630   5.735   3.823   6.988  0.2569  0.0660  0.0482
  135OSM    H4S14631   5.639   3.783   7.026  1.4206 -1.2058  1.8111
  135OSM    C5S14632   5.840   3.820   7.066 -0.0143  0.8182  0.6459
  135OSM    H5S14633   5.938   3.858   7.030  1.1127 -1.5206  1.0869
  135OSM    C6S14634   5.845   3.781   7.211 -0.7047 -0.1288  0.3069
  135OSM    H6S14635   5.896   3.871   7.252  0.9693 -1.4178  1.1574
  135OSM    H6T14636   5.913   3.696   7.234  1.2047  1.3546  0.4046
  135OSM    C7S14637   5.715   3.780   7.292 -0.5621 -0.3410 -0.6298
  135OSM    H7S14638   5.659   3.691   7.256  2.0867 -1.9493 -1.1247
  135OSM    H7T14639   5.656   3.870   7.269 -1.2115  0.2371  2.7798
  135OSM    C8S14640   5.732   3.774   7.444  0.3281  0.9227 -0.6833
  135OSM    H8S14641   5.776   3.674   7.466 -0.9525  0.5702  0.3561
  135OSM    H8T14642   5.631   3.781   7.490  1.2683 -1.8877  2.2092
  135OSM    C9S14643   5.835   3.870   7.495 -0.2535  0.2754 -0.2117
  135OSM    H9S14644   5.807   3.976   7.477 -0.5998  0.1116 -0.6384
  135OSM    H9T14645   5.938   3.858   7.455  0.1674 -0.1741  0.9716
  135OSM   C10S14646   5.847   3.854   7.649  0.2665 -0.3067 -0.7824
  135OSM   H10S14647   5.881   3.752   7.677 -1.9979 -1.0492 -0.5972
  135OSM   H10T14648   5.745   3.860   7.692  0.9104  0.1099  0.7439
  135OSM   C11S14649   5.952   3.945   7.715  0.1768  0.0780 -0.1066
  135OSM   H11S14650   5.942   4.042   7.661 -0.1438 -0.5483 -1.1969
  135OSM   H11T14651   6.045   3.907   7.668 -1.2726 -2.4167 -1.1990
  135OSM   C12S14652   5.943   3.959   7.861 -0.2322  0.8158 -0.4629
  135OSM   H12S14653   5.935   3.864   7.917 -1.1268  1.2727  0.2186
  135OSM   H12T14654   5.845   4.007   7.883 -1.9687 -2.0532 -1.2598
  135OSM   C13S14655   6.065   4.031   7.916 -0.4314  0.0728  0.0796
  135OSM   H13S14656   6.080   4.126   7.859 -0.4808  0.3714  0.5599
  135OSM   H13T14657   6.156   3.972   7.890 -0.0670 -1.7335  4.6044
  135OSM   C14S14658   6.074   4.049   8.067  0.3099  0.3028 -0.7673
  135OSM   H14S14659   6.180   4.065   8.095  0.3441 -3.0945  1.6842
  135OSM   H14T14660   6.043   3.950   8.107 -1.1384 -0.1505 -2.8252
  135OSM   C15S14661   5.980   4.160   8.118  0.5792  0.2749  0.4242
  135OSM   H15S14662   5.878   4.120   8.103 -0.2936  2.6377 -0.4116
  135OSM   H15T14663   6.000   4.238   8.042  3.2418 -2.1975 -1.6345
  135OSM   C16S14664   5.998   4.213   8.259 -0.2490 -0.3890  0.4737
  135OSM   H16S14665   6.104   4.245   8.272 -0.1933  0.0276 -0.8358
  135OSM   H16T14666   5.986   4.135   8.337  2.0475 -0.9628  0.3262
  135OSM   C17S14667   5.892   4.311   8.302 -1.0524 -0.0100 -0.1972
  135OSM   H17S14668   5.789   4.281   8.276 -0.8676 -0.2957 -0.6107
  135OSM   H17T14669   5.908   4.402   8.239 -0.7525 -0.9640 -1.5348
  135OSM   C18S14670   5.907   4.346   8.451 -0.2507  0.7892  0.4209
  135OSM   H18S14671   5.848   4.437   8.472  2.7323  3.0009 -0.1354
  135OSM   H18T14672   6.015   4.358   8.475  0.1151 -0.2157 -0.5977
  135OSM   H18U14673   5.855   4.267   8.510 -0.9103  2.2686  1.8779
  135OSM    C1F14674   5.557   4.194   6.922  0.6850  0.7618  0.1030
  135OSM     OF14675   5.439   4.177   6.891 -0.2138  0.0685  0.4640
  135OSM    C2F14676   5.607   4.330   6.967 -0.3179  0.1512  0.2786
  135OSM    H2F14677   5.654   4.382   6.880 -0.1617  1.8472  1.3194
  135OSM    H2G14678   5.697   4.308   7.029 -0.2035  0.7960  0.3538
  135OSM    C3F14679   5.512   4.430   7.029  0.0056  0.3873  0.0519
  135OSM    H3F14680   5.443   4.387   7.104 -0.6081  1.0882 -0.0917
  135OSM    H3G14681   5.435   4.450   6.952 -1.3737 -3.2815  0.3123
  135OSM    C4F14682   5.570   4.561   7.084  0.0498 -0.6675  0.1228
  135OSM    H4F14683   5.489   4.630   7.118  1.3589  1.1382 -0.2730
  135OSM    H4G14684   5.628   4.602   6.998 -1.2126  0.4548 -0.2248
  135OSM    C5F14685   5.669   4.540   7.200  0.3812  0.2312 -0.1913
  135OSM    H5F14686   5.702   4.642   7.231  1.8437 -0.0900 -0.6160
  135OSM    H5G14687   5.760   4.483   7.173  0.0869 -0.6543  0.6272
  135OSM    C6F14688   5.601   4.478   7.320  0.1465 -0.8775 -0.0148
  135OSM    H6F14689   5.518   4.414   7.283  1.0814 -0.9216 -2.2035
  135OSM    H6G14690   5.556   4.559   7.382  0.9134  1.0722 -1.8611
  135OSM    C7F14691   5.695   4.402   7.415  0.1979  0.2475 -1.3025
  135OSM    H7F14692   5.779   4.468   7.445 -0.0984  0.6809 -1.4205
  135OSM    H7G14693   5.733   4.312   7.361 -0.6405 -0.0601 -1.4019
  135OSM    C8F14694   5.610   4.359   7.538  0.7099 -0.0252  0.8296
  135OSM    H8F14695   5.523   4.298   7.504 -1.1560  1.9942  1.7427
  135OSM    H8G14696   5.563   4.448   7.585  2.6828  0.7202  1.4852
  135OSM    C9F14697   5.692   4.283   7.623 -0.8217  0.7336  0.6944
  135OSM    H9F14698   5.719   4.187   7.578  0.4420  0.7222  1.4408
  135OSM   C10F14699   5.746   4.305   7.741 -0.0524  0.1946 -0.1731
  135OSM   H10F14700   5.817   4.230   7.778 -0.4855 -1.0202 -1.6907
  135OSM   C11F14701   5.740   4.433   7.818  0.3206  0.0401 -1.0121
  135OSM   H11F14702   5.643   4.484   7.798  0.1716  0.4039  0.5130
  135OSM   H11G14703   5.831   4.489   7.791  1.0293 -0.4412  0.2902
  135OSM   C12F14704   5.752   4.420   7.968 -0.6098  0.0202 -0.3558
  135OSM   H12F14705   5.856   4.400   8.001 -1.1336 -0.5773  1.0238
  135OSM   H12G14706   5.700   4.327   8.002 -0.6137 -0.4007 -1.4610
  135OSM   C13F14707   5.681   4.530   8.051 -0.4231 -0.1555 -0.3219
  135OSM   H13F14708   5.675   4.485   8.152  1.6668 -2.9439 -1.3102
  135OSM   H13G14709   5.578   4.542   8.010 -0.2428  1.6110 -0.3321
  135OSM   C14F14710   5.762   4.665   8.067 -0.0569  0.0927 -0.3825
  135OSM   H14F14711   5.776   4.695   7.961 -3.5421 -0.9335 -1.2854
  135OSM   H14G14712   5.854   4.649   8.127 -0.8720  0.8029  1.1034
  135OSM   C15F14713   5.679   4.780   8.137  0.5088 -0.5473  0.3189
  135OSM   H15F14714   5.587   4.787   8.074  1.8389  2.6346 -1.5034
  135OSM   H15G14715   5.730   4.877   8.123 -1.2345  0.2290 -1.1702
  135OSM   C16F14716   5.650   4.744   8.288  0.3383 -0.0096  0.7429
  135OSM   H16F14717   5.610   4.641   8.298  1.2930 -0.3872  0.8055
  135OSM   H16G14718   5.572   4.819   8.313 -0.8922 -0.1820 -2.1526
  135OSM   C17F14719   5.773   4.769   8.366 -0.5048 -0.1129  0.1717
  135OSM   H17F14720   5.805   4.874   8.348 -0.3255 -0.4330 -1.4934
  135OSM   H17G14721   5.853   4.696   8.342 -0.2694 -0.4507  1.8752
  135OSM   C18F14722   5.749   4.738   8.517  0.2273 -1.0223 -0.0401
  135OSM   H18F14723   5.684   4.821   8.551  1.4730 -0.0040 -0.0994
  135OSM   H18G14724   5.847   4.732   8.570  0.0422  2.4929  0.9171
  135OSM   H18H14725   5.689   4.645   8.526  0.3493 -1.1345 -0.3927
  136OSM      N14726   3.934   5.410   6.222  0.2423 -0.1063  0.1292
  136OSM    C1514727   3.896   5.502   6.106 -0.4516 -0.0664  0.4592
  136OSM   H15A14728   3.832   5.456   6.032  0.4832  0.2002 -0.5468
  136OSM   H15B14729   3.985   5.532   6.053 -1.8270  2.0485 -0.7829
  136OSM   H15C14730   3.836   5.584   6.143  0.7069  0.6996  0.6745
  136OSM    C1414731   3.992   5.283   6.175  0.1600 -0.1607 -0.2764
  136OSM   H14A14732   4.090   5.301   6.133  0.0443 -2.1951 -1.5710
  136OSM   H14B14733   3.932   5.225   6.106  0.2471 -0.0187 -0.4722
  136OSM   H14C14734   3.997   5.218   6.261 -0.8379  2.0548  1.5558
  136OSM    C1314735   4.041   5.464   6.313  0.4519 -0.0464 -0.4876
  136OSM   H13A14736   4.057   5.379   6.377  2.6811 -0.3292 -1.3446
  136OSM   H13B14737   4.003   5.547   6.371  1.0469  0.2059 -0.4522
  136OSM   H13C14738   4.122   5.507   6.257 -0.3390 -0.5413 -2.0771
  136OSM    C1214739   3.813   5.393   6.315  0.1355  0.7487  0.4251
  136OSM   H12A14740   3.736   5.347   6.254  3.1260  0.6638 -3.6703
  136OSM   H12B14741   3.773   5.490   6.343 -1.9756  0.2834 -0.7633
  136OSM    C1114742   3.825   5.305   6.442  0.1089  0.1869 -0.1169
  136OSM   H11A14743   3.738   5.288   6.509  0.2356 -0.9349 -0.2248
  136OSM   H11B14744   3.901   5.357   6.504  1.5263 -0.5720 -1.1693
  136OSM      P14745   3.782   5.059   6.384 -0.7054  0.3533  0.1213
  136OSM    O1314746   3.686   5.091   6.287  0.2564 -0.3658  0.2601
  136OSM    O1414747   3.869   4.939   6.362 -0.1915 -0.2469  0.7378
  136OSM    O1114748   3.709   5.043   6.521  0.4933 -0.3337  0.5059
  136OSM    O1214749   3.878   5.178   6.419  0.5010  0.1050  0.2950
  136OSM    C1S14750   3.772   5.034   6.647 -0.6342 -0.0256 -0.0708
  136OSM    H1S14751   3.810   5.132   6.681 -1.1071  1.0713 -2.5210
  136OSM    H1T14752   3.845   4.951   6.636  0.5425  1.0039 -0.0752
  136OSM     NF14753   3.741   4.950   6.876  0.5652  0.9323  0.1328
  136OSM    HNF14754   3.759   4.853   6.891 -3.4807  0.1536  0.9042
  136OSM    C2S14755   3.672   4.977   6.750 -0.1029 -0.1804 -0.7416
  136OSM    H2S14756   3.598   5.059   6.758  0.3809  0.2368 -0.4818
  136OSM    C3S14757   3.595   4.846   6.696 -0.5954  0.1496 -0.2580
  136OSM    H3S14758   3.672   4.773   6.664  0.0517  0.0238  1.5054
  136OSM     O314759   3.506   4.869   6.589 -0.0552 -0.1254  0.2254
  136OSM    HO314760   3.533   4.953   6.552 -2.3339 -0.2688 -2.0543
  136OSM    C4S14761   3.508   4.787   6.810 -0.3080  0.1411  0.0105
  136OSM    H4S14762   3.546   4.689   6.844  3.6740  1.7579  0.8189
  136OSM    C5S14763   3.401   4.842   6.868 -1.2100 -1.3652 -0.4639
  136OSM    H5S14764   3.358   4.937   6.832  0.4957 -0.9660 -1.5619
  136OSM    C6S14765   3.319   4.785   6.983 -0.2026  0.7707 -0.0357
  136OSM    H6S14766   3.340   4.681   7.019 -1.0107  0.4883 -0.3495
  136OSM    H6T14767   3.210   4.778   6.964 -0.3777  1.1934  0.7647
  136OSM    C7S14768   3.325   4.873   7.105  0.5362  0.3490 -1.1180
  136OSM    H7S14769   3.297   4.975   7.073  3.2657  1.3401 -0.5549
  136OSM    H7T14770   3.428   4.880   7.147 -1.0023  0.6794  3.1418
  136OSM    C8S14771   3.240   4.822   7.230  0.1825  0.3504 -0.1993
  136OSM    H8S14772   3.290   4.731   7.268  0.1671  0.7092  0.7075
  136OSM    H8T14773   3.137   4.795   7.197  0.9650 -0.0050 -2.5743
  136OSM    C9S14774   3.243   4.919   7.345 -0.3268  0.0924 -0.8039
  136OSM    H9S14775   3.191   5.010   7.309 -1.6224  0.0930  0.9587
  136OSM    H9T14776   3.349   4.950   7.358  0.7646 -3.7616  1.3067
  136OSM   C10S14777   3.182   4.847   7.470  0.6032  0.1952 -0.3352
  136OSM   H10S14778   3.096   4.785   7.436 -0.0703  0.5444  0.6986
  136OSM   H10T14779   3.138   4.927   7.534  0.9764  0.7759 -0.7901
  136OSM   C11S14780   3.273   4.750   7.552  0.2322  0.4776 -0.3448
  136OSM   H11S14781   3.296   4.675   7.473 -2.2290  2.0312 -2.7049
  136OSM   H11T14782   3.204   4.697   7.621  2.4694  0.2500  1.8537
  136OSM   C12S14783   3.380   4.821   7.631 -0.2546 -0.2720  0.1131
  136OSM   H12S14784   3.339   4.882   7.715 -0.2928  1.1968 -0.9218
  136OSM   H12T14785   3.430   4.899   7.569  0.4096 -0.2184  0.7069
  136OSM   C13S14786   3.483   4.717   7.680 -0.2222 -1.4921  0.5204
  136OSM   H13S14787   3.576   4.772   7.705 -0.5203 -0.9856  0.5351
  136OSM   H13T14788   3.506   4.633   7.611 -1.3102 -2.2491  1.0502
  136OSM   C14S14789   3.431   4.640   7.807  0.3427  0.2301  0.5627
  136OSM   H14S14790   3.353   4.566   7.781  0.5680 -0.5383  1.9701
  136OSM   H14T14791   3.376   4.701   7.881 -0.7486  0.4790 -0.4297
  136OSM   C15S14792   3.543   4.561   7.886  0.1280  0.1661  0.6827
  136OSM   H15S14793   3.588   4.637   7.953  2.0287 -0.0454 -0.2725
  136OSM   H15T14794   3.625   4.542   7.813  0.1509  3.1055 -0.1839
  136OSM   C16S14795   3.492   4.439   7.957  0.0977  0.4084 -0.3225
  136OSM   H16S14796   3.452   4.365   7.885  0.1368 -0.0661  0.1398
  136OSM   H16T14797   3.411   4.454   8.032  2.4208 -0.4338  2.5604
  136OSM   C17S14798   3.608   4.366   8.030  0.0217  0.2574 -0.7415
  136OSM   H17S14799   3.655   4.436   8.103 -0.0845  1.8402 -2.1151
  136OSM   H17T14800   3.685   4.344   7.953 -1.2015 -0.6377 -1.7548
  136OSM   C18S14801   3.573   4.242   8.116  0.0818 -0.4891  0.2388
  136OSM   H18S14802   3.544   4.158   8.050  0.4077 -0.4224  0.0055
  136OSM   H18T14803   3.482   4.256   8.178 -0.3027 -1.9706  0.0493
  136OSM   H18U14804   3.653   4.199   8.179  1.4369 -0.9887 -1.7195
  136OSM    C1F14805   3.774   5.050   6.956 -0.1002 -0.1653  1.2723
  136OSM     OF14806   3.737   5.166   6.938  0.6310  0.1777  0.2263
  136OSM    C2F14807   3.845   5.012   7.078 -0.8266  0.5508 -0.4809
  136OSM    H2F14808   3.950   5.042   7.058 -0.5040 -0.7956 -0.9449
  136OSM    H2G14809   3.845   4.900   7.077 -0.7213  0.5089 -3.1356
  136OSM    C3F14810   3.802   5.084   7.207 -0.3084  0.0638  0.2577
  136OSM    H3F14811   3.694   5.109   7.217 -0.2649 -0.0688  1.1724
  136OSM    H3G14812   3.846   5.186   7.209 -1.8223  0.7779 -0.4994
  136OSM    C4F14813   3.839   5.006   7.334  0.5486 -0.1087  0.2773
  136OSM    H4F14814   3.949   4.993   7.333  0.7463  0.8798 -2.5862
  136OSM    H4G14815   3.798   4.903   7.330 -1.9977  0.8339 -3.6776
  136OSM    C5F14816   3.789   5.065   7.463 -0.5226  0.8441  0.4940
  136OSM    H5F14817   3.679   5.082   7.468 -0.6803 -0.4350  2.4739
  136OSM    H5G14818   3.829   5.166   7.487 -0.1874  0.6380  0.8117
  136OSM    C6F14819   3.823   4.977   7.587  0.3245 -0.7572  1.0645
  136OSM    H6F14820   3.930   4.949   7.592 -0.3183 -3.1308  3.3911
  136OSM    H6G14821   3.772   4.880   7.568 -0.7277 -0.0612  0.1510
  136OSM    C7F14822   3.771   5.039   7.718 -0.0982  0.8154  0.4471
  136OSM    H7F14823   3.662   5.059   7.717 -0.3520 -0.4920 -0.8837
  136OSM    H7G14824   3.823   5.136   7.735  0.5086  0.8826 -1.5249
  136OSM    C8F14825   3.794   4.959   7.846  0.1440  0.2415 -0.4427
  136OSM    H8F14826   3.900   4.925   7.846  0.1044  0.1192 -0.6375
  136OSM    H8G14827   3.731   4.868   7.850  1.1748 -0.5101 -0.7930
  136OSM    C9F14828   3.776   5.056   7.965  0.1244 -0.6512  0.1460
  136OSM    H9F14829   3.829   5.152   7.960  0.9535 -1.1114 -0.2393
  136OSM   C10F14830   3.699   5.039   8.071 -0.4323  0.2091 -0.1942
  136OSM   H10F14831   3.698   5.113   8.153  0.8041 -0.2420  0.2502
  136OSM   C11F14832   3.621   4.916   8.096  0.3076 -0.1563 -0.2809
  136OSM   H11F14833   3.678   4.831   8.052 -0.7898 -0.9958 -0.1408
  136OSM   H11G14834   3.528   4.927   8.036  0.6734 -0.1403 -0.8530
  136OSM   C12F14835   3.595   4.871   8.244 -0.6557  0.5014  0.4541
  136OSM   H12F14836   3.519   4.791   8.257  0.5786 -0.6484  0.8413
  136OSM   H12G14837   3.562   4.955   8.309 -2.9492 -0.2946  0.4201
  136OSM   C13F14838   3.719   4.803   8.302 -0.2396  0.6132  0.0009
  136OSM   H13F14839   3.793   4.878   8.337  1.6252 -0.5185 -1.3608
  136OSM   H13G14840   3.765   4.746   8.219 -2.2790 -1.8323  0.3844
  136OSM   C14F14841   3.692   4.699   8.415 -0.3011  0.8708 -0.9131
  136OSM   H14F14842   3.608   4.740   8.475 -1.1406  0.5306 -1.8338
  136OSM   H14G14843   3.787   4.681   8.470 -0.6405 -0.9156 -0.8411
  136OSM   C15F14844   3.646   4.565   8.351 -0.2153  0.2510  0.8818
  136OSM   H15F14845   3.729   4.540   8.281 -0.8701  1.7759 -0.5020
  136OSM   H15G14846   3.557   4.577   8.286  0.6007 -0.2972 -0.3647
  136OSM   C16F14847   3.616   4.451   8.448  0.4417 -0.1102  0.1142
  136OSM   H16F14848   3.588   4.366   8.382  1.8092  0.5979 -1.4250
  136OSM   H16G14849   3.534   4.482   8.518  0.3935 -0.0408  0.0272
  136OSM   C17F14850   3.732   4.413   8.540  0.5727  0.2218  0.4566
  136OSM   H17F14851   3.735   4.495   8.615 -2.4070 -0.5002  1.4710
  136OSM   H17G14852   3.827   4.403   8.482  0.1352  4.7616 -1.4221
  136OSM   C18F14853   3.707   4.283   8.617 -0.2761  0.2943  0.7264
  136OSM   H18F14854   3.695   4.202   8.542 -0.7532  2.6748 -1.9231
  136OSM   H18G14855   3.617   4.299   8.681 -0.2171 -0.3464  0.9775
  136OSM   H18H14856   3.793   4.248   8.678  0.5884 -0.8527 -1.0569
  137OSM      N14857   4.746   3.000   6.133 -0.1199  0.7642 -0.1843
  137OSM    C1514858   4.762   2.946   5.995 -0.5783  0.2237  0.6292
  137OSM   H15A14859   4.684   2.972   5.925  0.1938 -0.4556 -0.5207
  137OSM   H15B14860   4.776   2.839   6.001 -1.8988 -0.0122 -0.0377
  137OSM   H15C14861   4.855   2.978   5.950 -1.0465  0.0466 -0.5151
  137OSM    C1414862   4.618   2.946   6.197 -0.1133 -0.0726  0.2475
  137OSM   H14A14863   4.607   2.839   6.194  0.8658 -0.2124  0.9942
  137OSM   H14B14864   4.533   2.996   6.153  2.3406  0.7074 -4.1984
  137OSM   H14C14865   4.616   2.963   6.304 -1.2165  3.5190 -0.2158
  137OSM    C1314866   4.857   2.938   6.209 -0.5033 -0.3594 -0.3787
  137OSM   H13A14867   4.840   2.831   6.206 -0.1479 -0.4554  0.7987
  137OSM   H13B14868   4.853   2.980   6.308 -2.4035  2.8915 -1.6731
  137OSM   H13C14869   4.953   2.955   6.163 -0.4019  0.3125  0.0770
  137OSM    C1214870   4.752   3.144   6.123  0.4384 -0.0294  0.9036
  137OSM   H12A14871   4.690   3.170   6.038  2.0609 -3.8386 -1.6993
  137OSM   H12B14872   4.854   3.165   6.095  0.9836  0.5286  3.1170
  137OSM    C1114873   4.708   3.227   6.245 -0.7028 -0.1494 -0.0987
  137OSM   H11A14874   4.601   3.209   6.270 -1.2337 -0.4301 -2.3284
  137OSM   H11B14875   4.710   3.334   6.217  0.7897  0.0004  0.4961
  137OSM      P14876   4.759   3.159   6.500 -0.1331 -0.3929  0.1431
  137OSM    O1314877   4.733   3.018   6.495 -0.2757  0.0307 -0.0910
  137OSM    O1414878   4.866   3.199   6.595  0.6134  0.2768 -0.1788
  137OSM    O1114879   4.627   3.239   6.530 -0.2598 -0.4701 -0.5726
  137OSM    O1214880   4.802   3.211   6.354 -0.5626 -0.0498 -0.3639
  137OSM    C1S14881   4.536   3.191   6.642  0.2070 -0.1486 -0.2407
  137OSM    H1S14882   4.514   3.082   6.631  1.1417 -0.1236 -3.7529
  137OSM    H1T14883   4.432   3.225   6.621  0.2681  0.3009  0.1748
  137OSM     NF14884   4.467   3.166   6.873  0.1120  0.5962 -0.2772
  137OSM    HNF14885   4.397   3.218   6.922 -1.4772 -2.8299  1.4673
  137OSM    C2S14886   4.571   3.227   6.793  0.2365  0.1554  0.1753
  137OSM    H2S14887   4.666   3.176   6.816  0.1425 -1.5423 -2.7898
  137OSM    C3S14888   4.582   3.380   6.807  0.3332  0.0405 -0.6469
  137OSM    H3S14889   4.487   3.425   6.772 -0.2614 -1.8123 -1.5296
  137OSM     O314890   4.687   3.437   6.731 -0.8037 -0.1356 -0.0577
  137OSM    HO314891   4.719   3.360   6.684 -0.0519  0.1578 -0.0445
  137OSM    C4S14892   4.609   3.422   6.949  0.6424  0.7623 -0.3315
  137OSM    H4S14893   4.710   3.393   6.982  0.1734 -0.3045  0.2248
  137OSM    C5S14894   4.520   3.477   7.030 -0.4625 -0.3314  0.0831
  137OSM    H5S14895   4.421   3.489   6.985 -0.1337 -0.0702 -0.5877
  137OSM    C6S14896   4.557   3.520   7.168  0.5624 -0.4803 -0.0721
  137OSM    H6S14897   4.531   3.628   7.167 -1.6776 -0.8814  2.5536
  137OSM    H6T14898   4.663   3.506   7.197  0.5362  0.7762  0.7464
  137OSM    C7S14899   4.478   3.472   7.294  0.0801 -0.4499  0.0342
  137OSM    H7S14900   4.480   3.361   7.298 -0.3932 -0.5211 -1.3897
  137OSM    H7T14901   4.372   3.506   7.304 -0.2863 -2.0422  2.8147
  137OSM    C8S14902   4.556   3.523   7.420 -0.5223 -0.4650  0.2018
  137OSM    H8S14903   4.549   3.633   7.428 -1.1088 -0.6191  3.1598
  137OSM    H8T14904   4.664   3.497   7.412  0.1320  1.8434  0.8911
  137OSM    C9S14905   4.513   3.468   7.555 -0.0538 -0.1437 -0.6192
  137OSM    H9S14906   4.496   3.359   7.540  1.4957 -0.4839 -0.1932
  137OSM    H9T14907   4.420   3.520   7.584  0.9604  1.6360 -0.3703
  137OSM   C10S14908   4.620   3.484   7.670 -0.0187  0.5205  0.0692
  137OSM   H10S14909   4.649   3.591   7.673  0.3751  0.3963  1.4100
  137OSM   H10T14910   4.711   3.421   7.654  0.7855  1.7215 -0.2504
  137OSM   C11S14911   4.563   3.430   7.803  0.0771 -0.8766  0.3481
  137OSM   H11S14912   4.518   3.330   7.788 -0.0457 -0.7589 -0.0675
  137OSM   H11T14913   4.484   3.501   7.837  0.2522 -0.0960 -0.8271
  137OSM   C12S14914   4.670   3.416   7.917  0.8239  0.1276  0.3421
  137OSM   H12S14915   4.624   3.431   8.017 -0.8706  2.1820 -0.6551
  137OSM   H12T14916   4.746   3.496   7.907  0.5547  0.4255  0.6663
  137OSM   C13S14917   4.738   3.281   7.909 -0.5568 -0.2408 -0.0136
  137OSM   H13S14918   4.801   3.290   7.818  0.6720 -0.8240  0.7581
  137OSM   H13T14919   4.661   3.203   7.892 -1.0028 -0.0165  0.9123
  137OSM   C14S14920   4.820   3.242   8.034 -0.2623 -0.2131 -0.1135
  137OSM   H14S14921   4.865   3.144   8.009 -0.2032  0.1676 -1.6456
  137OSM   H14T14922   4.737   3.229   8.107 -2.7521  0.4572 -2.6179
  137OSM   C15S14923   4.918   3.340   8.100  0.4388  0.1472  0.4798
  137OSM   H15S14924   4.846   3.412   8.146 -0.9107 -1.5707  1.2116
  137OSM   H15T14925   4.998   3.382   8.036  0.8537 -0.9836  0.2466
  137OSM   C16S14926   4.986   3.283   8.222  0.1827  0.7796 -0.7407
  137OSM   H16S14927   4.917   3.209   8.269  1.6561 -0.5668 -0.6132
  137OSM   H16T14928   5.012   3.365   8.292  0.6068  0.8546 -0.9841
  137OSM   C17S14929   5.123   3.211   8.193 -0.5303  0.5224  0.3977
  137OSM   H17S14930   5.210   3.273   8.162  1.6504 -1.4172  2.2557
  137OSM   H17T14931   5.107   3.154   8.099  1.2868  0.3590  0.1388
  137OSM   C18S14932   5.174   3.127   8.306 -0.1779 -0.2659 -0.3245
  137OSM   H18S14933   5.156   3.179   8.403  1.4381  2.5430 -1.4270
  137OSM   H18T14934   5.285   3.123   8.300 -0.0549  2.3885 -1.0000
  137OSM   H18U14935   5.132   3.025   8.293 -2.4840  0.7118 -1.0083
  137OSM    C1F14936   4.470   3.039   6.902  0.6551  0.0141 -0.3939
  137OSM     OF14937   4.534   2.956   6.852 -0.1026 -0.2959 -0.1477
  137OSM    C2F14938   4.376   3.002   7.014  0.1968  0.1894 -0.3137
  137OSM    H2F14939   4.281   2.966   6.969 -0.3995 -0.1578  1.1808
  137OSM    H2G14940   4.349   3.092   7.074  1.4173 -0.3965  1.1661
  137OSM    C3F14941   4.431   2.902   7.111 -0.1409  0.1607 -0.3036
  137OSM    H3F14942   4.530   2.930   7.152 -0.3001  1.0191 -0.4858
  137OSM    H3G14943   4.439   2.807   7.054 -0.0384  0.1546 -0.2798
  137OSM    C4F14944   4.339   2.877   7.234 -0.2100 -0.2652 -0.7008
  137OSM    H4F14945   4.355   2.782   7.289 -1.6922 -0.8903 -1.2829
  137OSM    H4G14946   4.232   2.876   7.203 -0.0597 -2.2430 -1.2811
  137OSM    C5F14947   4.354   2.995   7.330  0.0154  0.4769 -0.0117
  137OSM    H5F14948   4.345   3.089   7.272  0.4580 -0.0708 -0.9761
  137OSM    H5G14949   4.457   2.983   7.371 -0.4993  0.5533  1.3821
  137OSM    C6F14950   4.255   2.986   7.447 -0.6710 -0.2024  0.6700
  137OSM    H6F14951   4.263   2.888   7.499 -0.6797  0.2683  1.5735
  137OSM    H6G14952   4.156   2.997   7.400 -0.6891 -1.8961  0.2463
  137OSM    C7F14953   4.284   3.079   7.570 -0.5919  0.0615  0.4479
  137OSM    H7F14954   4.304   3.182   7.533  1.8412 -0.4661  0.0917
  137OSM    H7G14955   4.384   3.059   7.613 -1.1675  1.7123  2.7147
  137OSM    C8F14956   4.184   3.063   7.688 -0.1651 -0.2114 -0.0784
  137OSM    H8F14957   4.165   2.955   7.710  0.1419 -0.5538 -1.3678
  137OSM    H8G14958   4.089   3.104   7.649  0.5496 -0.6723 -2.4774
  137OSM    C9F14959   4.211   3.156   7.792  0.7397 -0.2341  0.1923
  137OSM    H9F14960   4.152   3.249   7.783  0.2469 -0.6825 -1.4347
  137OSM   C10F14961   4.296   3.134   7.900  0.7187  0.2800  0.0923
  137OSM   H10F14962   4.309   3.219   7.968  0.1276 -0.5963  1.3525
  137OSM   C11F14963   4.382   3.015   7.930 -0.2063 -0.2481 -0.0779
  137OSM   H11F14964   4.481   3.063   7.949 -1.6149  2.5865  0.6613
  137OSM   H11G14965   4.401   2.951   7.842  1.3326  0.0008  0.0316
  137OSM   C12F14966   4.322   2.918   8.033 -0.5126 -0.3554  0.0094
  137OSM   H12F14967   4.398   2.836   8.033 -0.3124 -0.2135 -1.9999
  137OSM   H12G14968   4.223   2.889   7.994 -0.0193 -0.5272 -1.1481
  137OSM   C13F14969   4.318   2.966   8.179 -0.7052 -0.2796 -0.4523
  137OSM   H13F14970   4.265   3.063   8.182 -1.3809 -0.6608  0.4547
  137OSM   H13G14971   4.420   2.992   8.212 -0.8679  0.1097 -0.2493
  137OSM   C14F14972   4.257   2.866   8.275 -1.4783  0.1237  0.4762
  137OSM   H14F14973   4.331   2.784   8.289 -1.8589 -0.1716  0.7421
  137OSM   H14G14974   4.162   2.828   8.234 -1.4200  1.3153 -0.8438
  137OSM   C15F14975   4.232   2.933   8.407  0.0292  0.0890 -0.4221
  137OSM   H15F14976   4.185   3.033   8.396  1.2086  0.8009  0.7456
  137OSM   H15G14977   4.331   2.959   8.451 -0.0859 -0.3151  0.0953
  137OSM   C16F14978   4.154   2.841   8.508  0.1686 -0.2178  0.0099
  137OSM   H16F14979   4.206   2.746   8.485  1.8223  0.7087 -0.3048
  137OSM   H16G14980   4.055   2.801   8.477  1.6375 -3.8521 -0.4896
  137OSM   C17F14981   4.167   2.864   8.657 -0.3304  0.5400  0.3887
  137OSM   H17F14982   4.111   2.953   8.693 -0.5988  0.5636 -0.0769
  137OSM   H17G14983   4.274   2.875   8.683 -0.6614 -1.1896  2.8341
  137OSM   C18F14984   4.112   2.753   8.740 -0.1837 -0.4909 -0.8758
  137OSM   H18F14985   4.165   2.657   8.725 -0.2965 -0.5128 -1.1388
  137OSM   H18G14986   4.002   2.746   8.727 -1.0829  2.7212  2.8656
  137OSM   H18H14987   4.119   2.776   8.849 -0.6386 -1.5925 -0.6009
  138OSM      N14988   6.595   4.170   5.884 -0.0510  0.6941 -0.5829
  138OSM    C1514989   6.528   4.292   5.843 -0.1583  1.0482 -0.0893
  138OSM   H15A14990   6.594   4.359   5.789 -0.9237  1.1136 -0.9825
  138OSM   H15B14991   6.503   4.343   5.934  1.1924 -1.5830  1.8718
  138OSM   H15C14992   6.433   4.279   5.793  0.2853 -0.5370 -0.5584
  138OSM    C1414993   6.488   4.072   5.937 -0.5862  0.3152 -0.2032
  138OSM   H14A14994   6.400   4.074   5.875 -1.9786 -4.1113  1.2166
  138OSM   H14B14995   6.446   4.099   6.032 -1.2576 -1.8036  0.1661
  138OSM   H14C14996   6.526   3.971   5.947 -0.6910  0.3445  0.5062
  138OSM    C1314997   6.667   4.117   5.760  0.3536  0.5461 -0.1407
  138OSM   H13A14998   6.723   4.192   5.706  0.2145  1.3523  0.8277
  138OSM   H13B14999   6.592   4.076   5.693 -1.2969 -1.2172  2.5611
  138OSM   H13C15000   6.736   4.038   5.788 -1.3830 -0.8804  0.3477
  138OSM    C1215001   6.693   4.198   5.993 -0.2774  0.0582  0.2374
  138OSM   H12A15002   6.764   4.269   5.952 -0.0810 -0.4279 -0.2801
  138OSM   H12B15003   6.748   4.106   5.996  1.2569  0.9484  0.3028
  138OSM    C1115004   6.653   4.249   6.131 -0.7695  0.3192 -0.2927
  138OSM   H11A15005   6.745   4.259   6.193 -0.5016  1.4400 -0.8413
  138OSM   H11B15006   6.601   4.178   6.199 -0.1934 -0.3731 -0.5531
  138OSM      P15007   6.644   4.504   6.085 -0.4432 -0.3448  0.1991
  138OSM    O1315008   6.771   4.473   6.010  0.7377  0.2764  0.8243
  138OSM    O1415009   6.554   4.597   6.007  0.0013 -0.2739 -0.5527
  138OSM    O1115010   6.684   4.555   6.227 -0.0472 -0.5131  0.0012
  138OSM    O1215011   6.574   4.370   6.118  0.7906  0.2216 -0.0411
  138OSM    C1S15012   6.592   4.546   6.340  0.5612  0.0042 -0.0448
  138OSM    H1S15013   6.601   4.440   6.374  0.7328  0.5919  1.8985
  138OSM    H1T15014   6.487   4.554   6.307 -0.4647  0.1197  2.9373
  138OSM     NF15015   6.552   4.588   6.578  0.1410  0.4346 -0.2362
  138OSM    HNF15016   6.469   4.638   6.599 -0.7360 -1.3408  0.7617
  138OSM    C2S15017   6.635   4.624   6.466  0.0266 -0.4729 -0.4454
  138OSM    H2S15018   6.740   4.594   6.487 -0.1088 -1.0515 -0.5660
  138OSM    C3S15019   6.642   4.781   6.442  0.3190 -0.1212  0.2719
  138OSM    H3S15020   6.542   4.808   6.402 -0.7091 -3.0273  0.6245
  138OSM     O315021   6.731   4.818   6.339  0.5651  0.0755 -0.0080
  138OSM    HO315022   6.739   4.739   6.286  2.1123  0.2607 -0.1073
  138OSM    C4S15023   6.658   4.863   6.564  0.4144  0.1371 -0.2069
  138OSM    H4S15024   6.564   4.911   6.595  1.8757  3.9998 -1.1364
  138OSM    C5S15025   6.774   4.882   6.632 -1.1057 -0.1033  0.1827
  138OSM    H5S15026   6.872   4.851   6.595  0.1319  0.4074  2.8079
  138OSM    C6S15027   6.786   4.969   6.757  1.5432 -0.1722  0.4299
  138OSM    H6S15028   6.694   5.029   6.774  2.0005  0.6387  0.0911
  138OSM    H6T15029   6.862   5.046   6.732  2.1365 -1.1756 -0.9195
  138OSM    C7S15030   6.822   4.898   6.891  0.0313 -0.4703  0.3854
  138OSM    H7S15031   6.920   4.850   6.869  0.5834  0.5148  0.6155
  138OSM    H7T15032   6.748   4.816   6.906 -1.1029  0.3921 -0.3772
  138OSM    C8S15033   6.842   4.995   7.004 -0.0864 -0.7431  0.6924
  138OSM    H8S15034   6.750   5.055   7.019 -0.8464 -1.0249 -2.2406
  138OSM    H8T15035   6.929   5.064   6.996 -1.5480  1.2028  0.8263
  138OSM    C9S15036   6.858   4.927   7.143 -0.0406 -0.2683 -0.3613
  138OSM    H9S15037   6.949   4.863   7.138 -0.3234 -0.6374 -0.8781
  138OSM    H9T15038   6.776   4.853   7.154  0.4244 -1.1345 -2.1991
  138OSM   C10S15039   6.854   5.022   7.268  0.4820 -0.3306  0.6799
  138OSM   H10S15040   6.748   5.055   7.280  0.8749  1.0621  0.4445
  138OSM   H10T15041   6.914   5.115   7.260 -2.0040  1.3732  0.6383
  138OSM   C11S15042   6.876   4.949   7.403 -0.1333  0.3747 -0.9220
  138OSM   H11S15043   6.984   4.925   7.391 -0.1431  0.2195 -0.7115
  138OSM   H11T15044   6.819   4.855   7.420 -0.2539  0.6150  0.0523
  138OSM   C12S15045   6.845   5.050   7.526 -0.0413  0.4893  0.0832
  138OSM   H12S15046   6.737   5.073   7.539  0.0917  0.4684  1.3689
  138OSM   H12T15047   6.901   5.145   7.518  2.6303 -0.5699  3.7763
  138OSM   C13S15048   6.895   4.981   7.657 -0.1030 -0.5996 -0.8797
  138OSM   H13S15049   6.997   4.940   7.638  0.2899 -0.2788  0.3958
  138OSM   H13T15050   6.826   4.897   7.680  0.4497 -1.2785 -1.6481
  138OSM   C14S15051   6.899   5.072   7.780 -0.3415  0.3291 -0.1848
  138OSM   H14S15052   6.797   5.113   7.797 -0.4494  0.6542 -1.5008
  138OSM   H14T15053   6.958   5.162   7.756  0.5032  0.3174  1.6994
  138OSM   C15S15054   6.960   4.993   7.904 -0.1992  0.0317  0.5840
  138OSM   H15S15055   6.921   4.889   7.908 -0.0637  0.0141  1.6601
  138OSM   H15T15056   6.934   5.045   7.999 -0.3864  0.3397  0.3669
  138OSM   C16S15057   7.111   4.987   7.918  0.5860 -0.2772 -0.1180
  138OSM   H16S15058   7.152   5.085   7.886 -0.2553 -0.5165 -2.0721
  138OSM   H16T15059   7.149   4.907   7.850  2.4785 -1.6911  2.4140
  138OSM   C17S15060   7.164   4.951   8.061 -0.2018  0.0684 -0.0716
  138OSM   H17S15061   7.149   5.042   8.124  0.4342  0.1617 -0.0485
  138OSM   H17T15062   7.274   4.955   8.046 -0.1873  1.8297  0.2253
  138OSM   C18S15063   7.120   4.814   8.121  0.0426 -0.2895  0.6453
  138OSM   H18S15064   7.190   4.783   8.201 -1.1633 -1.7631  1.1787
  138OSM   H18T15065   7.115   4.736   8.042 -1.5498 -1.7571  2.0897
  138OSM   H18U15066   7.017   4.813   8.164 -1.0702 -3.9769 -1.6349
  138OSM    C1F15067   6.565   4.471   6.647  0.0153 -0.2894  0.0486
  138OSM     OF15068   6.642   4.379   6.616 -0.1591 -0.9645 -0.3010
  138OSM    C2F15069   6.463   4.453   6.750  0.6820 -0.1081  0.0135
  138OSM    H2F15070   6.445   4.346   6.775  2.4364 -1.4759 -3.7380
  138OSM    H2G15071   6.364   4.486   6.714  0.3709  0.6463  1.4751
  138OSM    C3F15072   6.509   4.522   6.881 -0.0401 -0.6309 -0.3397
  138OSM    H3F15073   6.527   4.630   6.859  0.0835  0.4948  4.2786
  138OSM    H3G15074   6.608   4.483   6.911  0.2233 -0.1114 -0.5248
  138OSM    C4F15075   6.414   4.534   7.002  0.2098  0.4732  0.1282
  138OSM    H4F15076   6.375   4.438   7.041  1.5653 -0.6678 -1.2157
  138OSM    H4G15077   6.322   4.584   6.965  0.1329  0.4604  0.2993
  138OSM    C5F15078   6.462   4.604   7.135 -0.0662 -0.0420  0.1516
  138OSM    H5F15079   6.383   4.605   7.213  2.3629 -2.5047  2.9010
  138OSM    H5G15080   6.508   4.702   7.110  1.4130 -0.2769  1.7196
  138OSM    C6F15081   6.586   4.533   7.202  0.0058 -0.3696 -0.1429
  138OSM    H6F15082   6.670   4.530   7.130 -0.1573  1.3253 -0.4467
  138OSM    H6G15083   6.559   4.431   7.238  1.1139  0.5073  3.6174
  138OSM    C7F15084   6.626   4.603   7.339  0.1265  0.2383 -0.3432
  138OSM    H7F15085   6.625   4.714   7.330 -1.2155  0.2505 -0.2314
  138OSM    H7G15086   6.730   4.567   7.356 -0.7257 -2.6617 -0.6957
  138OSM    C8F15087   6.528   4.558   7.453 -0.0172  0.0988 -0.6625
  138OSM    H8F15088   6.530   4.448   7.439 -1.1075 -0.6900  3.8637
  138OSM    H8G15089   6.427   4.596   7.429 -0.2769 -0.8599 -1.1526
  138OSM    C9F15090   6.576   4.585   7.587 -0.4685  0.2633 -1.4177
  138OSM    H9F15091   6.631   4.508   7.642  2.0853  1.9916 -1.3626
  138OSM   C10F15092   6.556   4.699   7.656 -0.2292  0.3598  0.4751
  138OSM   H10F15093   6.608   4.706   7.753  0.1011 -1.2581  0.4441
  138OSM   C11F15094   6.467   4.816   7.615 -0.3197  0.1611  0.2158
  138OSM   H11F15095   6.378   4.791   7.553  1.4238 -1.0160 -1.9540
  138OSM   H11G15096   6.533   4.894   7.573  0.2366  0.6011  1.8506
  138OSM   C12F15097   6.404   4.868   7.750 -1.1305  0.7164 -0.6002
  138OSM   H12F15098   6.382   4.776   7.808  1.6824 -0.2167 -0.8747
  138OSM   H12G15099   6.311   4.927   7.733 -1.0847  1.1750  0.6480
  138OSM   C13F15100   6.501   4.961   7.825 -0.1237  0.2272 -0.4959
  138OSM   H13F15101   6.497   5.060   7.775  0.8998  0.3486 -0.3559
  138OSM   H13G15102   6.601   4.912   7.827 -0.0366  0.3931  1.3346
  138OSM   C14F15103   6.456   4.985   7.971 -0.2124 -0.2269  0.3391
  138OSM   H14F15104   6.350   4.955   7.982 -0.4503  0.9863  1.6466
  138OSM   H14G15105   6.465   5.096   7.974  2.0035 -0.2488 -1.9612
  138OSM   C15F15106   6.543   4.928   8.077  0.2018  0.2190 -0.1108
  138OSM   H15F15107   6.521   4.963   8.180  0.0711  0.6788 -0.2963
  138OSM   H15G15108   6.642   4.970   8.048  0.9641  0.5340  2.6365
  138OSM   C16F15109   6.549   4.778   8.076  1.3585 -0.3359  0.1830
  138OSM   H16F15110   6.551   4.735   7.973  0.6170  3.0920 -1.4152
  138OSM   H16G15111   6.463   4.750   8.139  0.6167  2.5996  0.6238
  138OSM   C17F15112   6.684   4.722   8.136  0.1968  0.9401  0.4301
  138OSM   H17F15113   6.697   4.753   8.242  1.7401 -1.3311  0.9819
  138OSM   H17G15114   6.773   4.762   8.083 -0.0477  1.4351  0.3841
  138OSM   C18F15115   6.661   4.571   8.120 -0.2695  0.2268 -0.4282
  138OSM   H18F15116   6.757   4.519   8.139 -0.7690 -0.3535  0.6434
  138OSM   H18G15117   6.630   4.534   8.020  1.0524 -1.2985 -0.3094
  138OSM   H18H15118   6.596   4.536   8.204 -0.9140 -0.7724 -1.3141
  139OSM      N15119   4.942   6.202   6.242 -0.2918  0.1235 -0.0680
  139OSM    C1515120   5.029   6.084   6.274  0.2471 -0.3178 -0.1242
  139OSM   H15A15121   5.086   6.104   6.363  0.7301  1.7008 -0.8423
  139OSM   H15B15122   5.098   6.068   6.193  1.4924 -1.3404  1.1084
  139OSM   H15C15123   4.974   5.991   6.281  0.5470 -0.6259 -1.4978
  139OSM    C1415124   5.022   6.332   6.236  0.0706  0.2609 -0.0171
  139OSM   H14A15125   4.972   6.414   6.187 -0.0211  0.7711  0.9060
  139OSM   H14B15126   5.118   6.321   6.188  1.9416 -0.0072  3.4499
  139OSM   H14C15127   5.051   6.361   6.336 -0.3702  1.2949 -0.1776
  139OSM    C1315128   4.882   6.182   6.108  0.2176  0.2268  0.1569
  139OSM   H13A15129   4.957   6.157   6.034 -1.7613 -0.5859 -1.7037
  139OSM   H13B15130   4.841   6.276   6.076  3.3600  2.5751  2.4222
  139OSM   H13C15131   4.800   6.112   6.103  0.0514  0.3449  1.1065
  139OSM    C1215132   4.837   6.214   6.347  0.2285 -0.3693  0.5140
  139OSM   H12A15133   4.888   6.223   6.442  0.8966  0.5835  0.0842
  139OSM   H12B15134   4.774   6.126   6.351  0.8256 -1.0644 -2.5865
  139OSM    C1115135   4.742   6.330   6.346 -0.1850  0.0345 -0.6826
  139OSM   H11A15136   4.798   6.426   6.353  1.4065 -0.9482  0.6786
  139OSM   H11B15137   4.675   6.335   6.435  0.4284 -1.7231 -0.0845
  139OSM      P15138   4.537   6.238   6.216 -0.1269 -0.1282 -0.2893
  139OSM    O1315139   4.425   6.302   6.142 -0.3873 -0.5126  0.0826
  139OSM    O1415140   4.581   6.101   6.168 -0.2702 -0.3332 -0.0798
  139OSM    O1115141   4.487   6.219   6.367 -0.0438  0.1885  0.0808
  139OSM    O1215142   4.664   6.335   6.222 -0.7745  0.0616  0.0025
  139OSM    C1S15143   4.404   6.100   6.401 -0.6905 -0.6371 -0.2820
  139OSM    H1S15144   4.474   6.014   6.414 -1.5869 -0.8691  5.4297
  139OSM    H1T15145   4.316   6.088   6.335 -0.6067  1.9893 -0.9702
  139OSM     NF15146   4.283   5.986   6.585 -0.6155  0.2064 -0.4985
  139OSM    HNF15147   4.187   5.962   6.571  0.2842 -2.2641 -3.7172
  139OSM    C2S15148   4.336   6.113   6.543 -0.7782  0.1537  0.1337
  139OSM    H2S15149   4.412   6.146   6.616 -1.1418 -0.8398  0.9738
  139OSM    C3S15150   4.225   6.224   6.543 -0.6268 -0.0016  0.4342
  139OSM    H3S15151   4.141   6.182   6.483 -0.3510 -0.8712  0.6339
  139OSM     O315152   4.268   6.342   6.481  0.8478 -0.3550  0.1535
  139OSM    HO315153   4.357   6.325   6.448  0.2158 -0.4837 -1.6272
  139OSM    C4S15154   4.178   6.245   6.687  0.5950 -0.4485  0.1643
  139OSM    H4S15155   4.092   6.181   6.712 -0.2554 -0.3186 -2.2334
  139OSM    C5S15156   4.238   6.326   6.775  0.4035  0.3180 -0.3108
  139OSM    H5S15157   4.321   6.394   6.753 -1.4290  2.5301 -0.7408
  139OSM    C6S15158   4.188   6.347   6.915 -0.4816 -0.6948 -0.6323
  139OSM    H6S15159   4.191   6.457   6.926  0.6041 -0.7304 -0.3945
  139OSM    H6T15160   4.257   6.305   6.992 -0.4443 -0.4307 -0.5213
  139OSM    C7S15161   4.054   6.280   6.956 -0.3349  0.8071 -0.5030
  139OSM    H7S15162   3.983   6.289   6.870  0.1098 -0.3784 -1.0219
  139OSM    H7T15163   4.017   6.348   7.036  1.0078  0.2823  0.6008
  139OSM    C8S15164   4.048   6.126   7.004  0.2456  0.0837  0.3817
  139OSM    H8S15165   4.112   6.111   7.093 -0.6210 -0.6465  0.8972
  139OSM    H8T15166   4.085   6.060   6.923  1.4199  0.1245  0.8683
  139OSM    C9S15167   3.900   6.090   7.041 -0.6329  0.1276  0.4225
  139OSM    H9S15168   3.896   5.979   7.039 -1.7815  0.1419 -2.1236
  139OSM    H9T15169   3.831   6.118   6.959 -0.5784  2.3110  1.0818
  139OSM   C10S15170   3.859   6.156   7.172  0.1437 -0.0310 -0.0702
  139OSM   H10S15171   3.749   6.158   7.182  0.0231 -2.5825 -0.3502
  139OSM   H10T15172   3.894   6.262   7.173 -1.8190  0.7160 -1.6387
  139OSM   C11S15173   3.917   6.075   7.296 -0.4642  0.3933 -0.4994
  139OSM   H11S15174   4.028   6.078   7.300 -0.4792 -0.1895  0.9495
  139OSM   H11T15175   3.897   5.969   7.272  2.0714 -0.1606 -0.4145
  139OSM   C12S15176   3.841   6.110   7.420 -0.4237 -0.4781  0.1331
  139OSM   H12S15177   3.734   6.105   7.392 -0.9784  1.2846  1.7711
  139OSM   H12T15178   3.865   6.217   7.437  1.4694 -0.7427 -0.5833
  139OSM   C13S15179   3.867   6.027   7.553 -0.6267 -0.2125 -0.0531
  139OSM   H13S15180   3.974   6.010   7.575  0.0258 -0.9583 -3.2826
  139OSM   H13T15181   3.833   5.925   7.525  0.7590 -0.7308  0.1096
  139OSM   C14S15182   3.779   6.070   7.682  0.1102 -0.2099 -0.1178
  139OSM   H14S15183   3.673   6.091   7.655 -0.7972 -0.5527  2.7941
  139OSM   H14T15184   3.824   6.166   7.716 -1.5510 -0.3292  2.7251
  139OSM   C15S15185   3.797   5.983   7.806 -0.7567 -0.1666 -0.2989
  139OSM   H15S15186   3.898   6.001   7.848 -0.6802 -2.0722  0.4325
  139OSM   H15T15187   3.797   5.874   7.785  1.3505 -0.7485  2.2324
  139OSM   C16S15188   3.717   6.040   7.921 -0.1787 -0.3023  0.2389
  139OSM   H16S15189   3.609   6.038   7.897  0.2940 -0.8325 -2.0635
  139OSM   H16T15190   3.754   6.142   7.945 -0.0829 -0.2139 -0.2785
  139OSM   C17S15191   3.737   5.958   8.048  0.6789 -0.6668 -0.8244
  139OSM   H17S15192   3.841   5.950   8.085  0.2759  0.7128  0.7091
  139OSM   H17T15193   3.716   5.852   8.024 -0.6482  0.0150 -3.0194
  139OSM   C18S15194   3.647   6.003   8.169 -0.2332 -0.7821  0.2237
  139OSM   H18S15195   3.672   6.111   8.180  0.6522 -1.0022  0.4397
  139OSM   H18T15196   3.680   5.945   8.259  0.5570 -0.8391 -0.0932
  139OSM   H18U15197   3.537   5.996   8.162 -0.3644  1.9668 -2.5145
  139OSM    C1F15198   4.370   5.888   6.620  0.6347 -0.6937 -0.5194
  139OSM     OF15199   4.493   5.902   6.613  0.0170  0.0433 -0.4014
  139OSM    C2F15200   4.311   5.760   6.656  0.1336 -0.7140  0.3095
  139OSM    H2F15201   4.308   5.684   6.575  0.0337 -1.1007  0.6726
  139OSM    H2G15202   4.206   5.769   6.691  0.1699 -0.7427  0.4266
  139OSM    C3F15203   4.399   5.696   6.763 -0.2842  0.5107  0.1735
  139OSM    H3F15204   4.507   5.698   6.735  0.1969  0.4667  1.8574
  139OSM    H3G15205   4.384   5.586   6.761  2.2298  0.1113 -0.6601
  139OSM    C4F15206   4.360   5.744   6.902  0.1487  0.1385 -0.4134
  139OSM    H4F15207   4.251   5.736   6.924 -0.2422  2.0356 -1.5169
  139OSM    H4G15208   4.399   5.847   6.908  1.6310 -0.4626  1.4731
  139OSM    C5F15209   4.421   5.666   7.026  0.5662 -0.0151 -0.3093
  139OSM    H5F15210   4.527   5.644   7.002  0.9242  1.2487  0.0247
  139OSM    H5G15211   4.361   5.573   7.037  1.1823 -0.2629  1.1737
  139OSM    C6F15212   4.422   5.736   7.167  0.0511  0.2660  0.3516
  139OSM    H6F15213   4.458   5.840   7.153 -1.1514  0.7395  0.6761
  139OSM    H6G15214   4.495   5.685   7.234  0.8936  1.8602  0.6862
  139OSM    C7F15215   4.285   5.727   7.240 -0.5158  0.0034 -0.3979
  139OSM    H7F15216   4.267   5.620   7.264  1.8517 -0.6775 -1.3414
  139OSM    H7G15217   4.204   5.762   7.173 -1.2260 -3.3611 -1.4639
  139OSM    C8F15218   4.300   5.803   7.376  0.4927 -0.6423  0.1056
  139OSM    H8F15219   4.317   5.913   7.368 -1.4015 -0.2007  1.2659
  139OSM    H8G15220   4.386   5.759   7.430  0.5598 -2.5303 -1.4593
  139OSM    C9F15221   4.168   5.776   7.436 -0.2547  0.6131 -0.5182
  139OSM    H9F15222   4.080   5.825   7.393 -0.0491  2.9298  1.4477
  139OSM   C10F15223   4.143   5.697   7.543 -0.8313  0.0098  0.6803
  139OSM   H10F15224   4.039   5.688   7.578 -1.5082 -0.0341 -1.2464
  139OSM   C11F15225   4.230   5.624   7.636 -0.3429  1.0776  0.5683
  139OSM   H11F15226   4.325   5.594   7.588 -1.0585  1.1426 -0.9604
  139OSM   H11G15227   4.190   5.530   7.678  1.7437  0.9682  2.4720
  139OSM   C12F15228   4.269   5.716   7.756 -0.8225  0.8952  0.8204
  139OSM   H12F15229   4.286   5.816   7.713 -1.9688  0.4061 -0.8485
  139OSM   H12G15230   4.354   5.663   7.805 -0.7456 -1.6771 -1.8294
  139OSM   C13F15231   4.165   5.741   7.859 -0.2843 -0.3284  0.0054
  139OSM   H13F15232   4.068   5.713   7.814 -1.6366  2.4995  0.9527
  139OSM   H13G15233   4.174   5.850   7.875 -1.2861 -0.3217  0.6190
  139OSM   C14F15234   4.185   5.672   7.995 -0.3510  0.4436 -0.3125
  139OSM   H14F15235   4.291   5.665   8.028  0.4295  3.2109 -1.8843
  139OSM   H14G15236   4.166   5.565   7.973 -1.4102  1.0224 -2.4199
  139OSM   C15F15237   4.087   5.709   8.104 -0.2680  0.6426 -0.0081
  139OSM   H15F15238   3.985   5.715   8.059  0.6731 -0.4040 -2.5225
  139OSM   H15G15239   4.128   5.805   8.141 -1.7329  1.8234 -1.2642
  139OSM   C16F15240   4.091   5.616   8.230  1.0053  0.1875  0.7541
  139OSM   H16F15241   4.189   5.605   8.280 -0.1910 -1.3392  2.9125
  139OSM   H16G15242   4.071   5.516   8.187 -1.8977  0.3331  1.5016
  139OSM   C17F15243   3.988   5.645   8.335  0.2060 -0.4515 -0.8378
  139OSM   H17F15244   3.981   5.562   8.408 -2.5412  0.0288 -0.4673
  139OSM   H17G15245   3.892   5.637   8.281 -1.1064  0.2800  1.2773
  139OSM   C18F15246   4.004   5.773   8.410  0.1411  0.1463 -0.0227
  139OSM   H18F15247   3.912   5.792   8.469  0.3980  0.6650  0.2146
  139OSM   H18G15248   4.008   5.854   8.334  0.4698 -0.9861 -1.2514
  139OSM   H18H15249   4.093   5.785   8.474 -1.4396 -2.6553  2.9784
  140OSM      N15250   3.522   0.604   6.231  0.3771 -0.6004 -0.1515
  140OSM    C1515251   3.665   0.605   6.270  0.1773  0.2455 -0.1479
  140OSM   H15A15252   3.689   0.707   6.295 -0.6287  0.2849  0.4921
  140OSM   H15B15253   3.731   0.574   6.190  0.5548 -1.9275  0.9549
  140OSM   H15C15254   3.682   0.547   6.359 -1.6371 -1.3647 -0.7772
  140OSM    C1415255   3.502   0.702   6.125  0.6949 -0.3703 -0.0524
  140OSM   H14A15256   3.525   0.801   6.162  0.2147 -1.0131  2.1707
  140OSM   H14B15257   3.401   0.703   6.087  0.4807  1.1610  0.4935
  140OSM   H14C15258   3.569   0.674   6.046  0.5183 -0.3884 -0.1952
  140OSM    C1315259   3.490   0.464   6.168  0.5640 -0.3760 -0.0202
  140OSM   H13A15260   3.393   0.467   6.122  0.7388  0.0032 -0.3632
  140OSM   H13B15261   3.505   0.381   6.236  0.5647 -2.2547 -2.2243
  140OSM   H13C15262   3.553   0.440   6.084 -0.1043 -0.0165 -0.6286
  140OSM    C1215263   3.430   0.619   6.350 -0.2641 -0.6283 -0.3463
  140OSM   H12A15264   3.472   0.570   6.436 -2.3742  1.5931  2.1335
  140OSM   H12B15265   3.341   0.571   6.313 -1.0536  1.1427 -0.8851
  140OSM    C1115266   3.395   0.764   6.397 -0.4502  0.7515  0.5254
  140OSM   H11A15267   3.495   0.814   6.398  0.3231 -0.7301  0.4762
  140OSM   H11B15268   3.359   0.759   6.502 -1.0125  2.1417  0.4240
  140OSM      P15269   3.297   0.976   6.304 -0.2145  0.4415 -0.2776
  140OSM    O1315270   3.423   1.011   6.226  0.0041 -0.4624  0.1293
  140OSM    O1415271   3.167   1.032   6.262  0.0105  1.1168  1.0317
  140OSM    O1115272   3.313   1.012   6.451  0.0813 -0.6150  0.1828
  140OSM    O1215273   3.299   0.821   6.309 -0.0329 -0.6656  0.4485
  140OSM    C1S15274   3.226   1.098   6.530  0.1881 -0.9976 -0.4327
  140OSM    H1S15275   3.143   1.145   6.474  0.6061 -0.5684 -0.7077
  140OSM    H1T15276   3.300   1.179   6.552 -0.9400  0.0013 -0.1955
  140OSM     NF15277   3.084   1.114   6.729  0.4883  0.2166 -0.5622
  140OSM    HNF15278   3.102   1.173   6.807 -4.0914  2.7267 -1.0358
  140OSM    C2S15279   3.190   1.037   6.669  0.3859 -0.7642  0.2972
  140OSM    H2S15280   3.149   0.934   6.657 -0.7938 -0.3214  0.3413
  140OSM    C3S15281   3.329   1.027   6.749  0.5532 -0.3900 -0.6715
  140OSM    H3S15282   3.374   1.129   6.746 -0.4217  0.1335  1.1131
  140OSM     O315283   3.423   0.944   6.689  0.0143  0.3007 -0.0093
  140OSM    HO315284   3.392   0.946   6.599 -1.7331  1.6206  0.5683
  140OSM    C4S15285   3.312   0.972   6.892 -0.9397 -0.2619  0.1015
  140OSM    H4S15286   3.260   0.875   6.902  0.7287 -1.1180  0.8942
  140OSM    C5S15287   3.340   1.034   7.005  0.3426  0.0449 -0.5217
  140OSM    H5S15288   3.395   1.129   6.999  1.0647 -0.1997  1.3599
  140OSM    C6S15289   3.316   0.978   7.142  0.1180 -0.1253  0.7092
  140OSM    H6S15290   3.411   0.968   7.198  1.3127  0.1167 -1.2099
  140OSM    H6T15291   3.274   0.876   7.138 -3.9889  1.4086 -1.5221
  140OSM    C7S15292   3.217   1.065   7.226  0.1431  0.1332 -0.0941
  140OSM    H7S15293   3.117   1.052   7.181  0.1862  2.1350 -0.8593
  140OSM    H7T15294   3.239   1.174   7.219  2.4068 -0.3098 -0.4951
  140OSM    C8S15295   3.213   1.026   7.371  0.2832  0.1814 -0.1356
  140OSM    H8S15296   3.312   1.052   7.414  0.5489  0.3655 -0.8402
  140OSM    H8T15297   3.202   0.916   7.378  0.6125  0.1873  0.6274
  140OSM    C9S15298   3.107   1.104   7.451  0.3896 -0.0523  0.2653
  140OSM    H9S15299   3.008   1.059   7.424 -0.3822  1.7030 -0.0045
  140OSM    H9T15300   3.105   1.209   7.413  0.6408 -0.1955 -0.1513
  140OSM   C10S15301   3.120   1.091   7.604  0.6007 -0.2493 -0.1227
  140OSM   H10S15302   3.223   1.107   7.641 -0.0197  0.4607  1.4196
  140OSM   H10T15303   3.101   0.986   7.633  1.5319 -0.2330  0.5901
  140OSM   C11S15304   3.031   1.188   7.682  0.3050  0.8660 -0.3178
  140OSM   H11S15305   2.930   1.142   7.679  0.6427  0.1541 -1.1684
  140OSM   H11T15306   3.023   1.293   7.645 -1.8535  0.5890 -0.7393
  140OSM   C12S15307   3.097   1.204   7.817  0.1678  0.0777  0.1110
  140OSM   H12S15308   3.183   1.274   7.805 -0.6575  0.8228 -1.8327
  140OSM   H12T15309   3.138   1.104   7.843  0.8876  0.1676 -0.6436
  140OSM   C13S15310   3.014   1.244   7.936  0.2684 -0.2567  0.1630
  140OSM   H13S15311   2.959   1.339   7.918  2.2987  0.8055 -0.7684
  140OSM   H13T15312   3.078   1.251   8.026  0.5123 -0.8773  0.0495
  140OSM   C14S15313   2.919   1.127   7.963  0.1873 -0.7312 -0.4466
  140OSM   H14S15314   2.979   1.043   8.006  0.2182 -1.0598 -1.1280
  140OSM   H14T15315   2.876   1.090   7.868  1.8505  0.4205 -1.7146
  140OSM   C15S15316   2.812   1.158   8.077  0.6530  0.4874 -0.0800
  140OSM   H15S15317   2.746   1.068   8.076 -0.2636  1.1441  0.4030
  140OSM   H15T15318   2.747   1.243   8.047 -1.8089 -0.6532  1.6688
  140OSM   C16S15319   2.880   1.181   8.217 -0.3375 -0.7693  0.1028
  140OSM   H16S15320   2.918   1.285   8.218  1.6976 -1.4581 -0.4171
  140OSM   H16T15321   2.972   1.121   8.237 -0.2519 -0.3378  1.0586
  140OSM   C17S15322   2.782   1.149   8.327  0.2338 -0.3991 -0.3771
  140OSM   H17S15323   2.688   1.207   8.320  1.2490  1.4405  0.4125
  140OSM   H17T15324   2.825   1.192   8.421 -1.2443 -0.1803  0.2293
  140OSM   C18S15325   2.743   1.002   8.341  0.2755  0.1251 -0.2448
  140OSM   H18S15326   2.685   0.993   8.436 -1.3159 -0.6349 -1.2266
  140OSM   H18T15327   2.835   0.943   8.360  0.5834  0.4077 -0.8371
  140OSM   H18U15328   2.690   0.963   8.252  2.6473 -1.0992 -1.2025
  140OSM    C1F15329   2.962   1.116   6.673 -0.0972 -0.1374 -0.6844
  140OSM     OF15330   2.919   1.033   6.591 -0.0008  0.2768  0.2808
  140OSM    C2F15331   2.875   1.230   6.716  0.0787  0.1365  0.2719
  140OSM    H2F15332   2.845   1.295   6.631 -0.3932 -0.6344 -0.1679
  140OSM    H2G15333   2.930   1.296   6.785  2.3603 -1.2637 -0.1169
  140OSM    C3F15334   2.737   1.182   6.767 -0.2317  0.1159 -0.0112
  140OSM    H3F15335   2.701   1.097   6.706 -0.3451  1.2345 -1.5774
  140OSM    H3G15336   2.651   1.250   6.751 -0.7899 -0.9887 -2.0358
  140OSM    C4F15337   2.746   1.141   6.918 -0.0909 -0.4661 -0.1934
  140OSM    H4F15338   2.836   1.082   6.945 -1.2144 -1.4859  1.5191
  140OSM    H4G15339   2.664   1.067   6.933  1.5674 -2.0880  1.2845
  140OSM    C5F15340   2.731   1.268   6.996 -0.2213  0.5076  0.4289
  140OSM    H5F15341   2.630   1.311   6.981 -0.3143  0.7858  1.6730
  140OSM    H5G15342   2.792   1.356   6.967  3.1204 -2.0668 -1.1095
  140OSM    C6F15343   2.768   1.235   7.143 -0.4670 -0.5694 -0.0211
  140OSM    H6F15344   2.874   1.212   7.164 -0.0557  2.4898  1.8960
  140OSM    H6G15345   2.704   1.151   7.179 -1.2115  0.0986  0.2503
  140OSM    C7F15346   2.723   1.344   7.229  0.3191 -0.6287  0.1624
  140OSM    H7F15347   2.613   1.336   7.213  0.2361  2.3459 -1.3575
  140OSM    H7G15348   2.755   1.442   7.189 -1.0854 -0.1217  0.2141
  140OSM    C8F15349   2.764   1.331   7.377 -0.0326  0.0312  0.3610
  140OSM    H8F15350   2.874   1.336   7.392 -0.1634 -0.9451  1.8418
  140OSM    H8G15351   2.731   1.233   7.417 -1.1941  1.1732  2.3895
  140OSM    C9F15352   2.695   1.448   7.448  0.0311  0.0234 -0.2486
  140OSM    H9F15353   2.671   1.536   7.387 -1.3311 -0.5115 -0.5321
  140OSM   C10F15354   2.655   1.449   7.574  0.2934 -0.3291 -0.3808
  140OSM   H10F15355   2.599   1.538   7.607  1.1094 -0.4052  1.3094
  140OSM   C11F15356   2.683   1.338   7.675  0.1817 -0.1789 -0.2066
  140OSM   H11F15357   2.788   1.341   7.709  0.8572 -1.0285 -2.0805
  140OSM   H11G15358   2.661   1.238   7.632 -0.2120 -0.3065  0.2832
  140OSM   C12F15359   2.594   1.361   7.799  0.2048  0.3165 -0.2346
  140OSM   H12F15360   2.580   1.274   7.866  1.6561 -0.9880 -1.5479
  140OSM   H12G15361   2.490   1.390   7.771  0.6426  1.7866 -0.4103
  140OSM   C13F15362   2.649   1.469   7.889  0.4068 -0.2698  0.2978
  140OSM   H13F15363   2.666   1.561   7.829  0.3448  0.3068  1.1469
  140OSM   H13G15364   2.745   1.440   7.935 -0.1170  1.6026  2.7477
  140OSM   C14F15365   2.549   1.504   7.993 -1.0769 -0.6373  0.0748
  140OSM   H14F15366   2.517   1.404   8.030 -3.0671  0.3787  1.3029
  140OSM   H14G15367   2.449   1.537   7.957  0.2494  0.0119 -3.3123
  140OSM   C15F15368   2.580   1.606   8.103  0.0988  0.5079  0.0688
  140OSM   H15F15369   2.502   1.603   8.182  0.4423  0.0167  0.3924
  140OSM   H15G15370   2.589   1.707   8.058 -0.6455  0.0422 -1.1619
  140OSM   C16F15371   2.716   1.581   8.167 -0.3857 -0.0718  0.0221
  140OSM   H16F15372   2.789   1.605   8.086 -2.0234  2.0736 -0.8954
  140OSM   H16G15373   2.731   1.473   8.191  0.0423 -0.6562 -2.5033
  140OSM   C17F15374   2.728   1.662   8.294 -0.4228 -0.5529 -0.3778
  140OSM   H17F15375   2.712   1.771   8.278  0.4825 -0.4307 -0.5214
  140OSM   H17G15376   2.836   1.659   8.323 -0.1593 -0.4081 -1.3142
  140OSM   C18F15377   2.644   1.613   8.412  0.3428 -0.4415  0.3104
  140OSM   H18F15378   2.537   1.631   8.387  0.8171  3.1663  0.3776
  140OSM   H18G15379   2.668   1.676   8.500  0.2989 -1.2436  0.9120
  140OSM   H18H15380   2.659   1.505   8.434 -0.8583 -1.6916 -3.9321
  141OSM      N15381   3.982   3.223   6.139  0.0960  0.9876 -0.0827
  141OSM    C1515382   3.838   3.245   6.134 -0.5117  0.2030 -0.7627
  141OSM   H15A15383   3.810   3.348   6.145 -1.2932 -0.0849  0.0738
  141OSM   H15B15384   3.792   3.191   6.215  0.7439  0.3615  0.0879
  141OSM   H15C15385   3.796   3.209   6.041 -1.1039  0.0229 -0.4303
  141OSM    C1415386   4.007   3.080   6.161 -0.6452 -0.8228  0.1532
  141OSM   H14A15387   3.938   3.026   6.098  1.2189  0.3297 -3.1100
  141OSM   H14B15388   3.983   3.054   6.264  2.6844 -2.1178  0.7269
  141OSM   H14C15389   4.108   3.055   6.133 -0.5893 -2.2724  1.4651
  141OSM    C1315390   4.051   3.243   6.002  0.8886 -0.5911 -0.2914
  141OSM   H13A15391   4.033   3.345   5.971  0.3817 -0.2500  1.0467
  141OSM   H13B15392   4.001   3.176   5.934 -0.4563 -0.6737  0.7230
  141OSM   H13C15393   4.153   3.216   6.020  0.7088 -2.2182 -1.4701
  141OSM    C1215394   4.045   3.309   6.250 -0.1450  0.3383 -0.4375
  141OSM   H12A15395   4.034   3.412   6.219 -0.0424 -0.0348 -1.7644
  141OSM   H12B15396   4.152   3.298   6.254 -0.1031  0.4866 -1.1420
  141OSM    C1115397   3.985   3.285   6.393 -0.0373  0.1539 -0.4084
  141OSM   H11A15398   3.876   3.308   6.388  0.2867  1.8543 -0.3799
  141OSM   H11B15399   4.018   3.370   6.457 -0.9295  0.2124 -0.0090
  141OSM      P15400   4.160   3.127   6.517  0.1635  0.1006 -0.1047
  141OSM    O1315401   4.138   3.024   6.619 -0.2162  0.2087  0.2602
  141OSM    O1415402   4.263   3.101   6.411  0.4194 -0.1627  0.4093
  141OSM    O1115403   4.196   3.265   6.590 -0.4874 -0.9579  0.2728
  141OSM    O1215404   4.021   3.153   6.450 -0.1572  0.0132 -0.1680
  141OSM    C1S15405   4.118   3.304   6.703 -0.2347 -0.0637  0.5887
  141OSM    H1S15406   4.115   3.230   6.786  0.2872  1.2584  1.8425
  141OSM    H1T15407   4.011   3.318   6.678 -0.3375 -2.1678 -0.3321
  141OSM     NF15408   4.114   3.461   6.900 -0.4685 -0.6879  0.3069
  141OSM    HNF15409   4.074   3.550   6.922 -1.3781 -1.0907  0.3442
  141OSM    C2S15410   4.174   3.433   6.765 -0.0825 -0.3887 -0.1416
  141OSM    H2S15411   4.284   3.417   6.774 -0.0799  0.1859  1.0883
  141OSM    C3S15412   4.161   3.553   6.671  0.0239 -0.6661 -0.0439
  141OSM    H3S15413   4.055   3.578   6.650 -0.0626 -1.2543 -0.3004
  141OSM     O315414   4.209   3.529   6.536  1.3109 -0.2354  0.1441
  141OSM    HO315415   4.208   3.434   6.526  0.2783 -0.4777  2.0828
  141OSM    C4S15416   4.235   3.668   6.728 -0.2348 -0.4496  0.0642
  141OSM    H4S15417   4.169   3.728   6.794 -0.4283 -1.8898  1.2277
  141OSM    C5S15418   4.361   3.711   6.716 -0.7848  0.1398  0.4824
  141OSM    H5S15419   4.432   3.667   6.644  0.7429  3.1904 -0.0255
  141OSM    C6S15420   4.425   3.824   6.793 -0.5756 -0.1141  1.7466
  141OSM    H6S15421   4.449   3.902   6.718 -3.2947 -1.7019 -1.0485
  141OSM    H6T15422   4.522   3.790   6.834  0.6227  2.3051  1.1091
  141OSM    C7S15423   4.350   3.895   6.903  0.1960  0.4585  0.5677
  141OSM    H7S15424   4.247   3.903   6.863 -0.2256 -1.5315  1.1101
  141OSM    H7T15425   4.403   3.989   6.930 -0.9406  1.3580 -0.2630
  141OSM    C8S15426   4.327   3.808   7.027  0.5590  0.1278 -0.3269
  141OSM    H8S15427   4.426   3.785   7.072  1.4748  3.4472 -0.4165
  141OSM    H8T15428   4.277   3.715   6.992 -1.9651  1.3972 -0.3163
  141OSM    C9S15429   4.237   3.880   7.122  0.6998  0.2175 -0.1989
  141OSM    H9S15430   4.153   3.918   7.059  0.2480 -1.3383 -0.5753
  141OSM    H9T15431   4.300   3.965   7.155  1.0997  0.4335 -1.4820
  141OSM   C10S15432   4.180   3.797   7.244  0.4227 -0.4217 -0.4600
  141OSM   H10S15433   4.146   3.695   7.218  0.7449 -0.8746  0.8076
  141OSM   H10T15434   4.090   3.845   7.288 -1.3724 -1.1860 -3.0898
  141OSM   C11S15435   4.288   3.773   7.360  0.1370 -0.7206 -0.4130
  141OSM   H11S15436   4.376   3.720   7.319  0.4681  0.4054 -1.2183
  141OSM   H11T15437   4.234   3.709   7.433 -0.3841 -0.5533 -0.6464
  141OSM   C12S15438   4.337   3.901   7.425  0.3575  0.3030  0.4200
  141OSM   H12S15439   4.252   3.963   7.459  1.3083  0.8731  1.8372
  141OSM   H12T15440   4.399   3.953   7.350 -1.2790  0.0222 -1.1887
  141OSM   C13S15441   4.410   3.871   7.561 -0.1352  1.0647 -0.0377
  141OSM   H13S15442   4.492   3.797   7.547 -0.6408  0.6342 -0.8070
  141OSM   H13T15443   4.336   3.818   7.625  1.0630 -0.6833 -0.0231
  141OSM   C14S15444   4.464   3.994   7.632 -0.5264 -0.6486 -0.0327
  141OSM   H14S15445   4.382   4.069   7.636  1.0648  1.1221  2.4574
  141OSM   H14T15446   4.549   4.040   7.578 -0.5748  1.3451  1.5037
  141OSM   C15S15447   4.499   3.984   7.784 -0.6801  0.1236  0.7238
  141OSM   H15S15448   4.530   4.084   7.821  0.4053  0.2345 -0.4283
  141OSM   H15T15449   4.588   3.917   7.786 -0.5149  0.3128  0.0033
  141OSM   C16S15450   4.395   3.918   7.875 -0.8443 -0.7024  0.0118
  141OSM   H16S15451   4.381   3.813   7.841  2.9185 -0.9419 -1.2860
  141OSM   H16T15452   4.294   3.957   7.851 -0.8815 -0.7500  0.0876
  141OSM   C17S15453   4.419   3.925   8.027 -0.4805  0.2221 -0.2305
  141OSM   H17S15454   4.343   3.862   8.076 -1.1151  0.0490 -1.4015
  141OSM   H17T15455   4.401   4.031   8.057 -2.2945 -0.2471  0.5066
  141OSM   C18S15456   4.558   3.873   8.078  0.3410 -0.6671  0.4554
  141OSM   H18S15457   4.576   3.907   8.182 -1.4706  2.1358 -0.0370
  141OSM   H18T15458   4.635   3.922   8.015 -0.2370  0.9578  0.9646
  141OSM   H18U15459   4.566   3.763   8.066  1.3845 -0.5828  0.2893
  141OSM    C1F15460   4.129   3.374   6.997 -0.1424  0.2173 -0.0878
  141OSM     OF15461   4.205   3.274   6.981  0.3361  0.0914 -0.1454
  141OSM    C2F15462   4.051   3.391   7.126 -0.4673 -0.6294 -0.9560
  141OSM    H2F15463   3.945   3.358   7.119 -0.5013 -0.4715 -1.2011
  141OSM    H2G15464   4.055   3.500   7.148  2.5691 -0.6404 -1.1213
  141OSM    C3F15465   4.118   3.309   7.246  0.6570 -0.8745  0.0725
  141OSM    H3F15466   4.224   3.337   7.259  0.4792  0.9231 -1.8200
  141OSM    H3G15467   4.123   3.200   7.223  2.6335 -1.0450  1.1362
  141OSM    C4F15468   4.047   3.330   7.381 -0.5141 -0.4450  0.7997
  141OSM    H4F15469   4.062   3.239   7.441 -1.5296 -0.9315  0.3397
  141OSM    H4G15470   3.940   3.358   7.376  0.0349  2.3227  2.2553
  141OSM    C5F15471   4.113   3.445   7.455  0.1180  0.7401  0.1987
  141OSM    H5F15472   4.084   3.535   7.396 -1.1642 -0.1182 -0.5386
  141OSM    H5G15473   4.222   3.427   7.446 -0.4969 -3.5988 -0.5127
  141OSM    C6F15474   4.060   3.443   7.597  0.8832  0.3242  0.4919
  141OSM    H6F15475   4.052   3.338   7.632  2.5085 -0.4760 -1.3229
  141OSM    H6G15476   3.958   3.488   7.591 -0.2376 -2.0608  0.2225
  141OSM    C7F15477   4.147   3.525   7.690  0.0699 -0.0135  0.9579
  141OSM    H7F15478   4.176   3.616   7.634 -0.7431  0.1235  0.7420
  141OSM    H7G15479   4.245   3.474   7.703 -0.2246 -2.1407 -3.5227
  141OSM    C8F15480   4.095   3.568   7.826 -0.0084 -0.9664  0.2801
  141OSM    H8F15481   4.019   3.646   7.808  0.7617 -0.7140 -2.2474
  141OSM    H8G15482   4.175   3.618   7.884  0.2826  1.2820 -1.8907
  141OSM    C9F15483   4.034   3.464   7.921 -0.2282  0.1671  0.5397
  141OSM    H9F15484   3.943   3.414   7.885  0.6473  0.3469 -2.2324
  141OSM   C10F15485   4.069   3.434   8.047  0.0917  0.2874 -0.0229
  141OSM   H10F15486   4.024   3.345   8.095  0.5712 -0.9766 -1.8185
  141OSM   C11F15487   4.174   3.498   8.133 -0.1434  0.4813 -0.6992
  141OSM   H11F15488   4.115   3.509   8.227  0.6634 -0.4526 -0.0707
  141OSM   H11G15489   4.223   3.593   8.102  1.0855  0.2866  0.5398
  141OSM   C12F15490   4.290   3.397   8.144 -0.0036  0.4302  0.3385
  141OSM   H12F15491   4.361   3.409   8.060  0.0084 -1.9563 -0.0737
  141OSM   H12G15492   4.246   3.294   8.139 -0.2397  0.5810 -3.3204
  141OSM   C13F15493   4.370   3.428   8.275 -0.2765  0.4447  0.4056
  141OSM   H13F15494   4.299   3.432   8.361  0.2819  0.4646  0.8754
  141OSM   H13G15495   4.421   3.525   8.253 -1.3900  1.4139  1.8894
  141OSM   C14F15496   4.471   3.318   8.297  0.1089  0.2777  0.1972
  141OSM   H14F15497   4.556   3.314   8.226  1.4237 -3.2085  1.7436
  141OSM   H14G15498   4.421   3.222   8.273  0.7710  0.1288 -0.6532
  141OSM   C15F15499   4.522   3.320   8.436 -0.2941  0.0204  0.3490
  141OSM   H15F15500   4.436   3.314   8.507 -0.8321  1.9541 -0.0686
  141OSM   H15G15501   4.576   3.414   8.459 -1.4298  0.5989  0.7367
  141OSM   C16F15502   4.628   3.209   8.450  0.0545 -0.7082 -0.5928
  141OSM   H16F15503   4.712   3.223   8.378  0.8573 -1.4555  0.1742
  141OSM   H16G15504   4.589   3.108   8.426 -0.7080 -1.1203  2.0922
  141OSM   C17F15505   4.685   3.217   8.594 -0.7826  0.7151 -0.1700
  141OSM   H17F15506   4.711   3.323   8.612  0.1866  0.7628 -1.6863
  141OSM   H17G15507   4.780   3.160   8.598 -0.6738  0.8555 -0.6213
  141OSM   C18F15508   4.586   3.162   8.701  0.2437  0.3741 -0.1051
  141OSM   H18F15509   4.548   3.059   8.684 -0.3144  0.5990 -0.2446
  141OSM   H18G15510   4.508   3.240   8.714  0.8236  0.9727 -0.2173
  141OSM   H18H15511   4.644   3.162   8.795  0.3284 -1.3285 -0.1217
  142OSM      N15512   0.228   3.622   6.359 -0.8359 -0.1169  0.8138
  142OSM    C1515513   0.154   3.542   6.252 -0.0434  0.0210  0.3506
  142OSM   H15A15514   0.103   3.606   6.181  0.5504  2.3075  1.8625
  142OSM   H15B15515   0.069   3.490   6.292 -2.0823  2.7875 -0.0401
  142OSM   H15C15516   0.224   3.474   6.205 -0.3587  1.4019 -2.3428
  142OSM    C1415517   0.131   3.715   6.422  0.5512  0.0162 -0.2633
  142OSM   H14A15518   0.097   3.792   6.355 -0.0173 -1.3025 -1.5349
  142OSM   H14B15519   0.177   3.756   6.511  2.0608  0.4804 -1.2228
  142OSM   H14C15520   0.049   3.655   6.460  2.2514 -1.9089  0.5743
  142OSM    C1315521   0.273   3.527   6.464  0.5295  0.7646  0.0541
  142OSM   H13A15522   0.197   3.466   6.510  1.5994 -0.7560 -0.1192
  142OSM   H13B15523   0.312   3.578   6.551 -1.3320  2.6436 -0.1175
  142OSM   H13C15524   0.333   3.454   6.413 -0.5718 -0.4521  0.4539
  142OSM    C1215525   0.345   3.690   6.297 -0.7511 -0.3409  0.2715
  142OSM   H12A15526   0.424   3.620   6.274 -1.4094 -0.7401 -0.8509
  142OSM   H12B15527   0.389   3.764   6.362  2.2237 -0.5041 -1.3942
  142OSM    C1115528   0.313   3.781   6.167  0.0111  0.3103  0.4519
  142OSM   H11A15529   0.265   3.709   6.097  2.8071 -1.9548  0.6787
  142OSM   H11B15530   0.403   3.808   6.107 -1.4267  2.3280 -0.9633
  142OSM      P15531   0.299   4.038   6.207  0.3078 -0.4106 -0.2119
  142OSM    O1315532   0.442   4.033   6.165  0.0748  0.7427  0.1552
  142OSM    O1415533   0.216   4.132   6.130 -0.4010  0.1453  0.8427
  142OSM    O1115534   0.294   4.069   6.360  0.7091  0.1098  0.1141
  142OSM    O1215535   0.229   3.895   6.191 -0.3745  0.0165 -0.2211
  142OSM    C1S15536   0.169   4.077   6.430  0.6303 -0.1119 -0.2932
  142OSM    H1S15537   0.142   3.978   6.472  1.0983  0.7764  2.3130
  142OSM    H1T15538   0.089   4.117   6.363 -0.9452 -1.0002  0.9759
  142OSM     NF15539   0.046   4.139   6.633  0.7461  0.0581 -0.2893
  142OSM    HNF15540  -0.022   4.211   6.640  0.4001 -0.3774  1.3926
  142OSM    C2S15541   0.174   4.153   6.561  0.2188 -0.0559  0.2939
  142OSM    H2S15542   0.247   4.099   6.625 -0.2509 -1.0493  0.0234
  142OSM    C3S15543   0.222   4.299   6.533 -0.3526  0.3430 -0.0763
  142OSM    H3S15544   0.146   4.343   6.464 -0.4733  2.5961  1.4047
  142OSM     O315545   0.349   4.317   6.461 -0.6507 -0.4037 -0.7075
  142OSM    HO315546   0.354   4.245   6.398  1.7968 -0.8465 -0.1126
  142OSM    C4S15547   0.225   4.375   6.663  0.4202  0.2871  0.0705
  142OSM    H4S15548   0.143   4.447   6.679  0.4697  0.1108  1.2500
  142OSM    C5S15549   0.327   4.374   6.747 -1.0781 -0.5897  0.6246
  142OSM    H5S15550   0.412   4.318   6.706 -1.2604  1.0142 -2.2147
  142OSM    C6S15551   0.330   4.456   6.876  0.5673 -0.1157 -0.3232
  142OSM    H6S15552   0.418   4.523   6.871  1.0459 -0.7289 -0.2556
  142OSM    H6T15553   0.343   4.386   6.962  0.2041 -0.3560 -0.4593
  142OSM    C7S15554   0.210   4.544   6.912  0.3680  0.0544  0.9230
  142OSM    H7S15555   0.121   4.478   6.922  0.3033  0.0461  0.3328
  142OSM    H7T15556   0.184   4.610   6.826  1.4412 -2.2205 -1.2987
  142OSM    C8S15557   0.211   4.629   7.037 -0.6523 -0.3670  0.5034
  142OSM    H8S15558   0.118   4.688   7.048  0.7081  1.9937  0.1105
  142OSM    H8T15559   0.295   4.700   7.021  1.3027 -3.0707 -2.4783
  142OSM    C9S15560   0.239   4.549   7.163 -0.9301  0.8120 -0.2197
  142OSM    H9S15561   0.322   4.475   7.152 -0.6963  1.1712 -1.0131
  142OSM    H9T15562   0.156   4.481   7.187 -0.5403  0.6414  0.6665
  142OSM   C10S15563   0.262   4.637   7.289  0.3431  0.1422  0.2085
  142OSM   H10S15564   0.172   4.702   7.285 -1.0856 -1.7535  0.3061
  142OSM   H10T15565   0.353   4.701   7.278  0.6488 -0.5150 -1.5020
  142OSM   C11S15566   0.268   4.547   7.413  0.6431 -0.6040 -0.3117
  142OSM   H11S15567   0.363   4.490   7.407  0.9077 -0.1134 -0.9951
  142OSM   H11T15568   0.178   4.483   7.399  0.5543 -0.0279 -3.0543
  142OSM   C12S15569   0.256   4.619   7.551 -0.4704 -0.8571  0.3719
  142OSM   H12S15570   0.181   4.702   7.550  0.3973 -0.0025 -1.9282
  142OSM   H12T15571   0.360   4.655   7.564  0.3330 -2.4283 -1.2458
  142OSM   C13S15572   0.218   4.526   7.665  0.0967  0.6338 -0.0386
  142OSM   H13S15573   0.302   4.454   7.660 -0.5326 -0.1800  0.7127
  142OSM   H13T15574   0.123   4.474   7.642 -0.3270  1.5746 -0.4815
  142OSM   C14S15575   0.216   4.590   7.800  0.0059  0.5231 -0.2418
  142OSM   H14S15576   0.139   4.670   7.793  1.7758  2.5253  1.5382
  142OSM   H14T15577   0.305   4.651   7.827 -0.9022  1.5070  0.6321
  142OSM   C15S15578   0.195   4.491   7.917  0.3362 -0.5156  0.8467
  142OSM   H15S15579   0.100   4.435   7.907 -1.6743  2.6375  0.8529
  142OSM   H15T15580   0.166   4.568   7.992 -0.8192 -0.5543  0.4677
  142OSM   C16S15581   0.322   4.413   7.936 -0.2905  0.1843 -0.5291
  142OSM   H16S15582   0.398   4.489   7.965 -1.0088 -0.3011  3.1403
  142OSM   H16T15583   0.347   4.358   7.843 -1.1197 -1.9213  0.4296
  142OSM   C17S15584   0.314   4.312   8.057 -0.2582 -0.8480 -0.9499
  142OSM   H17S15585   0.238   4.235   8.031 -1.0101 -0.0935 -1.0393
  142OSM   H17T15586   0.280   4.385   8.133  0.8335 -0.5714 -0.7133
  142OSM   C18S15587   0.452   4.254   8.097 -0.3719  0.0473  0.3560
  142OSM   H18S15588   0.440   4.192   8.187 -0.3984  1.5878  1.4564
  142OSM   H18T15589   0.528   4.327   8.133  1.1852 -1.4107  0.1746
  142OSM   H18U15590   0.490   4.186   8.017 -3.3847  0.2304 -1.3568
  142OSM    C1F15591  -0.001   4.027   6.690  0.1241  0.0093  0.3501
  142OSM     OF15592   0.066   3.925   6.693 -0.4643 -0.5212  0.5621
  142OSM    C2F15593  -0.148   4.025   6.723 -0.4959 -0.1350  0.3470
  142OSM    H2F15594  -0.181   3.921   6.741 -0.8657 -0.3715 -1.4712
  142OSM    H2G15595  -0.201   4.064   6.633  0.2557 -1.0407 -0.5152
  142OSM    C3F15596  -0.179   4.111   6.845 -0.0730 -0.1108 -1.0145
  142OSM    H3F15597  -0.288   4.135   6.840  0.6211  4.3832  0.6188
  142OSM    H3G15598  -0.122   4.206   6.849 -1.9825  1.0622  1.7300
  142OSM    C4F15599  -0.143   4.035   6.975 -0.4977 -0.4139  0.7455
  142OSM    H4F15600  -0.038   4.002   6.963 -0.2595  0.9929 -1.7038
  142OSM    H4G15601  -0.202   3.941   6.981 -0.6333 -0.3626  0.2469
  142OSM    C5F15602  -0.168   4.120   7.105  0.2386 -0.7694  0.8064
  142OSM    H5F15603  -0.272   4.158   7.095  0.5576  0.4291  1.7155
  142OSM    H5G15604  -0.116   4.218   7.101 -0.4460 -0.3126  2.2873
  142OSM    C6F15605  -0.134   4.034   7.220  0.5083  0.3541  0.0482
  142OSM    H6F15606  -0.036   3.983   7.205  0.4361  0.6679 -1.6898
  142OSM    H6G15607  -0.211   3.954   7.229  0.9959 -0.6439 -3.4607
  142OSM    C7F15608  -0.118   4.121   7.347 -0.0417  0.6409  0.6238
  142OSM    H7F15609  -0.212   4.166   7.385 -0.2608  0.4841  0.2779
  142OSM    H7G15610  -0.067   4.214   7.313 -0.9558  0.5777 -1.0610
  142OSM    C8F15611  -0.028   4.055   7.456  0.6198 -0.1632  0.7568
  142OSM    H8F15612   0.060   4.022   7.397 -0.2312  0.9176 -1.2629
  142OSM    H8G15613  -0.081   3.968   7.500 -0.6529  0.2868  0.1540
  142OSM    C9F15614   0.024   4.154   7.555  0.0967  0.4812  0.0721
  142OSM    H9F15615   0.131   4.177   7.547 -0.0345  1.1821  0.2711
  142OSM   C10F15616  -0.044   4.201   7.659  0.8979  0.4930 -0.3973
  142OSM   H10F15617   0.004   4.267   7.733 -1.4418 -0.1539  1.8495
  142OSM   C11F15618  -0.191   4.159   7.692 -0.0802  0.5237  0.1712
  142OSM   H11F15619  -0.235   4.089   7.618 -2.0348  0.6639  1.1100
  142OSM   H11G15620  -0.246   4.256   7.689  0.2853  0.7127 -0.5169
  142OSM   C12F15621  -0.209   4.090   7.833 -0.2384  0.2466 -0.3137
  142OSM   H12F15622  -0.124   4.019   7.840  1.1534  1.7619 -1.0626
  142OSM   H12G15623  -0.306   4.037   7.833 -1.2274  1.8579  2.6575
  142OSM   C13F15624  -0.193   4.201   7.947 -0.1442  0.3363 -0.3028
  142OSM   H13F15625  -0.259   4.284   7.914 -3.5332 -2.9350 -2.6870
  142OSM   H13G15626  -0.086   4.232   7.944  0.3115 -1.0932  0.5082
  142OSM   C14F15627  -0.208   4.137   8.084  0.3024  0.6605  0.0405
  142OSM   H14F15628  -0.141   4.050   8.103  0.0631  0.1855 -1.1739
  142OSM   H14G15629  -0.307   4.087   8.091  0.1163  0.8500 -1.0004
  142OSM   C15F15630  -0.202   4.234   8.203 -0.4182  0.2051 -0.3579
  142OSM   H15F15631  -0.268   4.323   8.194 -0.6007  0.0532 -0.5250
  142OSM   H15G15632  -0.093   4.252   8.216 -0.0148 -2.6729  0.8376
  142OSM   C16F15633  -0.238   4.163   8.331  0.4408 -0.4918 -0.0151
  142OSM   H16F15634  -0.179   4.069   8.328  1.4036  0.1189 -0.8121
  142OSM   H16G15635  -0.346   4.138   8.341  0.7081 -1.7229 -0.0996
  142OSM   C17F15636  -0.193   4.231   8.462  0.0851 -0.3019  0.0701
  142OSM   H17F15637  -0.231   4.335   8.458  1.6810  0.3266  0.6621
  142OSM   H17G15638  -0.083   4.242   8.461  0.2407 -1.6671 -0.5262
  142OSM   C18F15639  -0.239   4.157   8.588  0.3481  0.3837 -0.5498
  142OSM   H18F15640  -0.349   4.163   8.596  0.3609  1.4376 -0.9487
  142OSM   H18G15641  -0.197   4.207   8.678  3.2913  2.4776 -2.8920
  142OSM   H18H15642  -0.196   4.055   8.581  0.7989  0.2956  2.3865
  143OSM      N15643   5.131   0.962   6.445  0.6430 -0.0578 -0.2629
  143OSM    C1515644   5.121   0.952   6.595 -0.1600  0.2432 -0.1009
  143OSM   H15A15645   5.029   0.900   6.619 -0.6179  1.1437  0.1611
  143OSM   H15B15646   5.119   1.048   6.646 -0.6727 -0.8100  2.0019
  143OSM   H15C15647   5.197   0.884   6.632  0.2339 -0.6607 -2.4293
  143OSM    C1415648   5.009   1.029   6.394 -0.1749  0.2808  0.0293
  143OSM   H14A15649   5.008   1.057   6.290  0.0079  1.7483  0.4028
  143OSM   H14B15650   4.992   1.115   6.457 -1.7426 -0.4065  0.6029
  143OSM   H14C15651   4.929   0.956   6.400 -1.5554  1.7739  0.4706
  143OSM    C1315652   5.255   1.040   6.397 -0.3320 -0.2306  0.5892
  143OSM   H13A15653   5.348   0.986   6.385 -0.7034 -0.7355 -0.1127
  143OSM   H13B15654   5.272   1.135   6.446  0.7958 -0.6705  1.0705
  143OSM   H13C15655   5.222   1.084   6.304 -2.5182  0.6096  1.6845
  143OSM    C1215656   5.139   0.820   6.393  0.2605 -0.5563 -0.2180
  143OSM   H12A15657   5.155   0.829   6.286  0.9978 -0.0402 -0.0644
  143OSM   H12B15658   5.042   0.773   6.407 -0.0841  0.5100  1.1954
  143OSM    C1115659   5.256   0.730   6.436  0.2328  0.2352  0.1501
  143OSM   H11A15660   5.241   0.626   6.398  0.3947  0.9235 -1.8986
  143OSM   H11B15661   5.238   0.714   6.544 -2.7320 -1.3356 -0.4665
  143OSM      P15662   5.487   0.771   6.281 -0.0169  0.4163 -0.3083
  143OSM    O1315663   5.424   0.722   6.154 -0.0832  0.4668  0.1455
  143OSM    O1415664   5.554   0.897   6.263 -0.2808 -0.1409 -0.1292
  143OSM    O1115665   5.575   0.651   6.339 -0.0440  0.1877 -0.4413
  143OSM    O1215666   5.381   0.791   6.396 -0.2952  0.3266  0.0712
  143OSM    C1S15667   5.586   0.618   6.472  0.3399  0.4464 -0.6493
  143OSM    H1S15668   5.493   0.633   6.531  0.6281  0.2104 -0.1319
  143OSM    H1T15669   5.659   0.688   6.519 -2.9219  2.0871  2.3863
  143OSM     NF15670   5.651   0.448   6.639  0.1480 -0.1555  0.2779
  143OSM    HNF15671   5.746   0.457   6.668  1.0574 -3.0633 -1.3214
  143OSM    C2S15672   5.630   0.469   6.496  0.0959 -0.2128 -0.5449
  143OSM    H2S15673   5.563   0.396   6.446  2.2386 -1.3206 -1.9714
  143OSM    C3S15674   5.760   0.447   6.418 -0.2784  0.3356 -0.3496
  143OSM    H3S15675   5.834   0.517   6.463 -1.2619  1.1503  0.0376
  143OSM     O315676   5.746   0.475   6.281  0.1835 -0.0410 -0.5493
  143OSM    HO315677   5.666   0.528   6.286 -0.5744 -1.2538  1.0869
  143OSM    C4S15678   5.805   0.308   6.435 -0.0957  0.6660  0.2078
  143OSM    H4S15679   5.737   0.233   6.392  0.7777 -0.6337  1.0373
  143OSM    C5S15680   5.920   0.276   6.509 -0.4422 -0.5167 -0.5562
  143OSM    H5S15681   5.982   0.351   6.560  2.2028 -1.7947 -1.7084
  143OSM    C6S15682   5.977   0.141   6.537 -0.3175  0.1646 -0.2800
  143OSM    H6S15683   6.065   0.133   6.469  0.7701 -1.2932  1.2305
  143OSM    H6T15684   5.903   0.064   6.503  1.6508 -1.0538 -2.0717
  143OSM    C7S15685   6.006   0.109   6.692  0.0554 -0.3259 -0.1237
  143OSM    H7S15686   6.091   0.176   6.719 -0.8812  0.7101  0.3124
  143OSM    H7T15687   6.056   0.009   6.692  2.4418  0.7667  2.0715
  143OSM    C8S15688   5.888   0.123   6.787  0.8735  0.3803  0.0484
  143OSM    H8S15689   5.833   0.030   6.762  2.0572  0.0392 -1.4772
  143OSM    H8T15690   5.826   0.213   6.766 -0.7345 -0.5235  0.8049
  143OSM    C9S15691   5.936   0.142   6.928 -0.2885 -0.3970  0.8044
  143OSM    H9S15692   5.844   0.175   6.981 -0.9441 -1.3110  0.2601
  143OSM    H9T15693   6.011   0.224   6.925 -1.5316  0.7688 -1.8954
  143OSM   C10S15694   5.996   0.014   6.984 -0.1796  0.4734 -0.5649
  143OSM   H10S15695   6.106   0.007   6.966 -0.2000  0.6233 -0.7423
  143OSM   H10T15696   5.971  -0.074   6.920  0.6878 -0.0566 -0.1963
  143OSM   C11S15697   5.947  -0.011   7.127 -0.6415  0.0609 -0.5705
  143OSM   H11S15698   5.837  -0.026   7.135 -0.7097  1.0688  1.0559
  143OSM   H11T15699   5.983   0.083   7.175 -0.0270 -0.9556  1.0493
  143OSM   C12S15700   6.015  -0.126   7.198  0.1423  1.0841  1.4766
  143OSM   H12S15701   6.120  -0.130   7.163 -0.0644  0.6383  0.8824
  143OSM   H12T15702   5.961  -0.219   7.168 -2.1366  2.4528  1.1393
  143OSM   C13S15703   6.015  -0.123   7.354  0.4381  0.0184  0.2784
  143OSM   H13S15704   6.094  -0.050   7.379  1.3502 -1.3351  1.5256
  143OSM   H13T15705   6.054  -0.220   7.393 -1.8983 -0.2679  2.1834
  143OSM   C14S15706   5.883  -0.098   7.415 -0.3473  0.2291 -0.4658
  143OSM   H14S15707   5.825  -0.191   7.434  0.1199 -0.0526 -0.4096
  143OSM   H14T15708   5.823  -0.019   7.366  1.5655  1.1303 -1.4409
  143OSM   C15S15709   5.901  -0.040   7.565 -0.2339 -0.7025  0.2030
  143OSM   H15S15710   5.976   0.041   7.577  2.3324 -2.8080 -0.8582
  143OSM   H15T15711   5.931  -0.125   7.630 -1.0261 -1.5027 -0.4543
  143OSM   C16S15712   5.763   0.003   7.615 -0.7468  0.4922  0.2474
  143OSM   H16S15713   5.689  -0.078   7.593 -0.4728  0.4986 -0.7362
  143OSM   H16T15714   5.728   0.101   7.575  1.4567  1.8400  1.4093
  143OSM   C17S15715   5.768   0.011   7.772  0.2071 -0.1271 -0.3285
  143OSM   H17S15716   5.848   0.081   7.805  0.8014 -1.5129  1.3257
  143OSM   H17T15717   5.798  -0.086   7.816 -3.3320 -0.6135  1.3275
  143OSM   C18S15718   5.642   0.067   7.841  0.2301  0.7494 -0.1721
  143OSM   H18S15719   5.630   0.177   7.830 -0.7354  0.5030 -1.8044
  143OSM   H18T15720   5.643   0.048   7.951 -2.3610  2.2325  0.1963
  143OSM   H18U15721   5.558   0.011   7.796  1.4089  0.2183 -1.7896
  143OSM    C1F15722   5.548   0.454   6.721 -0.7457  0.4472 -0.0675
  143OSM     OF15723   5.433   0.432   6.684  0.2424 -0.4056 -0.4589
  143OSM    C2F15724   5.582   0.481   6.863 -0.1422  0.3900 -0.4717
  143OSM    H2F15725   5.589   0.591   6.875 -0.0573  0.5451 -1.7837
  143OSM    H2G15726   5.676   0.435   6.900 -0.2003  2.2408  2.3389
  143OSM    C3F15727   5.473   0.442   6.964  0.0511  0.1559 -0.2014
  143OSM    H3F15728   5.450   0.333   6.961 -2.8318  0.6513  0.7816
  143OSM    H3G15729   5.376   0.495   6.949  0.6496  2.5677  3.3311
  143OSM    C4F15730   5.513   0.462   7.113 -0.2623 -0.2632  0.1055
  143OSM    H4F15731   5.610   0.414   7.136 -0.9074 -2.3931 -1.2755
  143OSM    H4G15732   5.422   0.428   7.167 -0.9065  0.8106 -0.2807
  143OSM    C5F15733   5.520   0.614   7.140  0.1665 -0.0481 -0.6701
  143OSM    H5F15734   5.421   0.660   7.120 -1.4671 -2.7957  0.4883
  143OSM    H5G15735   5.597   0.669   7.082 -1.3164  2.7505 -0.1397
  143OSM    C6F15736   5.532   0.646   7.292 -0.1859 -0.2983 -0.0077
  143OSM    H6F15737   5.430   0.637   7.336  0.2296 -2.4232  0.6271
  143OSM    H6G15738   5.567   0.752   7.299 -1.4777  0.1683 -0.2657
  143OSM    C7F15739   5.630   0.559   7.376 -0.3915  0.2896 -0.1915
  143OSM    H7F15740   5.721   0.538   7.316  0.3063 -0.4508  1.0733
  143OSM    H7G15741   5.581   0.461   7.394 -1.6254  0.8138 -0.6178
  143OSM    C8F15742   5.658   0.628   7.510 -0.1963  0.4745  0.3987
  143OSM    H8F15743   5.710   0.727   7.505  2.7283 -0.9033  1.2170
  143OSM    H8G15744   5.728   0.556   7.557 -1.7611 -1.6482 -0.3900
  143OSM    C9F15745   5.535   0.633   7.594  0.0443  0.8033  1.1250
  143OSM    H9F15746   5.450   0.665   7.533  0.4120 -0.4710 -0.1003
  143OSM   C10F15747   5.502   0.586   7.717  0.4532  0.0175 -0.4958
  143OSM   H10F15748   5.396   0.589   7.745  0.0829 -1.6543 -1.5661
  143OSM   C11F15749   5.592   0.520   7.815  0.0484  0.4563 -0.3798
  143OSM   H11F15750   5.701   0.521   7.792  0.7942 -2.6371  2.3095
  143OSM   H11G15751   5.566   0.413   7.824  0.0722  0.4022 -0.9607
  143OSM   C12F15752   5.567   0.581   7.947 -0.0258  0.4423 -0.0586
  143OSM   H12F15753   5.651   0.539   8.007 -0.8352  1.1820  1.6901
  143OSM   H12G15754   5.472   0.557   8.000  0.0749 -1.0167 -0.5080
  143OSM   C13F15755   5.586   0.735   7.946  0.2343 -0.0063  0.2121
  143OSM   H13F15756   5.484   0.779   7.949 -0.2282 -1.0860  0.7884
  143OSM   H13G15757   5.644   0.771   7.858 -0.5619 -0.1853 -0.3926
  143OSM   C14F15758   5.678   0.777   8.070 -1.0901  0.3345 -0.0236
  143OSM   H14F15759   5.697   0.885   8.055 -1.6996  0.2194 -1.9963
  143OSM   H14G15760   5.774   0.723   8.058 -2.1982 -1.4403 -1.5623
  143OSM   C15F15761   5.624   0.743   8.208 -0.2799  0.5797 -0.5520
  143OSM   H15F15762   5.612   0.633   8.219  0.9846  0.5183  0.5254
  143OSM   H15G15763   5.523   0.786   8.227 -0.3481  0.0462  0.3588
  143OSM   C16F15764   5.712   0.790   8.329 -0.6308 -0.2060 -0.8219
  143OSM   H16F15765   5.816   0.806   8.293 -1.5785 -0.0907 -3.7475
  143OSM   H16G15766   5.713   0.713   8.410 -0.6508  0.5679 -0.0649
  143OSM   C17F15767   5.670   0.918   8.414  0.9937 -0.1483 -0.1814
  143OSM   H17F15768   5.566   0.899   8.447  1.7366 -0.1111  2.3890
  143OSM   H17G15769   5.664   1.010   8.352 -1.0400  0.9856  1.5427
  143OSM   C18F15770   5.753   0.939   8.540  0.3267 -0.1125 -0.0613
  143OSM   H18F15771   5.691   0.949   8.632  1.6115  2.5656  0.6181
  143OSM   H18G15772   5.796   1.038   8.512  0.6253 -0.3302 -0.3699
  143OSM   H18H15773   5.831   0.862   8.554  0.6241  0.1462 -0.2703
  144OSM      N15774   6.127   6.021   5.993  0.1496  0.9321  0.1223
  144OSM    C1515775   6.102   5.906   6.082  0.1213  0.3596  1.0604
  144OSM   H15A15776   6.144   5.904   6.181 -0.4088  0.5015  1.2954
  144OSM   H15B15777   6.122   5.811   6.036  0.2084  2.0262 -2.7199
  144OSM   H15C15778   5.995   5.906   6.101 -0.1859  3.6316  0.0403
  144OSM    C1415779   6.274   6.016   5.974  0.1318 -0.3708  0.0603
  144OSM   H14A15780   6.292   6.112   5.927  0.0794 -0.3184  0.1460
  144OSM   H14B15781   6.308   5.936   5.911 -0.4364 -0.6766  0.1277
  144OSM   H14C15782   6.327   6.014   6.068  1.7621 -3.4713 -0.8098
  144OSM    C1315783   6.069   6.005   5.859  0.2772 -0.8670 -0.3532
  144OSM   H13A15784   5.964   5.981   5.867  0.3954 -1.3102 -0.1532
  144OSM   H13B15785   6.120   5.926   5.806 -2.3812 -0.6890 -3.5387
  144OSM   H13C15786   6.061   6.100   5.808 -2.5996 -0.5873  0.4522
  144OSM    C1215787   6.077   6.150   6.065  0.1394 -0.2545  0.0645
  144OSM   H12A15788   5.971   6.148   6.047 -0.0453 -1.2108  1.1616
  144OSM   H12B15789   6.114   6.240   6.018  0.2742  0.4926  1.5426
  144OSM    C1115790   6.079   6.162   6.220 -0.0736  0.0928  0.1575
  144OSM   H11A15791   6.081   6.272   6.232 -0.2454  0.1273 -0.1324
  144OSM   H11B15792   6.172   6.114   6.259  0.9262 -0.4989 -2.7246
  144OSM      P15793   5.814   6.168   6.267 -0.0674  0.1171  0.4054
  144OSM    O1315794   5.805   6.219   6.132 -0.0801 -0.3416  0.4096
  144OSM    O1415795   5.719   6.066   6.312  0.1666  0.0567  0.1434
  144OSM    O1115796   5.817   6.296   6.359 -0.4533 -0.0511 -0.1920
  144OSM    O1215797   5.960   6.109   6.282 -0.0028  0.5488  0.0262
  144OSM    C1S15798   5.733   6.303   6.471  0.1638 -0.4773 -0.1315
  144OSM    H1S15799   5.644   6.237   6.473 -1.0731  1.1434  0.4200
  144OSM    H1T15800   5.690   6.405   6.482 -0.1654 -0.8642  2.9218
  144OSM     NF15801   5.725   6.294   6.713  0.3072 -0.8598  0.2912
  144OSM    HNF15802   5.709   6.383   6.754 -0.2457 -0.6510 -0.3721
  144OSM    C2S15803   5.820   6.290   6.602  0.5507  0.8082  0.1595
  144OSM    H2S15804   5.870   6.192   6.586  3.1823  2.2016 -0.7273
  144OSM    C3S15805   5.932   6.400   6.605 -0.7015 -0.5132 -0.3144
  144OSM    H3S15806   5.870   6.489   6.628 -1.1467 -1.0383  0.5295
  144OSM     O315807   6.004   6.423   6.480 -0.2647 -0.2637 -0.8762
  144OSM    HO315808   5.945   6.402   6.407  0.4276 -0.4685 -1.3976
  144OSM    C4S15809   6.032   6.381   6.713 -0.1961  0.0551 -0.1226
  144OSM    H4S15810   6.013   6.441   6.803  1.0656  0.2115  0.0631
  144OSM    C5S15811   6.136   6.291   6.711  0.4571 -0.0253 -0.0995
  144OSM    H5S15812   6.133   6.235   6.617 -3.8484 -1.0593  0.4151
  144OSM    C6S15813   6.233   6.264   6.829  0.0591 -0.1617 -0.3857
  144OSM    H6S15814   6.310   6.342   6.846 -0.0653 -0.1918  0.3358
  144OSM    H6T15815   6.301   6.182   6.796  1.2959  0.9011 -0.5404
  144OSM    C7S15816   6.166   6.242   6.962  0.3482  0.0054 -0.0696
  144OSM    H7S15817   6.094   6.158   6.961  1.0330 -0.6464  1.9027
  144OSM    H7T15818   6.102   6.328   6.988 -0.3715 -0.5299 -0.0420
  144OSM    C8S15819   6.265   6.213   7.077  0.2057  0.9592  0.3367
  144OSM    H8S15820   6.320   6.308   7.093  1.0833  0.6195 -0.5537
  144OSM    H8T15821   6.337   6.142   7.030  1.5175  0.9775  2.2206
  144OSM    C9S15822   6.203   6.145   7.189  0.0753  0.7799  0.0675
  144OSM    H9S15823   6.276   6.092   7.254 -1.8045 -0.5384  1.1805
  144OSM    H9T15824   6.141   6.061   7.150  2.0278 -1.8291  2.2084
  144OSM   C10S15825   6.112   6.225   7.275  0.8049  0.1666  0.1429
  144OSM   H10S15826   6.033   6.281   7.220 -0.5914  0.5969  2.4626
  144OSM   H10T15827   6.162   6.304   7.334 -0.7623  1.2648  0.0855
  144OSM   C11S15828   6.036   6.141   7.382  0.4231 -0.5774 -0.6093
  144OSM   H11S15829   6.109   6.094   7.451  0.5764  0.5168  0.0139
  144OSM   H11T15830   5.971   6.071   7.327 -2.3465  2.0385 -0.9356
  144OSM   C12S15831   5.933   6.226   7.467  0.1525 -0.4144  0.4051
  144OSM   H12S15832   5.867   6.143   7.502 -1.5900  1.5397  2.0317
  144OSM   H12T15833   5.873   6.285   7.395  0.6125 -1.1790 -0.6412
  144OSM   C13S15834   6.000   6.302   7.578 -0.7912  0.2221 -0.0424
  144OSM   H13S15835   6.061   6.387   7.541 -0.8446  1.2048  1.9986
  144OSM   H13T15836   6.071   6.226   7.617 -0.4032  0.1562 -0.8514
  144OSM   C14S15837   5.901   6.341   7.687 -0.8729 -0.5469 -0.3885
  144OSM   H14S15838   5.830   6.264   7.724  0.4354 -1.5074  0.1887
  144OSM   H14T15839   5.837   6.424   7.649 -0.3492  0.0641  0.0460
  144OSM   C15S15840   5.969   6.398   7.819 -0.1998  0.4507  0.1517
  144OSM   H15S15841   5.899   6.464   7.874 -0.4471  0.5543 -0.2858
  144OSM   H15T15842   6.048   6.463   7.775  1.6041 -1.4717  0.4185
  144OSM   C16S15843   6.025   6.283   7.909 -0.2772 -0.3831 -0.3940
  144OSM   H16S15844   6.114   6.326   7.960 -0.8143 -1.3008  1.3923
  144OSM   H16T15845   6.060   6.191   7.858  0.2922 -1.4217  1.7554
  144OSM   C17S15846   5.922   6.242   8.011  0.1049 -0.2247  0.2743
  144OSM   H17S15847   5.837   6.199   7.953  0.5366  1.1556 -1.4717
  144OSM   H17T15848   5.883   6.333   8.061 -1.5830  1.1318 -3.1637
  144OSM   C18S15849   5.986   6.159   8.115  0.0508 -0.5453 -0.6532
  144OSM   H18S15850   6.065   6.206   8.177 -0.5263  1.0107 -1.0344
  144OSM   H18T15851   6.035   6.074   8.064 -1.7664 -0.7420 -2.1985
  144OSM   H18U15852   5.915   6.111   8.185 -2.2261  2.8767 -0.3671
  144OSM    C1F15853   5.641   6.196   6.734 -0.2154 -0.0847  0.5400
  144OSM     OF15854   5.656   6.094   6.666 -0.2054 -0.3782 -0.7957
  144OSM    C2F15855   5.531   6.220   6.823  0.0275 -0.6074 -0.5266
  144OSM    H2F15856   5.549   6.303   6.895  1.6101 -0.8289 -0.6410
  144OSM    H2G15857   5.524   6.125   6.879  2.5591 -0.8898 -0.5662
  144OSM    C3F15858   5.398   6.240   6.753 -0.0420 -0.1917  0.1232
  144OSM    H3F15859   5.379   6.158   6.680 -0.4992 -0.2098  0.2605
  144OSM    H3G15860   5.405   6.331   6.690  1.1539 -1.1382 -1.1925
  144OSM    C4F15861   5.268   6.247   6.842 -0.0729 -0.2465  0.6012
  144OSM    H4F15862   5.248   6.140   6.865 -0.3763 -0.3070  0.0782
  144OSM    H4G15863   5.191   6.301   6.783  2.1460  1.3100 -1.0672
  144OSM    C5F15864   5.294   6.318   6.972 -0.0749 -0.0501 -0.2644
  144OSM    H5F15865   5.365   6.402   6.956 -2.2551  1.9939  0.1944
  144OSM    H5G15866   5.340   6.246   7.042  0.7979 -0.7316 -1.4933
  144OSM    C6F15867   5.165   6.387   7.027 -0.6976 -0.1434 -0.0344
  144OSM    H6F15868   5.099   6.303   7.057  2.7782 -2.7762  0.9272
  144OSM    H6G15869   5.104   6.430   6.945 -0.8994  1.8745  1.1272
  144OSM    C7F15870   5.184   6.486   7.147  0.6468 -0.1608  0.5243
  144OSM    H7F15871   5.122   6.576   7.128 -0.6533 -0.9083  1.0629
  144OSM    H7G15872   5.293   6.504   7.147  1.0916 -2.3971 -1.3659
  144OSM    C8F15873   5.124   6.435   7.280 -0.2539  0.3075  0.3316
  144OSM    H8F15874   5.167   6.497   7.361  1.1936 -0.7297  0.4018
  144OSM    H8G15875   5.164   6.332   7.292 -1.8742 -0.4422 -0.3336
  144OSM    C9F15876   4.968   6.430   7.283 -0.2277  0.4225 -0.0485
  144OSM    H9F15877   4.918   6.357   7.218 -0.9738  1.9250 -1.1880
  144OSM   C10F15878   4.887   6.506   7.364  0.3649 -0.8587  0.7295
  144OSM   H10F15879   4.781   6.479   7.356 -0.7183  3.3000 -2.6883
  144OSM   C11F15880   4.931   6.618   7.459  0.1788 -0.1130 -0.1516
  144OSM   H11F15881   4.880   6.715   7.439 -1.1896 -1.1699 -2.1299
  144OSM   H11G15882   5.040   6.631   7.472 -0.0591  0.0463  2.0895
  144OSM   C12F15883   4.895   6.564   7.602 -0.1892 -0.0298  0.2890
  144OSM   H12F15884   4.947   6.627   7.677 -0.8452  0.4910  0.3163
  144OSM   H12G15885   4.923   6.457   7.612 -2.4453 -0.9423 -2.0147
  144OSM   C13F15886   4.748   6.579   7.633 -0.0947  0.1244  0.4430
  144OSM   H13F15887   4.673   6.552   7.556  0.2658  0.4877 -0.0402
  144OSM   H13G15888   4.730   6.688   7.648 -0.1020  0.2612 -0.4996
  144OSM   C14F15889   4.703   6.498   7.755  0.3595 -0.3238 -0.3879
  144OSM   H14F15890   4.779   6.507   7.836 -1.7549  0.3302  1.6587
  144OSM   H14G15891   4.682   6.394   7.724 -0.9702 -0.3940  0.6493
  144OSM   C15F15892   4.569   6.537   7.822 -0.5511  0.3686 -0.3240
  144OSM   H15F15893   4.492   6.509   7.746  0.9963 -0.9636 -1.4526
  144OSM   H15G15894   4.565   6.647   7.839  3.5215  0.3989  1.3777
  144OSM   C16F15895   4.533   6.481   7.962  0.4162 -0.2293  0.2845
  144OSM   H16F15896   4.623   6.507   8.022  1.0660  0.0795 -0.8042
  144OSM   H16G15897   4.521   6.371   7.967  0.9471 -0.2398  2.0602
  144OSM   C17F15898   4.409   6.549   8.021  0.0220 -0.2656  0.6896
  144OSM   H17F15899   4.322   6.538   7.952  0.6415  0.7410 -0.2802
  144OSM   H17G15900   4.437   6.656   8.030  1.4483 -0.4222 -1.3269
  144OSM   C18F15901   4.357   6.495   8.158 -0.3421  0.1062  0.1778
  144OSM   H18F15902   4.437   6.533   8.224  1.1230  1.0686 -2.0342
  144OSM   H18G15903   4.352   6.384   8.158  2.4568 -0.1746  3.4188
  144OSM   H18H15904   4.261   6.540   8.192 -0.4629  0.3425 -0.4541
  145SAPE     N15905   4.125   1.699  10.891 -0.0952  0.4734  0.3418
  145SAPE   HN115906   4.172   1.765  10.825  1.4878 -0.3119  0.6508
  145SAPE   HN215907   4.138   1.727  10.990  0.2823  0.7065  0.2288
  145SAPE   HN315908   4.162   1.604  10.875 -3.9082 -1.1281 -0.2138
  145SAPE   C1215909   3.979   1.668  10.859  0.3179 -0.0039 -0.2961
  145SAPE  H12A15910   3.928   1.766  10.866  0.1934 -0.1204  0.4872
  145SAPE  H12B15911   3.966   1.603  10.949 -0.5262 -0.3387 -0.6506
  145SAPE   C1115912   3.980   1.591  10.726 -0.1733 -0.9068 -0.5234
  145SAPE  H11A15913   4.028   1.648  10.644 -0.1518 -1.8934 -1.1989
  145SAPE  H11B15914   3.873   1.577  10.701 -0.8498  1.5025  0.6500
  145SAPE     P15915   3.985   1.333  10.684  0.2972  0.1389  0.1175
  145SAPE   O1315916   4.078   1.223  10.666 -0.3396 -0.0936  0.6524
  145SAPE   O1415917   3.875   1.302  10.776 -0.4050 -0.2051  0.0488
  145SAPE   O1215918   4.055   1.473  10.738  0.0371 -0.3714  0.1598
  145SAPE   O1115919   3.927   1.372  10.542 -0.6294  0.1092  0.7299
  145SAPE    C115920   4.017   1.410  10.438  0.7094 -0.6282 -0.4283
  145SAPE    HA15921   3.970   1.489  10.376  1.2148 -0.9682 -1.2635
  145SAPE    HB15922   4.111   1.459  10.471 -0.6867  1.1636  1.0971
  145SAPE    C215923   4.054   1.297  10.340  0.4629 -0.8059 -1.1882
  145SAPE    HS15924   4.130   1.239  10.396  0.9202 -0.8393 -1.8317
  145SAPE   O2115925   4.105   1.345  10.221 -0.3198 -0.6793 -0.8110
  145SAPE   C2115926   4.214   1.415  10.229 -0.4961  0.8786  0.2924
  145SAPE   O2215927   4.295   1.419  10.319  0.3695  0.0778 -0.3335
  145SAPE   C2215928   4.236   1.495  10.101  0.1553  0.6121  0.2629
  145SAPE   H2R15929   4.242   1.420  10.020  1.1475  0.4768  0.4449
  145SAPE   H2S15930   4.146   1.559  10.089 -3.1246 -3.0652  2.5988
  145SAPE    C315931   3.941   1.194  10.309  0.2145  1.1050 -0.5244
  145SAPE    HX15932   3.843   1.239  10.284 -0.8453 -0.2883  0.9202
  145SAPE    HY15933   3.914   1.148  10.407  1.1732  1.0567 -0.2767
  145SAPE   O3115934   3.975   1.102  10.205 -0.3889 -0.3738  0.0706
  145SAPE   C3115935   4.042   0.996  10.232  0.3816  0.1466 -0.3719
  145SAPE   O3215936   4.061   0.947  10.345  0.2629 -0.6363  0.0061
  145SAPE   C3215937   4.099   0.945  10.104 -1.0601  0.2584 -0.0018
  145SAPE   H2X15938   4.143   0.843  10.104  0.1290  0.6743 -2.4969
  145SAPE   H2Y15939   4.186   1.008  10.077  0.6549 -2.0381 -0.1560
  145SAPE   C2315940   4.362   1.586  10.100 -0.2797  0.0679 -0.4493
  145SAPE   H3R15941   4.444   1.515  10.125 -0.9984 -0.5892  0.1230
  145SAPE   H3S15942   4.348   1.652  10.189  3.4265  1.2194 -0.5463
  145SAPE   C2415943   4.400   1.650   9.966  0.0825  0.1528  0.2471
  145SAPE   H4R15944   4.489   1.715   9.983 -0.1223  0.9205 -1.4295
  145SAPE   H4S15945   4.312   1.717   9.955  1.6575  2.3607  0.5398
  145SAPE   C2515946   4.421   1.557   9.849 -0.1856  0.0202  0.0997
  145SAPE   H5R15947   4.490   1.474   9.869  1.4725  1.1060 -0.9098
  145SAPE   C2615948   4.378   1.569   9.724  0.8754 -0.5346 -0.1645
  145SAPE   H6R15949   4.402   1.495   9.646 -0.6491 -1.7579  0.4612
  145SAPE   C2715950   4.295   1.685   9.677 -0.3127 -0.2439 -0.6727
  145SAPE   H7R15951   4.328   1.778   9.729  0.9244 -0.8619 -0.3057
  145SAPE   H7S15952   4.193   1.662   9.714 -0.7635  2.0338 -0.3329
  145SAPE   C2815953   4.311   1.717   9.528  0.4968 -0.2731 -0.3864
  145SAPE   H8R15954   4.388   1.791   9.503 -0.8668  0.1568 -3.8682
  145SAPE   C2915955   4.230   1.663   9.433  0.3138  0.5789  0.2550
  145SAPE   H9R15956   4.253   1.694   9.330 -0.9568 -0.7345 -0.4512
  145SAPE  C21015957   4.115   1.567   9.463 -0.9496  0.2450 -0.4517
  145SAPE  H10R15958   4.083   1.583   9.568  0.2949  1.8296 -0.2672
  145SAPE  H10S15959   4.157   1.465   9.471  0.0341  0.7653  2.0455
  145SAPE  C21115960   3.998   1.587   9.366  0.3371  0.1558  0.1673
  145SAPE  H11R15961   4.026   1.597   9.260  1.8995  1.6663  0.6656
  145SAPE  C21215962   3.866   1.584   9.409  0.3302 -0.3048  0.0934
  145SAPE  H12R15963   3.785   1.606   9.338 -1.7496  0.6367  2.6278
  145SAPE  C21315964   3.809   1.557   9.549 -0.1582 -0.2072 -0.3497
  145SAPE  H13R15965   3.886   1.534   9.625  2.4497 -1.7628 -3.2218
  145SAPE  H13S15966   3.760   1.458   9.537  2.1317 -1.2395 -1.7965
  145SAPE  C21415967   3.725   1.667   9.603  0.4636  0.4820 -0.0421
  145SAPE  H14R15968   3.779   1.762   9.619 -1.0373  1.3248  0.1758
  145SAPE  C21515969   3.589   1.677   9.605  0.0776 -0.0115  0.0465
  145SAPE  H15R15970   3.551   1.776   9.635  2.2599  1.2947 -1.2132
  145SAPE  C21615971   3.483   1.574   9.560 -0.5870 -0.2102 -0.0631
  145SAPE  H16R15972   3.405   1.568   9.639  0.0010 -0.3408  0.5144
  145SAPE  H16S15973   3.522   1.471   9.544 -1.2728 -0.3423 -1.0055
  145SAPE  C21715974   3.414   1.619   9.434 -0.9988  0.2920 -0.6001
  145SAPE  H17R15975   3.483   1.584   9.354  1.8175 -0.0556  1.7961
  145SAPE  H17S15976   3.402   1.729   9.431  0.1100  0.6462  2.7295
  145SAPE  C21815977   3.277   1.555   9.426  0.0895 -1.0215  0.8605
  145SAPE  H18R15978   3.209   1.610   9.494 -1.4544 -3.7162  1.6496
  145SAPE  H18S15979   3.268   1.451   9.465  2.0168 -0.3639  3.3859
  145SAPE  C21915980   3.222   1.560   9.286  0.2636  0.2145 -0.3209
  145SAPE  H19R15981   3.257   1.651   9.233  3.1631 -0.2259  0.6675
  145SAPE  H19S15982   3.113   1.569   9.303  0.3477 -0.0034  0.3567
  145SAPE  C22015983   3.261   1.439   9.203  0.3768 -0.0062 -0.2996
  145SAPE  H20R15984   3.254   1.340   9.252  0.6224  0.6945  1.2060
  145SAPE  H20S15985   3.369   1.438   9.177  0.4606  1.9835 -0.1886
  145SAPE  H20T15986   3.214   1.440   9.102  0.0315 -1.1292 -0.1548
  145SAPE   C3315987   4.009   0.939   9.981  0.6718 -0.3148 -0.4647
  145SAPE   H3X15988   3.987   1.046   9.962  0.7438  0.1232  1.6607
  145SAPE   H3Y15989   3.919   0.877  10.000  1.5467 -1.3323  0.5509
  145SAPE   C3415990   4.085   0.894   9.852  0.1152  0.3754 -0.4653
  145SAPE   H4X15991   4.130   0.794   9.868 -1.6466 -0.1152  1.9201
  145SAPE   H4Y15992   4.155   0.974   9.819  0.3616 -0.4200 -1.9846
  145SAPE   C3515993   3.987   0.871   9.733 -0.8331 -0.3109 -0.0291
  145SAPE   H5X15994   3.891   0.821   9.756 -1.4020 -0.3921 -2.3499
  145SAPE   H5Y15995   4.034   0.794   9.668 -1.2205 -3.2101  2.8627
  145SAPE   C3615996   3.971   1.008   9.648 -0.8915  0.1759 -0.4284
  145SAPE   H6X15997   4.075   1.038   9.621 -1.3422  2.0086 -0.2541
  145SAPE   H6Y15998   3.927   1.101   9.689 -1.3693 -0.6069  0.8828
  145SAPE   C3715999   3.893   0.986   9.517  0.4745 -0.0494 -0.2780
  145SAPE   H7X16000   3.809   0.916   9.539  1.7883 -0.8997  2.4882
  145SAPE   H7Y16001   3.965   0.919   9.464  0.7793 -0.4623  0.6240
  145SAPE   C3816002   3.862   1.118   9.435 -0.3249  0.0137  0.0573
  145SAPE   H8X16003   3.965   1.159   9.423  0.1796 -0.4175  2.4227
  145SAPE   H8Y16004   3.809   1.192   9.499  0.9948  0.9606  0.0955
  145SAPE   C3916005   3.792   1.083   9.308  0.1163  0.0589 -0.5764
  145SAPE   H9X16006   3.685   1.114   9.312  0.6503  1.8683  0.4032
  145SAPE   H9Y16007   3.805   0.973   9.292 -1.8961 -0.7457  2.3894
  145SAPE  C31016008   3.844   1.159   9.185 -0.7257  0.4385  0.1635
  145SAPE  H10X16009   3.782   1.130   9.098 -0.8062  2.2292 -0.4222
  145SAPE  H10Y16010   3.948   1.128   9.159 -1.9703 -3.2023 -1.1109
  145SAPE  C31116011   3.820   1.309   9.196 -0.7014 -0.1895  0.4055
  145SAPE  H11X16012   3.878   1.334   9.288  0.3899 -0.9567 -0.0549
  145SAPE  H11Y16013   3.713   1.325   9.221 -0.9636 -0.3967 -0.5466
  145SAPE  C31216014   3.851   1.393   9.072 -0.5703 -0.4642  0.1424
  145SAPE  H12X16015   3.829   1.500   9.097  1.1771  0.1141 -0.6607
  145SAPE  H12Y16016   3.792   1.367   8.982  1.1031 -2.5784 -0.4321
  145SAPE  C31316017   4.000   1.401   9.033 -0.0863  0.1042 -0.3429
  145SAPE  H13X16018   4.024   1.312   8.972 -0.9162  0.7544 -1.6745
  145SAPE  H13Y16019   4.061   1.399   9.125  0.2405 -1.0771 -0.5758
  145SAPE  C31416020   4.044   1.535   8.961  0.6324  0.2110  0.1727
  145SAPE  H14X16021   4.000   1.629   9.000 -0.0628  0.4549 -1.1421
  145SAPE  H14Y16022   4.003   1.535   8.858 -1.6660 -0.0961  1.0310
  145SAPE  C31516023   4.197   1.538   8.965  0.3567 -0.3112  0.5928
  145SAPE  H15X16024   4.228   1.556   9.070  0.9530  1.1971  0.1789
  145SAPE  H15Y16025   4.232   1.630   8.913  0.5799 -0.5257  0.3642
  145SAPE  C31616026   4.261   1.420   8.909 -1.0361  0.2168  0.5306
  145SAPE  H16X16027   4.220   1.392   8.809  0.7957 -2.0780  0.3147
  145SAPE  H16Y16028   4.237   1.332   8.973  0.7456 -0.6686  0.0659
  145SAPE  C31716029   4.414   1.431   8.900 -0.1324  0.5495 -0.8121
  145SAPE  H17X16030   4.444   1.511   8.830  0.2227  1.1163 -0.0281
  145SAPE  H17Y16031   4.430   1.328   8.861  0.3844  0.7369 -1.1101
  145SAPE  C31816032   4.472   1.454   9.044  0.4752  0.1323 -0.0494
  145SAPE  H18X16033   4.439   1.553   9.081  0.2765  0.6420 -1.5392
  145SAPE  H18Y16034   4.583   1.452   9.043  0.4740  0.0376 -0.0734
  145SAPE  H18Z16035   4.435   1.371   9.108  0.1612 -0.0190 -0.4197
  146SAPE     N16036   3.012   2.079  10.817  0.1875  0.1455  0.7895
  146SAPE   HN116037   2.965   2.160  10.862 -0.9164 -1.5162  2.7978
  146SAPE   HN216038   2.951   1.996  10.828 -0.4006  0.1865 -1.5765
  146SAPE   HN316039   3.099   2.062  10.872  0.0462  2.5907  1.9158
  146SAPE   C1216040   3.068   2.112  10.680  0.4061  0.1613  0.1181
  146SAPE  H12A16041   2.981   2.125  10.612  1.7059  0.3383 -1.5868
  146SAPE  H12B16042   3.122   2.021  10.647 -0.3546 -0.2371 -0.0498
  146SAPE   C1116043   3.156   2.228  10.684  0.0866 -0.1041 -0.3954
  146SAPE  H11A16044   3.112   2.330  10.677  1.0543  0.4597  1.2010
  146SAPE  H11B16045   3.225   2.217  10.597 -0.9223  2.1621 -1.5815
  146SAPE     P16046   3.388   2.254  10.814 -0.2741  0.1591  0.2196
  146SAPE   O1316047   3.402   2.308  10.955 -0.1503  1.1086 -0.2952
  146SAPE   O1416048   3.470   2.140  10.762 -0.3854 -0.0469 -0.4104
  146SAPE   O1216049   3.236   2.222  10.800  0.3379  0.4089  0.3286
  146SAPE   O1116050   3.410   2.379  10.720  0.0238  0.0456 -0.1333
  146SAPE    C116051   3.526   2.459  10.684 -0.0694  0.7071  0.2505
  146SAPE    HA16052   3.504   2.567  10.701  1.3196  1.4724 -2.2947
  146SAPE    HB16053   3.605   2.433  10.757  0.2634  1.0299  0.0055
  146SAPE    C216054   3.569   2.439  10.533 -0.0824  0.5808  0.1832
  146SAPE    HS16055   3.618   2.531  10.496  1.4673  0.2109  1.2158
  146SAPE   O2116056   3.459   2.401  10.448  0.0705  1.0587  0.3665
  146SAPE   C2116057   3.368   2.498  10.441  1.3212 -1.3970 -0.0813
  146SAPE   O2216058   3.387   2.612  10.473 -0.3355  0.2713 -0.6726
  146SAPE   C2216059   3.233   2.450  10.383 -0.3321  0.2130 -0.0003
  146SAPE   H2R16060   3.252   2.424  10.277  1.0664 -1.7227  0.6821
  146SAPE   H2S16061   3.212   2.356  10.438  0.4225  0.2409  0.3502
  146SAPE    C316062   3.682   2.322  10.514  0.0469 -0.6066 -0.3112
  146SAPE    HX16063   3.650   2.233  10.572 -1.9399  0.4406  0.2914
  146SAPE    HY16064   3.774   2.365  10.559 -0.3098 -0.7223  0.5433
  146SAPE   O3116065   3.698   2.298  10.363 -0.0949 -0.4326 -0.1648
  146SAPE   C3116066   3.783   2.387  10.308  0.1731 -0.3656  0.7790
  146SAPE   O3216067   3.847   2.469  10.367 -0.0021 -0.3582 -0.3141
  146SAPE   C3216068   3.777   2.369  10.150  0.3397  0.8576 -0.0646
  146SAPE   H2X16069   3.689   2.430  10.122  0.4798  1.4146  0.6883
  146SAPE   H2Y16070   3.746   2.264  10.130  1.3616  0.5940 -0.3400
  146SAPE   C2316071   3.110   2.544  10.384 -0.2483  0.4173  0.8126
  146SAPE   H3R16072   3.089   2.576  10.488  0.1465  1.1172  0.6820
  146SAPE   H3S16073   3.026   2.478  10.353 -0.9067  0.8586  1.6059
  146SAPE   C2416074   3.119   2.663  10.294 -0.1953  0.5944  0.5703
  146SAPE   H4R16075   3.207   2.730  10.307 -0.6027  1.2171  0.1458
  146SAPE   H4S16076   3.037   2.732  10.322 -0.3147  0.7463 -0.1348
  146SAPE   C2516077   3.103   2.622  10.150 -0.8417  0.0212  0.3839
  146SAPE   H5R16078   3.003   2.605  10.108  0.3787  0.9033 -3.3291
  146SAPE   C2616079   3.195   2.602  10.053  0.6675 -0.0493  0.2245
  146SAPE   H6R16080   3.161   2.588   9.949  2.4713  2.2764 -0.7671
  146SAPE   C2716081   3.345   2.616  10.071  0.3464 -0.3623  0.1927
  146SAPE   H7R16082   3.374   2.615  10.178  0.0589 -1.5399  0.2710
  146SAPE   H7S16083   3.365   2.719  10.035  2.0103 -0.2780  1.2429
  146SAPE   C2816084   3.425   2.516   9.992 -0.6467 -0.0666 -0.0631
  146SAPE   H8R16085   3.438   2.415  10.032 -1.7835  0.4392  1.6894
  146SAPE   C2916086   3.481   2.540   9.871  0.2586  0.0616  0.0792
  146SAPE   H9R16087   3.549   2.465   9.829  1.2659  0.8826  0.2146
  146SAPE  C21016088   3.484   2.664   9.786 -0.6136  0.0838  0.9244
  146SAPE  H10R16089   3.583   2.689   9.741 -1.6572  3.0059  0.0298
  146SAPE  H10S16090   3.449   2.748   9.850 -0.1667 -0.1606  1.5076
  146SAPE  C21116091   3.385   2.635   9.676  0.1451  0.4984  0.0714
  146SAPE  H11R16092   3.289   2.620   9.728  0.1832  1.3426  0.3868
  146SAPE  C21216093   3.407   2.611   9.549  0.0249 -0.1180  0.2908
  146SAPE  H12R16094   3.317   2.591   9.490 -0.1483  2.5811 -0.5076
  146SAPE  C21316095   3.537   2.617   9.480 -0.5019  0.2961 -0.3713
  146SAPE  H13R16096   3.554   2.512   9.448 -0.7018 -0.2899  1.3310
  146SAPE  H13S16097   3.622   2.630   9.549 -0.4964 -1.0566 -0.0918
  146SAPE  C21416098   3.533   2.718   9.357 -0.2486 -0.2070 -0.6565
  146SAPE  H14R16099   3.563   2.822   9.378 -0.7335 -0.1027 -0.4822
  146SAPE  C21516100   3.512   2.691   9.227 -0.2837  0.1772  0.2142
  146SAPE  H15R16101   3.543   2.769   9.156 -2.1685 -0.5912 -1.5566
  146SAPE  C21616102   3.484   2.560   9.162  0.4914 -0.7070  0.8704
  146SAPE  H16R16103   3.379   2.529   9.184  0.3614 -1.1117 -0.2556
  146SAPE  H16S16104   3.542   2.475   9.205 -0.8058 -2.3055 -0.3854
  146SAPE  C21716105   3.493   2.557   9.012  0.0061 -0.0811 -0.1308
  146SAPE  H17R16106   3.588   2.607   8.987  0.2140  1.0829  2.6274
  146SAPE  H17S16107   3.409   2.607   8.960 -0.8428 -1.3571 -0.0491
  146SAPE  C21816108   3.499   2.418   8.942 -0.1306  0.6024 -0.6004
  146SAPE  H18R16109   3.409   2.354   8.959 -0.8790  1.2701 -1.8567
  146SAPE  H18S16110   3.588   2.376   8.993  0.7075  0.9596 -1.7168
  146SAPE  C21916111   3.532   2.422   8.795  0.4592  0.2265 -0.4286
  146SAPE  H19R16112   3.594   2.509   8.765  1.2814  0.0460  0.6802
  146SAPE  H19S16113   3.434   2.444   8.749  0.2472 -1.0149 -0.5971
  146SAPE  C22016114   3.571   2.292   8.742  0.2679 -0.0737 -0.4883
  146SAPE  H20R16115   3.651   2.247   8.805 -1.1728  1.7793  2.9306
  146SAPE  H20S16116   3.596   2.287   8.634  0.2583  0.3447 -0.5099
  146SAPE  H20T16117   3.486   2.221   8.755 -0.9026  1.5154  0.9005
  146SAPE   C3316118   3.913   2.408  10.078  0.3947 -0.4324  0.2971
  146SAPE   H3X16119   3.988   2.326  10.081  0.2806 -0.5223  0.9926
  146SAPE   H3Y16120   3.960   2.498  10.122  0.1038 -0.4421  0.6322
  146SAPE   C3416121   3.888   2.444   9.931 -0.2931  0.5084  0.6789
  146SAPE   H4X16122   3.982   2.475   9.881 -0.4823  0.5245  0.3269
  146SAPE   H4Y16123   3.833   2.540   9.929  0.4460  0.9234 -0.4655
  146SAPE   C3516124   3.804   2.346   9.836  0.7760  0.0198 -0.2315
  146SAPE   H5X16125   3.699   2.334   9.872  0.2411 -0.1377 -1.7840
  146SAPE   H5Y16126   3.842   2.243   9.846  0.5963  0.0821  1.4797
  146SAPE   C3616127   3.809   2.393   9.693  0.1457  0.3641  0.2523
  146SAPE   H6X16128   3.913   2.423   9.667  0.0408  0.6205  0.1315
  146SAPE   H6Y16129   3.753   2.487   9.676  0.7638  0.8500  0.8609
  146SAPE   C3716130   3.758   2.290   9.594  0.4408 -0.1710  0.9958
  146SAPE   H7X16131   3.816   2.195   9.598  0.0847 -0.4310  0.1674
  146SAPE   H7Y16132   3.774   2.337   9.495 -1.0518  1.3499  1.4393
  146SAPE   C3816133   3.613   2.244   9.616  0.0269  0.8349  0.2027
  146SAPE   H8X16134   3.557   2.340   9.619 -2.5257 -0.6016  2.0190
  146SAPE   H8Y16135   3.597   2.194   9.714  2.4651  1.2404  0.8818
  146SAPE   C3916136   3.567   2.152   9.502 -0.3987 -0.2879  0.0339
  146SAPE   H9X16137   3.466   2.115   9.529  0.1306 -0.5690  1.7476
  146SAPE   H9Y16138   3.629   2.062   9.481 -1.1442 -1.4740  2.5505
  146SAPE  C31016139   3.560   2.217   9.363  0.0127 -0.0093  0.1668
  146SAPE  H10X16140   3.660   2.262   9.348 -0.7137  1.3254 -0.9098
  146SAPE  H10Y16141   3.495   2.306   9.374  0.8410  0.3246  3.4491
  146SAPE  C31116142   3.510   2.122   9.260  0.1370  0.3741  0.4222
  146SAPE  H11X16143   3.491   2.178   9.166  0.3552 -1.6726 -0.9065
  146SAPE  H11Y16144   3.416   2.070   9.288  0.6891 -0.9321 -0.0841
  146SAPE  C31216145   3.603   2.016   9.210  0.1988  0.3733 -0.1407
  146SAPE  H12X16146   3.623   1.944   9.293  0.9496 -0.7882 -1.2998
  146SAPE  H12Y16147   3.701   2.065   9.195 -0.6864  1.8962 -1.2101
  146SAPE  C31316148   3.542   1.934   9.096  0.0515  0.2768 -0.0183
  146SAPE  H13X16149   3.490   1.994   9.019  1.1080 -0.8136 -1.6296
  146SAPE  H13Y16150   3.470   1.859   9.136  1.6435 -1.0633  0.4385
  146SAPE  C31416151   3.642   1.852   9.020 -0.1667 -0.2192  0.4420
  146SAPE  H14X16152   3.700   1.781   9.084 -0.3792 -1.0424 -0.2566
  146SAPE  H14Y16153   3.710   1.923   8.968 -0.7865 -1.0593 -1.6159
  146SAPE  C31516154   3.574   1.761   8.914  0.6135  0.1947 -0.1879
  146SAPE  H15X16155   3.643   1.719   8.838 -1.6194  0.0153 -2.2586
  146SAPE  H15Y16156   3.514   1.820   8.841 -0.0371  0.5927  0.6551
  146SAPE  C31616157   3.487   1.636   8.951 -0.5328 -0.2790  0.5799
  146SAPE  H16X16158   3.409   1.670   9.022  0.9829  1.9026  1.3258
  146SAPE  H16Y16159   3.555   1.571   9.010  2.2882  2.9195  1.1319
  146SAPE  C31716160   3.426   1.565   8.827 -0.5327  0.3635  0.1340
  146SAPE  H17X16161   3.516   1.527   8.774  0.6300 -1.1208  2.9526
  146SAPE  H17Y16162   3.393   1.654   8.770  1.7416  1.2115  0.0269
  146SAPE  C31816163   3.314   1.462   8.849 -0.0727  0.0584  0.1873
  146SAPE  H18X16164   3.306   1.407   8.752 -1.0629  0.4897  0.0083
  146SAPE  H18Y16165   3.219   1.511   8.880  0.9636  0.8228  2.2671
  146SAPE  H18Z16166   3.337   1.394   8.934 -0.5298  3.1137  2.9465
  147SAPE     N16167   0.121   4.837  11.218 -0.1806 -0.3968 -0.0164
  147SAPE   HN116168   0.136   4.759  11.285 -0.8567 -0.8983 -0.4429
  147SAPE   HN216169   0.207   4.865  11.166 -1.0533  0.6869 -0.9358
  147SAPE   HN316170   0.100   4.922  11.274 -0.0551 -0.5880  0.3210
  147SAPE   C1216171  -0.005   4.816  11.145 -0.4357 -0.0742  0.1563
  147SAPE  H12A16172  -0.088   4.810  11.219 -0.3508 -1.7522  0.1584
  147SAPE  H12B16173   0.005   4.716  11.098  1.8614  0.8406 -1.4797
  147SAPE   C1116174  -0.033   4.930  11.040 -0.2646 -0.1401 -0.4059
  147SAPE  H11A16175  -0.058   5.023  11.096  0.7281 -0.2062  0.1754
  147SAPE  H11B16176  -0.118   4.894  10.978 -0.3981 -1.5391  0.5511
  147SAPE     P16177   0.077   5.042  10.838  0.5020 -0.2807 -0.4606
  147SAPE   O1316178  -0.016   5.156  10.863 -0.9942  0.8273  0.3589
  147SAPE   O1416179   0.213   5.079  10.794  0.4127  0.6520  1.0900
  147SAPE   O1216180   0.080   4.951  10.960 -0.3052 -0.4877 -0.3753
  147SAPE   O1116181   0.003   4.935  10.741  0.3882  0.4661  0.0705
  147SAPE    C116182   0.067   4.805  10.732  0.4040 -0.2653  0.7132
  147SAPE    HA16183   0.169   4.798  10.776 -0.4150 -2.8202  2.4442
  147SAPE    HB16184   0.007   4.717  10.766 -0.1827  0.4978  1.6887
  147SAPE    C216185   0.095   4.788  10.572 -0.1747 -0.6332 -0.8803
  147SAPE    HS16186   0.140   4.687  10.564  2.4860  0.4824 -1.1573
  147SAPE   O2116187   0.191   4.885  10.529 -0.4725 -0.0486 -1.0613
  147SAPE   C2116188   0.323   4.851  10.548 -0.3241  0.0011 -0.4749
  147SAPE   O2216189   0.369   4.761  10.615 -0.4326 -0.2303  0.0106
  147SAPE   C2216190   0.396   4.945  10.453 -0.4985 -0.4565  0.1627
  147SAPE   H2R16191   0.498   4.940  10.495 -0.1787 -0.3414 -0.5932
  147SAPE   H2S16192   0.382   4.899  10.353  0.6326 -0.7010  0.1130
  147SAPE    C316193  -0.036   4.806  10.498 -0.2446  0.1623 -0.1490
  147SAPE    HX16194  -0.070   4.911  10.503 -3.2826 -0.7739  0.7714
  147SAPE    HY16195  -0.109   4.754  10.563  1.6613 -0.7474  1.3971
  147SAPE   O3116196  -0.020   4.768  10.365  0.2884 -0.4281  0.2971
  147SAPE   C3116197  -0.074   4.648  10.337  0.0774 -0.8672  0.2499
  147SAPE   O3216198  -0.104   4.569  10.423  0.5621  0.9272 -0.4042
  147SAPE   C3216199  -0.075   4.622  10.190  0.3693 -0.0540  0.9605
  147SAPE   H2X16200   0.006   4.671  10.133  0.1019  1.0341  1.4770
  147SAPE   H2Y16201  -0.173   4.653  10.148  0.4325  0.2042  0.9983
  147SAPE   C2316202   0.350   5.094  10.460 -0.3736 -0.5508 -0.4240
  147SAPE   H3R16203   0.329   5.128  10.563  1.5745  0.5281 -0.3357
  147SAPE   H3S16204   0.258   5.120  10.403  0.2407  3.1938  0.0320
  147SAPE   C2416205   0.460   5.182  10.404 -0.1601 -0.3753 -0.5075
  147SAPE   H4R16206   0.552   5.173  10.466 -0.3677  2.4844  0.3534
  147SAPE   H4S16207   0.436   5.290  10.411  2.2985  0.1795  0.5706
  147SAPE   C2516208   0.489   5.148  10.258  0.4579  0.6139 -0.0275
  147SAPE   H5R16209   0.563   5.072  10.230 -2.1440 -1.6915 -1.1571
  147SAPE   C2616210   0.432   5.196  10.149 -0.4092  0.9612 -0.6751
  147SAPE   H6R16211   0.473   5.163  10.052 -1.2980  0.5412 -0.9185
  147SAPE   C2716212   0.335   5.313  10.141 -0.1056  0.0564  0.6009
  147SAPE   H7R16213   0.337   5.363  10.240  0.7146 -0.5436  0.8942
  147SAPE   H7S16214   0.235   5.267  10.131 -0.3164  0.7422 -0.8096
  147SAPE   C2816215   0.366   5.422  10.038 -0.2813 -0.4629 -0.8564
  147SAPE   H8R16216   0.407   5.509  10.092 -2.8659 -0.1820  0.8392
  147SAPE   C2916217   0.341   5.420   9.912  0.2445 -0.4465 -0.2748
  147SAPE   H9R16218   0.371   5.504   9.848  1.8857 -2.4239 -2.2870
  147SAPE  C21016219   0.286   5.307   9.829  0.2593 -0.5153 -0.4341
  147SAPE  H10R16220   0.336   5.216   9.866  0.9179  0.3517  0.8899
  147SAPE  H10S16221   0.326   5.307   9.725  2.5430  1.1600  0.3647
  147SAPE  C21116222   0.132   5.293   9.842 -0.1270 -0.6122 -0.2950
  147SAPE  H11R16223   0.075   5.335   9.926  2.0399 -2.3778  2.2293
  147SAPE  C21216224   0.054   5.241   9.745 -0.0968 -1.1273  0.4275
  147SAPE  H12R16225  -0.054   5.239   9.764  0.0013  0.1168  1.2457
  147SAPE  C21316226   0.105   5.207   9.607  0.9559  0.4029  0.1356
  147SAPE  H13R16227   0.203   5.153   9.610  0.7960 -0.1835 -2.5905
  147SAPE  H13S16228   0.112   5.303   9.551 -1.0449  0.9412  0.7453
  147SAPE  C21416229   0.006   5.119   9.540 -0.2020  0.0028  0.3165
  147SAPE  H14R16230  -0.036   5.045   9.609  0.5099  2.0986  3.1947
  147SAPE  C21516231  -0.032   5.129   9.408 -0.2054  0.2952 -0.7142
  147SAPE  H15R16232  -0.099   5.057   9.359 -3.6733  1.1480  2.3501
  147SAPE  C21616233   0.029   5.231   9.313  0.4307  0.4855 -0.5199
  147SAPE  H16R16234   0.135   5.207   9.288  0.4926 -0.8843  0.9031
  147SAPE  H16S16235   0.027   5.328   9.368 -2.3580 -0.1646  0.6892
  147SAPE  C21716236  -0.057   5.241   9.191 -0.2118  0.5236 -0.4949
  147SAPE  H17R16237  -0.063   5.148   9.132  1.0428  0.4725 -0.5858
  147SAPE  H17S16238  -0.011   5.325   9.134  0.3544 -0.9627 -2.3148
  147SAPE  C21816239  -0.210   5.272   9.212 -0.2126  0.4868 -0.0253
  147SAPE  H18R16240  -0.208   5.357   9.283 -0.3992  2.5877 -2.3981
  147SAPE  H18S16241  -0.271   5.194   9.263 -0.6598  0.8329 -0.0222
  147SAPE  C21916242  -0.288   5.301   9.083  0.4238 -0.3777  0.8589
  147SAPE  H19R16243  -0.242   5.393   9.041 -0.6923 -0.2741 -0.1876
  147SAPE  H19S16244  -0.393   5.334   9.095  0.6281  0.7979 -0.3908
  147SAPE  C22016245  -0.280   5.176   8.990  0.0683  0.2785  0.2845
  147SAPE  H20R16246  -0.319   5.088   9.045 -1.8962  1.2771  0.5545
  147SAPE  H20S16247  -0.175   5.157   8.958 -0.5449 -2.7915 -0.1957
  147SAPE  H20T16248  -0.348   5.178   8.903 -2.7935 -3.1556  2.1818
  147SAPE   C3316249  -0.054   4.466  10.173  0.9369  0.0688 -0.8251
  147SAPE   H3X16250  -0.143   4.417  10.218  0.3390 -0.6945 -2.7370
  147SAPE   H3Y16251   0.023   4.431  10.245 -2.8130 -0.3827  3.4344
  147SAPE   C3416252  -0.040   4.420  10.032 -0.1074  0.3841  1.0845
  147SAPE   H4X16253   0.058   4.458   9.995  1.4706 -3.8496  0.3459
  147SAPE   H4Y16254  -0.124   4.459   9.971  0.9508 -1.3288 -1.6867
  147SAPE   C3516255  -0.020   4.263  10.020  0.3539 -1.4254 -0.1634
  147SAPE   H5X16256  -0.123   4.232  10.050 -0.6185  0.3269 -1.5110
  147SAPE   H5Y16257   0.051   4.234  10.100 -2.3488 -0.9929  2.6121
  147SAPE   C3616258   0.033   4.222   9.882  0.1549  0.5539 -0.0142
  147SAPE   H6X16259   0.017   4.115   9.859  3.5594  0.1716 -1.2527
  147SAPE   H6Y16260   0.143   4.238   9.875  0.5619 -0.5665  2.6234
  147SAPE   C3716261  -0.041   4.298   9.774 -0.0097 -0.2847  0.4852
  147SAPE   H7X16262   0.001   4.400   9.765 -0.2019 -0.3097 -0.8703
  147SAPE   H7Y16263  -0.150   4.305   9.792  0.0118  0.2923  0.4127
  147SAPE   C3816264  -0.027   4.233   9.634  0.0057  0.4086  0.5656
  147SAPE   H8X16265  -0.075   4.133   9.635  0.8562 -0.0338 -0.2404
  147SAPE   H8Y16266   0.076   4.193   9.627 -0.4601 -0.6923 -0.3785
  147SAPE   C3916267  -0.062   4.322   9.514 -0.4594  0.3955 -0.3481
  147SAPE   H9X16268  -0.019   4.423   9.531  0.5445 -0.3715  2.1263
  147SAPE   H9Y16269  -0.171   4.338   9.506 -0.3974  1.1344  0.2078
  147SAPE  C31016270  -0.013   4.272   9.374 -0.4819 -0.1799 -0.1185
  147SAPE  H10X16271  -0.054   4.170   9.359 -3.2900  1.1087 -1.9561
  147SAPE  H10Y16272   0.097   4.257   9.363 -0.2902  1.8400 -1.6600
  147SAPE  C31116273  -0.059   4.353   9.253 -1.1182 -1.1552  0.1980
  147SAPE  H11X16274  -0.049   4.458   9.288 -2.3522 -0.3804 -1.6137
  147SAPE  H11Y16275  -0.166   4.340   9.224 -1.7994 -2.1764  2.8784
  147SAPE  C31216276   0.025   4.346   9.126 -0.3933 -0.3093 -0.1970
  147SAPE  H12X16277   0.035   4.239   9.098  2.3389 -0.2084  0.0874
  147SAPE  H12Y16278   0.132   4.377   9.136 -0.1913 -1.0279 -0.0275
  147SAPE  C31316279  -0.052   4.404   9.013  0.2553  0.1787 -0.4440
  147SAPE  H13X16280  -0.069   4.513   9.027  2.0707  0.8015 -2.5552
  147SAPE  H13Y16281  -0.144   4.346   8.992  1.5864 -2.0424 -0.5573
  147SAPE  C31416282   0.025   4.396   8.878 -0.2650  0.1014 -0.3504
  147SAPE  H14X16283   0.030   4.289   8.850  0.3090  0.0660 -0.1205
  147SAPE  H14Y16284   0.126   4.435   8.900 -0.3424  0.0272  0.1439
  147SAPE  C31516285  -0.047   4.467   8.755  0.3336 -0.0773  0.3526
  147SAPE  H15X16286  -0.056   4.571   8.794 -0.0824 -0.2624  0.7605
  147SAPE  H15Y16287  -0.146   4.421   8.734 -0.1554  2.2149 -3.1764
  147SAPE  C31616288   0.046   4.465   8.632 -0.1165 -0.3353 -0.7465
  147SAPE  H16X16289   0.014   4.529   8.546 -0.3533 -0.1220 -0.5024
  147SAPE  H16Y16290   0.038   4.364   8.587  1.9896 -0.6687 -0.4492
  147SAPE  C31716291   0.193   4.517   8.637 -0.3868 -0.6077  0.1095
  147SAPE  H17X16292   0.255   4.432   8.674  0.8427 -1.1121 -2.7948
  147SAPE  H17Y16293   0.190   4.596   8.715 -0.2478  0.6058 -1.0777
  147SAPE  C31816294   0.254   4.565   8.502 -0.3773  0.5886  0.1505
  147SAPE  H18X16295   0.181   4.627   8.445 -0.3863  0.9584  0.5636
  147SAPE  H18Y16296   0.270   4.474   8.440  0.4406  1.1327 -0.4552
  147SAPE  H18Z16297   0.349   4.617   8.527 -1.2381  0.9156  3.0632
  148SAPE     N16298   0.439   6.409  10.944  0.6740 -0.2021  0.2636
  148SAPE   HN116299   0.534   6.422  10.985  0.9880  1.3808 -0.8647
  148SAPE   HN216300   0.392   6.324  10.980 -2.6568  0.6477 -1.6793
  148SAPE   HN316301   0.450   6.397  10.842  1.5308 -1.1172  0.4464
  148SAPE   C1216302   0.350   6.524  10.987 -0.2423  0.5310  0.1725
  148SAPE  H12A16303   0.408   6.618  10.977 -0.3795  0.7812  1.4734
  148SAPE  H12B16304   0.322   6.508  11.094 -1.5274 -2.2453 -0.4889
  148SAPE   C1116305   0.221   6.539  10.910  0.2700 -0.5616 -0.5876
  148SAPE  H11A16306   0.251   6.579  10.811  0.0854  1.4945  0.1311
  148SAPE  H11B16307   0.164   6.617  10.966  2.9604  0.1302  1.4499
  148SAPE     P16308   0.003   6.413  10.859  0.0864  0.0565 -0.2245
  148SAPE   O1316309  -0.047   6.278  10.825 -0.0888  0.4533  0.0806
  148SAPE   O1416310  -0.067   6.476  10.974 -0.2567 -0.2351  0.3299
  148SAPE   O1216311   0.161   6.410  10.887  0.5603 -0.1519  0.6984
  148SAPE   O1116312  -0.019   6.501  10.727 -0.6406  0.4224  1.0974
  148SAPE    C116313  -0.139   6.563  10.685 -0.5291 -0.1392 -0.8475
  148SAPE    HA16314  -0.175   6.634  10.762  0.0540 -1.9648  1.1981
  148SAPE    HB16315  -0.110   6.631  10.602  0.7294  1.2097  0.6274
  148SAPE    C216316  -0.252   6.463  10.646 -0.0167 -0.4285 -0.8745
  148SAPE    HS16317  -0.293   6.422  10.740 -2.4850  3.5617  0.0323
  148SAPE   O2116318  -0.195   6.357  10.558 -0.2569 -0.1026  0.5657
  148SAPE   C2116319  -0.248   6.241  10.544  0.5669 -0.2182  0.0314
  148SAPE   O2216320  -0.343   6.192  10.605 -0.2373  0.0092  0.1127
  148SAPE   C2216321  -0.187   6.173  10.415 -0.2679 -0.6026 -0.3373
  148SAPE   H2R16322  -0.171   6.249  10.336 -0.9975 -1.4053 -1.2943
  148SAPE   H2S16323  -0.093   6.119  10.442 -1.1885 -3.3934 -2.2599
  148SAPE    C316324  -0.368   6.539  10.575  0.1965  0.4547  0.4888
  148SAPE    HX16325  -0.415   6.606  10.650  0.4125  0.2238  0.8370
  148SAPE    HY16326  -0.453   6.469  10.561  1.7094 -1.7909  1.8884
  148SAPE   O3116327  -0.327   6.612  10.452 -0.6222 -0.3364  0.1454
  148SAPE   C3116328  -0.319   6.535  10.354  0.4102  0.3793  0.4570
  148SAPE   O3216329  -0.353   6.421  10.337 -0.2471 -0.4990 -0.4504
  148SAPE   C3216330  -0.252   6.618  10.243  0.1702 -0.1421  0.1071
  148SAPE   H2X16331  -0.142   6.624  10.254  0.1183  0.5307  0.3247
  148SAPE   H2Y16332  -0.295   6.721  10.243 -0.5344 -0.4239  1.1381
  148SAPE   C2316333  -0.286   6.073  10.336 -0.1171 -0.2976 -0.3265
  148SAPE   H3R16334  -0.382   6.116  10.301 -0.2679 -0.9515 -0.7323
  148SAPE   H3S16335  -0.311   5.991  10.406 -0.0208  0.0164  0.0772
  148SAPE   C2416336  -0.214   6.008  10.210  0.0697  0.8589  0.6883
  148SAPE   H4R16337  -0.126   5.949  10.242 -0.2331 -0.8838 -1.4582
  148SAPE   H4S16338  -0.175   6.091  10.148  1.1622  0.2114  0.4883
  148SAPE   C2516339  -0.305   5.918  10.129 -0.0600 -0.5545  0.6744
  148SAPE   H5R16340  -0.388   5.968  10.077  0.8525 -1.5404 -1.8859
  148SAPE   C2616341  -0.300   5.781  10.122 -0.1606 -0.6508  0.7630
  148SAPE   H6R16342  -0.385   5.733  10.072  0.1456  1.4449 -2.0150
  148SAPE   C2716343  -0.210   5.694  10.197 -0.0991  0.2904 -0.0322
  148SAPE   H7R16344  -0.120   5.738  10.245 -0.5142 -0.7173  1.7350
  148SAPE   H7S16345  -0.171   5.613  10.132 -0.8767  0.8677 -1.2614
  148SAPE   C2816346  -0.264   5.623  10.315  1.0156 -0.2245 -0.2324
  148SAPE   H8R16347  -0.214   5.629  10.413 -1.7862  0.1617  1.3162
  148SAPE   C2916348  -0.366   5.541  10.317 -0.6534  0.3579  0.1422
  148SAPE   H9R16349  -0.391   5.501  10.416 -1.5492  1.1874  0.2606
  148SAPE  C21016350  -0.468   5.484  10.217  0.0202  0.0485  0.0913
  148SAPE  H10R16351  -0.450   5.529  10.117  3.3213 -0.0780  0.5199
  148SAPE  H10S16352  -0.570   5.511  10.254  1.2266  1.1482  2.8873
  148SAPE  C21116353  -0.467   5.333  10.222  0.2638 -0.3480  0.4782
  148SAPE  H11R16354  -0.486   5.282  10.318  1.5621  0.8057  1.3745
  148SAPE  C21216355  -0.465   5.259  10.114 -0.8449 -0.3853  0.1065
  148SAPE  H12R16356  -0.465   5.150  10.130 -1.5397 -0.1088  2.3782
  148SAPE  C21316357  -0.451   5.301   9.969  0.0019  0.4718  0.9438
  148SAPE  H13R16358  -0.351   5.330   9.930 -0.0661 -2.9551 -2.3008
  148SAPE  H13S16359  -0.522   5.385   9.954 -1.6395 -0.9434  0.5614
  148SAPE  C21416360  -0.492   5.199   9.863  0.3752 -0.2050  0.7249
  148SAPE  H14R16361  -0.561   5.117   9.889 -3.1370  2.0129 -0.8771
  148SAPE  C21516362  -0.441   5.188   9.741  0.9163 -0.7158 -0.2150
  148SAPE  H15R16363  -0.473   5.103   9.679  0.0677 -0.4956 -0.0775
  148SAPE  C21616364  -0.342   5.280   9.671  0.2652 -0.3507 -0.0022
  148SAPE  H16R16365  -0.247   5.226   9.647  1.0814  1.6050 -1.5017
  148SAPE  H16S16366  -0.326   5.369   9.736 -4.0197 -0.4911  1.5089
  148SAPE  C21716367  -0.371   5.333   9.528 -0.6910 -0.2572  0.9423
  148SAPE  H17R16368  -0.371   5.250   9.454 -1.8899 -0.9437  1.6827
  148SAPE  H17S16369  -0.282   5.391   9.497 -1.2310  0.0360 -0.1184
  148SAPE  C21816370  -0.509   5.404   9.514 -0.9546  0.9916  0.7146
  148SAPE  H18R16371  -0.526   5.472   9.601 -0.8115  1.9549  0.0060
  148SAPE  H18S16372  -0.591   5.330   9.512  0.3243 -0.5798  2.3228
  148SAPE  C21916373  -0.507   5.485   9.386 -0.9504  0.0024 -0.5161
  148SAPE  H19R16374  -0.501   5.414   9.300 -0.3378  1.1354 -1.4432
  148SAPE  H19S16375  -0.414   5.545   9.385 -0.8394 -0.0538  1.7466
  148SAPE  C22016376  -0.629   5.589   9.376  0.1786  0.5487  0.0560
  148SAPE  H20R16377  -0.609   5.657   9.290 -0.2911  1.5195  0.6971
  148SAPE  H20S16378  -0.631   5.644   9.472  0.4505 -0.9236  0.9340
  148SAPE  H20T16379  -0.729   5.540   9.367  0.8303 -1.0204  0.9485
  148SAPE   C3316380  -0.288   6.550  10.105 -0.0515 -0.6854  0.8542
  148SAPE   H3X16381  -0.399   6.545  10.110  0.0017 -0.9243  2.1036
  148SAPE   H3Y16382  -0.252   6.447  10.088  0.7498 -0.3083  0.2168
  148SAPE   C3416383  -0.245   6.634   9.984  0.5308 -0.4131 -0.3042
  148SAPE   H4X16384  -0.135   6.653   9.989  0.7323 -1.1700 -1.4776
  148SAPE   H4Y16385  -0.293   6.734   9.988  0.5350 -0.4396  0.8325
  148SAPE   C3516386  -0.287   6.572   9.847 -0.1064  1.3441 -0.5136
  148SAPE   H5X16387  -0.395   6.597   9.842  0.2824  3.2664 -0.2972
  148SAPE   H5Y16388  -0.271   6.463   9.856 -1.6814  0.9016 -2.3371
  148SAPE   C3616389  -0.217   6.619   9.722  0.1229  0.1997  0.1439
  148SAPE   H6X16390  -0.115   6.579   9.739  0.2387  0.2033 -0.5186
  148SAPE   H6Y16391  -0.218   6.728   9.703 -2.2196  0.0895 -0.7311
  148SAPE   C3716392  -0.281   6.545   9.597 -0.2814  0.1886 -0.0811
  148SAPE   H7X16393  -0.389   6.567   9.608 -0.1652 -0.1162  1.8411
  148SAPE   H7Y16394  -0.281   6.434   9.599 -2.5301  0.0050  5.0731
  148SAPE   C3816395  -0.221   6.607   9.469 -0.1142  0.4434  0.2726
  148SAPE   H8X16396  -0.111   6.613   9.478 -0.2265  0.5061  1.9136
  148SAPE   H8Y16397  -0.253   6.713   9.467 -0.5104  0.5357  4.4547
  148SAPE   C3916398  -0.268   6.537   9.337  0.0546  0.1973  0.1971
  148SAPE   H9X16399  -0.379   6.534   9.327  0.0330 -0.9948  0.5604
  148SAPE   H9Y16400  -0.229   6.433   9.346  0.4463  0.5199  4.5461
  148SAPE  C31016401  -0.215   6.617   9.220 -0.3092 -0.5062 -0.1339
  148SAPE  H10X16402  -0.104   6.619   9.215 -0.3514  0.6262 -1.1181
  148SAPE  H10Y16403  -0.249   6.723   9.224  1.6568  0.1442  0.9799
  148SAPE  C31116404  -0.264   6.548   9.099  0.8379 -0.4795  0.0359
  148SAPE  H11X16405  -0.372   6.558   9.078  0.9209  1.3514  0.3212
  148SAPE  H11Y16406  -0.232   6.441   9.098 -0.0280 -0.7921  1.8755
  148SAPE  C31216407  -0.180   6.601   8.976 -0.8462  1.3383 -0.2808
  148SAPE  H12X16408  -0.074   6.596   9.010 -1.3972 -2.3390  1.3894
  148SAPE  H12Y16409  -0.207   6.707   8.959 -1.4702  1.5189  1.5854
  148SAPE  C31316410  -0.194   6.506   8.855  0.3536 -0.3051 -0.7697
  148SAPE  H13X16411  -0.150   6.410   8.892  1.9043  1.0381  1.1157
  148SAPE  H13Y16412  -0.118   6.535   8.778  1.0689 -1.2009 -0.4238
  148SAPE  C31416413  -0.337   6.486   8.815  0.0240  0.3688  0.1623
  148SAPE  H14X16414  -0.392   6.419   8.885 -0.1962  0.8764  0.4808
  148SAPE  H14Y16415  -0.345   6.425   8.722 -1.9952  1.2516 -0.3031
  148SAPE  C31516416  -0.422   6.605   8.790  0.0707  0.6356  0.4629
  148SAPE  H15X16417  -0.415   6.679   8.872 -1.1595  2.6757 -1.1846
  148SAPE  H15Y16418  -0.528   6.576   8.776  0.1287  1.5485 -2.4773
  148SAPE  C31616419  -0.387   6.675   8.651  0.2541 -0.0238 -0.5099
  148SAPE  H16X16420  -0.393   6.597   8.573  2.2248 -1.4425  0.6581
  148SAPE  H16Y16421  -0.281   6.703   8.666  0.8166 -1.9531 -0.6796
  148SAPE  C31716422  -0.469   6.799   8.626  0.1375  0.5691 -0.1735
  148SAPE  H17X16423  -0.435   6.850   8.534 -0.1764  0.6284 -0.2605
  148SAPE  H17Y16424  -0.445   6.878   8.700  0.1787 -0.0287  0.4663
  148SAPE  C31816425  -0.614   6.786   8.625  0.4252  0.4954 -0.2387
  148SAPE  H18X16426  -0.675   6.869   8.582  1.5504  1.3984 -0.1442
  148SAPE  H18Y16427  -0.649   6.762   8.728  2.6515  1.5008  0.8184
  148SAPE  H18Z16428  -0.639   6.703   8.555  0.1483 -0.5031  0.9970
  149SAPE     N16429   1.525   1.689  10.984 -0.6620 -0.2395 -0.4497
  149SAPE   HN116430   1.446   1.747  11.021 -0.4569 -0.3771  0.2175
  149SAPE   HN216431   1.570   1.625  11.052 -0.6047 -0.6808 -0.8988
  149SAPE   HN316432   1.599   1.761  10.969 -0.4242 -0.5863 -0.9470
  149SAPE   C1216433   1.488   1.612  10.861 -0.1278  0.3743 -0.3470
  149SAPE  H12A16434   1.578   1.560  10.822  1.3821  1.5520  1.4147
  149SAPE  H12B16435   1.454   1.688  10.787 -0.4913  0.6642  0.1118
  149SAPE   C1116436   1.393   1.498  10.893 -0.5705 -0.1108 -0.2167
  149SAPE  H11A16437   1.445   1.421  10.954 -0.5717 -0.2042 -0.3331
  149SAPE  H11B16438   1.368   1.453  10.794  2.0721  1.3949 -1.6915
  149SAPE     P16439   1.171   1.446  11.027  0.5666  0.6658  0.3219
  149SAPE   O1316440   1.225   1.319  11.083 -0.1145  0.0466  0.1175
  149SAPE   O1416441   1.083   1.525  11.113 -0.4798  0.1267 -0.2457
  149SAPE   O1216442   1.284   1.545  10.967 -0.1152 -0.1609 -0.3780
  149SAPE   O1116443   1.095   1.394  10.895  0.2333  0.3046 -0.1311
  149SAPE    C116444   1.037   1.494  10.804 -0.3619  0.0831 -0.1680
  149SAPE    HA16445   0.926   1.496  10.800 -0.3412  0.6663 -0.6601
  149SAPE    HB16446   1.059   1.600  10.829 -3.4761  1.1911 -1.6167
  149SAPE    C216447   1.069   1.464  10.657  0.4714 -0.7417  0.6867
  149SAPE    HS16448   1.006   1.380  10.620  0.9438  0.1890 -2.5711
  149SAPE   O2116449   1.206   1.432  10.642 -0.3223 -0.7451 -0.1439
  149SAPE   C2116450   1.232   1.359  10.532  0.2524  0.0628 -0.3275
  149SAPE   O2216451   1.148   1.299  10.468  0.2255 -0.3830 -0.0453
  149SAPE   C2216452   1.377   1.332  10.529  0.2707  0.2884  0.1348
  149SAPE   H2R16453   1.432   1.419  10.572 -0.6181  1.1853 -0.4926
  149SAPE   H2S16454   1.393   1.253  10.605  1.2681 -0.0294 -0.3822
  149SAPE    C316455   1.032   1.586  10.570 -0.3264  0.0802 -0.4316
  149SAPE    HX16456   1.090   1.673  10.608  1.0902  0.1455 -2.5892
  149SAPE    HY16457   0.923   1.608  10.575 -0.4254 -0.6782  1.5642
  149SAPE   O3116458   1.069   1.568  10.429  0.0845  0.2723  0.2624
  149SAPE   C3116459   0.966   1.536  10.348 -0.6248  0.5168 -0.5960
  149SAPE   O3216460   0.853   1.520  10.388 -0.0917 -0.0558  0.4790
  149SAPE   C3216461   1.016   1.481  10.217 -0.1615 -0.8614  0.8373
  149SAPE   H2X16462   1.016   1.370  10.226 -0.3824 -0.9196  0.1334
  149SAPE   H2Y16463   1.113   1.527  10.187 -0.5156 -0.5002  0.2322
  149SAPE   C2316464   1.438   1.297  10.397  0.3200  0.1519  0.7141
  149SAPE   H3R16465   1.400   1.204  10.350  4.9679 -1.4792 -0.4479
  149SAPE   H3S16466   1.548   1.279  10.395  0.4004  0.5632 -1.2644
  149SAPE   C2416467   1.424   1.402  10.287  0.3722  0.3007 -0.0840
  149SAPE   H4R16468   1.488   1.490  10.311  3.1260 -2.0133  1.7161
  149SAPE   H4S16469   1.317   1.431  10.273 -0.6012 -2.4926  0.9522
  149SAPE   C2516470   1.468   1.358  10.150  0.4304 -0.2372 -0.1149
  149SAPE   H5R16471   1.452   1.253  10.123 -0.6858 -0.3113  0.7811
  149SAPE   C2616472   1.508   1.446  10.053 -0.0452  0.0605  0.4554
  149SAPE   H6R16473   1.546   1.400   9.960  0.5901  0.5806  0.4548
  149SAPE   C2716474   1.518   1.598  10.064  0.0227  0.3692 -0.3834
  149SAPE   H7R16475   1.627   1.618  10.053  0.7296 -0.7072  3.3488
  149SAPE   H7S16476   1.497   1.624  10.170  0.7919 -1.5683  0.2975
  149SAPE   C2816477   1.430   1.659   9.955  0.0070 -0.5496 -0.8664
  149SAPE   H8R16478   1.334   1.699   9.990 -0.0662 -0.6658 -0.9336
  149SAPE   C2916479   1.453   1.669   9.824  0.0899  0.5106  0.3700
  149SAPE   H9R16480   1.376   1.709   9.757  0.4578 -2.2683 -1.9062
  149SAPE  C21016481   1.571   1.621   9.742  0.0317 -0.1818  0.0273
  149SAPE  H10R16482   1.529   1.586   9.645  2.0027 -1.4806 -0.4021
  149SAPE  H10S16483   1.610   1.532   9.795 -1.1713 -1.9096 -1.8321
  149SAPE  C21116484   1.675   1.734   9.729  0.0350  0.1224  0.3027
  149SAPE  H11R16485   1.699   1.791   9.819 -0.4522  1.0595 -0.1501
  149SAPE  C21216486   1.746   1.767   9.618 -0.4006  0.5131  0.7404
  149SAPE  H12R16487   1.799   1.864   9.624 -0.8518  0.7489  0.9700
  149SAPE  C21316488   1.747   1.709   9.477  0.1325 -0.4155  0.4177
  149SAPE  H13R16489   1.721   1.601   9.468  0.9499 -0.5531 -0.4595
  149SAPE  H13S16490   1.850   1.710   9.434 -0.7753 -1.6575 -2.0288
  149SAPE  C21416491   1.643   1.778   9.382 -0.7782  0.1953  0.6788
  149SAPE  H14R16492   1.542   1.794   9.422 -0.9778  1.5374 -0.2857
  149SAPE  C21516493   1.660   1.829   9.260 -0.6975  0.8354  0.2024
  149SAPE  H15R16494   1.577   1.870   9.200  1.2014  1.2387 -2.3018
  149SAPE  C21616495   1.783   1.833   9.177 -0.2082 -0.1518 -0.1614
  149SAPE  H16R16496   1.751   1.797   9.077  0.2957 -1.1311  0.0111
  149SAPE  H16S16497   1.867   1.768   9.209  0.8976  2.1314  1.9050
  149SAPE  C21716498   1.845   1.974   9.166  0.1771  0.4161  0.0264
  149SAPE  H17R16499   1.904   1.989   9.259  1.0978 -1.7429 -0.1346
  149SAPE  H17S16500   1.770   2.055   9.158  0.1305  0.2700 -1.2300
  149SAPE  C21816501   1.940   1.986   9.044  0.1772 -1.0454  0.4469
  149SAPE  H18R16502   1.882   1.943   8.959  1.0324  0.7837 -1.1390
  149SAPE  H18S16503   2.032   1.924   9.058  1.3442  0.3754 -0.6086
  149SAPE  C21916504   1.980   2.137   9.011  0.5230  0.1627 -0.4005
  149SAPE  H19R16505   2.002   2.176   9.112 -2.3424 -3.2450  1.7984
  149SAPE  H19S16506   1.889   2.185   8.968 -0.5941 -1.8690 -0.4665
  149SAPE  C22016507   2.091   2.157   8.907  0.3211 -0.1821  0.1660
  149SAPE  H20R16508   2.066   2.112   8.809 -0.0535 -0.8959  0.5856
  149SAPE  H20S16509   2.192   2.128   8.944  1.1998  1.4785 -0.8360
  149SAPE  H20T16510   2.109   2.266   8.896 -0.8831  0.0003 -0.1217
  149SAPE   C3316511   0.920   1.514  10.093 -0.4619  0.3611 -0.5298
  149SAPE   H3X16512   0.980   1.486  10.004 -0.0264 -1.3016  0.2552
  149SAPE   H3Y16513   0.883   1.618  10.086  0.1406  0.5168 -1.6068
  149SAPE   C3416514   0.798   1.411  10.091 -0.5718  0.0541 -0.0778
  149SAPE   H4X16515   0.745   1.436  10.185 -0.4627  0.8015 -0.2133
  149SAPE   H4Y16516   0.837   1.307  10.101  1.4073  0.8656  1.2740
  149SAPE   C3516517   0.690   1.424   9.985 -0.8496  0.4009  0.5061
  149SAPE   H5X16518   0.639   1.523   9.977 -1.5001  0.1104  0.9519
  149SAPE   H5Y16519   0.609   1.356  10.017 -0.0422  0.2284  2.2591
  149SAPE   C3616520   0.741   1.388   9.848 -0.1189 -0.5038 -0.6060
  149SAPE   H6X16521   0.788   1.287   9.845 -0.3740 -0.6189 -0.7679
  149SAPE   H6Y16522   0.821   1.460   9.820  0.2669  0.1139  1.8208
  149SAPE   C3716523   0.625   1.386   9.750  0.3270 -0.7862  0.0133
  149SAPE   H7X16524   0.554   1.466   9.777  1.0452 -0.1469  0.0534
  149SAPE   H7Y16525   0.565   1.296   9.774 -0.3629 -0.2095  0.4818
  149SAPE   C3816526   0.661   1.398   9.605  0.2589 -0.4751 -0.1129
  149SAPE   H8X16527   0.716   1.307   9.574  0.3312  0.4794 -3.0615
  149SAPE   H8Y16528   0.730   1.481   9.578  1.7403 -1.1717  1.3164
  149SAPE   C3916529   0.533   1.388   9.522 -0.1484  0.2676  0.7662
  149SAPE   H9X16530   0.475   1.483   9.526 -1.3379 -0.3157 -1.0603
  149SAPE   H9Y16531   0.465   1.312   9.566  0.0815 -0.3006  0.1571
  149SAPE  C31016532   0.555   1.349   9.376  0.3439  0.1144  0.4823
  149SAPE  H10X16533   0.615   1.257   9.359 -0.3635  0.1086 -2.5132
  149SAPE  H10Y16534   0.611   1.433   9.331  1.4838 -1.8063 -1.8749
  149SAPE  C31116535   0.430   1.336   9.294  0.5196  0.8330 -0.1016
  149SAPE  H11X16536   0.351   1.407   9.324  0.8778  1.0365  0.3763
  149SAPE  H11Y16537   0.391   1.235   9.321  1.0046  0.6166 -0.1956
  149SAPE  C31216538   0.456   1.335   9.142 -0.1889 -0.3738  0.1825
  149SAPE  H12X16539   0.366   1.300   9.086  0.0085  1.4661 -1.3864
  149SAPE  H12Y16540   0.546   1.271   9.131  1.8712  2.4157 -0.2612
  149SAPE  C31316541   0.505   1.474   9.088 -0.1374  0.2570 -0.9373
  149SAPE  H13X16542   0.502   1.545   9.173  2.4574  2.0112 -2.1904
  149SAPE  H13Y16543   0.434   1.506   9.009 -0.6600  0.7715 -0.2745
  149SAPE  C31416544   0.643   1.484   9.034  0.0402  0.1563 -0.2512
  149SAPE  H14X16545   0.722   1.444   9.100  0.6357  0.2981 -0.8669
  149SAPE  H14Y16546   0.666   1.592   9.027  0.8827  0.2930  2.9473
  149SAPE  C31516547   0.642   1.431   8.889 -0.3795  0.0260 -0.7970
  149SAPE  H15X16548   0.586   1.336   8.873 -0.4024 -0.4297  1.5232
  149SAPE  H15Y16549   0.750   1.402   8.887 -0.6050 -0.8853 -0.4154
  149SAPE  C31616550   0.619   1.541   8.792  0.1909 -0.3587  0.1896
  149SAPE  H16X16551   0.685   1.630   8.798  1.0682 -1.0223  0.5956
  149SAPE  H16Y16552   0.517   1.582   8.812 -0.4120 -2.3717  1.5766
  149SAPE  C31716553   0.615   1.500   8.647 -0.5038  0.2399  0.2396
  149SAPE  H17X16554   0.596   1.391   8.642  0.9817 -0.0266 -0.4042
  149SAPE  H17Y16555   0.712   1.521   8.596 -1.8229  1.5242 -1.9064
  149SAPE  C31816556   0.516   1.583   8.560  0.1681  0.0231 -0.5458
  149SAPE  H18X16557   0.520   1.552   8.453  2.1540 -0.5890 -0.3405
  149SAPE  H18Y16558   0.536   1.692   8.573  0.9214 -0.1945  0.1993
  149SAPE  H18Z16559   0.414   1.569   8.601  0.3197  2.5621  0.8792
  150SAPE     N16560   2.504   1.979  10.799  0.6542 -0.5370 -0.0524
  150SAPE   HN116561   2.403   1.984  10.822 -0.0096 -0.9008 -2.5460
  150SAPE   HN216562   2.525   1.958  10.699  0.0504  3.4841 -1.1898
  150SAPE   HN316563   2.543   1.903  10.858 -0.1231 -2.0736 -1.4367
  150SAPE   C1216564   2.555   2.113  10.842 -0.2784 -0.1933 -0.0688
  150SAPE  H12A16565   2.659   2.131  10.806 -0.4780 -1.2300 -1.2482
  150SAPE  H12B16566   2.552   2.109  10.953  2.9058 -1.7568  0.0828
  150SAPE   C1116567   2.456   2.215  10.792  0.0456  0.5173  0.0946
  150SAPE  H11A16568   2.465   2.207  10.682  0.1113 -0.1775  0.1460
  150SAPE  H11B16569   2.491   2.318  10.816  0.7779 -0.0190  1.4899
  150SAPE     P16570   2.219   2.299  10.853  0.0489 -0.2868 -0.0752
  150SAPE   O1316571   2.087   2.245  10.888 -0.0765  0.3836  0.4607
  150SAPE   O1416572   2.266   2.399  10.950 -0.2620  0.0055 -0.3154
  150SAPE   O1216573   2.324   2.184  10.840 -0.5682  0.5542 -0.4447
  150SAPE   O1116574   2.201   2.346  10.701 -0.1738 -0.3855  0.0763
  150SAPE    C116575   2.283   2.454  10.646  0.5426 -0.0294  1.2779
  150SAPE    HA16576   2.236   2.548  10.682 -0.4759  0.3983 -0.9770
  150SAPE    HB16577   2.384   2.460  10.690  0.7277  1.8269  0.6704
  150SAPE    C216578   2.273   2.447  10.491  0.1896  0.2134  0.4123
  150SAPE    HS16579   2.166   2.453  10.463  0.2847  2.1107  0.3357
  150SAPE   O2116580   2.346   2.326  10.446 -0.3998  0.3830  0.2604
  150SAPE   C2116581   2.286   2.245  10.366  0.8459 -0.1174  0.1834
  150SAPE   O2216582   2.184   2.264  10.298  0.6211 -0.2117 -0.9751
  150SAPE   C2216583   2.373   2.121  10.347 -0.0316  0.1376  0.7156
  150SAPE   H2R16584   2.470   2.172  10.328 -1.8543  2.6306 -2.9959
  150SAPE   H2S16585   2.359   2.061  10.440 -1.0721 -0.9146 -0.0826
  150SAPE    C316586   2.331   2.577  10.418  0.2277 -0.1045 -0.5034
  150SAPE    HX16587   2.432   2.591  10.463  0.6863 -1.1917 -1.1645
  150SAPE    HY16588   2.265   2.658  10.457  0.9163 -0.0708  0.6474
  150SAPE   O3116589   2.323   2.567  10.278 -0.3264  0.2011 -0.0090
  150SAPE   C3116590   2.429   2.525  10.207  0.3270  0.3679  0.6019
  150SAPE   O3216591   2.521   2.473  10.264 -0.0439 -0.7087 -0.2440
  150SAPE   C3216592   2.413   2.535  10.052 -0.4472  0.7984 -0.0312
  150SAPE   H2X16593   2.443   2.638  10.021  0.5993 -0.0930 -2.2278
  150SAPE   H2Y16594   2.308   2.508  10.025 -0.3394  1.7696 -1.5382
  150SAPE   C2316595   2.337   2.047  10.213 -0.6807 -0.1905 -0.2754
  150SAPE   H3R16596   2.355   2.121  10.132  0.2059 -0.4956 -0.3721
  150SAPE   H3S16597   2.230   2.021  10.200  0.0617 -2.4079 -2.9735
  150SAPE   C2416598   2.417   1.915  10.185  0.4523  0.2136 -0.0453
  150SAPE   H4R16599   2.394   1.881  10.081 -0.2238 -1.6304  0.6635
  150SAPE   H4S16600   2.388   1.836  10.258  0.4317 -0.4399 -0.7412
  150SAPE   C2516601   2.567   1.926  10.202 -0.7868 -0.4467 -0.4927
  150SAPE   H5R16602   2.602   1.894  10.301 -0.3738  0.2060 -0.4222
  150SAPE   C2616603   2.638   1.971  10.097  0.6162  0.3724  0.1416
  150SAPE   H6R16604   2.744   1.988  10.120  0.4649  2.0155 -0.2706
  150SAPE   C2716605   2.586   2.019   9.957 -0.6362 -0.3563  0.5820
  150SAPE   H7R16606   2.597   2.130   9.950 -0.9071 -0.3832 -0.4695
  150SAPE   H7S16607   2.480   1.998   9.933  0.2783 -3.4271 -1.2416
  150SAPE   C2816608   2.674   1.961   9.843 -0.0937 -0.9910 -1.0039
  150SAPE   H8R16609   2.697   1.855   9.862  0.4581 -0.8728 -1.0206
  150SAPE   C2916610   2.707   2.021   9.729 -0.7105  0.0493  0.6060
  150SAPE   H9R16611   2.765   1.962   9.656  0.4183  1.6785  0.1190
  150SAPE  C21016612   2.668   2.153   9.667 -0.2853  0.2549 -0.1482
  150SAPE  H10R16613   2.728   2.170   9.575  0.9214 -1.1840  0.3413
  150SAPE  H10S16614   2.711   2.233   9.731  3.3406 -1.0494 -0.7633
  150SAPE  C21116615   2.526   2.176   9.631 -0.5510  0.9230  0.1685
  150SAPE  H11R16616   2.461   2.206   9.714 -1.4889 -2.0395  0.6343
  150SAPE  C21216617   2.484   2.152   9.500  0.0562  0.2923 -0.3339
  150SAPE  H12R16618   2.381   2.172   9.465  0.3214  0.3751 -1.0952
  150SAPE  C21316619   2.564   2.104   9.379 -0.4555  0.8922 -0.3764
  150SAPE  H13R16620   2.491   2.051   9.314 -1.2251  0.7602  0.5764
  150SAPE  H13S16621   2.644   2.031   9.403 -2.4393 -1.1841  0.2975
  150SAPE  C21416622   2.627   2.230   9.312 -0.1172  0.3582 -0.3417
  150SAPE  H14R16623   2.667   2.312   9.373 -2.3021  1.2555 -0.0122
  150SAPE  C21516624   2.616   2.254   9.181  0.3081  0.0544  0.4460
  150SAPE  H15R16625   2.662   2.348   9.146  2.2341 -0.3177  1.8128
  150SAPE  C21616626   2.545   2.178   9.070 -0.3308 -0.2877  0.1852
  150SAPE  H16R16627   2.471   2.240   9.015 -0.8434 -0.9088  0.1607
  150SAPE  H16S16628   2.491   2.088   9.105 -1.4611  0.4701  0.4530
  150SAPE  C21716629   2.649   2.140   8.958  0.0675  0.2303  0.2890
  150SAPE  H17R16630   2.725   2.063   8.985  0.7405  0.0434 -1.9579
  150SAPE  H17S16631   2.718   2.224   8.933 -0.2722 -0.1520 -2.1408
  150SAPE  C21816632   2.582   2.097   8.830  0.4216  0.4262  0.2631
  150SAPE  H18R16633   2.512   2.171   8.784 -1.8099 -1.4648  0.4832
  150SAPE  H18S16634   2.518   2.014   8.864 -1.3166  1.6336  0.0807
  150SAPE  C21916635   2.674   2.042   8.722 -0.4213 -0.1353  0.5895
  150SAPE  H19R16636   2.607   1.993   8.649 -0.7154 -0.4978  1.1015
  150SAPE  H19S16637   2.753   1.978   8.767 -2.7521 -2.6590  1.2876
  150SAPE  C22016638   2.755   2.156   8.656 -0.6781 -0.3298  0.0632
  150SAPE  H20R16639   2.831   2.120   8.583 -0.6829 -1.7907  0.7469
  150SAPE  H20S16640   2.801   2.222   8.733  1.3195 -1.0117 -0.5067
  150SAPE  H20T16641   2.682   2.224   8.606 -1.0841 -0.7536  0.0799
  150SAPE   C3316642   2.511   2.441   9.982 -0.2263 -0.4171  0.3825
  150SAPE   H3X16643   2.464   2.340   9.982  1.3275 -1.1758  0.1548
  150SAPE   H3Y16644   2.610   2.434  10.031  0.3711 -2.6574 -0.9636
  150SAPE   C3416645   2.529   2.486   9.835  0.3486  0.7342 -0.4454
  150SAPE   H4X16646   2.598   2.419   9.779  1.5585  2.0805 -0.6248
  150SAPE   H4Y16647   2.586   2.581   9.836 -0.6153  1.3353  1.0004
  150SAPE   C3516648   2.391   2.516   9.767  0.0859  0.4562 -0.3786
  150SAPE   H5X16649   2.357   2.612   9.813 -1.9244 -0.5486  0.3607
  150SAPE   H5Y16650   2.313   2.438   9.777 -0.8421  1.4735  0.7503
  150SAPE   C3616651   2.409   2.551   9.616 -0.1576 -0.1446 -0.9226
  150SAPE   H6X16652   2.317   2.588   9.566  0.7961  0.6265 -2.1918
  150SAPE   H6Y16653   2.432   2.454   9.566 -0.8214 -1.5442  1.3335
  150SAPE   C3716654   2.521   2.654   9.585 -0.4399  0.0438  0.1706
  150SAPE   H7X16655   2.622   2.613   9.602 -1.0475 -1.9395 -0.7131
  150SAPE   H7Y16656   2.503   2.745   9.646  1.9768 -0.9383  2.5502
  150SAPE   C3816657   2.513   2.691   9.434  0.0483 -0.5074  0.3963
  150SAPE   H8X16658   2.593   2.762   9.403 -0.3316 -0.7678 -1.2580
  150SAPE   H8Y16659   2.414   2.741   9.420  0.2468  0.1938  1.3431
  150SAPE   C3916660   2.517   2.568   9.341 -0.6859 -0.0613  0.4088
  150SAPE   H9X16661   2.449   2.485   9.368  0.4482 -1.0517  0.2902
  150SAPE   H9Y16662   2.620   2.528   9.345 -0.7890 -0.2353  1.5040
  150SAPE  C31016663   2.496   2.608   9.192 -0.0158 -0.5008 -0.3337
  150SAPE  H10X16664   2.406   2.666   9.163  0.1913 -0.0321 -0.0396
  150SAPE  H10Y16665   2.487   2.506   9.147  0.4650 -0.5145 -0.4029
  150SAPE  C31116666   2.623   2.681   9.141 -0.3483 -0.3424  0.1172
  150SAPE  H11X16667   2.704   2.606   9.153  1.3646  1.4024 -0.0213
  150SAPE  H11Y16668   2.645   2.772   9.201 -1.9451  0.6442 -0.7421
  150SAPE  C31216669   2.612   2.736   8.994  0.1518 -0.1394  0.0965
  150SAPE  H12X16670   2.525   2.805   8.986 -0.2421 -0.6965 -0.4965
  150SAPE  H12Y16671   2.601   2.652   8.923  0.2769  0.5818 -0.7845
  150SAPE  C31316672   2.726   2.836   8.943  0.5789 -0.2873 -0.4489
  150SAPE  H13X16673   2.821   2.780   8.953  0.6708  0.0499  0.7519
  150SAPE  H13Y16674   2.747   2.907   9.026  2.5222 -2.8684  1.4511
  150SAPE  C31416675   2.696   2.901   8.809 -0.0623  0.4997  0.0604
  150SAPE  H14X16676   2.598   2.951   8.797 -0.3126  0.5024  1.8240
  150SAPE  H14Y16677   2.705   2.817   8.737  0.7625 -0.0271  0.7431
  150SAPE  C31516678   2.797   3.008   8.782 -0.6026 -0.1883  0.1959
  150SAPE  H15X16679   2.896   2.957   8.786 -0.7233 -0.3397  2.3530
  150SAPE  H15Y16680   2.796   3.073   8.872 -0.8921  1.6216 -1.0459
  150SAPE  C31616681   2.767   3.086   8.654 -0.0152 -0.4807 -0.2517
  150SAPE  H16X16682   2.679   3.147   8.685  1.7553  0.4110  3.6284
  150SAPE  H16Y16683   2.732   3.014   8.577 -3.5345  0.2427  0.4767
  150SAPE  C31716684   2.885   3.184   8.618  0.1208 -0.3257 -0.2274
  150SAPE  H17X16685   2.971   3.127   8.578 -0.2884 -1.8457  0.9513
  150SAPE  H17Y16686   2.909   3.235   8.715 -1.3033  0.1499 -0.0999
  150SAPE  C31816687   2.850   3.297   8.516  0.4491  0.4217 -0.4160
  150SAPE  H18X16688   2.826   3.262   8.413  0.3472  1.6860 -0.8430
  150SAPE  H18Y16689   2.937   3.365   8.506  1.0497 -0.0350  1.4266
  150SAPE  H18Z16690   2.767   3.362   8.550  1.0551  1.0735 -0.1446
  151SAPE     N16691   2.025   5.364  10.459 -0.6628  0.1501 -0.1798
  151SAPE   HN116692   2.052   5.330  10.554 -0.8838 -0.1013 -0.2090
  151SAPE   HN216693   2.108   5.341  10.401  1.8755  3.1105  1.8977
  151SAPE   HN316694   2.014   5.468  10.464 -1.2140  0.0467  1.0257
  151SAPE   C1216695   1.909   5.294  10.396 -0.0725  0.0589  0.3202
  151SAPE  H12A16696   1.903   5.335  10.293 -3.1423 -0.3729  0.2512
  151SAPE  H12B16697   1.818   5.323  10.452 -0.5511 -0.7268 -0.0414
  151SAPE   C1116698   1.921   5.142  10.388  0.0760  0.1033 -0.2059
  151SAPE  H11A16699   2.009   5.104  10.330  0.7190 -1.1040  1.4765
  151SAPE  H11B16700   1.832   5.096  10.340  0.0530  1.4652 -1.5320
  151SAPE     P16701   1.827   5.048  10.615  0.1830 -0.2576  0.2013
  151SAPE   O1316702   1.882   5.019  10.750  0.0773 -0.3357  1.2312
  151SAPE   O1416703   1.724   5.158  10.617  0.4292  0.5210  0.3706
  151SAPE   O1216704   1.940   5.091  10.514  0.1543  0.9244 -0.0646
  151SAPE   O1116705   1.761   4.916  10.545 -0.2225 -0.1109  0.6866
  151SAPE    C116706   1.784   4.782  10.595 -0.2917  0.0382  0.0645
  151SAPE    HA16707   1.853   4.783  10.682 -0.8416  1.8524  0.5368
  151SAPE    HB16708   1.692   4.729  10.629  1.0421 -0.3231  3.4902
  151SAPE    C216709   1.848   4.692  10.477  0.3722 -0.3254  0.0119
  151SAPE    HS16710   1.941   4.746  10.448  0.4413  0.0875  0.9488
  151SAPE   O2116711   1.750   4.693  10.375 -0.6325  0.9730  0.0676
  151SAPE   C2116712   1.785   4.711  10.248  0.2235  0.0870 -0.3381
  151SAPE   O2216713   1.903   4.714  10.210 -0.0980  0.5371 -0.1527
  151SAPE   C2216714   1.661   4.713  10.161  0.4294 -0.2911  0.4811
  151SAPE   H2R16715   1.644   4.611  10.119 -0.2298  0.3163 -0.7817
  151SAPE   H2S16716   1.572   4.737  10.223 -0.9402  1.1389 -1.8841
  151SAPE    C316717   1.907   4.552  10.520 -0.0507  1.0697 -0.0730
  151SAPE    HX16718   1.822   4.495  10.564 -1.5265  1.5917 -2.1316
  151SAPE    HY16719   1.983   4.558  10.601 -1.3825 -0.3133  1.3455
  151SAPE   O3116720   1.939   4.478  10.409 -0.4199 -0.7575  0.2414
  151SAPE   C3116721   2.065   4.477  10.374 -0.0037 -0.1310 -0.0890
  151SAPE   O3216722   2.153   4.553  10.414 -0.2185 -0.1772 -0.3828
  151SAPE   C3216723   2.080   4.380  10.254  0.0065  0.4069  0.0774
  151SAPE   H2X16724   2.016   4.423  10.173 -2.3868  0.4112  1.8735
  151SAPE   H2Y16725   2.032   4.284  10.282 -1.6089  0.9520 -0.6635
  151SAPE   C2316726   1.674   4.816  10.050 -0.2302  0.0730 -0.3754
  151SAPE   H3R16727   1.750   4.765   9.987 -0.4011  0.1790 -0.6712
  151SAPE   H3S16728   1.718   4.913  10.080 -1.6948  1.4108 -2.3259
  151SAPE   C2416729   1.540   4.851   9.978  0.1623  1.0808 -0.6213
  151SAPE   H4R16730   1.562   4.932   9.905  0.4349  2.0554  0.5082
  151SAPE   H4S16731   1.472   4.890  10.057 -1.1686  0.5000 -1.4512
  151SAPE   C2516732   1.475   4.735   9.913 -0.7166 -0.4670  0.9182
  151SAPE   H5R16733   1.504   4.642   9.965 -1.1136 -0.4952  1.0888
  151SAPE   C2616734   1.388   4.740   9.811 -0.3523  0.3319 -0.5997
  151SAPE   H6R16735   1.343   4.644   9.781  0.8531 -0.2293 -0.6775
  151SAPE   C2716736   1.357   4.866   9.734  0.5774 -0.2400  0.0505
  151SAPE   H7R16737   1.458   4.907   9.713  1.4385 -3.5461 -3.3234
  151SAPE   H7S16738   1.305   4.936   9.803  2.5157  1.6426 -0.2968
  151SAPE   C2816739   1.269   4.834   9.610  0.4607 -0.2131 -0.9184
  151SAPE   H8R16740   1.188   4.760   9.619 -0.0719  0.2915 -1.4475
  151SAPE   C2916741   1.290   4.878   9.488 -0.3755  0.0017  0.4373
  151SAPE   H9R16742   1.222   4.843   9.409  2.4993 -2.4642 -1.1317
  151SAPE  C21016743   1.390   4.980   9.435 -0.1403  0.3953 -0.7071
  151SAPE  H10R16744   1.439   5.036   9.518 -1.6472 -0.4414  0.8389
  151SAPE  H10S16745   1.346   5.064   9.377 -2.8839  1.3812  2.4746
  151SAPE  C21116746   1.498   4.915   9.357 -0.9134 -0.0607  0.1231
  151SAPE  H11R16747   1.578   4.865   9.413 -0.1005  1.1039  0.0398
  151SAPE  C21216748   1.531   4.933   9.229 -0.4463 -1.0232  0.2111
  151SAPE  H12R16749   1.620   4.885   9.187 -0.6628 -0.7774 -0.5366
  151SAPE  C21316750   1.453   5.028   9.139  0.4604  0.8399  0.0567
  151SAPE  H13R16751   1.509   5.095   9.072 -1.9105  1.5825 -1.3099
  151SAPE  H13S16752   1.401   5.106   9.199 -0.7128  0.5694 -0.5637
  151SAPE  C21416753   1.343   4.966   9.060 -0.1381  0.4663 -0.1739
  151SAPE  H14R16754   1.303   4.869   9.093  1.0968 -0.0876 -0.2162
  151SAPE  C21516755   1.277   5.028   8.959 -0.0414  0.2070 -0.4536
  151SAPE  H15R16756   1.179   4.982   8.938 -0.3242  0.3209  0.5804
  151SAPE  C21616757   1.284   5.177   8.918  0.1795 -0.5963 -0.3961
  151SAPE  H16R16758   1.304   5.183   8.809 -0.6680  0.1643 -0.5269
  151SAPE  H16S16759   1.368   5.233   8.965 -0.9210  0.7035  0.1170
  151SAPE  C21716760   1.167   5.262   8.948  0.0361  0.2393  0.5311
  151SAPE  H17R16761   1.072   5.227   8.901  2.2252 -2.2473 -2.4009
  151SAPE  H17S16762   1.174   5.355   8.888  1.8948 -1.8267 -2.7437
  151SAPE  C21816763   1.157   5.315   9.096  1.0434  0.2604 -0.2894
  151SAPE  H18R16764   1.090   5.403   9.099 -1.5544 -1.5996 -0.2395
  151SAPE  H18S16765   1.260   5.342   9.128  0.6788  2.4572 -0.8273
  151SAPE  C21916766   1.088   5.216   9.190 -0.7812  0.1115 -0.0134
  151SAPE  H19R16767   1.123   5.254   9.289  1.2029 -0.8932 -0.2787
  151SAPE  H19S16768   1.139   5.120   9.170  0.4266  0.7854 -0.3201
  151SAPE  C22016769   0.942   5.204   9.181  0.1517 -0.0995 -0.2069
  151SAPE  H20R16770   0.910   5.129   9.106 -1.4656  0.2387  0.1009
  151SAPE  H20S16771   0.895   5.302   9.158 -2.6733 -1.6238 -1.5464
  151SAPE  H20T16772   0.902   5.166   9.278  0.5606  0.8929  0.3584
  151SAPE   C3316773   2.223   4.362  10.206  0.8401 -0.1392  0.3323
  151SAPE   H3X16774   2.282   4.372  10.300 -0.3441  4.0685  0.8133
  151SAPE   H3Y16775   2.261   4.441  10.138 -4.6195  0.4353 -2.5620
  151SAPE   C3416776   2.246   4.217  10.155  0.5387  0.5694 -0.2016
  151SAPE   H4X16777   2.252   4.148  10.242 -0.2367  2.6259  1.5605
  151SAPE   H4Y16778   2.344   4.211  10.104  0.3875  0.5237 -0.4928
  151SAPE   C3516779   2.163   4.167  10.028 -0.2060  0.4480 -0.0347
  151SAPE   H5X16780   2.058   4.165  10.064 -0.9048  1.1236 -1.9262
  151SAPE   H5Y16781   2.199   4.065  10.005 -1.0313 -0.4503  2.3024
  151SAPE   C3616782   2.192   4.267   9.915 -0.2926  0.1343 -0.1491
  151SAPE   H6X16783   2.298   4.300   9.920  0.1290 -1.1806 -0.0354
  151SAPE   H6Y16784   2.121   4.352   9.927 -2.5733 -1.7888  0.9062
  151SAPE   C3716785   2.160   4.208   9.771  0.3663  0.2082  0.5583
  151SAPE   H7X16786   2.050   4.212   9.758  0.0804  0.8538  2.7915
  151SAPE   H7Y16787   2.192   4.103   9.755 -2.1878 -0.8103  1.4673
  151SAPE   C3816788   2.222   4.292   9.662  0.0195 -0.4162 -0.8207
  151SAPE   H8X16789   2.333   4.298   9.669 -0.0946  1.0537  0.2608
  151SAPE   H8Y16790   2.181   4.393   9.685  1.6705  0.0573  0.2222
  151SAPE   C3916791   2.189   4.247   9.518  0.1600 -0.6278 -0.1123
  151SAPE   H9X16792   2.086   4.205   9.518 -0.2083  0.2179  0.5065
  151SAPE   H9Y16793   2.246   4.152   9.517  1.1311 -0.0714  0.6439
  151SAPE  C31016794   2.209   4.354   9.412  1.1170  0.1642 -0.7787
  151SAPE  H10X16795   2.315   4.387   9.414  0.2536  3.2011 -0.0180
  151SAPE  H10Y16796   2.141   4.438   9.438  0.8455 -0.0867 -0.6706
  151SAPE  C31116797   2.167   4.299   9.282 -0.0795  0.3040  0.8169
  151SAPE  H11X16798   2.067   4.256   9.304 -0.0950  0.4688  1.0744
  151SAPE  H11Y16799   2.230   4.216   9.246 -0.3010  0.1857  0.6986
  151SAPE  C31216800   2.152   4.419   9.176  0.4931  0.8064  0.5730
  151SAPE  H12X16801   2.085   4.501   9.209  0.5597  2.0072 -2.0226
  151SAPE  H12Y16802   2.115   4.382   9.078  1.5064  3.2887 -0.8486
  151SAPE  C31316803   2.289   4.481   9.137  0.3611  1.0461 -0.2527
  151SAPE  H13X16804   2.334   4.529   9.227 -1.2713 -1.1133  1.8338
  151SAPE  H13Y16805   2.279   4.556   9.056  2.6875  0.8662 -0.7920
  151SAPE  C31416806   2.388   4.380   9.068 -0.6907  0.4361 -0.4672
  151SAPE  H14X16807   2.448   4.330   9.146 -0.4696 -2.1089 -2.1510
  151SAPE  H14Y16808   2.467   4.440   9.016  1.5963 -1.5553  0.5485
  151SAPE  C31516809   2.316   4.269   8.986 -0.2686 -0.3755  0.0158
  151SAPE  H15X16810   2.265   4.326   8.905 -0.2356 -0.6117 -0.1724
  151SAPE  H15Y16811   2.254   4.205   9.053  1.8782 -1.6118  0.9274
  151SAPE  C31616812   2.420   4.174   8.919 -0.1412 -0.5905 -0.1015
  151SAPE  H16X16813   2.472   4.112   8.995 -0.4656  0.5386  1.0795
  151SAPE  H16Y16814   2.495   4.240   8.870  0.8716 -0.4495  1.5617
  151SAPE  C31716815   2.358   4.077   8.816 -0.5014 -0.1885  0.0245
  151SAPE  H17X16816   2.300   4.140   8.745 -0.6355  0.2069  0.4869
  151SAPE  H17Y16817   2.297   4.000   8.868  1.5046 -0.3435  2.2939
  151SAPE  C31816818   2.471   4.013   8.726  0.2904  0.8927 -0.4278
  151SAPE  H18X16819   2.419   3.981   8.633  0.1526  5.7993 -2.3561
  151SAPE  H18Y16820   2.509   3.921   8.775 -1.2422 -0.0774 -0.9759
  151SAPE  H18Z16821   2.547   4.093   8.712  1.3221  0.5531  2.5503
  152SAPE     N16822   6.385   2.399  10.918 -0.2170 -0.6373 -0.2548
  152SAPE   HN116823   6.371   2.502  10.919 -0.9467 -0.7255  0.7586
  152SAPE   HN216824   6.318   2.343  10.975 -0.8985 -0.3378 -0.7576
  152SAPE   HN316825   6.477   2.377  10.962 -1.0070 -1.0540  1.2826
  152SAPE   C1216826   6.381   2.352  10.775 -0.3040 -0.0861  0.0095
  152SAPE  H12A16827   6.279   2.356  10.731 -1.0570  1.7146  1.7849
  152SAPE  H12B16828   6.426   2.250  10.780 -0.6646 -0.2197  0.5552
  152SAPE   C1116829   6.477   2.440  10.701  0.8381 -0.7770  0.0329
  152SAPE  H11A16830   6.425   2.538  10.717 -0.3883 -1.3556 -0.2785
  152SAPE  H11B16831   6.477   2.418  10.593  1.9280 -1.9680  0.2557
  152SAPE     P16832   6.716   2.555  10.731 -0.1676  0.2349  0.0606
  152SAPE   O1316833   6.696   2.661  10.829 -0.3052  0.3646  0.2371
  152SAPE   O1416834   6.852   2.500  10.729 -0.4850 -0.2376  0.0732
  152SAPE   O1216835   6.607   2.436  10.747 -0.7351  0.0728 -0.8205
  152SAPE   O1116836   6.692   2.625  10.596  0.0578 -0.7324  0.1083
  152SAPE    C116837   6.679   2.557  10.468 -0.3637  0.3328 -0.2979
  152SAPE    HA16838   6.689   2.447  10.483  0.9069  0.5150  0.3618
  152SAPE    HB16839   6.585   2.578  10.412 -1.1051 -2.4366 -0.2518
  152SAPE    C216840   6.798   2.595  10.371  0.3612  0.8559  0.2538
  152SAPE    HS16841   6.889   2.591  10.435  2.0437  2.0377 -1.9180
  152SAPE   O2116842   6.777   2.728  10.315 -0.1917  0.4763 -0.4113
  152SAPE   C2116843   6.876   2.778  10.243 -0.2264  0.3653 -0.4945
  152SAPE   O2216844   6.990   2.730  10.234  0.2363 -0.1866 -0.0945
  152SAPE   C2216845   6.826   2.900  10.164 -0.3288 -0.4305 -0.0649
  152SAPE   H2R16846   6.716   2.914  10.178 -0.1647  3.2705 -1.3084
  152SAPE   H2S16847   6.870   2.995  10.202  2.1642 -0.8098 -1.7865
  152SAPE    C316848   6.821   2.484  10.266  0.2084 -0.4857  0.0693
  152SAPE    HX16849   6.824   2.384  10.314 -1.4862  0.5704  2.6396
  152SAPE    HY16850   6.924   2.503  10.231  1.6178 -0.0110  3.9763
  152SAPE   O3116851   6.720   2.501  10.163 -0.5363 -0.3246  0.3675
  152SAPE   C3116852   6.609   2.430  10.168  0.8995 -0.2347  0.2850
  152SAPE   O3216853   6.581   2.348  10.250 -0.1494 -0.7008  0.4934
  152SAPE   C3216854   6.521   2.471  10.051  0.7435 -0.3136 -0.0588
  152SAPE   H2X16855   6.584   2.520   9.974 -1.7119  2.3183 -0.5928
  152SAPE   H2Y16856   6.449   2.547  10.088  1.3757 -0.8951  2.5163
  152SAPE   C2316857   6.859   2.894  10.015  0.2513 -0.3670 -0.6587
  152SAPE   H3R16858   6.970   2.898  10.003  0.3094  1.0088  0.1441
  152SAPE   H3S16859   6.819   2.986   9.967  1.6965  1.2934  1.1601
  152SAPE   C2416860   6.798   2.785   9.934 -0.4500 -0.5175 -0.5777
  152SAPE   H4R16861   6.843   2.685   9.953  2.4689  0.7394 -0.2104
  152SAPE   H4S16862   6.820   2.807   9.827  0.8467 -0.3923 -0.3092
  152SAPE   C2516863   6.648   2.780   9.957  0.3711 -0.5765  0.3847
  152SAPE   H5R16864   6.614   2.741  10.054  0.9123 -0.4118  0.6430
  152SAPE   C2616865   6.551   2.814   9.877 -0.2365 -0.1877 -0.1284
  152SAPE   H6R16866   6.444   2.808   9.902 -0.1891 -0.7881 -0.0668
  152SAPE   C2716867   6.565   2.877   9.737 -0.1190  0.9908 -0.1174
  152SAPE   H7R16868   6.559   2.802   9.656  0.8142  0.8772 -0.0865
  152SAPE   H7S16869   6.667   2.921   9.735  0.7457 -0.7163  2.3883
  152SAPE   C2816870   6.466   2.988   9.715  0.4777  0.1299 -0.3157
  152SAPE   H8R16871   6.457   3.061   9.798 -1.1603 -0.9107  0.4778
  152SAPE   C2916872   6.409   3.016   9.594 -0.4248  0.0448 -0.2614
  152SAPE   H9R16873   6.344   3.104   9.582  1.3071  1.2804 -0.8061
  152SAPE  C21016874   6.420   2.933   9.463 -0.2564  0.5380 -0.8043
  152SAPE  H10R16875   6.458   2.830   9.478  1.3328  1.3383  1.1063
  152SAPE  H10S16876   6.507   2.969   9.405  0.6435  1.3703  0.9928
  152SAPE  C21116877   6.285   2.935   9.390  0.0778 -0.4472  0.0633
  152SAPE  H11R16878   6.217   2.867   9.444  0.8465 -1.5481 -0.3090
  152SAPE  C21216879   6.236   3.012   9.288  0.6920  0.2569  0.3160
  152SAPE  H12R16880   6.132   2.998   9.253  0.8389 -0.3932  0.1171
  152SAPE  C21316881   6.321   3.113   9.215 -0.2331 -0.1519  0.6481
  152SAPE  H13R16882   6.306   3.105   9.105 -0.5311 -1.6911  0.7816
  152SAPE  H13S16883   6.425   3.084   9.242  0.5014  1.2302 -0.4903
  152SAPE  C21416884   6.295   3.250   9.258 -1.0315 -0.2272 -0.8214
  152SAPE  H14R16885   6.273   3.253   9.365  3.3418  0.2291  0.2619
  152SAPE  C21516886   6.328   3.361   9.192  0.6301  0.0492  0.9056
  152SAPE  H15R16887   6.307   3.457   9.241 -1.5285  0.3427 -0.4895
  152SAPE  C21616888   6.378   3.361   9.044 -0.3641  0.5600  0.3846
  152SAPE  H16R16889   6.298   3.406   8.981  0.1709  1.1291  0.1090
  152SAPE  H16S16890   6.381   3.258   9.003 -1.7007  0.3120  0.8293
  152SAPE  C21716891   6.506   3.440   9.019 -0.1294 -0.1408 -0.6753
  152SAPE  H17R16892   6.544   3.411   8.918 -1.6162 -1.8800 -0.7904
  152SAPE  H17S16893   6.586   3.402   9.086  0.9008 -1.2468 -2.4280
  152SAPE  C21816894   6.496   3.589   9.040 -0.9055 -0.4675 -0.3134
  152SAPE  H18R16895   6.473   3.602   9.148  0.3796 -3.9771  0.5288
  152SAPE  H18S16896   6.415   3.638   8.983 -1.1520 -0.7704 -0.2256
  152SAPE  C21916897   6.626   3.662   8.998  0.3105 -0.1877 -0.8121
  152SAPE  H19R16898   6.663   3.614   8.904  1.0795 -0.0565 -0.5843
  152SAPE  H19S16899   6.709   3.643   9.069 -1.6060 -0.0747  1.6115
  152SAPE  C22016900   6.600   3.811   8.982  0.0637  0.3786 -0.4397
  152SAPE  H20R16901   6.541   3.829   8.890 -1.0198  0.9799  0.3385
  152SAPE  H20S16902   6.693   3.864   8.955 -0.2730  0.7093 -0.9547
  152SAPE  H20T16903   6.553   3.850   9.075  0.0772  0.8736 -0.6381
  152SAPE   C3316904   6.428   2.361   9.989 -0.0407  0.0011 -0.3073
  152SAPE   H3X16905   6.361   2.332  10.073 -1.3359 -0.1917 -1.3758
  152SAPE   H3Y16906   6.499   2.284   9.953  0.8934 -0.1841  1.7595
  152SAPE   C3416907   6.353   2.402   9.866 -0.0384 -0.4911  0.3201
  152SAPE   H4X16908   6.296   2.323   9.812 -0.6757  0.4112 -0.3613
  152SAPE   H4Y16909   6.438   2.420   9.796 -0.2745  0.6277  0.2899
  152SAPE   C3516910   6.272   2.531   9.877  0.2509  0.0686 -0.3456
  152SAPE   H5X16911   6.305   2.605   9.953  1.2104  0.0112 -0.6975
  152SAPE   H5Y16912   6.170   2.495   9.904  0.5223  0.1853  0.9125
  152SAPE   C3616913   6.262   2.613   9.751 -0.0401  0.3156 -0.7900
  152SAPE   H6X16914   6.361   2.641   9.709  1.0536 -1.8530  0.2303
  152SAPE   H6Y16915   6.209   2.710   9.763  2.6045  1.8748 -0.8822
  152SAPE   C3716916   6.189   2.530   9.639  0.1876 -0.2309  0.0567
  152SAPE   H7X16917   6.108   2.473   9.691 -1.6348  2.3989  0.2837
  152SAPE   H7Y16918   6.259   2.455   9.596  2.7302  0.7514  2.1718
  152SAPE   C3816919   6.138   2.621   9.522  0.0486  0.8583  0.0019
  152SAPE   H8X16920   6.220   2.645   9.450  0.9742 -0.0650  0.7253
  152SAPE   H8Y16921   6.108   2.719   9.564 -0.1866  0.3917  0.9291
  152SAPE   C3916922   6.002   2.572   9.468 -0.9589 -1.3544  0.2682
  152SAPE   H9X16923   5.936   2.543   9.553 -0.8630 -1.4334  0.3165
  152SAPE   H9Y16924   6.022   2.476   9.416  0.3106 -1.0406  0.1365
  152SAPE  C31016925   5.930   2.669   9.379  0.5058  0.3572  0.2647
  152SAPE  H10X16926   5.915   2.761   9.440  3.6340  0.1182  1.5600
  152SAPE  H10Y16927   5.825   2.637   9.362 -0.2713  1.8927  1.7807
  152SAPE  C31116928   5.998   2.711   9.245 -0.0458  0.2391  0.1408
  152SAPE  H11X16929   5.979   2.627   9.175  0.6169 -0.1076  0.3677
  152SAPE  H11Y16930   6.109   2.713   9.256  0.0924 -1.3388 -0.6738
  152SAPE  C31216931   5.943   2.830   9.172  0.3940  0.2408 -0.4802
  152SAPE  H12X16932   5.936   2.910   9.249  1.2762  0.2062 -0.3539
  152SAPE  H12Y16933   5.835   2.817   9.151  0.3987 -1.2098  0.2883
  152SAPE  C31316934   6.020   2.868   9.040  0.3291  0.5627 -0.7271
  152SAPE  H13X16935   6.024   2.773   8.983  0.7503  0.6266 -0.8025
  152SAPE  H13Y16936   6.124   2.878   9.078  1.4351 -3.0037 -2.4255
  152SAPE  C31416937   5.961   2.992   8.969  0.5099 -0.3640 -1.1908
  152SAPE  H14X16938   5.853   2.972   8.954  0.9839 -1.9042 -3.0674
  152SAPE  H14Y16939   6.012   3.017   8.873  0.8193 -0.0734 -0.9507
  152SAPE  C31516940   5.955   3.115   9.057  0.5478  0.4242  0.7708
  152SAPE  H15X16941   6.060   3.134   9.088  1.0794 -1.0048 -0.0956
  152SAPE  H15Y16942   5.897   3.089   9.148  0.4714  1.3673  1.0109
  152SAPE  C31616943   5.907   3.247   8.982  0.0799  0.1638  0.3821
  152SAPE  H16X16944   5.810   3.217   8.936 -0.6902  1.1345  1.2932
  152SAPE  H16Y16945   5.976   3.280   8.902  0.9615 -3.1469 -0.3635
  152SAPE  C31716946   5.873   3.357   9.088  0.3324  0.1547  0.5088
  152SAPE  H17X16947   5.964   3.405   9.131 -0.5297  0.4860  2.0541
  152SAPE  H17Y16948   5.823   3.310   9.175  3.0386 -0.6396  1.7572
  152SAPE  C31816949   5.796   3.482   9.031 -0.2487  0.1704  0.4352
  152SAPE  H18X16950   5.861   3.543   8.963 -0.4677 -1.3118 -1.1659
  152SAPE  H18Y16951   5.769   3.547   9.117  2.0227  2.1739 -0.2222
  152SAPE  H18Z16952   5.707   3.440   8.981  1.5764 -2.1333 -1.1109
  153SAPE     N16953   2.201   4.079  11.097  0.2707  1.0285 -0.7829
  153SAPE   HN116954   2.190   4.064  11.200 -1.3381 -0.1503 -1.0892
  153SAPE   HN216955   2.119   4.113  11.042  0.6163 -0.1152 -2.0700
  153SAPE   HN316956   2.224   3.989  11.050 -1.6958  0.2680 -0.3952
  153SAPE   C1216957   2.311   4.188  11.077 -0.0505 -0.5533 -0.3028
  153SAPE  H12A16958   2.404   4.144  11.120 -0.9105 -1.2887  0.8854
  153SAPE  H12B16959   2.279   4.273  11.142 -0.1258  1.2882 -2.6184
  153SAPE   C1116960   2.333   4.229  10.930 -0.1608 -0.4413 -0.0294
  153SAPE  H11A16961   2.391   4.152  10.875  0.4826  0.3660 -0.4932
  153SAPE  H11B16962   2.400   4.318  10.926 -0.7461 -0.0330 -0.8670
  153SAPE     P16963   2.186   4.360  10.766  0.4705  0.1397 -0.1092
  153SAPE   O1316964   2.059   4.427  10.805  0.0262  0.1455  0.2490
  153SAPE   O1416965   2.309   4.440  10.756  0.4405  0.3209  0.1468
  153SAPE   O1216966   2.207   4.239  10.865 -1.0558  0.0463 -0.1748
  153SAPE   O1116967   2.168   4.282  10.628  0.3944  0.6812 -0.5488
  153SAPE    C116968   2.057   4.200  10.603  0.1006 -0.1487  0.2338
  153SAPE    HA16969   1.975   4.224  10.675  0.5963  2.6278 -0.0325
  153SAPE    HB16970   2.022   4.215  10.499 -0.3787 -2.2391  0.0447
  153SAPE    C216971   2.104   4.049  10.618 -0.6362  0.3439 -0.6495
  153SAPE    HS16972   2.126   4.037  10.726 -1.2645 -0.5602 -0.6110
  153SAPE   O2116973   2.218   4.023  10.536  0.4018 -0.2767 -0.4261
  153SAPE   C2116974   2.290   3.927  10.586 -0.4632  0.5315  0.3202
  153SAPE   O2216975   2.284   3.880  10.696  0.1198 -0.9811 -0.2201
  153SAPE   C2216976   2.380   3.880  10.471  0.0134 -0.2614  0.5941
  153SAPE   H2R16977   2.312   3.832  10.398  0.4453 -2.7236  1.7338
  153SAPE   H2S16978   2.429   3.976  10.444 -1.6195 -0.1621 -2.3409
  153SAPE    C316979   1.983   3.946  10.607 -0.2744  0.2066  0.7996
  153SAPE    HX16980   1.912   3.971  10.689 -1.9538 -0.4161 -0.3903
  153SAPE    HY16981   2.016   3.844  10.635 -1.9978 -0.6509 -0.0872
  153SAPE   O3116982   1.915   3.955  10.482 -0.3123 -0.7860 -0.1495
  153SAPE   C3116983   1.943   3.855  10.401 -0.2172 -0.6226  0.1291
  153SAPE   O3216984   1.993   3.752  10.425 -0.7115  0.6262 -0.2536
  153SAPE   C3216985   1.887   3.879  10.257  0.3437  1.1640 -0.0283
  153SAPE   H2X16986   1.847   3.981  10.244  0.0974  1.2380  1.1441
  153SAPE   H2Y16987   1.809   3.801  10.249 -1.2262  2.8152 -1.5034
  153SAPE   C2316988   2.488   3.775  10.510 -0.1942 -0.4526 -0.1716
  153SAPE   H3R16989   2.438   3.693  10.567 -1.8791  1.6214  1.5084
  153SAPE   H3S16990   2.555   3.820  10.587 -1.7551  0.0743  0.9426
  153SAPE   C2416991   2.576   3.723  10.392 -0.1398 -0.3507  0.3875
  153SAPE   H4R16992   2.516   3.691  10.305  1.6147  0.3873 -1.1633
  153SAPE   H4S16993   2.627   3.629  10.421  0.5479  0.0194  0.3924
  153SAPE   C2516994   2.672   3.823  10.335 -0.2025  0.9724 -0.6132
  153SAPE   H5R16995   2.727   3.878  10.413  0.4050 -1.3539  0.6908
  153SAPE   C2616996   2.695   3.857  10.207 -0.9327 -0.0623  0.3377
  153SAPE   H6R16997   2.763   3.942  10.191 -1.3029  0.1835  0.0187
  153SAPE   C2716998   2.638   3.816  10.077  0.4730  0.1067  0.1030
  153SAPE   H7R16999   2.580   3.722  10.089 -1.9368  1.6536  1.3030
  153SAPE   H7S17000   2.716   3.799   9.999 -0.6830  2.5577 -1.7468
  153SAPE   C2817001   2.548   3.922  10.028 -0.6348  0.3677  0.1689
  153SAPE   H8R17002   2.481   3.951  10.110 -0.9811 -2.5251  1.0399
  153SAPE   C2917003   2.540   3.978   9.899 -0.5665 -0.0096  0.1625
  153SAPE   H9R17004   2.451   4.042   9.882 -1.0082 -0.2621  1.4295
  153SAPE  C21017005   2.616   3.939   9.772  0.1642  0.1713 -0.8044
  153SAPE  H10R17006   2.713   3.892   9.797 -0.6697 -1.0524  0.2822
  153SAPE  H10S17007   2.640   4.025   9.707 -3.3347  1.5376 -0.5248
  153SAPE  C21117008   2.538   3.834   9.695  0.7105  0.1487  0.6086
  153SAPE  H11R17009   2.494   3.750   9.750 -0.9546  0.0571 -0.7597
  153SAPE  C21217010   2.494   3.854   9.570  0.5391  1.1790  0.0113
  153SAPE  H12R17011   2.445   3.768   9.522 -0.3669  0.2962  2.3985
  153SAPE  C21317012   2.523   3.969   9.476 -0.1518 -0.7378  0.4580
  153SAPE  H13R17013   2.630   4.000   9.482 -0.6098  0.6026  2.2272
  153SAPE  H13S17014   2.466   4.052   9.522  1.9284  1.0039  0.0655
  153SAPE  C21417015   2.471   3.957   9.334 -0.2331  0.6298  0.3280
  153SAPE  H14R17016   2.365   3.985   9.329 -1.6960 -3.9705  0.0889
  153SAPE  C21517017   2.546   3.906   9.228  0.1814 -0.0884 -0.1467
  153SAPE  H15R17018   2.492   3.878   9.137 -1.1303 -0.8841  0.8396
  153SAPE  C21617019   2.689   3.861   9.219 -0.5329 -0.1506  0.4219
  153SAPE  H16R17020   2.741   3.879   9.316  0.4929  0.5319 -0.2305
  153SAPE  H16S17021   2.752   3.915   9.144 -0.4641 -1.6357 -0.6406
  153SAPE  C21717022   2.695   3.709   9.187 -0.3525 -0.0980  0.8688
  153SAPE  H17R17023   2.612   3.653   9.235  0.0290 -2.6743 -1.2835
  153SAPE  H17S17024   2.781   3.670   9.246  2.5002  0.7867 -2.3893
  153SAPE  C21817025   2.703   3.661   9.043 -0.3438 -0.0343  0.1098
  153SAPE  H18R17026   2.804   3.684   9.005 -0.4646 -2.9521 -2.3549
  153SAPE  H18S17027   2.626   3.707   8.978  0.4739 -0.9565 -1.5735
  153SAPE  C21917028   2.666   3.515   9.037 -0.0562  0.0545 -0.0767
  153SAPE  H19R17029   2.574   3.500   9.097  0.3617  2.6692  1.3756
  153SAPE  H19S17030   2.740   3.452   9.089  0.0516 -0.2366 -0.5728
  153SAPE  C22017031   2.643   3.469   8.891 -0.8665 -0.6463  0.4214
  153SAPE  H20R17032   2.611   3.363   8.884 -1.0481 -0.7839  2.7052
  153SAPE  H20S17033   2.733   3.459   8.827 -0.2149  1.7361  0.8842
  153SAPE  H20T17034   2.567   3.533   8.842 -0.3975  1.1486  1.9298
  153SAPE   C3317035   1.997   3.868  10.150 -0.8364  0.6529  0.4915
  153SAPE   H3X17036   2.043   3.767  10.154 -0.8812  0.6332  0.5077
  153SAPE   H3Y17037   2.085   3.934  10.167  1.1058 -1.4457 -0.8434
  153SAPE   C3417038   1.930   3.899  10.017 -0.2197 -0.2287 -0.1609
  153SAPE   H4X17039   1.932   4.008   9.996  2.8727 -0.7384 -3.4679
  153SAPE   H4Y17040   1.821   3.878  10.022 -0.9951  3.4002  2.5438
  153SAPE   C3517041   1.986   3.833   9.893  0.4466 -0.4062 -0.4606
  153SAPE   H5X17042   1.951   3.727   9.894 -2.2433  0.3100  2.9680
  153SAPE   H5Y17043   2.095   3.839   9.878  0.1223  0.5554 -2.8516
  153SAPE   C3617044   1.908   3.894   9.773  0.5182 -0.2583 -0.1922
  153SAPE   H6X17045   1.913   4.005   9.781 -0.3676 -0.2614  0.5469
  153SAPE   H6Y17046   1.801   3.867   9.788  0.7144 -0.5445  0.7936
  153SAPE   C3717047   1.970   3.859   9.638  0.5639  0.2598 -0.4968
  153SAPE   H7X17048   1.977   3.749   9.620  0.6101  0.1291  0.3145
  153SAPE   H7Y17049   2.075   3.896   9.635  0.3786  0.7454 -1.3121
  153SAPE   C3817050   1.897   3.911   9.521  0.6323 -0.7862 -0.4579
  153SAPE   H8X17051   1.896   4.022   9.528  0.2319 -0.6418 -2.2399
  153SAPE   H8Y17052   1.791   3.879   9.516  0.0604  0.5994  1.5451
  153SAPE   C3917053   1.963   3.895   9.384 -0.2938 -0.0387  0.5622
  153SAPE   H9X17054   1.959   3.787   9.356 -2.6858  0.7393 -2.6324
  153SAPE   H9Y17055   2.065   3.936   9.394 -0.3389  0.3240 -0.3968
  153SAPE  C31017056   1.915   3.964   9.260  0.2479  0.2848  0.0180
  153SAPE  H10X17057   1.884   4.066   9.293 -0.0039 -0.4724  2.2726
  153SAPE  H10Y17058   1.822   3.914   9.226 -0.0807 -0.2065  1.5611
  153SAPE  C31117059   2.021   3.985   9.148 -0.2008  0.0149  0.2091
  153SAPE  H11X17060   2.059   3.891   9.104  2.5072  1.2707 -0.3524
  153SAPE  H11Y17061   2.106   4.036   9.199 -1.8914  0.5839  2.6684
  153SAPE  C31217062   1.975   4.087   9.031 -0.7688 -0.0433  0.2481
  153SAPE  H12X17063   2.075   4.121   8.996 -0.2259  0.2807  2.0074
  153SAPE  H12Y17064   1.939   4.180   9.080  2.7914  1.3941  0.4374
  153SAPE  C31317065   1.902   4.029   8.915  0.3699 -1.4264 -0.1949
  153SAPE  H13X17066   1.825   3.958   8.951  2.2198 -1.8807  3.2937
  153SAPE  H13Y17067   1.968   3.972   8.847 -0.5353 -2.2441 -0.4151
  153SAPE  C31417068   1.833   4.149   8.843 -0.3729  0.0199  0.4914
  153SAPE  H14X17069   1.904   4.234   8.850  0.4137 -0.4760 -1.1356
  153SAPE  H14Y17070   1.750   4.181   8.910 -0.2761 -0.9286  1.0823
  153SAPE  C31517071   1.796   4.135   8.701 -0.0691  0.7097 -0.0456
  153SAPE  H15X17072   1.766   4.029   8.684  0.4789  0.7292 -1.2300
  153SAPE  H15Y17073   1.886   4.158   8.640 -0.5580  1.2582 -0.5752
  153SAPE  C31617074   1.677   4.226   8.647 -0.4107 -0.3718  0.2379
  153SAPE  H16X17075   1.682   4.212   8.537 -0.4131 -1.9392  0.4115
  153SAPE  H16Y17076   1.689   4.333   8.676  1.7144 -0.0471 -1.5338
  153SAPE  C31717077   1.539   4.183   8.702  0.6102  0.5128 -0.4963
  153SAPE  H17X17078   1.453   4.232   8.652 -0.1135  0.3695  0.5859
  153SAPE  H17Y17079   1.518   4.222   8.804  0.1455  0.6058 -0.6254
  153SAPE  C31817080   1.521   4.036   8.689 -0.1696 -0.2302  0.1976
  153SAPE  H18X17081   1.413   4.012   8.696 -0.2293  0.4393  3.2228
  153SAPE  H18Y17082   1.572   3.981   8.771  1.6637  1.7153  0.4526
  153SAPE  H18Z17083   1.574   4.012   8.594  3.0019  1.5819  1.3456
  154SAPE     N17084   2.825   4.762  11.258 -0.0641  0.2497  0.4489
  154SAPE   HN117085   2.842   4.745  11.359 -2.3141  1.3464  1.0795
  154SAPE   HN217086   2.904   4.819  11.220  0.2105 -1.0312 -0.9951
  154SAPE   HN317087   2.745   4.829  11.251  1.2656  1.8093 -0.7389
  154SAPE   C1217088   2.800   4.632  11.194  0.5732  0.6294  0.0113
  154SAPE  H12A17089   2.764   4.656  11.091 -4.0561 -2.7017  0.5498
  154SAPE  H12B17090   2.712   4.582  11.240  1.6410 -2.2917 -0.8739
  154SAPE   C1117091   2.922   4.552  11.163 -0.5694 -0.0467 -0.4958
  154SAPE  H11A17092   2.891   4.475  11.090  1.1960 -1.6599  0.3723
  154SAPE  H11B17093   2.955   4.489  11.249 -1.4597  0.0713 -0.0570
  154SAPE     P17094   3.124   4.577  11.004  0.0177 -0.3025  0.1207
  154SAPE   O1317095   3.225   4.682  10.982  0.4077  0.3854 -0.1149
  154SAPE   O1417096   3.169   4.443  11.045  0.7353  0.3278  0.0422
  154SAPE   O1217097   3.031   4.633  11.115 -0.2659  0.1187 -0.0705
  154SAPE   O1117098   3.039   4.571  10.871 -0.0865 -0.6743  0.1253
  154SAPE    C117099   3.007   4.696  10.804 -0.1780 -0.2286 -0.0377
  154SAPE    HA17100   2.989   4.780  10.874 -1.6686  0.2052 -0.8821
  154SAPE    HB17101   3.084   4.719  10.727  0.1499  1.8063  0.8474
  154SAPE    C217102   2.871   4.680  10.725  0.1799  0.5772  1.3147
  154SAPE    HS17103   2.789   4.660  10.797 -2.0987 -0.4575 -1.4182
  154SAPE   O2117104   2.892   4.565  10.630 -0.2838  0.4785  0.3242
  154SAPE   C2117105   2.789   4.509  10.596 -0.2235  0.0607 -0.2128
  154SAPE   O2217106   2.671   4.536  10.629 -0.2607  0.3424  0.0878
  154SAPE   C2217107   2.825   4.389  10.505  0.2582  0.2398 -0.9585
  154SAPE   H2R17108   2.934   4.369  10.503  0.2259 -0.0384 -0.3101
  154SAPE   H2S17109   2.771   4.307  10.557 -0.9691  1.8185  0.3529
  154SAPE    C317110   2.813   4.804  10.650  0.9140  0.1277 -0.3783
  154SAPE    HX17111   2.787   4.865  10.739  2.6707  1.8159 -0.9547
  154SAPE    HY17112   2.720   4.783  10.593  1.4189 -0.3581 -1.0551
  154SAPE   O3117113   2.921   4.874  10.579  0.0850  0.1980  0.2825
  154SAPE   C3117114   2.937   4.822  10.452 -0.0986  0.0359 -0.1485
  154SAPE   O3217115   2.858   4.746  10.398 -0.0528 -0.0033  0.1654
  154SAPE   C3217116   3.058   4.883  10.385 -0.5373 -0.0899  0.5119
  154SAPE   H2X17117   3.148   4.841  10.433  0.9681  0.0447 -1.9944
  154SAPE   H2Y17118   3.062   4.990  10.414  1.4678  0.9597 -3.0349
  154SAPE   C2317119   2.762   4.400  10.367  0.1627 -0.6101 -0.1215
  154SAPE   H3R17120   2.819   4.473  10.305  0.2453  1.9622  2.7786
  154SAPE   H3S17121   2.661   4.446  10.378  0.6009  0.9190 -1.8159
  154SAPE   C2417122   2.725   4.267  10.304 -0.0743  0.4737 -0.2893
  154SAPE   H4R17123   2.685   4.204  10.386  0.7610 -0.0786 -0.2922
  154SAPE   H4S17124   2.819   4.217  10.272  0.9142  1.1542  1.4213
  154SAPE   C2517125   2.627   4.271  10.190 -0.2326 -0.0902 -0.0489
  154SAPE   H5R17126   2.522   4.285  10.217 -0.8959 -1.5816 -1.6734
  154SAPE   C2617127   2.650   4.264  10.057  0.3045 -0.0302  0.4717
  154SAPE   H6R17128   2.564   4.256   9.989  2.2962 -0.4374 -2.1748
  154SAPE   C2717129   2.778   4.237   9.984 -0.8333  0.0683  0.3465
  154SAPE   H7R17130   2.754   4.153   9.916 -1.8012 -0.5337  1.3975
  154SAPE   H7S17131   2.862   4.207  10.050 -0.5007 -0.7691 -0.4399
  154SAPE   C2817132   2.827   4.369   9.927 -0.2225  0.3435 -0.0342
  154SAPE   H8R17133   2.876   4.439   9.996 -0.5757 -0.4997  1.1054
  154SAPE   C2917134   2.812   4.411   9.799  0.2062  0.3570  0.3142
  154SAPE   H9R17135   2.848   4.512   9.776 -1.9161  0.9721 -0.5068
  154SAPE  C21017136   2.732   4.344   9.691  0.0130 -0.4120  0.7129
  154SAPE  H10R17137   2.689   4.409   9.612  1.1612  0.5647  0.8665
  154SAPE  H10S17138   2.640   4.295   9.730 -0.1147 -1.4882 -0.8152
  154SAPE  C21117139   2.814   4.238   9.616  0.0986  1.2107 -0.2106
  154SAPE  H11R17140   2.859   4.162   9.682 -0.5985 -1.0794 -2.2205
  154SAPE  C21217141   2.815   4.210   9.486  0.6492  0.4179  0.1892
  154SAPE  H12R17142   2.869   4.120   9.455 -1.3656 -1.5308  1.9985
  154SAPE  C21317143   2.740   4.281   9.374  0.9818  1.0225 -0.4989
  154SAPE  H13R17144   2.640   4.308   9.415  0.7167  0.0091 -0.4392
  154SAPE  H13S17145   2.718   4.206   9.295  0.8216 -0.1239  0.5960
  154SAPE  C21417146   2.807   4.392   9.313  0.1213 -0.2084  0.5269
  154SAPE  H14R17147   2.786   4.483   9.370 -1.3929 -1.1596  1.5793
  154SAPE  C21517148   2.858   4.399   9.188 -0.4463 -0.8656  0.3915
  154SAPE  H15R17149   2.907   4.492   9.156  0.2281 -1.0429  0.9012
  154SAPE  C21617150   2.856   4.287   9.082 -0.4693 -0.2487  0.9886
  154SAPE  H16R17151   2.823   4.334   8.987  0.3599  2.8502  2.1086
  154SAPE  H16S17152   2.774   4.218   9.112 -2.5140  1.2919 -0.6782
  154SAPE  C21717153   2.988   4.210   9.085 -0.0650  0.5189 -0.4207
  154SAPE  H17R17154   3.028   4.189   9.187  2.1199  1.6490 -0.9761
  154SAPE  H17S17155   3.061   4.270   9.027 -0.2698 -1.1818 -2.5319
  154SAPE  C21817156   2.974   4.079   9.005  0.4580 -0.0983 -0.1839
  154SAPE  H18R17157   2.897   4.008   9.044 -0.5155  0.4607 -1.0565
  154SAPE  H18S17158   3.069   4.022   9.010 -0.9861 -2.6984 -0.0351
  154SAPE  C21917159   2.945   4.097   8.848  0.4654 -0.4580  0.0429
  154SAPE  H19R17160   3.031   4.157   8.813 -1.0850  3.3381  2.1904
  154SAPE  H19S17161   2.851   4.154   8.835  1.4645  1.8523  2.1278
  154SAPE  C22017162   2.936   3.969   8.773  0.1870  0.3697  0.1248
  154SAPE  H20R17163   2.945   3.971   8.662  2.3395 -2.8433  0.0900
  154SAPE  H20S17164   2.839   3.916   8.787 -0.8183  1.5364 -2.0185
  154SAPE  H20T17165   3.013   3.902   8.817 -0.2615  0.1778  0.6296
  154SAPE   C3317166   3.063   4.880  10.222  0.1687 -0.0089 -0.4968
  154SAPE   H3X17167   2.980   4.815  10.188 -0.4256 -0.4253  1.6432
  154SAPE   H3Y17168   3.159   4.835  10.190 -0.5286  0.1696 -3.0842
  154SAPE   C3417169   3.058   5.021  10.149 -0.3003  0.3976 -0.5667
  154SAPE   H4X17170   3.127   5.092  10.200  0.6424 -0.9209  0.0190
  154SAPE   H4Y17171   2.956   5.056  10.178 -0.4888  1.0353 -1.9367
  154SAPE   C3517172   3.082   5.034   9.996  0.3294  0.0687 -0.1613
  154SAPE   H5X17173   3.065   5.137   9.958 -0.1743 -0.8981 -2.7530
  154SAPE   H5Y17174   2.997   4.978   9.952 -0.7964  1.9881 -0.5310
  154SAPE   C3617175   3.211   4.971   9.945  0.3836  0.0058  0.3209
  154SAPE   H6X17176   3.200   4.860   9.941  2.0555 -0.1510 -3.2142
  154SAPE   H6Y17177   3.282   4.996  10.027 -0.1113  2.0778  0.1526
  154SAPE   C3717178   3.262   5.015   9.811  0.1080 -0.7421  0.0446
  154SAPE   H7X17179   3.349   4.956   9.776  2.3158  1.3133  1.7566
  154SAPE   H7Y17180   3.291   5.122   9.822 -1.1103 -0.4982  1.0696
  154SAPE   C3817181   3.157   4.998   9.699 -0.8321  0.7475 -0.2327
  154SAPE   H8X17182   3.094   5.089   9.705  0.4621  1.7326 -0.9725
  154SAPE   H8Y17183   3.094   4.907   9.701  0.2383 -0.0027  0.1876
  154SAPE   C3917184   3.220   5.001   9.559 -0.3666  0.1140  0.1749
  154SAPE   H9X17185   3.270   4.904   9.537 -0.9005  0.0299 -0.7179
  154SAPE   H9Y17186   3.303   5.075   9.556  0.6749 -1.0534 -1.8431
  154SAPE  C31017187   3.120   5.015   9.450  0.9026  0.1513  0.7475
  154SAPE  H10X17188   3.062   5.108   9.469  0.4306  0.5485 -2.1218
  154SAPE  H10Y17189   3.056   4.925   9.452  3.5470 -1.9589 -1.2769
  154SAPE  C31117190   3.166   5.028   9.305  0.0960 -0.2807 -0.5070
  154SAPE  H11X17191   3.069   5.009   9.255 -0.0970 -2.3206  0.5389
  154SAPE  H11Y17192   3.237   4.951   9.267 -1.1833 -1.8636  0.2370
  154SAPE  C31217193   3.216   5.173   9.271 -0.3611 -0.3539  0.3287
  154SAPE  H12X17194   3.316   5.172   9.319 -0.5490  0.2689  0.7420
  154SAPE  H12Y17195   3.159   5.259   9.313  2.7932  1.7089  0.7486
  154SAPE  C31317196   3.231   5.202   9.120 -0.0607 -0.0232  0.7289
  154SAPE  H13X17197   3.134   5.199   9.067  2.4059 -1.8456 -4.2709
  154SAPE  H13Y17198   3.309   5.137   9.074  0.8603 -0.0921  2.2948
  154SAPE  C31417199   3.286   5.343   9.109  0.0239  0.3064 -0.1295
  154SAPE  H14X17200   3.383   5.344   9.162 -2.2557 -3.8751  5.0168
  154SAPE  H14Y17201   3.224   5.412   9.170  0.2532  0.4998 -0.1187
  154SAPE  C31517202   3.287   5.396   8.964 -0.4669 -0.5405  0.2830
  154SAPE  H15X17203   3.281   5.505   8.982 -1.2735 -0.7636  1.4909
  154SAPE  H15Y17204   3.196   5.371   8.904 -0.0394  2.0966 -1.6315
  154SAPE  C31617205   3.421   5.359   8.888  0.0375  0.3175  0.0962
  154SAPE  H16X17206   3.419   5.415   8.793 -1.3223  1.7357  0.9226
  154SAPE  H16Y17207   3.429   5.249   8.870 -1.3980 -0.0434  1.4011
  154SAPE  C31717208   3.550   5.415   8.954 -0.0310 -0.5251 -0.2527
  154SAPE  H17X17209   3.566   5.368   9.053 -0.6979 -0.7954 -0.2664
  154SAPE  H17Y17210   3.526   5.523   8.966 -1.3963 -0.4211 -3.0571
  154SAPE  C31817211   3.680   5.406   8.873 -0.1831  0.2479 -0.3732
  154SAPE  H18X17212   3.670   5.440   8.768  2.4701  0.3663 -0.6495
  154SAPE  H18Y17213   3.704   5.299   8.860 -2.7472 -0.1996 -2.2548
  154SAPE  H18Z17214   3.774   5.449   8.915  0.6931 -0.9082 -1.1203
  155SAPE     N17215   4.290   0.648  10.984 -0.2568  0.3329  0.1082
  155SAPE   HN117216   4.236   0.701  10.913  0.5137  2.9532  1.3495
  155SAPE   HN217217   4.342   0.716  11.043  4.2700 -1.5269 -1.3431
  155SAPE   HN317218   4.358   0.589  10.933 -1.5899 -1.6677  0.5019
  155SAPE   C1217219   4.209   0.554  11.072  0.0996 -0.6318 -0.1657
  155SAPE  H12A17220   4.257   0.549  11.173 -2.6207 -2.7877  1.1666
  155SAPE  H12B17221   4.224   0.455  11.023 -0.3664 -0.1668 -1.2593
  155SAPE   C1117222   4.062   0.611  11.085 -0.3005  0.1218  0.2898
  155SAPE  H11A17223   4.074   0.697  11.154  0.6215 -0.3134  0.6957
  155SAPE  H11B17224   3.997   0.532  11.130 -2.0366  0.8455 -0.8775
  155SAPE     P17225   3.961   0.548  10.847 -0.2852 -0.1343 -0.0019
  155SAPE   O1317226   4.068   0.547  10.745 -0.5590  0.5857 -0.1718
  155SAPE   O1417227   3.925   0.418  10.907 -0.2925  0.1904 -0.0934
  155SAPE   O1217228   4.003   0.647  10.958  0.3955 -0.0173 -0.2423
  155SAPE   O1117229   3.831   0.615  10.788  0.4017 -0.6037 -0.0360
  155SAPE    C117230   3.819   0.749  10.749 -0.4686  0.4233 -0.4754
  155SAPE    HA17231   3.742   0.802  10.809 -0.8329 -1.4076  0.7392
  155SAPE    HB17232   3.914   0.806  10.759  0.3751 -1.0537  0.2113
  155SAPE    C217233   3.787   0.764  10.602  0.8981 -0.4964  0.6780
  155SAPE    HS17234   3.701   0.695  10.585  2.0361 -1.4614 -1.5568
  155SAPE   O2117235   3.900   0.727  10.529 -0.2071 -0.2769  0.4492
  155SAPE   C2117236   3.900   0.610  10.469  0.0175  0.4961 -0.2194
  155SAPE   O2217237   3.811   0.524  10.478  0.0837  0.3820 -0.0693
  155SAPE   C2217238   4.024   0.593  10.396 -0.1033  0.7898 -0.4666
  155SAPE   H2R17239   4.083   0.686  10.409  0.3319  0.9023 -2.8129
  155SAPE   H2S17240   4.081   0.508  10.439 -1.5720 -1.4719 -2.7025
  155SAPE    C317241   3.745   0.905  10.560 -0.9505 -0.1950 -0.2288
  155SAPE    HX17242   3.821   0.985  10.575 -1.1024  0.1782 -1.3543
  155SAPE    HY17243   3.661   0.926  10.629 -2.4293 -2.5069 -1.2292
  155SAPE   O3117244   3.702   0.913  10.425  0.2189  0.3446  0.3979
  155SAPE   C3117245   3.582   0.861  10.400  0.5217  0.4867  0.5247
  155SAPE   O3217246   3.506   0.813  10.482  0.6898 -0.6417 -0.0871
  155SAPE   C3217247   3.550   0.889  10.253  0.1949 -0.2802  0.6718
  155SAPE   H2X17248   3.639   0.936  10.206 -0.6034 -1.1336 -1.8758
  155SAPE   H2Y17249   3.456   0.949  10.255 -2.1411 -3.6203  0.1558
  155SAPE   C2317250   4.008   0.565  10.249  0.1690  0.2030  0.5066
  155SAPE   H3R17251   3.949   0.644  10.199 -0.7971 -1.4487 -1.0593
  155SAPE   H3S17252   3.960   0.466  10.236 -0.0610  0.2837  0.7417
  155SAPE   C2417253   4.150   0.547  10.194  0.6794  0.3365 -0.0228
  155SAPE   H4R17254   4.208   0.468  10.247  1.1390 -0.1426 -1.2043
  155SAPE   H4S17255   4.206   0.643  10.201  0.8066  0.2400  0.3297
  155SAPE   C2517256   4.120   0.515  10.052 -0.2833 -0.0473  0.2564
  155SAPE   H5R17257   4.031   0.451  10.039  0.5334 -1.0139 -0.7920
  155SAPE   C2617258   4.203   0.536   9.946 -0.5928 -0.4731  0.5450
  155SAPE   H6R17259   4.169   0.499   9.848 -2.2098  0.2547  0.7928
  155SAPE   C2717260   4.335   0.602   9.948  0.2757 -0.3084 -0.5771
  155SAPE   H7R17261   4.361   0.645  10.047  0.4931  1.0859 -1.2187
  155SAPE   H7S17262   4.341   0.693   9.885  1.0605  1.3600  1.7920
  155SAPE   C2817263   4.442   0.503   9.915  0.4364 -0.3891  0.1743
  155SAPE   H8R17264   4.445   0.420   9.987 -1.0877 -0.9550 -0.3605
  155SAPE   C2917265   4.513   0.499   9.801  0.8981 -0.3490 -0.6481
  155SAPE   H9R17266   4.571   0.407   9.785 -0.2358 -0.9798 -1.2520
  155SAPE  C21017267   4.514   0.595   9.689  0.7401 -0.1586  0.3018
  155SAPE  H10R17268   4.617   0.613   9.651 -0.0177  0.7913 -1.4255
  155SAPE  H10S17269   4.501   0.699   9.726  0.6940 -0.2148  0.4434
  155SAPE  C21117270   4.404   0.596   9.581 -0.1677 -0.4259 -0.1089
  155SAPE  H11R17271   4.312   0.636   9.626  1.3536  2.8501  0.3820
  155SAPE  C21217272   4.400   0.540   9.459  0.3375  0.3729 -0.5014
  155SAPE  H12R17273   4.307   0.570   9.408 -1.0133  3.1072  3.1410
  155SAPE  C21317274   4.511   0.455   9.405  0.4411 -0.3745 -0.2182
  155SAPE  H13R17275   4.535   0.370   9.473  0.6850  0.1194  0.3184
  155SAPE  H13S17276   4.594   0.527   9.392 -0.3561  0.5265 -0.4087
  155SAPE  C21417277   4.461   0.392   9.274 -0.4393 -0.5932  0.1244
  155SAPE  H14R17278   4.368   0.334   9.280 -0.5277 -0.3910  0.7866
  155SAPE  C21517279   4.532   0.385   9.157 -0.1378  0.2150  0.1687
  155SAPE  H15R17280   4.492   0.339   9.065 -1.5130  2.3234 -0.3798
  155SAPE  C21617281   4.669   0.439   9.126 -0.3709  0.0067  0.0158
  155SAPE  H16R17282   4.739   0.353   9.130  1.1889  1.2457 -0.1004
  155SAPE  H16S17283   4.708   0.513   9.199 -0.8959 -0.0841  0.3971
  155SAPE  C21717284   4.689   0.497   8.992  1.0360  0.4111  1.0793
  155SAPE  H17R17285   4.617   0.581   8.983 -1.0930 -1.1973  2.0541
  155SAPE  H17S17286   4.673   0.428   8.906 -1.3121  1.5684  0.5042
  155SAPE  C21817287   4.831   0.551   8.974 -0.3987 -0.2321  0.5869
  155SAPE  H18R17288   4.886   0.454   8.977 -1.9919 -1.3876 -2.5832
  155SAPE  H18S17289   4.883   0.621   9.042  1.2877 -1.6283  0.8216
  155SAPE  C21917290   4.861   0.608   8.831 -0.2363 -0.5546 -0.2430
  155SAPE  H19R17291   4.841   0.520   8.766 -0.0372 -0.8104  0.0420
  155SAPE  H19S17292   4.965   0.646   8.819 -0.7812  1.4247  0.9020
  155SAPE  C22017293   4.766   0.722   8.789  0.0733  0.7655  0.6078
  155SAPE  H20R17294   4.660   0.689   8.778  0.2334 -0.2667  2.0157
  155SAPE  H20S17295   4.786   0.754   8.684 -0.4027  0.1408  0.3180
  155SAPE  H20T17296   4.779   0.804   8.863 -1.7059  0.6342  1.1166
  155SAPE   C3317297   3.540   0.763  10.160  0.1993  0.1774  0.3507
  155SAPE   H3X17298   3.489   0.799  10.068 -1.3192  0.3196  1.2134
  155SAPE   H3Y17299   3.483   0.682  10.211 -1.3274  1.2621  0.4428
  155SAPE   C3417300   3.681   0.705  10.129  0.2399  0.5107  0.1964
  155SAPE   H4X17301   3.723   0.647  10.214 -0.5636  0.8841  0.8552
  155SAPE   H4Y17302   3.756   0.782  10.100  0.6883 -0.1250 -0.3542
  155SAPE   C3517303   3.677   0.604  10.012  1.0887 -0.1803  0.1711
  155SAPE   H5X17304   3.592   0.541  10.045  2.3143 -1.0378  1.7864
  155SAPE   H5Y17305   3.767   0.539  10.004 -0.9939 -3.4532  1.3492
  155SAPE   C3617306   3.635   0.663   9.883  0.5970  0.1303 -0.0470
  155SAPE   H6X17307   3.715   0.733   9.850  2.2446 -1.4627  0.4288
  155SAPE   H6Y17308   3.544   0.726   9.879  0.9166  0.5207 -1.7582
  155SAPE   C3717309   3.620   0.563   9.771 -0.2263  0.1070  0.5853
  155SAPE   H7X17310   3.554   0.476   9.790 -0.5259 -0.0264 -0.9774
  155SAPE   H7Y17311   3.716   0.513   9.749 -0.7954  0.0051 -1.9231
  155SAPE   C3817312   3.571   0.630   9.640 -0.3729  0.0859 -0.0911
  155SAPE   H8X17313   3.664   0.687   9.613  1.6548 -2.3724  1.2675
  155SAPE   H8Y17314   3.493   0.707   9.654 -0.2241  0.0657  0.9365
  155SAPE   C3917315   3.556   0.516   9.545 -0.0727  0.1050  0.0267
  155SAPE   H9X17316   3.474   0.447   9.575 -0.5286  0.0000 -1.3530
  155SAPE   H9Y17317   3.650   0.456   9.548 -1.1844 -1.6581  1.1448
  155SAPE  C31017318   3.528   0.561   9.401  0.9519  0.2314 -0.1397
  155SAPE  H10X17319   3.427   0.606   9.387  0.0031 -2.2245 -1.7266
  155SAPE  H10Y17320   3.519   0.469   9.340 -2.1353  0.5115 -0.2733
  155SAPE  C31117321   3.636   0.642   9.330 -0.9748 -0.4004  0.4288
  155SAPE  H11X17322   3.739   0.600   9.337 -0.3631  0.7519 -1.0122
  155SAPE  H11Y17323   3.634   0.746   9.367  0.6687 -0.2256  0.1253
  155SAPE  C31217324   3.595   0.658   9.182  0.2374 -0.2593  0.3942
  155SAPE  H12X17325   3.621   0.757   9.137 -1.2294 -1.0412 -2.3898
  155SAPE  H12Y17326   3.485   0.668   9.188  0.1383 -1.2116  0.3257
  155SAPE  C31317327   3.618   0.535   9.096 -0.4200  0.0860 -0.2152
  155SAPE  H13X17328   3.539   0.462   9.124 -0.2530 -0.0918 -0.2007
  155SAPE  H13Y17329   3.715   0.488   9.123 -0.0649  0.5636 -0.6325
  155SAPE  C31417330   3.624   0.565   8.945  0.0444 -0.6635  0.7121
  155SAPE  H14X17331   3.704   0.641   8.929 -0.4701 -0.5468 -1.5513
  155SAPE  H14Y17332   3.525   0.612   8.921 -0.1362 -1.5311 -0.2584
  155SAPE  C31517333   3.669   0.453   8.853  0.3501  0.1289  0.5184
  155SAPE  H15X17334   3.780   0.452   8.847  0.3457  2.0390 -1.8519
  155SAPE  H15Y17335   3.635   0.474   8.749  1.5236  0.6585  0.2245
  155SAPE  C31617336   3.621   0.309   8.890  0.6400 -0.0534 -0.5844
  155SAPE  H16X17337   3.510   0.317   8.885  0.3042 -0.4471  3.2298
  155SAPE  H16Y17338   3.649   0.282   8.994  1.7377 -1.4335 -1.2158
  155SAPE  C31717339   3.682   0.210   8.790 -0.1650  0.7595 -0.1408
  155SAPE  H17X17340   3.666   0.248   8.686 -0.6702 -0.1077 -0.3862
  155SAPE  H17Y17341   3.629   0.113   8.783  0.1509  0.6841 -2.9205
  155SAPE  C31817342   3.827   0.182   8.819 -0.1747  0.2126 -0.1354
  155SAPE  H18X17343   3.890   0.269   8.789 -1.5191  1.0949 -0.4614
  155SAPE  H18Y17344   3.865   0.104   8.749  0.8850 -1.7733  2.4576
  155SAPE  H18Z17345   3.841   0.141   8.922 -1.7408  0.8698  0.3704
  156SAPE     N17346   0.716   3.707  10.898 -0.3746  0.8263  0.5363
  156SAPE   HN117347   0.642   3.638  10.924  1.5454 -0.7376  2.3094
  156SAPE   HN217348   0.798   3.706  10.963  1.5906 -0.6726 -1.7839
  156SAPE   HN317349   0.678   3.803  10.898 -0.8791  0.6302  0.7668
  156SAPE   C1217350   0.776   3.694  10.758 -0.6414  0.0541  0.2101
  156SAPE  H12A17351   0.851   3.775  10.745 -0.7207  0.0218 -0.4503
  156SAPE  H12B17352   0.683   3.701  10.699 -1.5487 -0.8346  1.4711
  156SAPE   C1117353   0.835   3.548  10.719  0.3201  0.0936 -0.5382
  156SAPE  H11A17354   0.922   3.523  10.784  0.5847  0.7336 -0.6387
  156SAPE  H11B17355   0.866   3.566  10.613  2.3129  1.8181  0.2577
  156SAPE     P17356   0.620   3.409  10.631  0.1287 -0.0295  0.0057
  156SAPE   O1317357   0.620   3.263  10.592 -0.4003 -0.1869 -0.2535
  156SAPE   O1417358   0.495   3.453  10.696  0.4019 -0.3407  0.1559
  156SAPE   O1217359   0.743   3.444  10.731  0.2468  0.3149  0.6799
  156SAPE   O1117360   0.642   3.501  10.505 -0.6783  0.0631  0.2651
  156SAPE    C117361   0.551   3.593  10.457  0.0771 -0.3616 -0.7272
  156SAPE    HA17362   0.508   3.654  10.539  3.1926  0.0409  0.7550
  156SAPE    HB17363   0.613   3.650  10.383  1.5077 -0.4013  0.3909
  156SAPE    C217364   0.425   3.534  10.392  0.4596 -0.1697 -0.0475
  156SAPE    HS17365   0.353   3.496  10.468  0.3519  3.0717  1.6856
  156SAPE   O2117366   0.466   3.441  10.295  0.7279 -0.1200  1.0073
  156SAPE   C2117367   0.416   3.315  10.303 -0.7568 -0.3132 -0.1675
  156SAPE   O2217368   0.348   3.271  10.394  0.1535 -0.0280  0.4442
  156SAPE   C2217369   0.454   3.222  10.184 -0.0700 -0.7025  0.0630
  156SAPE   H2R17370   0.384   3.255  10.104  1.8009  0.7969 -1.0331
  156SAPE   H2S17371   0.553   3.256  10.147 -0.5445  2.3696  1.3535
  156SAPE    C317372   0.337   3.651  10.324  0.4108 -0.2058 -0.1188
  156SAPE    HX17373   0.408   3.704  10.256 -0.1938 -1.3808 -1.7184
  156SAPE    HY17374   0.309   3.715  10.411 -3.3610 -0.3568 -1.0358
  156SAPE   O3117375   0.226   3.592  10.252 -0.0281 -0.4610  0.1125
  156SAPE   C3117376   0.112   3.595  10.312 -0.1869  0.2935 -0.2462
  156SAPE   O3217377   0.093   3.648  10.422  0.4995 -0.2023  0.3001
  156SAPE   C3217378  -0.000   3.531  10.240 -0.6379 -0.0471 -0.5208
  156SAPE   H2X17379  -0.028   3.594  10.153  0.1740  0.3044 -0.5310
  156SAPE   H2Y17380  -0.085   3.531  10.312 -0.5469  1.5307 -0.3902
  156SAPE   C2317381   0.444   3.070  10.213  0.2775 -0.0217  0.2002
  156SAPE   H3R17382   0.335   3.047  10.223  0.0509 -0.2518 -2.0627
  156SAPE   H3S17383   0.493   3.058  10.311  2.3278 -0.8564 -0.8689
  156SAPE   C2417384   0.519   2.988  10.106  0.1930  0.0583  0.2068
  156SAPE   H4R17385   0.628   3.005  10.113 -0.0384  1.7904  0.0435
  156SAPE   H4S17386   0.482   3.029  10.009 -2.1175 -0.4441  0.7989
  156SAPE   C2517387   0.484   2.843  10.113 -0.0036  0.1788  0.5668
  156SAPE   H5R17388   0.453   2.801  10.210 -0.7855  1.0454  0.7093
  156SAPE   C2617389   0.479   2.759  10.006 -0.5827  0.4115 -0.7220
  156SAPE   H6R17390   0.447   2.657  10.029 -1.6428  0.8784 -0.0408
  156SAPE   C2717391   0.506   2.781   9.863 -0.2837 -0.0276  0.1035
  156SAPE   H7R17392   0.599   2.726   9.836 -0.9817 -0.9727 -0.4178
  156SAPE   H7S17393   0.524   2.889   9.845  1.8879 -0.3316  0.1201
  156SAPE   C2817394   0.393   2.735   9.771  0.3594 -0.3622 -0.2159
  156SAPE   H8R17395   0.330   2.654   9.809 -1.1764  0.7500 -0.2580
  156SAPE   C2917396   0.368   2.781   9.642 -0.2013 -0.1129  0.1194
  156SAPE   H9R17397   0.272   2.752   9.596 -0.2641  0.0234  0.1660
  156SAPE  C21017398   0.458   2.886   9.579 -0.2645  0.2776  0.0827
  156SAPE  H10R17399   0.529   2.927   9.654  0.1700 -1.5436  0.7167
  156SAPE  H10S17400   0.390   2.966   9.542 -1.0670 -0.4705 -0.0839
  156SAPE  C21117401   0.557   2.846   9.474 -0.5638 -0.4475  0.1255
  156SAPE  H11R17402   0.617   2.759   9.504  1.7633  1.1042  0.2343
  156SAPE  C21217403   0.585   2.908   9.354 -0.1086  0.0718  0.7140
  156SAPE  H12R17404   0.634   2.857   9.269  0.4983  1.8696 -0.0693
  156SAPE  C21317405   0.519   3.026   9.293 -0.7362 -0.6922 -0.0913
  156SAPE  H13R17406   0.465   3.075   9.377  1.8673  0.2463  1.1284
  156SAPE  H13S17407   0.451   2.996   9.210  0.5023 -0.0356 -1.4077
  156SAPE  C21417408   0.620   3.125   9.250  0.0237 -0.2014 -0.7026
  156SAPE  H14R17409   0.696   3.143   9.328 -0.4609  3.4792 -0.9290
  156SAPE  C21517410   0.627   3.198   9.138 -0.6255  0.2320  0.3843
  156SAPE  H15R17411   0.712   3.266   9.120 -0.7311  0.2446 -0.0814
  156SAPE  C21617412   0.525   3.197   9.032  0.2108 -0.2069  0.4515
  156SAPE  H16R17413   0.513   3.305   9.008  0.6382 -0.3815 -0.6063
  156SAPE  H16S17414   0.428   3.156   9.067  0.1551  0.0699  0.6286
  156SAPE  C21717415   0.556   3.133   8.899  0.0718  0.4927  0.0588
  156SAPE  H17R17416   0.647   3.180   8.857 -0.4892 -0.4177 -2.3582
  156SAPE  H17S17417   0.475   3.162   8.828 -1.1071 -1.2927  0.5882
  156SAPE  C21817418   0.562   2.970   8.913  0.2877 -0.6065  0.1127
  156SAPE  H18R17419   0.470   2.927   8.958  0.5340 -1.5617 -0.2830
  156SAPE  H18S17420   0.641   2.948   8.989  1.5916 -0.1229 -1.0577
  156SAPE  C21917421   0.597   2.904   8.782 -0.3997  0.1839  0.4357
  156SAPE  H19R17422   0.683   2.949   8.727 -0.8047 -0.3370 -0.6500
  156SAPE  H19S17423   0.509   2.905   8.714 -0.3581 -1.7846  0.3115
  156SAPE  C22017424   0.629   2.750   8.798  0.2221 -0.0270 -0.5753
  156SAPE  H20R17425   0.667   2.714   8.701 -0.6824 -1.7817 -0.3221
  156SAPE  H20S17426   0.537   2.693   8.825 -0.5607  2.0564  1.5559
  156SAPE  H20T17427   0.709   2.736   8.874  0.1551  0.5471 -0.3917
  156SAPE   C3317428   0.031   3.383  10.196  0.4302 -0.3153 -0.2038
  156SAPE   H3X17429  -0.056   3.314  10.204  0.6645 -0.9229 -2.3110
  156SAPE   H3Y17430   0.110   3.341  10.262 -0.6803 -0.1203  1.3307
  156SAPE   C3417431   0.082   3.386  10.049 -0.4723  0.5134 -0.5766
  156SAPE   H4X17432   0.186   3.423  10.049 -0.0011 -0.3783 -4.3498
  156SAPE   H4Y17433   0.029   3.467   9.993 -0.6140 -0.4677 -1.9002
  156SAPE   C3517434   0.075   3.256   9.963  0.7344 -0.8172  0.5149
  156SAPE   H5X17435  -0.031   3.229   9.943  0.1856  2.1103 -1.0685
  156SAPE   H5Y17436   0.143   3.175   9.997  1.2099 -1.4524 -1.7896
  156SAPE   C3617437   0.126   3.269   9.812 -0.3609  0.3701 -0.2016
  156SAPE   H6X17438   0.235   3.284   9.831 -0.4383  1.6821 -0.6976
  156SAPE   H6Y17439   0.085   3.364   9.771 -0.9640  2.1933  4.0745
  156SAPE   C3717440   0.095   3.141   9.729  0.3343 -0.1728  0.4779
  156SAPE   H7X17441  -0.016   3.134   9.729 -0.2187  3.8878 -3.0157
  156SAPE   H7Y17442   0.121   3.050   9.786 -0.8274 -1.5082 -1.0480
  156SAPE   C3817443   0.156   3.126   9.590  0.3598 -0.4380  0.2344
  156SAPE   H8X17444   0.149   3.019   9.561  1.0945  0.2890 -3.1098
  156SAPE   H8Y17445   0.264   3.152   9.593  0.0903  0.9080 -0.5277
  156SAPE   C3917446   0.083   3.206   9.485 -0.0897  0.2369  0.7076
  156SAPE   H9X17447   0.087   3.316   9.499  1.1090  0.4527 -0.9664
  156SAPE   H9Y17448  -0.023   3.171   9.488  0.5513 -1.8168  1.3158
  156SAPE  C31017449   0.137   3.180   9.349 -0.5308  0.1392 -0.1436
  156SAPE  H10X17450   0.121   3.072   9.326 -0.4626  0.5653 -2.4710
  156SAPE  H10Y17451   0.244   3.208   9.346 -0.4371 -0.2793 -0.9046
  156SAPE  C31117452   0.078   3.255   9.231  0.2542 -0.1267 -0.8181
  156SAPE  H11X17453   0.046   3.355   9.269  1.4247  0.4913 -1.3855
  156SAPE  H11Y17454  -0.007   3.205   9.181  0.7206 -2.0781  0.2262
  156SAPE  C31217455   0.183   3.293   9.131  0.5676 -0.6460 -0.4159
  156SAPE  H12X17456   0.214   3.206   9.070  0.5746 -0.9068 -0.0480
  156SAPE  H12Y17457   0.272   3.324   9.189  0.0425 -2.4818  1.5245
  156SAPE  C31317458   0.141   3.407   9.037 -0.6522 -0.0430  0.6415
  156SAPE  H13X17459   0.097   3.487   9.100  2.4829  1.5507  0.9984
  156SAPE  H13Y17460   0.063   3.375   8.965  1.8476 -0.7727 -1.9144
  156SAPE  C31417461   0.260   3.464   8.961 -0.3001 -0.2852  0.0486
  156SAPE  H14X17462   0.283   3.403   8.871  1.3544  1.4108 -0.7443
  156SAPE  H14Y17463   0.351   3.450   9.022  0.5773 -3.1939 -1.7003
  156SAPE  C31517464   0.254   3.612   8.934  0.4881 -0.2491  0.1045
  156SAPE  H15X17465   0.231   3.680   9.018 -0.6102  0.4606 -0.7363
  156SAPE  H15Y17466   0.178   3.629   8.854  0.1968  0.9078  0.6060
  156SAPE  C31617467   0.384   3.664   8.860 -0.2582  0.1054 -0.4226
  156SAPE  H16X17468   0.411   3.581   8.792  0.1439 -0.5020  0.4592
  156SAPE  H16Y17469   0.465   3.678   8.935  0.5965 -0.2887 -1.2537
  156SAPE  C31717470   0.361   3.791   8.779  0.7420 -0.5004  0.3810
  156SAPE  H17X17471   0.277   3.772   8.708  1.3409 -0.7502 -0.2795
  156SAPE  H17Y17472   0.460   3.801   8.729 -0.2196  2.0178 -1.1869
  156SAPE  C31817473   0.327   3.915   8.855  0.0475 -0.1169  0.0851
  156SAPE  H18X17474   0.235   3.904   8.918 -0.4953 -2.4621 -1.0095
  156SAPE  H18Y17475   0.295   3.996   8.785  1.7768 -0.7518 -1.5027
  156SAPE  H18Z17476   0.408   3.953   8.921  1.2179 -0.5504 -1.0662
  157SAPE     N17477   1.316   5.722  10.507 -0.4522  0.1261 -0.1073
  157SAPE   HN117478   1.397   5.786  10.520 -0.2938 -0.3010  1.0646
  157SAPE   HN217479   1.319   5.689  10.408  0.7988  1.8979 -0.7109
  157SAPE   HN317480   1.224   5.771  10.516 -1.7080 -1.4573 -2.8004
  157SAPE   C1217481   1.312   5.599  10.597  0.2758  0.0149  0.0236
  157SAPE  H12A17482   1.418   5.572  10.617  0.2772  0.8652  1.3013
  157SAPE  H12B17483   1.249   5.519  10.554 -0.7787  0.9223 -0.1660
  157SAPE   C1117484   1.257   5.644  10.736  0.0259  1.2647  1.0431
  157SAPE  H11A17485   1.150   5.670  10.718  0.6426  1.8446 -2.8454
  157SAPE  H11B17486   1.323   5.726  10.772  3.4092 -1.0962  0.5990
  157SAPE     P17487   1.236   5.385  10.812  0.2232 -0.2872  0.0265
  157SAPE   O1317488   1.358   5.308  10.766  0.5604 -0.4646  0.2061
  157SAPE   O1417489   1.176   5.334  10.933 -0.2111 -0.5174 -0.5474
  157SAPE   O1217490   1.266   5.538  10.832 -0.5798 -0.1863  0.0115
  157SAPE   O1117491   1.125   5.387  10.696 -0.0721  0.3731 -0.1130
  157SAPE    C117492   1.031   5.282  10.673  0.4687 -0.0807  0.0177
  157SAPE    HA17493   1.077   5.184  10.694  0.1522  0.1608  2.0184
  157SAPE    HB17494   0.947   5.287  10.746 -0.8301  0.9481 -1.4663
  157SAPE    C217495   0.963   5.279  10.537 -0.3646 -0.5897  0.3428
  157SAPE    HS17496   0.874   5.212  10.541  1.2215 -2.7646  2.1978
  157SAPE   O2117497   1.057   5.249  10.430  0.1591  0.4718  0.2564
  157SAPE   C2117498   1.089   5.124  10.408  0.5273 -1.0012 -0.0821
  157SAPE   O2217499   1.057   5.029  10.477 -0.5267  0.7035 -0.0133
  157SAPE   C2217500   1.179   5.122  10.278  0.0190  0.2510 -0.0005
  157SAPE   H2R17501   1.257   5.201  10.280 -1.0271  1.4072 -1.7967
  157SAPE   H2S17502   1.224   5.021  10.283  2.3119  1.1518 -1.1770
  157SAPE    C317503   0.896   5.418  10.512 -0.2067 -1.0029  0.1263
  157SAPE    HX17504   0.974   5.496  10.498 -1.7156  0.2913 -1.5270
  157SAPE    HY17505   0.823   5.451  10.589  0.7975  1.5827  0.0706
  157SAPE   O3117506   0.808   5.404  10.398 -0.1941  0.4021 -0.1436
  157SAPE   C3117507   0.863   5.446  10.284 -0.2304  0.3440 -0.3408
  157SAPE   O3217508   0.981   5.488  10.270  0.5189  0.5658 -0.5717
  157SAPE   C3217509   0.762   5.414  10.177  0.3608  0.3455  0.3127
  157SAPE   H2X17510   0.702   5.506  10.163  1.2756  0.7379 -1.3891
  157SAPE   H2Y17511   0.699   5.332  10.216  0.4098  0.1565  0.0028
  157SAPE   C2317512   1.097   5.137  10.150 -0.0810  0.7248  0.0032
  157SAPE   H3R17513   1.055   5.240  10.154 -0.6130  0.4891  0.6826
  157SAPE   H3S17514   1.007   5.072  10.145 -0.2982  0.9443  0.7756
  157SAPE   C2417515   1.174   5.103  10.021 -0.4783 -0.3289 -1.0094
  157SAPE   H4R17516   1.233   5.009  10.016  0.1106  0.0294 -1.0423
  157SAPE   H4S17517   1.252   5.182  10.008 -1.4226  0.2764 -3.5814
  157SAPE   C2517518   1.081   5.108   9.900  0.0479 -0.1205  0.4128
  157SAPE   H5R17519   1.011   5.026   9.878 -0.6960  1.0741 -1.9879
  157SAPE   C2617520   1.078   5.208   9.810 -0.2397 -0.3842 -0.5124
  157SAPE   H6R17521   0.994   5.217   9.740  0.9786  2.5119 -1.7877
  157SAPE   C2717522   1.163   5.332   9.806 -0.0145  0.6816  0.1426
  157SAPE   H7R17523   1.263   5.307   9.849 -0.7114 -0.9773  0.8818
  157SAPE   H7S17524   1.126   5.411   9.875 -1.1373 -0.2581  0.6358
  157SAPE   C2817525   1.184   5.398   9.670 -0.1528  0.8526 -0.0244
  157SAPE   H8R17526   1.215   5.331   9.588 -0.3473  1.5084 -0.6461
  157SAPE   C2917527   1.205   5.528   9.640  0.0892  0.7438 -0.6146
  157SAPE   H9R17528   1.225   5.546   9.533 -2.7887  0.1259 -1.3458
  157SAPE  C21017529   1.205   5.638   9.740  0.0233 -0.3652  0.1980
  157SAPE  H10R17530   1.167   5.600   9.837  1.6592  0.6325  1.2888
  157SAPE  H10S17531   1.132   5.717   9.715 -0.4887 -0.7155  0.5724
  157SAPE  C21117532   1.345   5.684   9.773 -0.2419 -0.1577  0.9907
  157SAPE  H11R17533   1.388   5.637   9.863 -0.6773  0.2142  1.3973
  157SAPE  C21217534   1.411   5.789   9.718  1.0547 -0.8363 -0.5805
  157SAPE  H12R17535   1.506   5.823   9.761 -0.2153  1.0758  0.8710
  157SAPE  C21317536   1.352   5.879   9.611  0.5146 -0.4703 -0.1808
  157SAPE  H13R17537   1.352   5.985   9.645  3.2498 -0.6745  0.7512
  157SAPE  H13S17538   1.249   5.838   9.600 -0.0656  0.8721  0.0584
  157SAPE  C21417539   1.421   5.873   9.473 -0.3698  0.2554 -0.8033
  157SAPE  H14R17540   1.530   5.868   9.475 -0.3920 -0.0227  0.2228
  157SAPE  C21517541   1.359   5.888   9.356  0.2917 -1.0249 -0.1883
  157SAPE  H15R17542   1.409   5.912   9.261 -2.3740  1.3821 -1.1403
  157SAPE  C21617543   1.211   5.917   9.343  0.1573  0.3584  0.9535
  157SAPE  H16R17544   1.195   5.967   9.245 -0.4071  0.8536  1.2954
  157SAPE  H16S17545   1.165   5.995   9.407  0.5701 -0.4567  2.2753
  157SAPE  C21717546   1.137   5.785   9.331  0.2802 -0.7776  0.4637
  157SAPE  H17R17547   1.135   5.747   9.436 -2.8662  1.1130  1.2245
  157SAPE  H17S17548   1.197   5.719   9.265 -0.0654  0.5962 -1.2885
  157SAPE  C21817549   0.992   5.804   9.281  0.4235 -0.0957  0.1688
  157SAPE  H18R17550   0.984   5.844   9.178 -1.0979  0.3318  0.4412
  157SAPE  H18S17551   0.931   5.871   9.345  1.1603  0.8569 -0.0970
  157SAPE  C21917552   0.916   5.669   9.271 -0.2898  0.0954 -0.1641
  157SAPE  H19R17553   0.947   5.608   9.359 -0.8534  0.1243  0.0537
  157SAPE  H19S17554   0.953   5.616   9.180  2.0527 -1.2613  1.4832
  157SAPE  C22017555   0.765   5.672   9.270  0.4333  1.0252 -0.0064
  157SAPE  H20R17556   0.725   5.568   9.267  1.9954  0.3720  0.8410
  157SAPE  H20S17557   0.726   5.733   9.186  1.2897  2.6794  0.7451
  157SAPE  H20T17558   0.732   5.730   9.359  1.3377 -1.2399  1.9379
  157SAPE   C3317559   0.812   5.365  10.042 -0.4336  0.2157 -0.0403
  157SAPE   H3X17560   0.872   5.272  10.050 -0.0749  0.3648 -0.8859
  157SAPE   H3Y17561   0.868   5.444   9.988 -1.1780 -1.1215 -2.9807
  157SAPE   C3417562   0.696   5.347   9.944  0.2549  0.1267 -0.4014
  157SAPE   H4X17563   0.655   5.448   9.921 -1.2764  0.2543  2.3851
  157SAPE   H4Y17564   0.612   5.288   9.986  0.4801 -0.9231 -1.3946
  157SAPE   C3517565   0.741   5.284   9.817 -0.8418  0.1599 -0.1709
  157SAPE   H5X17566   0.781   5.181   9.820 -1.6028 -0.1884 -1.2751
  157SAPE   H5Y17567   0.815   5.342   9.757 -2.6449  2.4503 -0.3147
  157SAPE   C3617568   0.632   5.283   9.711 -0.0325  0.8488 -0.1641
  157SAPE   H6X17569   0.597   5.388   9.697  0.5527  1.2686  1.3795
  157SAPE   H6Y17570   0.541   5.231   9.747  1.7380 -1.6198  0.9472
  157SAPE   C3717571   0.671   5.241   9.569 -0.1219  0.6155  0.2704
  157SAPE   H7X17572   0.728   5.146   9.580 -0.1944  0.7653  2.2550
  157SAPE   H7Y17573   0.729   5.318   9.513 -0.1533  0.8499  0.5605
  157SAPE   C3817574   0.551   5.213   9.474 -0.5326  0.7101 -0.4369
  157SAPE   H8X17575   0.482   5.299   9.491 -1.3542  0.1673 -0.9498
  157SAPE   H8Y17576   0.482   5.134   9.510 -0.1925 -0.0645 -1.4386
  157SAPE   C3917577   0.589   5.192   9.326 -0.0598 -0.5337  0.1674
  157SAPE   H9X17578   0.645   5.097   9.313 -1.7245 -1.5753  0.2835
  157SAPE   H9Y17579   0.645   5.279   9.286  0.8584 -1.1313  0.1198
  157SAPE  C31017580   0.468   5.180   9.240 -0.1202 -0.0788  0.2752
  157SAPE  H10X17581   0.421   5.280   9.247  3.3106  1.6037  1.8007
  157SAPE  H10Y17582   0.398   5.101   9.276 -0.3749  0.4836  1.0517
  157SAPE  C31117583   0.516   5.157   9.094  1.2290 -0.4348  0.3266
  157SAPE  H11X17584   0.576   5.064   9.086  3.1632  0.8815 -1.9980
  157SAPE  H11Y17585   0.594   5.231   9.065  2.2697 -0.9860  1.5974
  157SAPE  C31217586   0.398   5.167   8.988  0.0253 -0.1720 -0.1511
  157SAPE  H12X17587   0.354   5.269   8.982  0.2545 -0.0849 -0.3675
  157SAPE  H12Y17588   0.311   5.109   9.026 -0.3348  1.1169  1.0454
  157SAPE  C31317589   0.421   5.112   8.845 -0.3298  0.1855 -0.0419
  157SAPE  H13X17590   0.442   5.004   8.856 -1.0854  0.2808  3.0187
  157SAPE  H13Y17591   0.495   5.177   8.793  1.4828 -1.4988  0.3457
  157SAPE  C31417592   0.287   5.114   8.766  0.4433  0.2176 -0.4160
  157SAPE  H14X17593   0.242   5.208   8.805  3.9009  1.3339  1.2971
  157SAPE  H14Y17594   0.225   5.029   8.803  1.4105 -0.4857 -0.3813
  157SAPE  C31517595   0.301   5.114   8.615 -1.1428  0.5696  0.0362
  157SAPE  H15X17596   0.353   5.019   8.592 -3.2712 -0.7469  0.4593
  157SAPE  H15Y17597   0.378   5.192   8.593  0.7001 -0.2175  3.0420
  157SAPE  C31617598   0.170   5.119   8.540  0.3590  0.4808 -0.1606
  157SAPE  H16X17599   0.130   5.222   8.554  2.1501  1.5077 -1.9418
  157SAPE  H16Y17600   0.101   5.045   8.585 -0.3540  0.5030 -1.1805
  157SAPE  C31717601   0.191   5.097   8.393  0.0286 -0.9542  0.3848
  157SAPE  H17X17602   0.241   5.001   8.367  0.4904 -0.2317 -1.5339
  157SAPE  H17Y17603   0.240   5.181   8.339 -2.9054  0.6418 -0.0083
  157SAPE  C31817604   0.053   5.083   8.331  0.0282  0.4234  0.0978
  157SAPE  H18X17605  -0.007   5.009   8.389 -0.1089 -3.6075 -4.4999
  157SAPE  H18Y17606   0.061   5.050   8.225 -0.5085 -0.2735  0.2680
  157SAPE  H18Z17607  -0.009   5.175   8.337  0.8880  0.9373  1.3379
  158SAPE     N17608   2.400   4.580  10.536 -0.6301 -0.3255  0.2618
  158SAPE   HN117609   2.329   4.552  10.465  1.0725 -0.6598 -1.3766
  158SAPE   HN217610   2.490   4.539  10.504 -2.7260 -3.5339 -2.2613
  158SAPE   HN317611   2.372   4.530  10.624 -1.3613 -0.8232 -0.2410
  158SAPE   C1217612   2.404   4.729  10.552  0.0140 -0.2869 -0.3047
  158SAPE  H12A17613   2.403   4.773  10.450  3.7186  1.2955  0.1730
  158SAPE  H12B17614   2.503   4.752  10.597 -0.5837 -0.2919  1.0502
  158SAPE   C1117615   2.292   4.790  10.636  0.0222  0.7528 -0.0205
  158SAPE  H11A17616   2.301   4.751  10.740  1.0517 -1.6609 -0.9413
  158SAPE  H11B17617   2.189   4.764  10.604 -0.9206  0.8141  2.7069
  158SAPE     P17618   2.380   5.031  10.717  0.2097 -0.1056 -0.1649
  158SAPE   O1317619   2.300   5.146  10.761 -0.3999  0.1121 -0.1299
  158SAPE   O1417620   2.459   4.967  10.820 -0.5828  0.9932 -0.0888
  158SAPE   O1217621   2.300   4.928  10.632  0.1594 -0.2848  0.7433
  158SAPE   O1117622   2.495   5.081  10.626  0.3001  0.4040  0.6584
  158SAPE    C117623   2.473   5.074  10.482 -0.3003  0.1821 -0.4644
  158SAPE    HA17624   2.573   5.078  10.433  1.0535 -2.0518  1.8721
  158SAPE    HB17625   2.428   4.978  10.449  0.1141 -0.9762  2.0996
  158SAPE    C217626   2.405   5.198  10.435  0.4337 -0.5819 -0.5154
  158SAPE    HS17627   2.302   5.186  10.478  1.2484  1.0311  2.0988
  158SAPE   O2117628   2.412   5.188  10.293 -0.5974 -0.0381 -0.0860
  158SAPE   C2117629   2.315   5.264  10.244  0.0906  0.0796  0.0805
  158SAPE   O2217630   2.236   5.323  10.313  0.8073  0.0588 -0.7850
  158SAPE   C2217631   2.333   5.278  10.092 -0.1843  0.0392 -0.3028
  158SAPE   H2R17632   2.415   5.343  10.055 -1.7012  1.9413 -0.4591
  158SAPE   H2S17633   2.338   5.172  10.057 -1.2629  0.6347 -2.3990
  158SAPE    C317634   2.476   5.332  10.484  0.4661  0.4166 -0.3289
  158SAPE    HX17635   2.447   5.352  10.590 -1.5860  1.0284 -0.9549
  158SAPE    HY17636   2.444   5.427  10.435 -0.2396  0.0766 -0.5387
  158SAPE   O3117637   2.615   5.314  10.456 -0.1142  0.5273  0.6809
  158SAPE   C3117638   2.690   5.341  10.558  0.1844 -0.6426 -0.2150
  158SAPE   O3217639   2.664   5.414  10.653  0.5275 -0.1312  0.4177
  158SAPE   C3217640   2.817   5.262  10.543  0.6830 -0.0857  0.0384
  158SAPE   H2X17641   2.796   5.153  10.552 -1.5279  0.2750 -0.1106
  158SAPE   H2Y17642   2.877   5.298  10.629 -0.4991  3.0673 -0.3103
  158SAPE   C2317643   2.197   5.336  10.036 -0.2257 -0.1000 -0.0342
  158SAPE   H3R17644   2.108   5.322  10.101  0.0077 -0.1986  0.2684
  158SAPE   H3S17645   2.178   5.282   9.940  2.1378 -2.2634  0.5962
  158SAPE   C2417646   2.223   5.485  10.019 -0.3705 -0.0348 -0.7813
  158SAPE   H4R17647   2.324   5.497   9.973  0.3699  0.0810  0.8011
  158SAPE   H4S17648   2.231   5.525  10.122  2.4305  2.1637 -1.7243
  158SAPE   C2517649   2.112   5.560   9.947 -0.5960 -0.2284 -0.5817
  158SAPE   H5R17650   2.042   5.610  10.015  2.0102  2.1026  0.6233
  158SAPE   C2617651   2.085   5.568   9.815 -0.2493 -0.7308 -0.1514
  158SAPE   H6R17652   2.000   5.631   9.788  1.9754  1.5000 -2.5069
  158SAPE   C2717653   2.161   5.503   9.698  0.1982  0.1106 -0.6108
  158SAPE   H7R17654   2.229   5.430   9.747  0.3270 -0.6186 -1.8320
  158SAPE   H7S17655   2.221   5.584   9.651  0.1667 -0.2940 -1.3598
  158SAPE   C2817656   2.087   5.423   9.588 -0.6223 -0.0269  0.3168
  158SAPE   H8R17657   2.018   5.344   9.622  0.3225 -1.3612 -0.7157
  158SAPE   C2917658   2.102   5.430   9.457 -0.2182 -0.2226  0.0939
  158SAPE   H9R17659   2.046   5.356   9.398  0.8499 -1.0965  0.1294
  158SAPE  C21017660   2.195   5.528   9.385  1.1155 -0.4216 -0.5421
  158SAPE  H10R17661   2.239   5.609   9.447  1.5303 -1.2840  0.3263
  158SAPE  H10S17662   2.138   5.574   9.302  0.3967 -0.4816 -0.0929
  158SAPE  C21117663   2.302   5.430   9.337  0.8601 -1.4758 -0.1735
  158SAPE  H11R17664   2.341   5.362   9.413  3.0995 -1.0814 -0.9010
  158SAPE  C21217665   2.339   5.420   9.205  0.4548 -0.6783 -0.4597
  158SAPE  H12R17666   2.424   5.357   9.177  1.3723  1.3268 -2.4777
  158SAPE  C21317667   2.288   5.508   9.090  0.9943  0.3024  0.2022
  158SAPE  H13R17668   2.278   5.613   9.126  0.4859 -0.5419  2.7383
  158SAPE  H13S17669   2.183   5.480   9.071  0.0852  2.6054  1.4423
  158SAPE  C21417670   2.356   5.492   8.960 -0.5594  0.3038  0.3412
  158SAPE  H14R17671   2.445   5.551   8.934 -0.4584 -0.9469 -2.4916
  158SAPE  C21517672   2.330   5.401   8.868 -0.0033  0.1442  0.3297
  158SAPE  H15R17673   2.385   5.393   8.773 -1.3431 -0.6010 -0.4265
  158SAPE  C21617674   2.218   5.302   8.870 -0.2615 -0.0244 -0.4311
  158SAPE  H16R17675   2.176   5.296   8.972  0.5106  2.4918  0.0863
  158SAPE  H16S17676   2.266   5.205   8.841  0.5758 -0.0484  0.9280
  158SAPE  C21717677   2.115   5.339   8.765  0.2296  0.3753  0.1972
  158SAPE  H17R17678   2.053   5.424   8.800 -1.1784 -1.2232  1.7748
  158SAPE  H17S17679   2.043   5.254   8.760 -1.0089  1.3351  1.0750
  158SAPE  C21817680   2.159   5.380   8.623  0.6096 -0.0200 -0.0956
  158SAPE  H18R17681   2.220   5.294   8.590  1.3805  0.4822 -0.0186
  158SAPE  H18S17682   2.220   5.472   8.634  0.5068 -0.0604  1.0144
  158SAPE  C21917683   2.057   5.404   8.519  0.1140 -0.2236  0.4713
  158SAPE  H19R17684   1.973   5.464   8.562 -1.7402 -0.5432 -2.3656
  158SAPE  H19S17685   2.010   5.305   8.503  0.4860 -0.2572 -0.4928
  158SAPE  C22017686   2.109   5.460   8.391 -0.6552 -0.0190  0.1354
  158SAPE  H20R17687   2.147   5.563   8.409  1.2943 -0.6932  0.1206
  158SAPE  H20S17688   2.040   5.434   8.308  3.2412 -0.5941 -3.2650
  158SAPE  H20T17689   2.201   5.408   8.358  0.5159  1.7899  0.4171
  158SAPE   C3317690   2.896   5.270  10.410  0.5262  0.0787 -0.3776
  158SAPE   H3X17691   2.832   5.238  10.325 -2.8571 -2.5398  2.8171
  158SAPE   H3Y17692   2.971   5.187  10.408 -0.3252 -0.7103 -2.9706
  158SAPE   C3417693   2.953   5.412  10.376  0.1356  0.8332 -0.8871
  158SAPE   H4X17694   3.036   5.429  10.448 -0.2088 -1.1643  0.0536
  158SAPE   H4Y17695   2.871   5.485  10.393  0.1183  0.6130  0.0269
  158SAPE   C3517696   3.015   5.426  10.240  0.0022  0.2309  0.0705
  158SAPE   H5X17697   3.076   5.333  10.229 -1.3235 -0.6810  0.1082
  158SAPE   H5Y17698   3.077   5.517  10.240  0.4275  0.0133  2.7052
  158SAPE   C3617699   2.916   5.449  10.130  0.8613 -0.8953 -1.1577
  158SAPE   H6X17700   2.860   5.543  10.147  0.2319 -1.6921  1.6523
  158SAPE   H6Y17701   2.837   5.372  10.135 -1.2418  1.2505  1.4125
  158SAPE   C3717702   2.980   5.448   9.991 -0.7284  0.1665  0.1428
  158SAPE   H7X17703   3.052   5.364   9.999 -2.7631 -2.2151 -3.7595
  158SAPE   H7Y17704   3.033   5.542   9.964  0.4129  0.2829  2.5010
  158SAPE   C3817705   2.879   5.430   9.881 -0.0672 -0.1727 -0.0819
  158SAPE   H8X17706   2.815   5.520   9.893 -2.2837 -1.5860 -0.5125
  158SAPE   H8Y17707   2.803   5.351   9.901 -0.0180 -0.4868 -1.0395
  158SAPE   C3917708   2.938   5.415   9.741 -0.3254  0.0003  0.0830
  158SAPE   H9X17709   2.994   5.319   9.738  1.0591  0.7873 -0.0921
  158SAPE   H9Y17710   3.008   5.501   9.735 -0.3807  0.1814  1.7332
  158SAPE  C31017711   2.838   5.436   9.628  0.2394 -0.5595  1.0462
  158SAPE  H10X17712   2.787   5.535   9.632  2.5390  0.8312 -1.1248
  158SAPE  H10Y17713   2.766   5.351   9.633 -0.6962 -0.1496 -2.5514
  158SAPE  C31117714   2.906   5.437   9.482  0.3234 -0.4032 -0.0220
  158SAPE  H11X17715   2.979   5.354   9.474 -0.7168 -1.2354 -1.3454
  158SAPE  H11Y17716   2.959   5.533   9.460  2.6076 -1.5406  0.2131
  158SAPE  C31217717   2.796   5.419   9.374 -0.1452 -0.6220 -0.1567
  158SAPE  H12X17718   2.736   5.512   9.386 -1.1421 -1.0063 -1.9086
  158SAPE  H12Y17719   2.719   5.341   9.394 -1.0290 -0.2762 -1.9673
  158SAPE  C31317720   2.840   5.425   9.229  0.5113  0.1679 -0.7499
  158SAPE  H13X17721   2.903   5.337   9.202  1.0018  0.6374 -1.1673
  158SAPE  H13Y17722   2.898   5.519   9.219 -2.7797  2.4795  0.1264
  158SAPE  C31417723   2.731   5.428   9.128 -0.2460 -0.4157  0.2643
  158SAPE  H14X17724   2.665   5.517   9.132  1.7238  1.1860 -0.5317
  158SAPE  H14Y17725   2.663   5.341   9.136 -1.1511  0.2570 -0.0484
  158SAPE  C31517726   2.782   5.427   8.980  0.6985  0.2488 -0.8017
  158SAPE  H15X17727   2.703   5.403   8.905  0.1903 -2.6287  0.5184
  158SAPE  H15Y17728   2.845   5.336   8.971 -0.9247 -1.3677  2.4355
  158SAPE  C31617729   2.864   5.555   8.939 -0.3597 -0.6825 -0.7570
  158SAPE  H16X17730   2.955   5.539   9.002 -0.8666 -0.9459 -0.0776
  158SAPE  H16Y17731   2.816   5.644   8.984  0.7844 -1.3659  2.0176
  158SAPE  C31717732   2.900   5.547   8.793  0.1493 -0.5363  0.1883
  158SAPE  H17X17733   2.808   5.578   8.739  0.6884 -0.0252 -0.4559
  158SAPE  H17Y17734   2.919   5.439   8.772 -0.3182 -0.4025 -1.0264
  158SAPE  C31817735   3.022   5.637   8.765  0.0898  0.2546  0.1304
  158SAPE  H18X17736   3.088   5.620   8.853 -0.2076  0.4376  0.3947
  158SAPE  H18Y17737   2.991   5.743   8.756 -1.2239 -0.0401  0.7905
  158SAPE  H18Z17738   3.077   5.592   8.680  2.3126 -0.9868  2.0774
  159SAPE     N17739   6.186   2.298   6.500 -0.0977  0.8069 -0.1085
  159SAPE   HN117740   6.281   2.260   6.520 -0.7168  0.4726  2.6076
  159SAPE   HN217741   6.145   2.322   6.592  0.8978  0.3424  0.4780
  159SAPE   HN317742   6.128   2.222   6.459  1.2562  1.0027 -2.5992
  159SAPE   C1217743   6.169   2.411   6.398  0.1593  0.0580 -0.5169
  159SAPE  H12A17744   6.059   2.411   6.384  0.1820 -1.2002 -0.7938
  159SAPE  H12B17745   6.221   2.396   6.301  0.1149  2.3111 -0.9469
  159SAPE   C1117746   6.227   2.537   6.452 -0.5775 -0.4196 -0.2812
  159SAPE  H11A17747   6.218   2.621   6.380 -2.3007 -1.3231 -1.1931
  159SAPE  H11B17748   6.336   2.527   6.465 -0.3746  2.4278  0.9780
  159SAPE     P17749   6.025   2.667   6.569 -0.2212 -0.3512  0.0233
  159SAPE   O1317750   5.988   2.678   6.423  0.4026  0.0504  0.1009
  159SAPE   O1417751   5.918   2.632   6.666  0.9170 -0.2791 -0.7124
  159SAPE   O1217752   6.155   2.570   6.573  0.6691 -0.1169  0.2314
  159SAPE   O1117753   6.089   2.801   6.621 -0.1727  0.1304  0.4865
  159SAPE    C117754   6.208   2.797   6.709 -0.7527  0.1494 -0.8989
  159SAPE    HA17755   6.295   2.747   6.661  0.3289 -0.0653  1.1528
  159SAPE    HB17756   6.239   2.902   6.725  0.1387  0.5528 -4.3776
  159SAPE    C217757   6.177   2.719   6.840  0.4955 -0.1889 -0.3698
  159SAPE    HS17758   6.127   2.626   6.806 -0.9326  0.3197  0.2346
  159SAPE   O2117759   6.081   2.800   6.914 -0.0085  0.5313  0.7485
  159SAPE   C2117760   5.991   2.735   6.987  0.2323  0.3628 -0.1002
  159SAPE   O2217761   5.973   2.613   6.981 -0.5031 -0.0480  0.0427
  159SAPE   C2217762   5.912   2.831   7.066 -0.5102 -0.7491 -0.5784
  159SAPE   H2R17763   5.983   2.889   7.128 -0.2390 -1.6070 -0.0806
  159SAPE   H2S17764   5.856   2.896   6.995 -2.9972  0.3823  2.2218
  159SAPE    C317765   6.311   2.696   6.918  0.0664 -0.1837  0.5132
  159SAPE    HX17766   6.357   2.796   6.937  1.1412 -0.9798  2.4177
  159SAPE    HY17767   6.379   2.652   6.842  1.4018  2.4969  0.0214
  159SAPE   O3117768   6.284   2.621   7.040 -0.1200  0.3252 -0.1658
  159SAPE   C3117769   6.274   2.488   7.027 -1.0905  0.0055  0.3639
  159SAPE   O3217770   6.281   2.437   6.914  0.5205 -0.0640  0.1966
  159SAPE   C3217771   6.253   2.422   7.160 -0.5716 -0.4559  0.4503
  159SAPE   H2X17772   6.224   2.501   7.233  2.9075  1.0207  0.3943
  159SAPE   H2Y17773   6.356   2.393   7.187  0.2411  0.9083 -1.0503
  159SAPE   C2317774   5.803   2.757   7.137  0.1999  1.0758 -0.2612
  159SAPE   H3R17775   5.751   2.685   7.070  2.1181  1.4645 -2.2893
  159SAPE   H3S17776   5.723   2.831   7.154 -0.0035  0.9654 -0.7458
  159SAPE   C2417777   5.839   2.694   7.270  0.0026 -0.1984 -0.1552
  159SAPE   H4R17778   5.886   2.761   7.345  1.0067 -1.5864  0.4910
  159SAPE   H4S17779   5.918   2.618   7.253  1.3866  1.4119 -1.1529
  159SAPE   C2517780   5.717   2.628   7.335  0.1492 -1.5363  0.3645
  159SAPE   H5R17781   5.633   2.602   7.270 -2.5963  1.3361  2.4637
  159SAPE   C2617782   5.703   2.591   7.466  0.3359 -0.0900 -0.4693
  159SAPE   H6R17783   5.605   2.554   7.502 -0.3664  1.1680 -1.0504
  159SAPE   C2717784   5.807   2.608   7.572  1.1289 -0.2415 -0.4153
  159SAPE   H7R17785   5.904   2.643   7.531  0.7270 -0.8337 -1.9421
  159SAPE   H7S17786   5.831   2.504   7.602  1.4158  0.6445  2.8269
  159SAPE   C2817787   5.768   2.685   7.695 -0.5997 -0.2711  0.2603
  159SAPE   H8R17788   5.674   2.743   7.694  0.0319  0.8616  1.7301
  159SAPE   C2917789   5.833   2.678   7.818  0.5839 -0.0054  0.7335
  159SAPE   H9R17790   5.806   2.747   7.899  0.1416  1.0519 -0.2851
  159SAPE  C21017791   5.951   2.583   7.839 -0.5501  0.3574  0.0395
  159SAPE  H10R17792   5.986   2.536   7.745  2.6264  0.7266  0.9141
  159SAPE  H10S17793   5.913   2.499   7.900  0.1073 -0.4000 -0.5651
  159SAPE  C21117794   6.072   2.660   7.889 -0.0222 -0.5396 -0.2519
  159SAPE  H11R17795   6.117   2.729   7.816 -0.1521  0.6404  0.7585
  159SAPE  C21217796   6.137   2.659   8.011  0.2207 -0.0908 -0.3551
  159SAPE  H12R17797   6.230   2.716   8.024 -0.0141  0.3652 -0.6285
  159SAPE  C21317798   6.096   2.568   8.131 -0.4782 -0.7517  0.6496
  159SAPE  H13R17799   6.186   2.516   8.173  1.2784  1.4802 -0.1724
  159SAPE  H13S17800   6.020   2.498   8.090 -1.4394  2.0154 -2.6814
  159SAPE  C21417801   6.031   2.642   8.238  0.8780 -0.3715 -1.0052
  159SAPE  H14R17802   5.987   2.738   8.210  0.3490 -0.2102  0.2663
  159SAPE  C21517803   6.028   2.605   8.367  0.3642 -0.9786  0.1403
  159SAPE  H15R17804   5.981   2.676   8.437  0.9791 -0.4104 -0.0135
  159SAPE  C21617805   6.075   2.477   8.428 -0.4161 -0.5477 -0.9315
  159SAPE  H16R17806   6.107   2.397   8.359  0.9013 -0.1590 -0.8153
  159SAPE  H16S17807   5.993   2.431   8.487  0.4896 -0.0739  0.7963
  159SAPE  C21717808   6.180   2.513   8.538  1.1784 -0.7602  0.8687
  159SAPE  H17R17809   6.140   2.595   8.600  3.3601  0.5717  0.6335
  159SAPE  H17S17810   6.270   2.554   8.487 -0.4254  0.5857 -1.0316
  159SAPE  C21817811   6.221   2.391   8.628 -0.3998 -0.7120 -0.2180
  159SAPE  H18R17812   6.330   2.408   8.642 -0.1307 -2.2812 -0.1691
  159SAPE  H18S17813   6.209   2.294   8.575  0.7707 -0.8344 -0.2866
  159SAPE  C21917814   6.144   2.383   8.768 -0.5152 -0.0177  0.5498
  159SAPE  H19R17815   6.180   2.285   8.806 -0.4472 -0.0725  0.3457
  159SAPE  H19S17816   6.033   2.381   8.756 -0.6686  0.6268  1.7669
  159SAPE  C22017817   6.184   2.496   8.851  0.2396  0.5000  0.3439
  159SAPE  H20R17818   6.182   2.474   8.960  2.5150 -2.7733 -0.1121
  159SAPE  H20S17819   6.119   2.581   8.822 -1.8043 -1.1695 -0.1409
  159SAPE  H20T17820   6.294   2.514   8.844  0.4939 -0.8409  0.6213
  159SAPE   C3317821   6.163   2.302   7.159  0.6687  0.0929 -0.2599
  159SAPE   H3X17822   6.204   2.206   7.121 -0.2164 -0.8879  1.1335
  159SAPE   H3Y17823   6.076   2.336   7.099  1.8700  1.7898 -1.1114
  159SAPE   C3417824   6.114   2.275   7.302 -0.3236  0.0941 -0.1975
  159SAPE   H4X17825   6.055   2.182   7.298  0.0252 -0.1004 -1.1516
  159SAPE   H4Y17826   6.042   2.356   7.324 -0.5205 -0.0788 -0.2034
  159SAPE   C3517827   6.222   2.264   7.411 -0.8106  1.1609  0.6113
  159SAPE   H5X17828   6.270   2.363   7.426 -0.3042  0.4609  4.6663
  159SAPE   H5Y17829   6.300   2.192   7.377 -2.5015 -0.9169  0.9078
  159SAPE   C3617830   6.158   2.230   7.545 -0.4801  0.3119  0.2872
  159SAPE   H6X17831   6.119   2.126   7.543 -1.2754  0.5775  1.2449
  159SAPE   H6Y17832   6.068   2.291   7.568 -0.6065  0.2778 -0.1094
  159SAPE   C3717833   6.257   2.233   7.654 -0.0815 -0.4336 -0.4073
  159SAPE   H7X17834   6.312   2.330   7.652 -1.5429  0.4208 -0.4561
  159SAPE   H7Y17835   6.312   2.137   7.653  1.9038  0.6558 -0.8179
  159SAPE   C3817836   6.189   2.225   7.798  0.2903 -0.1604 -0.5957
  159SAPE   H8X17837   6.094   2.178   7.827 -0.0594  1.3305  0.8363
  159SAPE   H8Y17838   6.158   2.330   7.817  0.6715  0.0576 -1.1306
  159SAPE   C3917839   6.293   2.196   7.914  0.5892 -0.7582 -0.4703
  159SAPE   H9X17840   6.384   2.255   7.890 -0.6306  0.7334 -1.6508
  159SAPE   H9Y17841   6.340   2.096   7.924  2.4703  0.2318  1.8235
  159SAPE  C31017842   6.227   2.226   8.047 -0.2569 -0.1351  0.0242
  159SAPE  H10X17843   6.135   2.164   8.053 -0.3518  0.0952  1.1267
  159SAPE  H10Y17844   6.191   2.331   8.040  1.3656  0.5484  1.2868
  159SAPE  C31117845   6.320   2.218   8.173  0.4016 -0.1389  0.6990
  159SAPE  H11X17846   6.355   2.113   8.176  3.3166  0.7803  1.6134
  159SAPE  H11Y17847   6.265   2.245   8.265 -0.0943 -1.3314  0.7714
  159SAPE  C31217848   6.447   2.305   8.163  0.0425 -0.1456 -0.1273
  159SAPE  H12X17849   6.406   2.408   8.171  1.1465  0.2873  0.0945
  159SAPE  H12Y17850   6.499   2.292   8.066  0.3760 -0.1565  0.0513
  159SAPE  C31317851   6.557   2.269   8.267  0.2764 -0.1180 -0.0070
  159SAPE  H13X17852   6.645   2.316   8.218  1.1635 -1.5106  0.1914
  159SAPE  H13Y17853   6.577   2.159   8.271 -0.2935 -0.2366 -0.2936
  159SAPE  C31417854   6.528   2.337   8.402  0.5744 -0.9694 -0.8391
  159SAPE  H14X17855   6.450   2.280   8.457 -1.2704  0.0139 -2.3192
  159SAPE  H14Y17856   6.492   2.439   8.376 -1.5700 -1.6391 -0.6962
  159SAPE  C31517857   6.652   2.361   8.480 -0.6382  0.5483  0.6295
  159SAPE  H15X17858   6.715   2.437   8.430  0.1145  1.8390  3.3405
  159SAPE  H15Y17859   6.701   2.264   8.504  0.8040  0.1921 -3.1480
  159SAPE  C31617860   6.625   2.423   8.614 -0.2806  0.6950 -0.6269
  159SAPE  H16X17861   6.578   2.345   8.678  1.1494  1.2544  1.2147
  159SAPE  H16Y17862   6.562   2.514   8.604  0.2840  1.4213  1.6810
  159SAPE  C31717863   6.755   2.466   8.690  0.1978 -0.2555 -0.1094
  159SAPE  H17X17864   6.801   2.542   8.624  0.8869 -0.6848 -0.1331
  159SAPE  H17Y17865   6.824   2.380   8.704  0.0101  0.0937  4.5751
  159SAPE  C31817866   6.716   2.523   8.825  0.4597 -0.1322 -0.9717
  159SAPE  H18X17867   6.805   2.554   8.883 -0.0717  0.2915 -0.3697
  159SAPE  H18Y17868   6.681   2.435   8.884 -0.9998  1.8764  1.3355
  159SAPE  H18Z17869   6.635   2.598   8.813  0.9868  0.6598  0.2436
  160SAPE     N17870   6.054   2.830   6.213  0.2457  0.1565  0.0996
  160SAPE   HN117871   6.137   2.801   6.158 -1.2783 -3.4521 -0.5573
  160SAPE   HN217872   6.038   2.755   6.283 -0.5423 -0.1745 -0.4279
  160SAPE   HN317873   5.976   2.834   6.144  1.1181  0.5257 -0.8896
  160SAPE   C1217874   6.084   2.965   6.273  0.0320 -0.4681  0.3676
  160SAPE  H12A17875   5.992   2.988   6.332  0.6042 -0.7949  1.4194
  160SAPE  H12B17876   6.091   3.039   6.191  0.2360 -0.1612  0.6588
  160SAPE   C1117877   6.208   2.958   6.362 -0.5180 -0.4293 -0.1299
  160SAPE  H11A17878   6.285   2.917   6.293  0.7846  0.4203  0.7753
  160SAPE  H11B17879   6.204   2.882   6.443  0.2958 -0.6378 -0.2683
  160SAPE     P17880   6.398   3.140   6.407  0.0948 -0.3628  0.0130
  160SAPE   O1317881   6.478   3.018   6.414 -0.3626 -0.4963 -0.5473
  160SAPE   O1417882   6.413   3.229   6.288  0.2356  0.4311  0.4503
  160SAPE   O1217883   6.247   3.090   6.410  0.0700  0.7234  0.6367
  160SAPE   O1117884   6.416   3.225   6.539 -0.3590 -0.1691  0.2116
  160SAPE    C117885   6.300   3.265   6.609  0.1491  0.6630  0.9727
  160SAPE    HA17886   6.212   3.293   6.548 -2.0857 -3.7482  1.7293
  160SAPE    HB17887   6.265   3.174   6.663 -3.1510  0.8657 -0.5665
  160SAPE    C217888   6.320   3.375   6.715  0.2794 -0.5663  0.4073
  160SAPE    HS17889   6.316   3.469   6.656 -1.7207 -1.2890 -0.7236
  160SAPE   O2117890   6.452   3.354   6.771 -0.5857 -0.1473  0.2562
  160SAPE   C2117891   6.503   3.464   6.818 -0.2242 -1.1123 -0.1806
  160SAPE   O2217892   6.460   3.581   6.814 -0.2460  0.4205  1.1872
  160SAPE   C2217893   6.626   3.426   6.900 -0.0874 -0.5638  0.4154
  160SAPE   H2R17894   6.600   3.396   7.004  0.7647 -0.6963  0.5941
  160SAPE   H2S17895   6.662   3.333   6.851  1.6326 -0.9809  2.3212
  160SAPE    C317896   6.207   3.380   6.827  0.7083 -0.2800 -0.5262
  160SAPE    HX17897   6.116   3.374   6.765 -0.5406 -0.1039  1.2092
  160SAPE    HY17898   6.213   3.481   6.874 -0.9249  0.2810 -1.4503
  160SAPE   O3117899   6.205   3.266   6.916  0.1721  0.1183 -0.4174
  160SAPE   C3117900   6.285   3.255   7.028  0.2802 -0.1706  0.2982
  160SAPE   O3217901   6.349   3.343   7.074  0.3188  0.1687 -0.1796
  160SAPE   C3217902   6.263   3.110   7.088 -0.8249  0.1700  0.1716
  160SAPE   H2X17903   6.277   3.039   7.003 -0.5832  0.5492 -0.1045
  160SAPE   H2Y17904   6.154   3.100   7.111 -0.7264 -0.5589  0.3415
  160SAPE   C2317905   6.749   3.517   6.886  0.1275  0.1871 -0.0110
  160SAPE   H3R17906   6.783   3.532   6.781  2.0446  2.0498  0.8133
  160SAPE   H3S17907   6.830   3.456   6.931  0.3895 -0.0019 -0.7233
  160SAPE   C2417908   6.746   3.652   6.957  0.2776  0.0819  0.4803
  160SAPE   H4R17909   6.665   3.716   6.916  3.0079  2.2647 -1.9835
  160SAPE   H4S17910   6.841   3.708   6.941  0.8116 -0.6787  0.9158
  160SAPE   C2517911   6.721   3.635   7.102  0.2440  0.3534  0.3005
  160SAPE   H5R17912   6.622   3.593   7.126  0.3726  0.2748  0.7133
  160SAPE   C2617913   6.806   3.650   7.205 -0.2460  0.9895  0.4866
  160SAPE   H6R17914   6.763   3.630   7.304  0.1457 -1.4604  0.2226
  160SAPE   C2717915   6.946   3.690   7.202 -0.6847 -0.4860 -0.0962
  160SAPE   H7R17916   6.955   3.793   7.243 -2.2180 -0.9172  1.4406
  160SAPE   H7S17917   6.981   3.689   7.096  1.9294 -1.9846  0.6920
  160SAPE   C2817918   7.038   3.593   7.281 -0.1264 -0.6362  0.2373
  160SAPE   H8R17919   7.067   3.507   7.219  0.8629 -0.0428 -0.1378
  160SAPE   C2917920   7.081   3.614   7.403 -0.0940 -0.1969  0.1938
  160SAPE   H9R17921   7.152   3.546   7.453  1.5228  1.6319  0.4879
  160SAPE  C21017922   7.048   3.726   7.500  0.1258  0.1079 -0.2586
  160SAPE  H10R17923   7.004   3.821   7.464  0.2259  1.5858  3.0928
  160SAPE  H10S17924   7.145   3.752   7.548  1.5825 -1.9102 -1.9564
  160SAPE  C21117925   6.956   3.675   7.609 -0.7712  0.9447  0.3607
  160SAPE  H11R17926   6.881   3.604   7.572 -0.1402  1.0896 -1.2833
  160SAPE  C21217927   6.964   3.706   7.736 -0.6298  0.4545  0.1371
  160SAPE  H12R17928   6.895   3.655   7.805  1.2499 -1.5843  0.6338
  160SAPE  C21317929   7.067   3.787   7.804  0.3655 -0.1341 -0.1681
  160SAPE  H13R17930   7.157   3.804   7.742  1.6388 -0.0943  1.6015
  160SAPE  H13S17931   7.111   3.739   7.894  1.5150  0.6411 -0.2970
  160SAPE  C21417932   6.994   3.913   7.846 -0.3669 -0.4630 -0.2630
  160SAPE  H14R17933   7.005   3.998   7.777  3.8763  0.3327  1.0796
  160SAPE  C21517934   6.926   3.932   7.960  0.2778 -0.1964 -0.3427
  160SAPE  H15R17935   6.885   4.031   7.988  0.7222 -0.1086  0.0062
  160SAPE  C21617936   6.917   3.830   8.075  1.3271 -0.9657 -0.9433
  160SAPE  H16R17937   7.007   3.765   8.073  2.1488  0.1066  0.1641
  160SAPE  H16S17938   6.830   3.762   8.064  0.3413 -0.2625  1.7325
  160SAPE  C21717939   6.883   3.893   8.213  0.1118  0.2460 -0.8640
  160SAPE  H17R17940   6.861   3.807   8.279  2.3608  0.7667  0.6695
  160SAPE  H17S17941   6.794   3.960   8.203 -0.1422  0.0522 -0.0196
  160SAPE  C21817942   7.013   3.967   8.267 -0.0098 -0.5916 -0.6686
  160SAPE  H18R17943   7.033   4.063   8.214 -2.5317  0.0901 -0.5232
  160SAPE  H18S17944   7.098   3.899   8.243  0.3357  0.1391 -1.6033
  160SAPE  C21917945   7.008   4.008   8.419 -0.0711  0.2753  0.2038
  160SAPE  H19R17946   7.095   4.055   8.469  0.5560  2.1222 -2.4247
  160SAPE  H19S17947   6.991   3.912   8.473 -1.0289  0.4170  0.1704
  160SAPE  C22017948   6.884   4.087   8.457  0.2775 -0.7060  0.2497
  160SAPE  H20R17949   6.869   4.191   8.423  0.1906 -0.7077  0.2811
  160SAPE  H20S17950   6.871   4.090   8.568  1.9802  0.0278  0.4514
  160SAPE  H20T17951   6.792   4.035   8.424 -0.3454 -0.0149  0.8539
  160SAPE   C3317952   6.364   3.066   7.202 -0.0432 -0.3839 -0.5984
  160SAPE   H3X17953   6.357   3.138   7.285  1.1764 -1.3790  0.4170
  160SAPE   H3Y17954   6.467   3.059   7.161  0.1658 -0.4103 -0.0635
  160SAPE   C3417955   6.340   2.924   7.258  0.6929  0.4968  0.6384
  160SAPE   H4X17956   6.343   2.851   7.175  1.7392 -2.2812  2.9582
  160SAPE   H4Y17957   6.240   2.919   7.306 -1.5884  0.4546 -3.6362
  160SAPE   C3517958   6.453   2.882   7.349 -0.6455  0.2008  0.0181
  160SAPE   H5X17959   6.464   2.961   7.426 -3.1099 -0.7486  1.4678
  160SAPE   H5Y17960   6.544   2.871   7.286 -0.1197 -0.5132  0.8706
  160SAPE   C3617961   6.448   2.744   7.401  0.3544  0.6647  0.2286
  160SAPE   H6X17962   6.554   2.721   7.426  0.3159 -1.2304 -1.1295
  160SAPE   H6Y17963   6.411   2.663   7.335  0.0579 -0.4792  1.7385
  160SAPE   C3717964   6.360   2.733   7.523 -0.4871 -0.0272 -0.5181
  160SAPE   H7X17965   6.259   2.763   7.487 -0.0333  2.2375 -0.0426
  160SAPE   H7Y17966   6.395   2.812   7.593  3.2498 -1.1765 -0.8564
  160SAPE   C3817967   6.358   2.600   7.608 -0.2060 -0.1862 -0.1505
  160SAPE   H8X17968   6.345   2.512   7.541  1.6269  0.1502 -1.0106
  160SAPE   H8Y17969   6.263   2.593   7.666  0.1926  0.7999  0.6448
  160SAPE   C3917970   6.486   2.576   7.693  0.4643  0.2594 -0.8278
  160SAPE   H9X17971   6.576   2.580   7.627 -0.5170  0.3867 -2.1974
  160SAPE   H9Y17972   6.486   2.477   7.743 -1.6036  0.4758 -0.2968
  160SAPE  C31017973   6.502   2.684   7.808  0.3551 -0.0421  0.0881
  160SAPE  H10X17974   6.397   2.713   7.830  0.9297 -1.1110  5.3790
  160SAPE  H10Y17975   6.563   2.770   7.773 -0.8862  0.9778  0.3565
  160SAPE  C31117976   6.561   2.627   7.935  0.3054 -0.4751 -0.2342
  160SAPE  H11X17977   6.662   2.587   7.911  0.4992 -1.3952  1.8888
  160SAPE  H11Y17978   6.498   2.545   7.976 -0.8463  0.8684  0.8219
  160SAPE  C31217979   6.577   2.738   8.042 -0.5587  0.5703 -0.3529
  160SAPE  H12X17980   6.473   2.766   8.068 -0.0818  0.8603  1.3545
  160SAPE  H12Y17981   6.630   2.819   7.989 -1.0955  0.7199 -0.6750
  160SAPE  C31317982   6.643   2.692   8.165  0.6018  0.4639  0.4135
  160SAPE  H13X17983   6.738   2.645   8.131  0.1095  0.5816 -1.1986
  160SAPE  H13Y17984   6.598   2.612   8.228  1.4965  0.3678  0.9559
  160SAPE  C31417985   6.669   2.819   8.248  0.5870 -0.1908 -0.0752
  160SAPE  H14X17986   6.573   2.853   8.291  0.1236 -0.9191 -0.5047
  160SAPE  H14Y17987   6.707   2.899   8.181  1.7344  0.5436  1.3810
  160SAPE  C31517988   6.748   2.798   8.373  0.1581 -0.5986  0.0661
  160SAPE  H15X17989   6.733   2.691   8.401  0.5706 -0.9901 -1.1427
  160SAPE  H15Y17990   6.710   2.854   8.461 -0.0036  2.2982 -1.7447
  160SAPE  C31617991   6.898   2.830   8.376  0.5741  0.0994  0.5412
  160SAPE  H16X17992   6.952   2.785   8.290 -0.1553  0.2407 -0.0043
  160SAPE  H16Y17993   6.937   2.786   8.470 -2.7300 -3.5188  0.4532
  160SAPE  C31717994   6.916   2.987   8.381 -0.0756 -0.0828  0.6971
  160SAPE  H17X17995   6.841   3.036   8.315  1.3376  0.1832 -0.7689
  160SAPE  H17Y17996   7.013   3.018   8.337 -1.0602 -0.9029 -2.2809
  160SAPE  C31817997   6.900   3.053   8.517 -0.1787  0.2322 -0.1034
  160SAPE  H18X17998   6.796   3.039   8.553 -0.0675  2.5285  1.2722
  160SAPE  H18Y17999   6.936   3.157   8.503  1.0345 -0.5274 -3.6128
  160SAPE  H18Z18000   6.957   2.998   8.596 -0.2162 -0.2940 -0.4374
  161SAPE     N18001   2.817   6.717   6.241 -0.2384 -0.3271 -0.5858
  161SAPE   HN118002   2.907   6.665   6.246 -0.7843 -1.2238  0.7960
  161SAPE   HN218003   2.738   6.654   6.216 -0.8426  0.7830 -1.5584
  161SAPE   HN318004   2.809   6.795   6.173  2.5530 -0.4138 -1.1022
  161SAPE   C1218005   2.782   6.759   6.386 -0.2795  0.0992  0.5634
  161SAPE  H12A18006   2.694   6.827   6.397 -0.6498 -0.6017  2.3227
  161SAPE  H12B18007   2.868   6.807   6.438 -0.0819 -0.1211  0.4405
  161SAPE   C1118008   2.781   6.628   6.469  0.1665 -0.8503 -0.3825
  161SAPE  H11A18009   2.784   6.647   6.578  0.3727 -0.3679 -0.4720
  161SAPE  H11B18010   2.877   6.578   6.444  0.0650 -0.7508 -0.9969
  161SAPE     P18011   2.533   6.511   6.481 -0.3561 -0.0399  0.4591
  161SAPE   O1318012   2.485   6.632   6.555  0.2923  0.4005 -0.0552
  161SAPE   O1418013   2.437   6.461   6.376 -0.0472  0.4980  0.2784
  161SAPE   O1218014   2.669   6.549   6.419 -0.3700  0.0254  0.7561
  161SAPE   O1118015   2.577   6.401   6.583 -0.3211  0.3470  0.3759
  161SAPE    C118016   2.663   6.293   6.539  0.3252  0.5477 -0.2293
  161SAPE    HA18017   2.611   6.232   6.462  0.5945  0.4279 -0.3143
  161SAPE    HB18018   2.753   6.336   6.490  0.8220  0.1098  0.3016
  161SAPE    C218019   2.720   6.208   6.659 -0.3793 -1.0556 -0.7648
  161SAPE    HS18020   2.813   6.159   6.623 -0.5684 -1.7941 -0.2671
  161SAPE   O2118021   2.620   6.110   6.695  0.3420 -0.1078  0.1626
  161SAPE   C2118022   2.667   5.990   6.730  0.4041 -0.1768 -0.5244
  161SAPE   O2218023   2.784   5.951   6.715  0.0736  0.2789 -0.1158
  161SAPE   C2218024   2.555   5.904   6.797  1.7492 -1.0760  0.0550
  161SAPE   H2R18025   2.470   5.968   6.830  0.8603 -1.6127 -1.1086
  161SAPE   H2S18026   2.518   5.834   6.719  0.3114 -0.7461  0.4115
  161SAPE    C318027   2.755   6.298   6.776  0.1457  0.3348  0.4324
  161SAPE    HX18028   2.660   6.353   6.790  0.0919  0.3682 -0.0487
  161SAPE    HY18029   2.829   6.372   6.739 -1.9178  1.1848 -2.3008
  161SAPE   O3118030   2.789   6.226   6.893  0.4162  0.2923  0.1138
  161SAPE   C3118031   2.910   6.184   6.910  0.5527 -0.0473 -0.6273
  161SAPE   O3218032   3.006   6.215   6.843 -0.0760  0.0128  0.4009
  161SAPE   C3218033   2.907   6.092   7.034 -0.2843  0.1599 -0.2773
  161SAPE   H2X18034   2.927   5.987   7.000 -0.1955 -0.4506  1.5506
  161SAPE   H2Y18035   2.804   6.102   7.073 -0.5568 -0.8213 -0.7079
  161SAPE   C2318036   2.619   5.833   6.915  0.0388 -0.2365  0.0514
  161SAPE   H3R18037   2.650   5.902   6.996  1.2052  0.9135 -1.3154
  161SAPE   H3S18038   2.707   5.778   6.874 -0.9484  1.1464 -4.5750
  161SAPE   C2418039   2.538   5.712   6.973 -0.4001  0.6162  0.4201
  161SAPE   H4R18040   2.581   5.618   6.934 -1.5158  1.0826 -2.1488
  161SAPE   H4S18041   2.443   5.716   6.916  0.9881 -1.2707 -2.2235
  161SAPE   C2518042   2.525   5.718   7.119 -0.1561 -0.0934 -0.1901
  161SAPE   H5R18043   2.623   5.702   7.166 -0.7211 -0.9139  0.7633
  161SAPE   C2618044   2.411   5.729   7.192  0.1998  0.2485 -0.9234
  161SAPE   H6R18045   2.428   5.721   7.300  2.1011 -2.5128 -1.2900
  161SAPE   C2718046   2.267   5.734   7.154 -0.3142  0.0699  0.4065
  161SAPE   H7R18047   2.260   5.764   7.047 -1.9285  1.0914  0.7546
  161SAPE   H7S18048   2.215   5.817   7.207  0.1225 -0.2841  1.3976
  161SAPE   C2818049   2.188   5.607   7.158  0.2233 -0.1509 -0.8621
  161SAPE   H8R18050   2.147   5.576   7.061 -1.3434  0.9276 -0.5844
  161SAPE   C2918051   2.136   5.562   7.274  0.6472 -0.4936  0.1203
  161SAPE   H9R18052   2.081   5.467   7.269  0.1118 -0.1298 -1.8293
  161SAPE  C21018053   2.161   5.624   7.416  0.2016 -0.8281 -0.7600
  161SAPE  H10R18054   2.068   5.678   7.443  0.6764 -0.0915 -0.5611
  161SAPE  H10S18055   2.231   5.711   7.415 -1.6504  0.9090  2.8006
  161SAPE  C21118056   2.185   5.521   7.520  0.5096  0.3024  0.8879
  161SAPE  H11R18057   2.115   5.437   7.522  0.3996  0.0012 -3.8178
  161SAPE  C21218058   2.296   5.502   7.595 -0.3014 -0.8262  0.4063
  161SAPE  H12R18059   2.321   5.419   7.663  0.5672 -1.2031 -0.3667
  161SAPE  C21318060   2.404   5.605   7.588 -0.1626 -1.0111  0.5364
  161SAPE  H13R18061   2.382   5.711   7.611 -0.2546 -0.2663 -2.4854
  161SAPE  H13S18062   2.447   5.607   7.485 -3.7258  0.5142 -1.1059
  161SAPE  C21418063   2.526   5.564   7.670  0.4625 -0.2467 -0.8406
  161SAPE  H14R18064   2.517   5.463   7.713 -0.5900  0.2360  0.1164
  161SAPE  C21518065   2.642   5.629   7.672 -0.0306  0.5542  0.6089
  161SAPE  H15R18066   2.719   5.592   7.741  0.4817  1.0138  0.2917
  161SAPE  C21618067   2.660   5.763   7.604 -0.3897  0.1589 -0.1779
  161SAPE  H16R18068   2.720   5.828   7.670  2.6359 -3.7676  1.3703
  161SAPE  H16S18069   2.568   5.821   7.581 -0.3242  0.2299 -0.2639
  161SAPE  C21718070   2.738   5.746   7.474  0.2278  0.3848 -0.7500
  161SAPE  H17R18071   2.742   5.841   7.416 -0.7639 -1.4359 -4.0214
  161SAPE  H17S18072   2.672   5.687   7.407  1.0431 -1.5871  0.1188
  161SAPE  C21818073   2.877   5.678   7.486 -0.5156  0.0716  0.2707
  161SAPE  H18R18074   2.863   5.577   7.530 -1.8342 -0.4704 -1.3085
  161SAPE  H18S18075   2.950   5.738   7.545 -0.2898 -1.2033  1.3349
  161SAPE  C21918076   2.942   5.665   7.351 -0.1737  0.4158  0.3284
  161SAPE  H19R18077   2.988   5.761   7.317  1.1997  0.2743  1.7059
  161SAPE  H19S18078   2.869   5.621   7.281 -1.0588  1.4270  0.5857
  161SAPE  C22018079   3.067   5.575   7.362 -0.4380 -0.5345  0.1894
  161SAPE  H20R18080   3.133   5.569   7.272  1.6669 -1.0040  1.6945
  161SAPE  H20S18081   3.033   5.473   7.389 -0.2623 -0.5736  0.2676
  161SAPE  H20T18082   3.129   5.611   7.447  1.3711 -0.7032 -1.0019
  161SAPE   C3318083   3.007   6.136   7.144  0.2921 -0.2813  0.1510
  161SAPE   H3X18084   2.968   6.238   7.166  0.7656  0.2364 -1.2929
  161SAPE   H3Y18085   3.109   6.137   7.100 -0.1087 -0.6181 -0.8338
  161SAPE   C3418086   2.988   6.055   7.278  0.0486 -0.6222  0.4443
  161SAPE   H4X18087   3.067   5.976   7.273  0.4759 -0.1249 -2.3169
  161SAPE   H4Y18088   2.887   6.009   7.284  0.0318 -1.0655 -2.1030
  161SAPE   C3518089   3.009   6.138   7.406  0.7777  0.4449  0.1112
  161SAPE   H5X18090   2.941   6.224   7.395  0.6964  0.1672 -1.8232
  161SAPE   H5Y18091   3.109   6.186   7.414  0.1631  1.7623  0.1082
  161SAPE   C3618092   3.001   6.064   7.534  0.3287  0.5442  0.2057
  161SAPE   H6X18093   3.059   5.969   7.525 -1.7717 -0.8084  0.0901
  161SAPE   H6Y18094   2.896   6.029   7.550  0.1998  1.0542  0.5056
  161SAPE   C3718095   3.053   6.136   7.652  0.5142  0.8330  0.2291
  161SAPE   H7X18096   2.988   6.224   7.674 -1.0756 -0.4373  0.8169
  161SAPE   H7Y18097   3.153   6.182   7.636  0.6996  1.3068  2.4577
  161SAPE   C3818098   3.043   6.057   7.787 -1.0311 -0.5164  0.1526
  161SAPE   H8X18099   3.060   6.129   7.869  0.8234 -1.7234  0.9042
  161SAPE   H8Y18100   3.125   5.982   7.793 -0.3719  0.0896 -0.9178
  161SAPE   C3918101   2.908   5.991   7.803  0.0473  1.0430  0.1054
  161SAPE   H9X18102   2.906   5.891   7.756 -1.1707  0.4333  1.3880
  161SAPE   H9Y18103   2.829   6.050   7.752 -0.3329  0.6224  0.1967
  161SAPE  C31018104   2.885   5.967   7.954  0.0964  0.5622  0.5156
  161SAPE  H10X18105   2.871   6.069   7.996  0.1297  0.9976 -0.4915
  161SAPE  H10Y18106   2.976   5.924   8.001 -1.1639 -1.9490  0.7713
  161SAPE  C31118107   2.763   5.879   7.983  0.1766  0.0807  0.4718
  161SAPE  H11X18108   2.804   5.777   7.966 -0.5181 -0.1318  0.0504
  161SAPE  H11Y18109   2.689   5.903   7.904 -1.7063 -1.0179  1.8341
  161SAPE  C31218110   2.688   5.894   8.114 -1.0013 -0.1836 -0.4595
  161SAPE  H12X18111   2.622   5.984   8.117 -2.9062 -1.3946 -2.9592
  161SAPE  H12Y18112   2.755   5.903   8.203 -0.8560  1.3393 -0.7040
  161SAPE  C31318113   2.583   5.781   8.139 -0.4854 -0.0371 -0.0164
  161SAPE  H13X18114   2.545   5.774   8.243  1.3916 -1.9923  0.6308
  161SAPE  H13Y18115   2.625   5.678   8.125 -4.6390 -1.8008 -0.8141
  161SAPE  C31418116   2.461   5.771   8.044  0.4154  0.1493 -0.2538
  161SAPE  H14X18117   2.498   5.772   7.940  0.7553 -1.5591 -0.1767
  161SAPE  H14Y18118   2.396   5.859   8.061  0.2917 -0.2373  1.4977
  161SAPE  C31518119   2.380   5.649   8.071 -0.0062 -0.5239 -0.0131
  161SAPE  H15X18120   2.345   5.642   8.177  1.1924 -0.8351  0.3815
  161SAPE  H15Y18121   2.431   5.557   8.035 -2.9333 -1.3078 -2.5936
  161SAPE  C31618122   2.250   5.656   7.988  0.6664 -0.7697  0.9828
  161SAPE  H16X18123   2.274   5.685   7.884 -0.3716 -1.0324  0.6625
  161SAPE  H16Y18124   2.200   5.747   8.029 -0.0172 -0.5603 -0.2819
  161SAPE  C31718125   2.156   5.539   7.988  0.9887  0.3388 -0.2790
  161SAPE  H17X18126   2.102   5.538   8.085 -1.0961  0.7868 -1.3842
  161SAPE  H17Y18127   2.221   5.449   7.985 -1.4437 -1.5545  0.0466
  161SAPE  C31818128   2.056   5.529   7.877  0.7504 -0.1976  0.9898
  161SAPE  H18X18129   1.971   5.598   7.894 -0.1996 -0.5638 -1.8025
  161SAPE  H18Y18130   2.021   5.424   7.870  0.0396  0.1051 -0.1015
  161SAPE  H18Z18131   2.107   5.556   7.782  1.2406 -0.2510  1.2293
  162SAPE     N18132   1.185   3.343   6.129  0.0583  0.5089 -0.3234
  162SAPE   HN118133   1.212   3.346   6.029  2.5063 -1.8603  0.1494
  162SAPE   HN218134   1.252   3.399   6.186  2.0553 -0.1856 -1.8771
  162SAPE   HN318135   1.190   3.242   6.150  2.0503  0.2198 -1.8395
  162SAPE   C1218136   1.044   3.393   6.144 -0.1929  0.1672 -0.1879
  162SAPE  H12A18137   0.979   3.308   6.114 -0.2922 -0.1927  1.0211
  162SAPE  H12B18138   1.027   3.482   6.078 -0.4683 -1.3770 -2.2986
  162SAPE   C1118139   1.012   3.430   6.296 -0.4785 -0.2755  0.8190
  162SAPE  H11A18140   1.009   3.327   6.337  2.9844 -0.7073  0.3307
  162SAPE  H11B18141   0.908   3.465   6.312 -1.5686 -2.6726 -0.5108
  162SAPE     P18142   1.094   3.626   6.458  0.1845  0.0484 -0.1043
  162SAPE   O1318143   1.226   3.659   6.520  0.1295 -0.0787 -0.4724
  162SAPE   O1418144   1.029   3.743   6.384  0.1744  0.1303 -0.2498
  162SAPE   O1218145   1.120   3.508   6.360  0.6402 -0.5187  0.2032
  162SAPE   O1118146   0.992   3.563   6.565  0.2346  0.0462 -0.0038
  162SAPE    C118147   1.044   3.458   6.650  0.7454 -0.5430 -0.2058
  162SAPE    HA18148   1.150   3.430   6.631  1.4591  0.2278  2.1844
  162SAPE    HB18149   1.053   3.494   6.755 -2.4544 -0.8209  0.2503
  162SAPE    C218150   0.957   3.333   6.636 -0.8451  0.3922 -0.4240
  162SAPE    HS18151   0.951   3.319   6.526 -1.7075  1.8100 -0.5894
  162SAPE   O2118152   0.829   3.355   6.701 -0.0161  0.2306  0.2721
  162SAPE   C2118153   0.730   3.279   6.667  0.1933 -0.0117  0.3364
  162SAPE   O2218154   0.736   3.191   6.581 -0.5409  0.1193 -0.2448
  162SAPE   C2218155   0.609   3.320   6.746  0.4109 -0.0867  0.0515
  162SAPE   H2R18156   0.609   3.430   6.758 -1.7246 -0.0909  0.5699
  162SAPE   H2S18157   0.522   3.297   6.682 -0.0431 -0.9168  0.9343
  162SAPE    C318158   1.029   3.210   6.685  0.4330  0.0037 -0.3806
  162SAPE    HX18159   1.122   3.210   6.625  1.7818  2.7754  1.5017
  162SAPE    HY18160   0.974   3.114   6.671  0.5415 -0.3836  1.6583
  162SAPE   O3118161   1.077   3.230   6.814 -0.1788  0.3358 -0.1164
  162SAPE   C3118162   1.012   3.162   6.904  1.2407  0.1495  0.3738
  162SAPE   O3218163   0.922   3.082   6.889 -0.0498  0.5160 -0.1712
  162SAPE   C3218164   1.063   3.211   7.044  0.2220 -0.4068 -0.0370
  162SAPE   H2X18165   1.039   3.319   7.048 -1.7337 -0.8437  2.0546
  162SAPE   H2Y18166   1.172   3.195   7.062 -0.2746 -2.8539  1.2414
  162SAPE   C2318167   0.609   3.240   6.879 -1.3222  0.2698  0.2077
  162SAPE   H3R18168   0.705   3.254   6.932 -0.3737 -5.3564  0.6347
  162SAPE   H3S18169   0.605   3.133   6.849  3.7996 -0.0429 -0.0859
  162SAPE   C2418170   0.491   3.287   6.973 -0.0548 -0.4236  0.1853
  162SAPE   H4R18171   0.398   3.258   6.919 -0.5559 -1.3113  1.4705
  162SAPE   H4S18172   0.493   3.398   6.974  2.8300 -0.3093 -2.8516
  162SAPE   C2518173   0.505   3.220   7.099  0.5046  0.7163  0.4573
  162SAPE   H5R18174   0.441   3.133   7.116 -0.7844  1.3296 -1.0344
  162SAPE   C2618175   0.587   3.253   7.199  0.4041  0.4331 -0.2208
  162SAPE   H6R18176   0.573   3.191   7.289 -0.6917 -0.6975 -1.1162
  162SAPE   C2718177   0.689   3.364   7.191  0.4128  0.6336 -0.7331
  162SAPE   H7R18178   0.728   3.396   7.092  1.3905  0.1414 -0.5215
  162SAPE   H7S18179   0.777   3.321   7.244 -1.6471  0.5126  2.9113
  162SAPE   C2818180   0.643   3.490   7.261  0.5856  0.0836 -0.2889
  162SAPE   H8R18181   0.581   3.551   7.194 -0.2919  0.9483  1.2737
  162SAPE   C2918182   0.660   3.536   7.382  0.1899 -0.5936 -0.4398
  162SAPE   H9R18183   0.613   3.634   7.401 -1.0424 -1.5045  1.5230
  162SAPE  C21018184   0.730   3.460   7.493  0.0817  0.3799  0.6615
  162SAPE  H10R18185   0.810   3.409   7.435  0.3455  2.0426 -0.5189
  162SAPE  H10S18186   0.675   3.369   7.527  3.7583 -2.1362  0.4843
  162SAPE  C21118187   0.769   3.541   7.614 -0.1812  0.4742  0.4647
  162SAPE  H11R18188   0.830   3.628   7.586  1.5094 -0.8715 -0.1344
  162SAPE  C21218189   0.741   3.527   7.746 -0.1094  0.0102  0.4105
  162SAPE  H12R18190   0.772   3.603   7.819 -0.6157 -0.4736  1.1403
  162SAPE  C21318191   0.653   3.420   7.801 -0.0166  0.3881  0.9954
  162SAPE  H13R18192   0.707   3.355   7.873  0.7682 -1.0551 -0.8366
  162SAPE  H13S18193   0.629   3.343   7.726 -0.0458  2.0532 -0.7908
  162SAPE  C21418194   0.516   3.474   7.837 -0.2226  0.2119 -0.1719
  162SAPE  H14R18195   0.475   3.558   7.778 -1.2478 -1.0333 -1.2932
  162SAPE  C21518196   0.427   3.437   7.942 -0.5979 -0.4211 -0.2800
  162SAPE  H15R18197   0.330   3.488   7.943  0.8070  2.6326 -2.8679
  162SAPE  C21618198   0.451   3.330   8.047 -0.2806 -0.2368  0.0186
  162SAPE  H16R18199   0.560   3.307   8.040 -0.3484 -0.0070 -3.9499
  162SAPE  H16S18200   0.410   3.229   8.024  2.1186 -0.9993 -1.2260
  162SAPE  C21718201   0.428   3.378   8.196  0.9268  0.0727 -0.1733
  162SAPE  H17R18202   0.321   3.364   8.222  0.3100  1.7476 -1.5601
  162SAPE  H17S18203   0.453   3.486   8.196 -0.9626  0.5454 -0.6511
  162SAPE  C21818204   0.507   3.295   8.294  0.1163  0.8190 -1.0966
  162SAPE  H18R18205   0.613   3.295   8.260  0.5792 -1.9913  0.0307
  162SAPE  H18S18206   0.467   3.191   8.288 -2.1022  1.2894  2.5804
  162SAPE  C21918207   0.496   3.343   8.437 -0.1648 -0.1207 -0.2442
  162SAPE  H19R18208   0.392   3.373   8.464  0.1784 -0.0375  1.0935
  162SAPE  H19S18209   0.559   3.433   8.454 -0.5410 -0.2394  2.1126
  162SAPE  C22018210   0.556   3.241   8.537  0.0444  0.1251  0.2831
  162SAPE  H20R18211   0.599   3.298   8.623 -0.3431 -0.7979  1.1122
  162SAPE  H20S18212   0.635   3.180   8.489 -0.2050  1.1760 -1.5191
  162SAPE  H20T18213   0.466   3.185   8.571 -1.4483  2.5424  0.5448
  162SAPE   C3318214   0.986   3.143   7.166 -0.2078  0.1483  1.5050
  162SAPE   H3X18215   1.008   3.035   7.155  0.2825  0.4946 -2.7083
  162SAPE   H3Y18216   0.878   3.160   7.146 -0.4452 -1.9227  0.7892
  162SAPE   C3418217   1.025   3.190   7.308  0.1489 -0.1509 -0.8078
  162SAPE   H4X18218   1.016   3.300   7.314 -0.0983 -0.1857 -0.5304
  162SAPE   H4Y18219   1.130   3.168   7.334 -0.8263 -1.8177  2.1874
  162SAPE   C3518220   0.934   3.121   7.409  0.4948 -0.0617 -0.5222
  162SAPE   H5X18221   0.942   3.013   7.385  2.3124  0.1887 -1.1808
  162SAPE   H5Y18222   0.824   3.139   7.405 -0.4290 -3.5589  2.6841
  162SAPE   C3618223   0.979   3.158   7.552 -0.2711 -0.3634  0.7643
  162SAPE   H6X18224   0.975   3.267   7.577 -2.4272 -0.2225 -0.0132
  162SAPE   H6Y18225   1.084   3.125   7.568  0.3497 -0.4083 -2.6271
  162SAPE   C3718226   0.894   3.090   7.651  0.6783 -0.4020 -0.0213
  162SAPE   H7X18227   0.904   2.981   7.633  2.9019 -0.1991 -0.3081
  162SAPE   H7Y18228   0.791   3.128   7.634  0.4382 -0.8692  0.3623
  162SAPE   C3818229   0.948   3.113   7.798  0.0618  0.3748 -0.0024
  162SAPE   H8X18230   0.957   3.223   7.804 -0.7628  0.4508 -0.1050
  162SAPE   H8Y18231   1.039   3.049   7.804  0.6272  1.3275  2.9326
  162SAPE   C3918232   0.865   3.054   7.911  0.4575 -0.1297 -0.1699
  162SAPE   H9X18233   0.840   2.947   7.895  0.9974 -0.9215  3.4233
  162SAPE   H9Y18234   0.767   3.107   7.903 -0.1720 -1.0467  1.0012
  162SAPE  C31018235   0.928   3.073   8.054 -0.3488  0.4651  0.1102
  162SAPE  H10X18236   0.849   3.099   8.128  0.3942 -1.6285  1.7160
  162SAPE  H10Y18237   0.989   3.166   8.049 -2.0412  1.7403  1.4287
  162SAPE  C31118238   1.000   2.950   8.100 -0.2921  0.5325  0.3763
  162SAPE  H11X18239   1.080   2.923   8.027 -1.3431  0.1806 -0.6685
  162SAPE  H11Y18240   0.929   2.865   8.111 -0.3778  0.4660 -0.5853
  162SAPE  C31218241   1.068   2.972   8.232 -0.2036  0.8722 -0.3557
  162SAPE  H12X18242   1.002   2.957   8.319 -0.2774 -0.3169 -0.5879
  162SAPE  H12Y18243   1.100   3.077   8.217 -1.6638  1.1761 -1.5478
  162SAPE  C31318244   1.194   2.872   8.246 -0.2496  0.0248 -0.2004
  162SAPE  H13X18245   1.249   2.895   8.152 -3.1257  1.4651 -1.6568
  162SAPE  H13Y18246   1.175   2.763   8.251  0.8055 -0.1426  0.7146
  162SAPE  C31418247   1.282   2.918   8.357  0.1416 -0.3310 -0.5076
  162SAPE  H14X18248   1.230   2.876   8.446  0.7249  0.4600  0.2211
  162SAPE  H14Y18249   1.283   3.029   8.354  2.9417 -0.3088 -1.6395
  162SAPE  C31518250   1.427   2.864   8.332 -0.2954  0.1640 -0.4858
  162SAPE  H15X18251   1.449   2.876   8.223  1.4407  0.4291 -0.1360
  162SAPE  H15Y18252   1.421   2.756   8.358 -0.6295  0.0787 -0.9053
  162SAPE  C31618253   1.541   2.933   8.407 -0.4921  0.1057 -0.4809
  162SAPE  H16X18254   1.518   3.042   8.413  1.4465  0.7281 -2.7245
  162SAPE  H16Y18255   1.633   2.920   8.346 -0.7094  0.4207 -0.8827
  162SAPE  C31718256   1.555   2.897   8.559 -0.4249 -0.4266  0.4377
  162SAPE  H17X18257   1.534   2.788   8.572 -0.5751 -0.5264 -0.5204
  162SAPE  H17Y18258   1.480   2.938   8.629  0.6406  0.8111  0.8839
  162SAPE  C31818259   1.699   2.926   8.619  0.1338 -0.4710 -0.7889
  162SAPE  H18X18260   1.725   3.034   8.626 -0.5954 -0.3159 -0.4424
  162SAPE  H18Y18261   1.771   2.886   8.545  1.4416  0.7095 -0.2073
  162SAPE  H18Z18262   1.698   2.886   8.723 -0.3492  0.6970 -0.3290
  163SAPE     N18263   6.316   0.575   6.199 -0.2682 -0.1735  0.1637
  163SAPE   HN118264   6.236   0.624   6.242 -0.5298 -0.7113  0.2948
  163SAPE   HN218265   6.393   0.644   6.185 -0.4120 -0.0050  0.2027
  163SAPE   HN318266   6.272   0.529   6.117 -2.3157 -1.7489  2.0538
  163SAPE   C1218267   6.353   0.469   6.295 -0.2818  0.4168 -0.3823
  163SAPE  H12A18268   6.450   0.430   6.259 -0.5039 -0.4039 -0.1128
  163SAPE  H12B18269   6.270   0.395   6.289  1.2488 -1.5191  1.1215
  163SAPE   C1118270   6.368   0.530   6.431  0.0404  0.4380 -1.0141
  163SAPE  H11A18271   6.465   0.582   6.444 -0.3226  0.9642 -0.3554
  163SAPE  H11B18272   6.368   0.440   6.496  0.8022  1.8524  1.0219
  163SAPE     P18273   6.229   0.642   6.618  0.3081 -0.2851  0.0287
  163SAPE   O1318274   6.128   0.751   6.624 -0.2895 -0.4555 -0.8370
  163SAPE   O1418275   6.189   0.519   6.684 -0.4192 -0.1281 -0.1310
  163SAPE   O1218276   6.260   0.618   6.462  0.0592  0.4360  0.2457
  163SAPE   O1118277   6.364   0.707   6.665  0.4290 -0.0543 -0.4468
  163SAPE    C118278   6.445   0.668   6.774  0.4350 -0.1731  0.2170
  163SAPE    HA18279   6.438   0.558   6.787 -0.4708 -0.6904 -3.5401
  163SAPE    HB18280   6.550   0.693   6.748 -0.6815  1.6737 -3.1524
  163SAPE    C218281   6.428   0.751   6.903 -0.1199  0.7567 -0.4585
  163SAPE    HS18282   6.514   0.718   6.964 -0.0844  1.4340 -0.1291
  163SAPE   O2118283   6.305   0.737   6.965  0.7092 -0.2727 -0.3195
  163SAPE   C2118284   6.283   0.613   7.009  0.0248  0.7090 -0.1756
  163SAPE   O2218285   6.365   0.524   7.004  0.2357  0.1860 -0.1629
  163SAPE   C2218286   6.143   0.601   7.070 -0.5669 -0.1107 -0.1702
  163SAPE   H2R18287   6.085   0.696   7.071 -0.3915  0.0105  1.5105
  163SAPE   H2S18288   6.084   0.532   7.006 -1.4457 -0.4169  0.9386
  163SAPE    C318289   6.442   0.899   6.876 -0.1427  0.0073  0.2481
  163SAPE    HX18290   6.340   0.941   6.857  0.1233  0.8694  0.6921
  163SAPE    HY18291   6.502   0.909   6.783  0.8922 -2.3408  0.6077
  163SAPE   O3118292   6.487   0.970   6.993  0.4253 -0.1416 -0.4856
  163SAPE   C3118293   6.621   0.987   7.006 -0.3644 -0.0949  0.3091
  163SAPE   O3218294   6.704   0.948   6.930 -0.0984 -0.1598 -0.4534
  163SAPE   C3218295   6.646   1.076   7.128 -0.1283  0.3874 -0.0984
  163SAPE   H2X18296   6.544   1.105   7.163 -0.4248 -2.0997  1.3148
  163SAPE   H2Y18297   6.698   1.162   7.082  0.2514  0.1426 -0.1254
  163SAPE   C2318298   6.148   0.533   7.212  0.4130 -0.3158 -0.3530
  163SAPE   H3R18299   6.229   0.580   7.272  2.5017 -2.3365 -1.4363
  163SAPE   H3S18300   6.164   0.423   7.207  0.7011 -0.2425 -1.2792
  163SAPE   C2418301   6.006   0.540   7.283  0.8809  0.2552  0.2928
  163SAPE   H4R18302   6.020   0.505   7.388  0.4117  2.2154  1.0645
  163SAPE   H4S18303   5.940   0.477   7.219  2.5693 -0.9415 -0.3339
  163SAPE   C2518304   5.939   0.677   7.280  0.4511  0.0435  0.2291
  163SAPE   H5R18305   5.860   0.696   7.205 -0.3321 -2.9762  0.1761
  163SAPE   C2618306   5.987   0.783   7.351  0.2191 -0.2040 -0.8516
  163SAPE   H6R18307   5.928   0.876   7.347 -0.0938 -0.1839  1.8772
  163SAPE   C2718308   6.099   0.777   7.451  0.0695  0.3229 -0.0626
  163SAPE   H7R18309   6.201   0.785   7.407  1.2947  0.2657  2.5763
  163SAPE   H7S18310   6.091   0.677   7.500 -0.2794 -0.0672 -0.8903
  163SAPE   C2818311   6.076   0.891   7.545  0.4034 -0.6295 -0.7481
  163SAPE   H8R18312   6.092   0.991   7.503 -0.3110 -1.2104 -2.5059
  163SAPE   C2918313   6.030   0.884   7.674 -0.0930 -0.0942 -0.6011
  163SAPE   H9R18314   6.024   0.976   7.733 -1.0898 -0.3629 -0.2648
  163SAPE  C21018315   6.004   0.749   7.756 -0.6458  0.3845  0.4627
  163SAPE  H10R18316   5.964   0.679   7.680 -1.8770  2.2384 -0.7081
  163SAPE  H10S18317   5.916   0.757   7.824 -0.7697 -1.0340  0.4841
  163SAPE  C21118318   6.124   0.710   7.838  0.8104 -0.2941 -0.3987
  163SAPE  H11R18319   6.204   0.785   7.843  0.4252  0.0420  0.8441
  163SAPE  C21218320   6.134   0.594   7.901 -0.1195 -0.1257  0.0457
  163SAPE  H12R18321   6.231   0.584   7.951  1.6799  0.5776 -3.0502
  163SAPE  C21318322   6.034   0.478   7.902 -0.4628  0.1294  0.3587
  163SAPE  H13R18323   5.948   0.490   7.833 -0.2165  1.1342  0.2090
  163SAPE  H13S18324   5.988   0.473   8.002 -3.3001  1.7936 -0.7616
  163SAPE  C21418325   6.091   0.342   7.875 -0.1612  0.9269  0.4961
  163SAPE  H14R18326   6.128   0.333   7.772  1.8441  0.1106  1.2384
  163SAPE  C21518327   6.103   0.227   7.949 -0.3022 -0.4459 -0.8675
  163SAPE  H15R18328   6.146   0.136   7.906 -2.0746 -1.4715 -0.5998
  163SAPE  C21618329   6.042   0.203   8.091 -0.4327  0.2464  0.4315
  163SAPE  H16R18330   6.010   0.294   8.146  0.6126 -1.6391  4.5410
  163SAPE  H16S18331   6.122   0.153   8.150  0.3031  0.3730 -0.4380
  163SAPE  C21718332   5.933   0.089   8.109  0.5849 -0.2476 -0.6259
  163SAPE  H17R18333   5.959  -0.007   8.060  0.7050 -0.5447  0.0051
  163SAPE  H17S18334   5.839   0.124   8.061 -0.2976  0.7898  1.6699
  163SAPE  C21818335   5.893   0.061   8.259 -0.2654 -0.8297  0.3592
  163SAPE  H18R18336   5.830   0.146   8.294  2.0330 -0.4713  4.1851
  163SAPE  H18S18337   5.985   0.068   8.321 -0.3769  0.9258  0.3950
  163SAPE  C21918338   5.813  -0.067   8.266  0.2639  0.1548 -0.4239
  163SAPE  H19R18339   5.864  -0.143   8.203 -1.7068  0.3940 -2.3941
  163SAPE  H19S18340   5.710  -0.059   8.227  0.6727 -0.9952 -1.8593
  163SAPE  C22018341   5.807  -0.111   8.407 -0.8050 -0.1995  0.0178
  163SAPE  H20R18342   5.757  -0.036   8.471 -0.1201  0.8585 -0.6646
  163SAPE  H20S18343   5.913  -0.126   8.439 -0.8794 -1.7864 -0.3582
  163SAPE  H20T18344   5.751  -0.206   8.422  1.1194 -1.0304  2.7837
  163SAPE   C3318345   6.721   1.014   7.245 -0.2408  0.2859 -0.3638
  163SAPE   H3X18346   6.782   1.089   7.300 -0.2452  0.4080 -0.5251
  163SAPE   H3Y18347   6.795   0.938   7.214 -0.2761 -0.2126  0.7434
  163SAPE   C3418348   6.615   0.937   7.333  0.0147 -0.9732  0.3482
  163SAPE   H4X18349   6.583   0.840   7.289 -0.5972 -0.3282 -0.6834
  163SAPE   H4Y18350   6.530   1.006   7.347 -0.6248 -1.5003 -0.7775
  163SAPE   C3518351   6.670   0.888   7.471 -0.1331  0.3402 -0.5494
  163SAPE   H5X18352   6.707   0.977   7.528 -0.5096  0.4455 -0.4712
  163SAPE   H5Y18353   6.760   0.825   7.453  1.3794  1.3349  2.7305
  163SAPE   C3618354   6.554   0.847   7.561 -0.7801 -0.1820 -0.1217
  163SAPE   H6X18355   6.521   0.759   7.501 -1.5672  0.7753 -1.1508
  163SAPE   H6Y18356   6.470   0.918   7.551  0.0417  0.5946 -1.9667
  163SAPE   C3718357   6.595   0.844   7.708  0.5136 -0.6754  0.0205
  163SAPE   H7X18358   6.657   0.934   7.729  0.5252 -1.0049  1.4938
  163SAPE   H7Y18359   6.663   0.757   7.712  1.5903 -0.0015 -2.2016
  163SAPE   C3818360   6.479   0.829   7.812  0.6731  0.2428  0.0013
  163SAPE   H8X18361   6.411   0.747   7.780  0.6511 -0.1627  1.0717
  163SAPE   H8Y18362   6.408   0.914   7.821 -0.9729 -1.1901  1.3088
  163SAPE   C3918363   6.535   0.786   7.952 -0.3098  0.1263 -0.0618
  163SAPE   H9X18364   6.628   0.726   7.949  0.7715  1.7333  0.0368
  163SAPE   H9Y18365   6.448   0.731   7.994  1.5648 -1.9857  1.1982
  163SAPE  C31018366   6.554   0.911   8.044 -0.0014  0.1014 -0.4795
  163SAPE  H10X18367   6.456   0.962   8.049 -0.0006  0.1344 -0.7656
  163SAPE  H10Y18368   6.633   0.977   8.003  0.8288 -0.9288 -0.5908
  163SAPE  C31118369   6.586   0.875   8.187  0.3002  0.1088  0.5761
  163SAPE  H11X18370   6.679   0.815   8.195  1.5001  1.5130 -1.6492
  163SAPE  H11Y18371   6.504   0.806   8.215 -0.0429  0.8477  1.4578
  163SAPE  C31218372   6.597   0.997   8.281  0.4085  0.3062 -0.3385
  163SAPE  H12X18373   6.507   1.061   8.275  0.7660  1.0083  1.2064
  163SAPE  H12Y18374   6.675   1.066   8.241 -0.0518  0.6828 -0.5981
  163SAPE  C31318375   6.626   0.970   8.428  0.2830  0.4782 -0.5332
  163SAPE  H13X18376   6.628   1.058   8.496  1.6618 -0.8483  1.2544
  163SAPE  H13Y18377   6.726   0.925   8.443  0.4248  1.0952  0.4860
  163SAPE  C31418378   6.520   0.876   8.489  0.2167  0.6849 -0.1333
  163SAPE  H14X18379   6.530   0.777   8.438  0.2282  1.2620 -1.2752
  163SAPE  H14Y18380   6.422   0.916   8.458  0.6503  0.6585 -1.6017
  163SAPE  C31518381   6.534   0.856   8.644  0.7553  0.0057 -0.2898
  163SAPE  H15X18382   6.541   0.957   8.690  1.5591 -1.0022  1.9896
  163SAPE  H15Y18383   6.625   0.793   8.654  0.6939 -0.0032  0.2469
  163SAPE  C31618384   6.413   0.783   8.702  0.7682  0.6909  0.3786
  163SAPE  H16X18385   6.451   0.697   8.762 -0.2903  0.3077  0.5170
  163SAPE  H16Y18386   6.357   0.730   8.622 -0.7453  1.3214  0.9890
  163SAPE  C31718387   6.317   0.861   8.784 -0.1977  0.7393 -0.2966
  163SAPE  H17X18388   6.383   0.930   8.840 -0.2082  2.0925 -1.8752
  163SAPE  H17Y18389   6.274   0.790   8.858  1.4262  0.9072  0.8399
  163SAPE  C31818390   6.221   0.955   8.714  0.3251  0.7113  0.0506
  163SAPE  H18X18391   6.150   0.883   8.669  1.7285 -0.2224 -0.7779
  163SAPE  H18Y18392   6.271   1.017   8.637 -0.5769 -0.4885 -1.5721
  163SAPE  H18Z18393   6.163   1.014   8.787 -0.3278 -0.2063  0.2932
  164SAPE     N18394   0.848   5.103   6.136  0.3067 -0.3776  0.4081
  164SAPE   HN118395   0.915   5.066   6.066  2.5876 -0.5993  2.5809
  164SAPE   HN218396   0.849   5.049   6.225 -1.1649 -1.5334 -0.2197
  164SAPE   HN318397   0.753   5.086   6.097  0.6794  1.0092 -1.2456
  164SAPE   C1218398   0.866   5.250   6.144 -0.6073 -0.5379  0.7045
  164SAPE  H12A18399   0.788   5.294   6.209 -1.2911 -0.4833 -0.1421
  164SAPE  H12B18400   0.851   5.291   6.042  0.4877 -1.5832  0.0941
  164SAPE   C1118401   1.012   5.294   6.189 -0.1708 -0.2458 -0.4445
  164SAPE  H11A18402   1.088   5.236   6.133  2.9811  0.5936  2.6212
  164SAPE  H11B18403   1.025   5.271   6.297  0.4080  0.2827 -0.3947
  164SAPE     P18404   0.944   5.544   6.223 -0.1758 -0.4142  0.1820
  164SAPE   O1318405   1.027   5.667   6.217  0.3116 -0.4392 -0.0178
  164SAPE   O1418406   0.814   5.534   6.145  0.2915  0.2349 -0.2275
  164SAPE   O1218407   1.036   5.429   6.173  0.3380  0.0213 -0.1078
  164SAPE   O1118408   0.922   5.513   6.376 -0.2262  0.1456 -0.0936
  164SAPE    C118409   1.032   5.528   6.468 -0.2720  0.9302 -0.0189
  164SAPE    HA18410   1.010   5.465   6.557  0.3609  1.8377  0.8087
  164SAPE    HB18411   1.132   5.500   6.429 -0.3351  3.0362 -1.8830
  164SAPE    C218412   1.036   5.675   6.512 -0.2936 -0.2105  0.2702
  164SAPE    HS18413   1.077   5.741   6.433 -0.1835 -0.8712 -0.2316
  164SAPE   O2118414   1.113   5.690   6.633  0.0311 -0.2755 -0.5473
  164SAPE   C2118415   1.247   5.670   6.629 -0.2805 -0.4601  0.7166
  164SAPE   O2218416   1.314   5.650   6.525  0.9211 -0.5924  0.2188
  164SAPE   C2218417   1.312   5.662   6.774 -0.4103  0.2221  0.0937
  164SAPE   H2R18418   1.362   5.562   6.781  0.5673  0.7544  1.0093
  164SAPE   H2S18419   1.387   5.742   6.792  0.2965 -0.4260  0.1061
  164SAPE    C318420   0.888   5.730   6.555 -0.0549  0.6154  0.1382
  164SAPE    HX18421   0.813   5.697   6.479 -0.4302 -1.4179  1.3283
  164SAPE    HY18422   0.875   5.840   6.561 -0.4471  0.4820  2.3075
  164SAPE   O3118423   0.839   5.667   6.674 -0.0495  0.0666  0.0976
  164SAPE   C3118424   0.715   5.705   6.706  0.5163  0.3192  0.7038
  164SAPE   O3218425   0.657   5.792   6.643 -0.7256  0.2436  0.2661
  164SAPE   C3218426   0.658   5.642   6.831 -0.6890 -0.0417  0.5541
  164SAPE   H2X18427   0.556   5.616   6.796 -0.5667  0.8627 -0.5469
  164SAPE   H2Y18428   0.649   5.720   6.909 -1.3806  0.4219  0.0173
  164SAPE   C2318429   1.202   5.683   6.880  0.4124  0.4900  0.1376
  164SAPE   H3R18430   1.113   5.619   6.865  1.2682 -0.9057  0.7502
  164SAPE   H3S18431   1.156   5.783   6.874 -0.4651  0.0557 -0.6068
  164SAPE   C2418432   1.240   5.666   7.029 -0.0798 -0.2889  0.4604
  164SAPE   H4R18433   1.149   5.695   7.086 -0.1125  1.2604 -0.3264
  164SAPE   H4S18434   1.318   5.741   7.055 -0.2311  0.6320 -1.5598
  164SAPE   C2518435   1.295   5.534   7.085 -0.7556  0.3353 -0.5166
  164SAPE   H5R18436   1.310   5.451   7.014 -1.4587 -0.9890  0.8190
  164SAPE   C2618437   1.331   5.503   7.216 -0.1724 -0.3174  1.0293
  164SAPE   H6R18438   1.329   5.396   7.239  1.3099 -0.3248  1.2181
  164SAPE   C2718439   1.301   5.597   7.328 -0.2880  0.1497 -0.3480
  164SAPE   H7R18440   1.190   5.604   7.330 -0.3286 -0.5223  0.2351
  164SAPE   H7S18441   1.331   5.700   7.301  1.8247 -0.0556  0.9556
  164SAPE   C2818442   1.368   5.556   7.455  0.4015  0.0477 -0.4606
  164SAPE   H8R18443   1.477   5.542   7.447  0.4747  1.3168 -2.1892
  164SAPE   C2918444   1.307   5.526   7.570 -0.7303  0.6144  0.6765
  164SAPE   H9R18445   1.372   5.523   7.659  0.8451  0.3626 -0.4406
  164SAPE  C21018446   1.160   5.531   7.600  0.0194  0.5540 -0.3725
  164SAPE  H10R18447   1.107   5.556   7.506  2.3290  2.6869 -1.2343
  164SAPE  H10S18448   1.136   5.614   7.670  0.9265  0.5718 -0.0593
  164SAPE  C21118449   1.111   5.411   7.678  0.5709 -0.5497  0.1400
  164SAPE  H11R18450   1.027   5.358   7.630  2.2507 -1.1539 -2.3319
  164SAPE  C21218451   1.132   5.384   7.809 -0.0139  0.2615 -0.3860
  164SAPE  H12R18452   1.085   5.297   7.858  2.0856  0.4828  2.2923
  164SAPE  C21318453   1.229   5.450   7.908  0.2559  0.1146  0.6284
  164SAPE  H13R18454   1.311   5.486   7.843 -0.9300 -0.4956 -1.2746
  164SAPE  H13S18455   1.265   5.373   7.980 -2.1409 -0.7090  1.0623
  164SAPE  C21418456   1.165   5.555   7.994 -0.4181  0.4824 -0.2040
  164SAPE  H14R18457   1.142   5.649   7.940  2.5300  0.8113 -1.0596
  164SAPE  C21518458   1.149   5.547   8.130 -0.1787  1.3799  0.3070
  164SAPE  H15R18459   1.094   5.630   8.175 -0.3402  0.1398  2.5475
  164SAPE  C21618460   1.201   5.423   8.212 -0.2486 -0.7309 -0.7203
  164SAPE  H16R18461   1.295   5.452   8.264 -0.7068  2.7207 -1.5269
  164SAPE  H16S18462   1.213   5.326   8.159  1.5764 -1.1286  0.3295
  164SAPE  C21718463   1.093   5.390   8.325 -0.0255  0.8818  0.6733
  164SAPE  H17R18464   0.999   5.396   8.266  1.5120 -2.0772 -2.3928
  164SAPE  H17S18465   1.112   5.462   8.407  1.5018 -1.2825  2.3224
  164SAPE  C21818466   1.110   5.242   8.373 -0.0629  0.4068 -0.3784
  164SAPE  H18R18467   1.212   5.213   8.407 -0.5281  1.0021  1.6172
  164SAPE  H18S18468   1.084   5.172   8.290 -1.5598  1.1715 -0.5770
  164SAPE  C21918469   1.027   5.221   8.504  0.0531  0.6476  0.0842
  164SAPE  H19R18470   0.931   5.276   8.498 -0.0786  0.4207  0.0920
  164SAPE  H19S18471   1.096   5.249   8.586 -0.2631  2.6988 -0.3006
  164SAPE  C22018472   0.987   5.078   8.531  0.2190 -0.3707 -0.0335
  164SAPE  H20R18473   0.915   5.042   8.454 -1.1085  1.7996  0.0819
  164SAPE  H20S18474   0.940   5.084   8.631  0.4324 -2.2242  0.2032
  164SAPE  H20T18475   1.073   5.009   8.537  0.2449 -0.5977 -2.0620
  164SAPE   C3318476   0.721   5.507   6.872  0.3352 -0.4979 -0.5162
  164SAPE   H3X18477   0.741   5.452   6.778  2.1546 -0.3951 -0.2178
  164SAPE   H3Y18478   0.629   5.465   6.916 -0.1967  1.1350  0.0091
  164SAPE   C3418479   0.839   5.499   6.973  0.1714  0.3702  0.2613
  164SAPE   H4X18480   0.918   5.564   6.930  0.4452  0.1966  0.4991
  164SAPE   H4Y18481   0.877   5.394   6.968 -1.5434 -0.2422 -1.0682
  164SAPE   C3518482   0.816   5.542   7.113  0.1748  0.1381  0.3482
  164SAPE   H5X18483   0.762   5.638   7.112  1.7229  1.0463  0.4597
  164SAPE   H5Y18484   0.911   5.554   7.170  0.3598 -0.9212  0.2917
  164SAPE   C3618485   0.728   5.445   7.191 -0.1580  0.3074  0.0907
  164SAPE   H6X18486   0.764   5.346   7.154  1.8098  0.9136  0.2907
  164SAPE   H6Y18487   0.628   5.465   7.146  0.0910  0.4039 -0.4234
  164SAPE   C3718488   0.744   5.455   7.341  0.2858 -0.0759 -0.2195
  164SAPE   H7X18489   0.721   5.562   7.362 -0.8358  0.0847 -2.0178
  164SAPE   H7Y18490   0.851   5.431   7.356 -0.2632 -2.3130  0.4934
  164SAPE   C3818491   0.655   5.378   7.441  0.6348 -0.5691 -0.3597
  164SAPE   H8X18492   0.717   5.286   7.448  1.0774 -0.1157  3.2617
  164SAPE   H8Y18493   0.556   5.345   7.403  0.7540 -1.6303  0.2120
  164SAPE   C3918494   0.635   5.441   7.580  0.8979 -0.1269  0.7228
  164SAPE   H9X18495   0.585   5.365   7.644 -1.2750  1.1558  0.6607
  164SAPE   H9Y18496   0.558   5.518   7.560  1.1741  0.1361  0.6826
  164SAPE  C31018497   0.756   5.504   7.646 -0.5287 -0.0760  0.0601
  164SAPE  H10X18498   0.769   5.602   7.595  2.6692 -0.1202  0.5955
  164SAPE  H10Y18499   0.848   5.442   7.638  0.1482  0.9238  0.0000
  164SAPE  C31118500   0.728   5.535   7.796  0.6227 -0.0357  0.3843
  164SAPE  H11X18501   0.704   5.443   7.852 -2.3574  0.6131  0.3025
  164SAPE  H11Y18502   0.637   5.599   7.794  0.7860  0.3196  2.2849
  164SAPE  C31218503   0.833   5.629   7.860 -0.0698 -0.4625 -0.6725
  164SAPE  H12X18504   0.850   5.724   7.806 -1.3249  0.1187 -0.0806
  164SAPE  H12Y18505   0.930   5.574   7.857 -0.1389 -0.9238  2.5756
  164SAPE  C31318506   0.801   5.674   8.009  0.0632 -0.7079 -0.0243
  164SAPE  H13X18507   0.882   5.736   8.052 -1.3339 -0.3676  2.2649
  164SAPE  H13Y18508   0.795   5.587   8.078  0.8365  0.5297  1.6683
  164SAPE  C31418509   0.677   5.760   8.021  0.2489  0.5794 -0.3693
  164SAPE  H14X18510   0.595   5.698   7.980  3.5877 -3.2153 -2.0663
  164SAPE  H14Y18511   0.684   5.848   7.953  1.3330  0.9999  0.2394
  164SAPE  C31518512   0.655   5.807   8.165  0.0054  0.5281  0.1315
  164SAPE  H15X18513   0.752   5.849   8.201  0.4843  1.0426 -1.6744
  164SAPE  H15Y18514   0.624   5.720   8.226  1.4147 -1.6398 -2.0697
  164SAPE  C31618515   0.539   5.907   8.173  0.4467 -0.0043 -0.2119
  164SAPE  H16X18516   0.461   5.882   8.098  0.9697  4.0631 -2.4376
  164SAPE  H16Y18517   0.584   6.005   8.147  0.2885  0.7722  2.2325
  164SAPE  C31718518   0.481   5.923   8.311 -0.0884  0.1364  0.3563
  164SAPE  H17X18519   0.408   5.843   8.333 -2.5799  1.9498 -0.7833
  164SAPE  H17Y18520   0.417   6.012   8.331  0.1986  0.2910  0.5952
  164SAPE  C31818521   0.577   5.926   8.428 -0.3534 -0.0554  0.0035
  164SAPE  H18X18522   0.638   5.834   8.424 -2.5243 -1.5354 -1.0185
  164SAPE  H18Y18523   0.525   5.938   8.526  0.9708 -1.7460  0.9634
  164SAPE  H18Z18524   0.654   6.005   8.415  1.7205 -1.8821  0.6419
  165SAPE     N18525   3.107   3.697   5.918  0.7618 -0.4203  0.3059
  165SAPE   HN118526   3.115   3.753   5.831 -0.4468 -0.7100 -0.0041
  165SAPE   HN218527   3.202   3.662   5.942 -0.2627 -2.4274  1.7134
  165SAPE   HN318528   3.047   3.615   5.900  0.1915  0.6413 -3.4208
  165SAPE   C1218529   3.091   3.780   6.041  0.0746 -0.5197 -0.2113
  165SAPE  H12A18530   2.996   3.837   6.034 -1.3911 -2.7729  0.4135
  165SAPE  H12B18531   3.183   3.839   6.060 -0.6032  0.6283 -0.4423
  165SAPE   C1118532   3.073   3.696   6.170  0.6022 -0.0150 -0.1629
  165SAPE  H11A18533   2.972   3.649   6.176  1.4474 -2.5063 -2.8723
  165SAPE  H11B18534   3.068   3.764   6.257 -1.2484 -0.5197  0.1793
  165SAPE     P18535   3.288   3.586   6.279  0.4539  0.3644  0.4342
  165SAPE   O1318536   3.378   3.483   6.226  0.0258 -0.9149 -0.1344
  165SAPE   O1418537   3.342   3.722   6.275 -0.0601  0.9253  0.0655
  165SAPE   O1218538   3.156   3.582   6.183  0.0559 -0.3336 -0.0568
  165SAPE   O1118539   3.239   3.551   6.422  0.7422 -0.7110 -0.1851
  165SAPE    C118540   3.124   3.469   6.439  0.0357 -0.0306  0.8967
  165SAPE    HA18541   3.044   3.546   6.439  1.6400  1.8711 -2.1218
  165SAPE    HB18542   3.096   3.405   6.353 -0.5470  0.9358  0.3448
  165SAPE    C218543   3.115   3.396   6.570 -0.4962  0.6658 -0.4008
  165SAPE    HS18544   3.019   3.342   6.587  0.0680 -0.2507 -0.0377
  165SAPE   O2118545   3.148   3.485   6.678  0.5419 -0.7729 -0.4186
  165SAPE   C2118546   3.045   3.560   6.714 -0.7288 -0.1102  0.2643
  165SAPE   O2218547   2.926   3.539   6.674 -0.1512  0.3106 -0.2909
  165SAPE   C2218548   3.068   3.689   6.796 -0.0258  0.3538  0.2666
  165SAPE   H2R18549   3.174   3.720   6.810 -0.1982  1.2671 -0.4084
  165SAPE   H2S18550   3.031   3.769   6.728 -0.3319 -1.9215 -2.4205
  165SAPE    C318551   3.228   3.291   6.576 -0.5528  0.0791 -0.4224
  165SAPE    HX18552   3.325   3.327   6.537  0.0414 -0.6867  0.2957
  165SAPE    HY18553   3.191   3.205   6.516  2.3616 -1.1302 -0.6601
  165SAPE   O3118554   3.243   3.233   6.714 -0.7420  0.4198  0.1184
  165SAPE   C3118555   3.343   3.279   6.789  0.4735 -0.6421  0.1818
  165SAPE   O3218556   3.425   3.367   6.751 -0.2200 -0.1599  0.0092
  165SAPE   C3218557   3.361   3.212   6.923  0.7015  0.4291  0.5879
  165SAPE   H2X18558   3.448   3.144   6.907  0.2579  0.2112 -1.1181
  165SAPE   H2Y18559   3.272   3.150   6.942  0.7283  0.9169  2.4577
  165SAPE   C2318560   2.983   3.690   6.936 -0.1541 -0.1021  0.4165
  165SAPE   H3R18561   2.883   3.661   6.897  0.9011 -0.2351 -2.4731
  165SAPE   H3S18562   2.985   3.797   6.965  0.3486 -0.1566  0.5814
  165SAPE   C2418563   3.049   3.607   7.047 -0.3670  0.6532  0.4636
  165SAPE   H4R18564   3.159   3.623   7.056 -0.2269  0.2894 -0.5126
  165SAPE   H4S18565   3.040   3.501   7.016 -2.6309  1.7818 -3.2494
  165SAPE   C2518566   2.956   3.626   7.162  0.3348 -0.1413  0.2115
  165SAPE   H5R18567   2.849   3.617   7.142 -0.0168  1.4176  1.2102
  165SAPE   C2618568   3.004   3.660   7.287 -0.0110 -0.2458 -0.3983
  165SAPE   H6R18569   2.934   3.680   7.369  1.5215 -0.9902  1.1482
  165SAPE   C2718570   3.150   3.702   7.320 -0.0458  0.0611  0.1415
  165SAPE   H7R18571   3.218   3.631   7.269 -1.3193 -0.5670 -0.7490
  165SAPE   H7S18572   3.155   3.703   7.431  0.9893  1.7503  0.1082
  165SAPE   C2818573   3.171   3.845   7.283  0.3672  0.0395  0.3567
  165SAPE   H8R18574   3.083   3.909   7.304 -1.7049 -2.8275  0.9362
  165SAPE   C2918575   3.276   3.890   7.214 -0.9467  0.3211 -0.2451
  165SAPE   H9R18576   3.270   3.992   7.173  0.6466  0.5400  0.0002
  165SAPE  C21018577   3.401   3.807   7.173  0.0889 -0.3512  0.3880
  165SAPE  H10R18578   3.397   3.712   7.232 -1.3695 -0.8144 -0.4032
  165SAPE  H10S18579   3.493   3.859   7.205  0.1606  2.0557 -3.1650
  165SAPE  C21118580   3.401   3.776   7.029 -0.0890 -0.5387  0.3007
  165SAPE  H11R18581   3.345   3.686   7.001  1.2438 -0.9905 -1.0502
  165SAPE  C21218582   3.453   3.853   6.931 -0.3959 -0.3729 -0.7766
  165SAPE  H12R18583   3.462   3.809   6.830 -0.7985  0.0897 -1.0153
  165SAPE  C21318584   3.516   3.989   6.969  0.0354  0.2625  0.4073
  165SAPE  H13R18585   3.599   4.001   6.897 -0.0472  1.4945  0.5091
  165SAPE  H13S18586   3.568   4.002   7.067 -0.1531  1.3379  0.3656
  165SAPE  C21418587   3.417   4.102   6.930  0.7063  0.5678 -0.3305
  165SAPE  H14R18588   3.314   4.064   6.921  0.1557  1.8788  0.2089
  165SAPE  C21518589   3.443   4.232   6.907  0.3176  0.3972  0.4948
  165SAPE  H15R18590   3.361   4.297   6.873  1.3704  0.6370 -1.7435
  165SAPE  C21618591   3.566   4.310   6.919 -0.0688  0.1238  0.2662
  165SAPE  H16R18592   3.610   4.316   6.817 -0.2868 -0.8519  0.1072
  165SAPE  H16S18593   3.640   4.250   6.977 -0.6590  0.3376  1.2578
  165SAPE  C21718594   3.553   4.449   6.991  0.3893 -0.2090 -0.1508
  165SAPE  H17R18595   3.462   4.502   6.956  0.8220 -1.2838 -3.1803
  165SAPE  H17S18596   3.630   4.525   6.966 -1.3915  1.8216  0.1542
  165SAPE  C21818597   3.549   4.418   7.144 -0.1052 -0.1365  0.3676
  165SAPE  H18R18598   3.650   4.392   7.180  0.0695  0.1899  0.1218
  165SAPE  H18S18599   3.478   4.337   7.171  0.1318  0.3062  2.4620
  165SAPE  C21918600   3.508   4.531   7.235 -0.0424  0.2590  0.6057
  165SAPE  H19R18601   3.516   4.497   7.340  1.5007  3.4725  1.6817
  165SAPE  H19S18602   3.402   4.556   7.212 -0.3419 -1.8039 -0.4446
  165SAPE  C22018603   3.583   4.657   7.213  0.9009  0.1559  0.7989
  165SAPE  H20R18604   3.692   4.636   7.225  1.1348 -0.5325 -1.9030
  165SAPE  H20S18605   3.561   4.744   7.278 -0.4341  0.8380 -0.5038
  165SAPE  H20T18606   3.565   4.699   7.112 -0.7663  1.9522  1.7925
  165SAPE   C3318607   3.371   3.321   7.032  0.2892 -0.3767 -0.2816
  165SAPE   H3X18608   3.280   3.385   7.041  1.7391  1.7188  0.4550
  165SAPE   H3Y18609   3.456   3.391   7.017 -0.5931  1.5490  2.7747
  165SAPE   C3418610   3.370   3.272   7.177 -0.1708  0.7659 -0.2801
  165SAPE   H4X18611   3.455   3.200   7.176 -1.5435 -0.9267 -0.7720
  165SAPE   H4Y18612   3.280   3.206   7.186  1.7519 -2.0322 -0.2998
  165SAPE   C3518613   3.359   3.369   7.296  0.2221 -0.0747 -0.1617
  165SAPE   H5X18614   3.271   3.431   7.271 -0.9859 -1.6722  0.0022
  165SAPE   H5Y18615   3.451   3.431   7.309 -0.4164  1.0290 -0.8186
  165SAPE   C3618616   3.324   3.306   7.433 -0.2888  0.3985  0.0096
  165SAPE   H6X18617   3.415   3.251   7.467  0.1332  0.9117 -0.2763
  165SAPE   H6Y18618   3.242   3.234   7.413  1.3564 -1.8470  0.8674
  165SAPE   C3718619   3.284   3.404   7.548 -0.5362 -0.0132 -0.4815
  165SAPE   H7X18620   3.177   3.435   7.548 -0.2922  0.9075 -2.0323
  165SAPE   H7Y18621   3.346   3.496   7.554 -1.0547  0.3193 -0.1104
  165SAPE   C3818622   3.303   3.348   7.684 -0.0770  0.5601  0.1918
  165SAPE   H8X18623   3.407   3.353   7.723 -0.2854  0.5896  0.7538
  165SAPE   H8Y18624   3.262   3.244   7.685  0.6029  0.1953 -2.1975
  165SAPE   C3918625   3.224   3.420   7.794 -0.4058 -0.1015 -0.2435
  165SAPE   H9X18626   3.116   3.411   7.767 -0.4062  1.7182 -1.0108
  165SAPE   H9Y18627   3.245   3.528   7.809 -1.4854  0.2544 -1.0678
  165SAPE  C31018628   3.230   3.357   7.932 -0.3848  0.1205 -0.0663
  165SAPE  H10X18629   3.334   3.378   7.967 -1.0290  0.3853  1.8377
  165SAPE  H10Y18630   3.199   3.250   7.926  0.2871 -0.1602  0.9779
  165SAPE  C31118631   3.140   3.435   8.028  0.5500  0.5472 -0.9602
  165SAPE  H11X18632   3.037   3.409   7.994  0.4975 -1.7712  0.7771
  165SAPE  H11Y18633   3.148   3.545   8.012 -0.8734  0.8726  0.3757
  165SAPE  C31218634   3.144   3.391   8.177 -0.3914 -0.7649  0.2584
  165SAPE  H12X18635   3.162   3.283   8.192 -0.6210 -0.9254 -0.6194
  165SAPE  H12Y18636   3.045   3.422   8.216 -0.3751  0.1392 -0.3938
  165SAPE  C31318637   3.248   3.471   8.258 -0.1063 -0.5860  0.6060
  165SAPE  H13X18638   3.244   3.579   8.232 -2.5926 -0.4900  1.1519
  165SAPE  H13Y18639   3.348   3.442   8.220 -0.6168  0.1681 -1.4518
  165SAPE  C31418640   3.238   3.474   8.411  0.3106  0.0844 -0.7388
  165SAPE  H14X18641   3.135   3.501   8.443  1.1280  1.8757  0.5636
  165SAPE  H14Y18642   3.305   3.549   8.460  2.3891 -1.3133 -1.2921
  165SAPE  C31518643   3.276   3.335   8.477  0.0474 -0.0947  0.0929
  165SAPE  H15X18644   3.383   3.320   8.449  0.5625  0.8302  1.4665
  165SAPE  H15Y18645   3.215   3.259   8.424 -3.1604  1.5475  1.2086
  165SAPE  C31618646   3.266   3.350   8.623 -0.1602  0.3420  0.0788
  165SAPE  H16X18647   3.159   3.358   8.651 -0.2191 -1.5401  0.5183
  165SAPE  H16Y18648   3.315   3.445   8.656  1.9040 -1.0239  1.1448
  165SAPE  C31718649   3.329   3.228   8.689  0.8038  0.2554 -0.0416
  165SAPE  H17X18650   3.293   3.133   8.645  1.8740  1.3753 -3.6893
  165SAPE  H17Y18651   3.303   3.228   8.797 -1.0868 -0.7008 -0.4561
  165SAPE  C31818652   3.482   3.224   8.697  0.1379  0.2713 -0.1841
  165SAPE  H18X18653   3.529   3.208   8.598 -0.5835 -0.2909 -0.4485
  165SAPE  H18Y18654   3.520   3.145   8.765  0.0674  0.5352  0.1654
  165SAPE  H18Z18655   3.532   3.314   8.739  0.7415 -0.5468  0.9244
  166SAPE     N18656   1.606   3.856   6.251  0.0184 -0.2027  0.3915
  166SAPE   HN118657   1.527   3.924   6.247  0.0373 -0.1007  1.5198
  166SAPE   HN218658   1.587   3.788   6.328 -0.3586 -1.4910 -0.7940
  166SAPE   HN318659   1.695   3.905   6.272  0.0648 -0.4405  0.7604
  166SAPE   C1218660   1.620   3.793   6.116  0.8224  0.6693 -0.3226
  166SAPE  H12A18661   1.535   3.722   6.109  0.5521  0.7863  1.3576
  166SAPE  H12B18662   1.711   3.729   6.118 -1.1669 -2.3255  0.9886
  166SAPE   C1118663   1.624   3.897   5.998 -0.2106  1.2763 -0.1818
  166SAPE  H11A18664   1.616   3.855   5.895 -1.7743  0.4994  0.2240
  166SAPE  H11B18665   1.719   3.952   5.980 -0.1583  0.7828 -1.5458
  166SAPE     P18666   1.398   4.021   5.912  0.8611 -0.5474  0.1134
  166SAPE   O1318667   1.459   4.111   5.807  0.1591  0.8423  0.3919
  166SAPE   O1418668   1.350   3.888   5.856 -0.0247  0.0791  0.3231
  166SAPE   O1218669   1.517   3.994   6.018 -0.5009 -0.3606  0.1603
  166SAPE   O1118670   1.286   4.093   5.992  0.0171 -0.4705  0.1393
  166SAPE    C118671   1.300   4.228   6.033 -0.5863 -0.1800  0.4393
  166SAPE    HA18672   1.380   4.288   5.984  0.1855 -0.2053  1.6148
  166SAPE    HB18673   1.201   4.279   6.035 -2.4137 -3.4063 -1.2256
  166SAPE    C218674   1.354   4.223   6.184  0.2362  0.4742 -0.4573
  166SAPE    HS18675   1.454   4.175   6.174 -1.0295 -2.0379 -2.2010
  166SAPE   O2118676   1.249   4.153   6.254  0.1158 -0.3308  0.2993
  166SAPE   C2118677   1.294   4.070   6.351 -0.7630 -0.3964 -0.2570
  166SAPE   O2218678   1.413   4.047   6.369  0.1551  0.1765 -0.2425
  166SAPE   C2218679   1.180   4.020   6.439 -0.1048 -0.5846  0.3662
  166SAPE   H2R18680   1.093   3.999   6.374  2.0899 -4.3347 -1.6782
  166SAPE   H2S18681   1.215   3.924   6.484 -0.9312 -0.6516  0.8961
  166SAPE    C318682   1.378   4.362   6.251  0.3291  0.7898  0.3629
  166SAPE    HX18683   1.287   4.423   6.235 -1.3962 -1.8006 -0.3757
  166SAPE    HY18684   1.464   4.402   6.193  0.0756  1.9114  0.7463
  166SAPE   O3118685   1.427   4.329   6.381 -0.2567 -0.1985  0.3445
  166SAPE   C3118686   1.385   4.416   6.474  0.2503 -0.1777  0.1787
  166SAPE   O3218687   1.311   4.507   6.446  0.1439  0.0904 -0.0563
  166SAPE   C3218688   1.448   4.383   6.608 -0.2186  0.0256  0.0570
  166SAPE   H2X18689   1.533   4.452   6.625  3.0044 -2.7069 -3.1217
  166SAPE   H2Y18690   1.497   4.284   6.622  1.0026  0.6542  0.3913
  166SAPE   C2318691   1.145   4.124   6.554 -0.4831  0.4139 -0.2802
  166SAPE   H3R18692   1.132   4.224   6.507  0.2170  1.0849  0.8942
  166SAPE   H3S18693   1.239   4.137   6.612  0.8200 -2.4480 -1.5836
  166SAPE   C2418694   1.037   4.085   6.658  0.2542 -0.2625  0.6433
  166SAPE   H4R18695   0.931   4.089   6.624  0.0809 -1.8653  0.9137
  166SAPE   H4S18696   1.025   4.161   6.738 -4.5698  1.3551 -1.2455
  166SAPE   C2518697   1.056   3.942   6.697 -0.5760  0.0051  0.2292
  166SAPE   H5R18698   1.033   3.864   6.622 -0.3142  0.3976 -0.2709
  166SAPE   C2618699   1.117   3.897   6.805 -0.2086 -0.8152 -0.1546
  166SAPE   H6R18700   1.123   3.788   6.799 -1.9114 -0.8521 -4.2714
  166SAPE   C2718701   1.172   3.970   6.922 -0.4565  0.0217 -0.2829
  166SAPE   H7R18702   1.224   4.064   6.894  0.1928  0.3863  1.9311
  166SAPE   H7S18703   1.259   3.909   6.954  2.1563  2.0310 -3.0375
  166SAPE   C2818704   1.076   3.992   7.036  0.2332  0.1311  0.3056
  166SAPE   H8R18705   1.044   4.097   7.046  0.9769  0.4740 -0.6684
  166SAPE   C2918706   1.046   3.907   7.129 -0.6494  0.4333 -0.6367
  166SAPE   H9R18707   0.978   3.945   7.207  0.9978  0.4482  0.8801
  166SAPE  C21018708   1.102   3.763   7.148  1.4049  0.2903 -0.5218
  166SAPE  H10R18709   1.209   3.759   7.174  0.9635  0.8737  1.5660
  166SAPE  H10S18710   1.092   3.706   7.053  1.4342  0.5300 -0.6696
  166SAPE  C21118711   1.027   3.679   7.255  0.0464 -1.3919 -0.4980
  166SAPE  H11R18712   0.922   3.664   7.225  0.1696 -0.8535 -1.2391
  166SAPE  C21218713   1.070   3.632   7.373  0.5955 -0.8362  0.0216
  166SAPE  H12R18714   1.000   3.576   7.436 -0.6032 -0.2516 -0.7630
  166SAPE  C21318715   1.199   3.650   7.434 -0.4011  0.0729  0.0339
  166SAPE  H13R18716   1.185   3.719   7.520  2.2017  0.8574 -0.1138
  166SAPE  H13S18717   1.276   3.692   7.367 -0.2019 -1.2077 -0.5656
  166SAPE  C21418718   1.240   3.509   7.474 -0.1064  0.9525 -0.3897
  166SAPE  H14R18719   1.264   3.449   7.385 -2.0719  2.3056 -1.9133
  166SAPE  C21518720   1.257   3.464   7.599  0.6447  0.9754  0.2376
  166SAPE  H15R18721   1.289   3.359   7.603  1.7170  1.2733 -0.1862
  166SAPE  C21618722   1.247   3.536   7.729  0.8412 -0.3729 -0.2511
  166SAPE  H16R18723   1.297   3.634   7.721  2.1897 -0.7460  2.3206
  166SAPE  H16S18724   1.303   3.487   7.812  0.8432  1.0141  0.5949
  166SAPE  C21718725   1.101   3.555   7.780  0.8296  0.1876  0.0839
  166SAPE  H17R18726   1.069   3.452   7.808  0.7639  0.0043 -0.6445
  166SAPE  H17S18727   1.035   3.588   7.697  0.5324  2.5600  1.1704
  166SAPE  C21818728   1.075   3.666   7.886 -0.0890  0.7749 -0.1883
  166SAPE  H18R18729   0.964   3.664   7.885 -0.2224 -2.1008 -4.2454
  166SAPE  H18S18730   1.125   3.761   7.855  1.3077  0.3758  0.7165
  166SAPE  C21918731   1.135   3.640   8.030  1.1390  0.0233  0.3796
  166SAPE  H19R18732   1.241   3.620   8.004  0.5641 -3.2372  0.0596
  166SAPE  H19S18733   1.082   3.547   8.060 -0.1346  0.7047  0.3174
  166SAPE  C22018734   1.112   3.757   8.128  1.0089 -0.1386 -0.2204
  166SAPE  H20R18735   1.004   3.777   8.140  0.7166 -1.8882  0.3667
  166SAPE  H20S18736   1.174   3.844   8.099  0.5278  0.3302  0.1366
  166SAPE  H20T18737   1.145   3.727   8.230 -1.6660 -2.5455  0.0488
  166SAPE   C3318738   1.354   4.380   6.731 -1.3019 -0.4540  0.5449
  166SAPE   H3X18739   1.266   4.325   6.691 -1.0981  1.4604 -2.9171
  166SAPE   H3Y18740   1.330   4.484   6.761  1.3177 -0.7776  4.5359
  166SAPE   C3418741   1.405   4.313   6.861  0.1151 -0.2881 -0.4641
  166SAPE   H4X18742   1.508   4.356   6.865 -0.0064  0.3597 -2.8000
  166SAPE   H4Y18743   1.419   4.205   6.839  0.2598 -0.1653 -0.9920
  166SAPE   C3518744   1.325   4.337   6.981  0.0900 -0.1557 -0.0724
  166SAPE   H5X18745   1.217   4.321   6.963  0.3037 -0.6825 -0.9610
  166SAPE   H5Y18746   1.344   4.439   7.019 -1.4161 -0.1181  0.6380
  166SAPE   C3618747   1.363   4.232   7.093  0.4834 -0.9701  0.3044
  166SAPE   H6X18748   1.466   4.250   7.129  0.4849  2.3155 -0.9226
  166SAPE   H6Y18749   1.363   4.136   7.038  1.2435 -1.3629  0.9733
  166SAPE   C3718750   1.273   4.233   7.208 -0.9669 -0.4516  0.2508
  166SAPE   H7X18751   1.172   4.209   7.168 -0.4666  1.6880 -2.6069
  166SAPE   H7Y18752   1.274   4.335   7.254 -0.0844 -1.1938  1.9718
  166SAPE   C3818753   1.306   4.122   7.308  0.0885  0.3263  0.1266
  166SAPE   H8X18754   1.414   4.138   7.332  0.4677 -0.0498 -1.2849
  166SAPE   H8Y18755   1.306   4.022   7.260  1.9151 -0.5291  1.7383
  166SAPE   C3918756   1.216   4.126   7.435  0.4338 -0.3750 -0.2289
  166SAPE   H9X18757   1.280   4.072   7.508  1.0164 -0.4603 -0.7895
  166SAPE   H9Y18758   1.132   4.057   7.415  0.0809  0.0493 -0.2212
  166SAPE  C31018759   1.172   4.269   7.476  0.2212 -0.0563  0.4431
  166SAPE  H10X18760   1.103   4.312   7.399 -0.9800  0.3562  1.7099
  166SAPE  H10Y18761   1.261   4.335   7.488  0.8978 -0.9195  0.2581
  166SAPE  C31118762   1.108   4.264   7.612 -0.8217  0.2719 -0.8123
  166SAPE  H11X18763   1.031   4.184   7.607  1.1995 -1.7737 -1.6680
  166SAPE  H11Y18764   1.067   4.364   7.634 -0.0388  0.3691  0.3065
  166SAPE  C31218765   1.206   4.224   7.727  0.6798  0.0132 -0.5813
  166SAPE  H12X18766   1.307   4.262   7.702 -0.1720  0.4447 -3.8266
  166SAPE  H12Y18767   1.221   4.114   7.728 -1.4453 -0.3352 -1.6712
  166SAPE  C31318768   1.153   4.272   7.868  0.0100 -0.2896  0.8883
  166SAPE  H13X18769   1.048   4.239   7.884  0.0401 -0.6449  0.3875
  166SAPE  H13Y18770   1.145   4.381   7.851 -3.0659 -0.4828  0.6505
  166SAPE  C31418771   1.245   4.255   7.986  0.6624 -1.0778 -0.5366
  166SAPE  H14X18772   1.199   4.295   8.079  2.0275  0.3104 -0.4044
  166SAPE  H14Y18773   1.342   4.309   7.974  0.7384 -0.7648  1.2621
  166SAPE  C31518774   1.268   4.102   8.024  0.6931  0.9721  0.5575
  166SAPE  H15X18775   1.334   4.057   7.947 -0.2292  1.6415 -0.6494
  166SAPE  H15Y18776   1.168   4.054   8.026  0.9087  0.3659 -1.4755
  166SAPE  C31618777   1.348   4.091   8.158  0.0331  0.1599  0.1091
  166SAPE  H16X18778   1.327   3.998   8.214  0.2342 -0.0574 -0.1713
  166SAPE  H16Y18779   1.286   4.162   8.218 -1.0579  0.1157 -0.9274
  166SAPE  C31718780   1.493   4.130   8.157  0.0624 -0.1992  0.3883
  166SAPE  H17X18781   1.511   4.226   8.103  2.5235 -0.3971  0.7724
  166SAPE  H17Y18782   1.554   4.058   8.098 -0.7362  0.3486 -1.1755
  166SAPE  C31818783   1.557   4.141   8.290  0.4180  0.4240 -0.3640
  166SAPE  H18X18784   1.497   4.212   8.351  1.8538  0.8237  0.6039
  166SAPE  H18Y18785   1.659   4.182   8.273  0.6409 -0.6507 -1.8950
  166SAPE  H18Z18786   1.558   4.045   8.347 -2.6751  0.0602 -0.7100
  167SAPE     N18787   4.411   4.167   6.333 -0.1326 -0.7991 -0.1191
  167SAPE   HN118788   4.398   4.065   6.319 -0.6167 -0.6831 -0.5521
  167SAPE   HN218789   4.508   4.166   6.371  0.4160  1.5270 -1.2502
  167SAPE   HN318790   4.356   4.215   6.407  0.1235  0.8176 -0.9198
  167SAPE   C1218791   4.416   4.250   6.212  0.0371  0.1141 -0.4418
  167SAPE  H12A18792   4.318   4.238   6.160 -1.4116 -0.4178  2.2185
  167SAPE  H12B18793   4.489   4.208   6.140  0.8696  1.6123 -0.5000
  167SAPE   C1118794   4.455   4.395   6.239  0.6199 -0.0769 -0.1217
  167SAPE  H11A18795   4.383   4.437   6.312 -0.2446  1.1272 -1.6262
  167SAPE  H11B18796   4.445   4.445   6.140  0.4969 -1.5217 -0.8729
  167SAPE     P18797   4.659   4.546   6.285 -0.2345 -0.1519  0.5800
  167SAPE   O1318798   4.798   4.532   6.326 -0.0662  0.1201 -0.0895
  167SAPE   O1418799   4.634   4.630   6.169  0.0305  0.4032  0.3016
  167SAPE   O1218800   4.594   4.397   6.283  0.1455  0.2138 -0.0141
  167SAPE   O1118801   4.583   4.617   6.402  0.6963  0.7592  0.0910
  167SAPE    C118802   4.562   4.541   6.520 -0.6705  0.2970  0.7426
  167SAPE    HA18803   4.488   4.463   6.493 -1.4549  1.2217  0.1412
  167SAPE    HB18804   4.652   4.491   6.559  0.5746  1.1467 -0.9088
  167SAPE    C218805   4.515   4.634   6.640  0.4582  0.1440  0.3795
  167SAPE    HS18806   4.448   4.711   6.595 -0.2298 -0.8515 -0.3405
  167SAPE   O2118807   4.635   4.694   6.694  0.2870 -0.0369  0.5555
  167SAPE   C2118808   4.608   4.808   6.759  0.0180  0.0819 -0.2623
  167SAPE   O2218809   4.501   4.866   6.751  1.1550  0.2337  0.3056
  167SAPE   C2218810   4.724   4.848   6.847  0.8384 -0.3338 -0.1177
  167SAPE   H2R18811   4.793   4.762   6.866  1.9943  1.0202  2.4783
  167SAPE   H2S18812   4.787   4.926   6.800 -1.5351  1.1980 -0.8826
  167SAPE    C318813   4.433   4.548   6.752 -0.2553 -0.7888 -0.1420
  167SAPE    HX18814   4.504   4.473   6.794  0.7858  0.6278  0.6900
  167SAPE    HY18815   4.350   4.491   6.704  0.2909  1.3489 -4.0187
  167SAPE   O3118816   4.383   4.622   6.859 -0.0140 -0.2455  0.2817
  167SAPE   C3118817   4.262   4.664   6.860  0.5131  0.1319  0.0292
  167SAPE   O3218818   4.176   4.637   6.775 -0.2637 -0.9412 -0.2234
  167SAPE   C3218819   4.231   4.744   6.992  0.0311  0.7913 -0.1734
  167SAPE   H2X18820   4.191   4.845   6.969 -2.2265  0.1046  0.4414
  167SAPE   H2Y18821   4.318   4.766   7.057 -1.2498  1.1324  1.4677
  167SAPE   C2318822   4.676   4.911   6.986 -0.6235 -0.3453 -0.1586
  167SAPE   H3R18823   4.581   4.856   7.006 -1.8670  1.0125 -1.9659
  167SAPE   H3S18824   4.655   5.018   6.965  0.2026 -0.0207  0.6010
  167SAPE   C2418825   4.776   4.901   7.106 -0.9003 -0.9037  0.9474
  167SAPE   H4R18826   4.741   4.964   7.190  0.4446  0.7299  0.3130
  167SAPE   H4S18827   4.878   4.931   7.075  0.3386 -4.6380  0.7998
  167SAPE   C2518828   4.800   4.762   7.153  0.0017  0.3434 -0.2762
  167SAPE   H5R18829   4.851   4.706   7.074  0.5214  1.3513 -0.6606
  167SAPE   C2618830   4.768   4.697   7.267 -0.2489  0.1654  0.0537
  167SAPE   H6R18831   4.808   4.595   7.278 -0.9296 -0.0386  0.7125
  167SAPE   C2718832   4.707   4.763   7.383 -0.2032 -0.1400  0.5500
  167SAPE   H7R18833   4.628   4.707   7.437  0.1267  0.3327  1.5571
  167SAPE   H7S18834   4.661   4.859   7.352 -3.1364 -2.1698 -1.9955
  167SAPE   C2818835   4.826   4.801   7.475  0.0346  0.3700 -0.2517
  167SAPE   H8R18836   4.924   4.824   7.431  0.3599  0.7386  0.6416
  167SAPE   C2918837   4.821   4.814   7.609  0.0617  0.1278  0.6959
  167SAPE   H9R18838   4.915   4.846   7.658  1.1341  1.5400 -2.0424
  167SAPE  C21018839   4.708   4.800   7.709  0.3225 -0.2348  0.2641
  167SAPE  H10R18840   4.606   4.776   7.670 -1.3260  3.3340  1.9269
  167SAPE  H10S18841   4.692   4.900   7.754 -0.8251  0.7434 -2.1597
  167SAPE  C21118842   4.757   4.699   7.813  0.0259 -0.6003  0.3694
  167SAPE  H11R18843   4.778   4.603   7.764  1.1847  0.2115 -0.7767
  167SAPE  C21218844   4.787   4.716   7.947  0.8000  0.1178  0.5789
  167SAPE  H12R18845   4.832   4.632   8.002  2.1218 -1.6199 -2.8943
  167SAPE  C21318846   4.772   4.845   8.026 -0.3448 -0.3213  0.8594
  167SAPE  H13R18847   4.772   4.929   7.954 -3.3817  0.2398  1.3932
  167SAPE  H13S18848   4.866   4.862   8.083  0.1428 -0.0704 -0.0006
  167SAPE  C21418849   4.648   4.857   8.107  0.9496 -0.2408 -0.2782
  167SAPE  H14R18850   4.563   4.805   8.059  0.5364  0.0783  0.1043
  167SAPE  C21518851   4.630   4.911   8.232 -0.0487 -0.8015  0.6469
  167SAPE  H15R18852   4.526   4.919   8.265 -0.2736  1.2952 -0.3926
  167SAPE  C21618853   4.736   4.979   8.317  0.5701  0.1444  0.2063
  167SAPE  H16R18854   4.683   5.053   8.382 -0.0287  0.7045 -0.8798
  167SAPE  H16S18855   4.812   5.026   8.251  3.3334 -0.1511  2.9627
  167SAPE  C21718856   4.808   4.880   8.412  0.1345 -0.6658  0.6020
  167SAPE  H17R18857   4.884   4.939   8.468  0.8637  0.0729 -1.1147
  167SAPE  H17S18858   4.865   4.811   8.346  0.7934 -0.4034  0.8788
  167SAPE  C21818859   4.730   4.792   8.502 -0.1859 -0.3878 -0.3005
  167SAPE  H18R18860   4.649   4.733   8.455  0.2626 -1.9154  0.7688
  167SAPE  H18S18861   4.669   4.852   8.574  1.5310  0.0065  0.9113
  167SAPE  C21918862   4.818   4.689   8.573  0.0327 -0.2474  0.1700
  167SAPE  H19R18863   4.892   4.755   8.623  1.2141 -0.2746 -1.4416
  167SAPE  H19S18864   4.876   4.630   8.498  0.5425 -1.3886  1.4170
  167SAPE  C22018865   4.747   4.605   8.687 -0.5231 -0.4520 -0.2170
  167SAPE  H20R18866   4.651   4.566   8.647  0.1116 -1.2042 -1.0403
  167SAPE  H20S18867   4.734   4.661   8.783 -0.5227  0.3141 -0.6523
  167SAPE  H20T18868   4.810   4.517   8.708  0.4203  0.4769  0.9993
  167SAPE   C3318869   4.130   4.657   7.075 -0.4562 -0.1762 -0.1148
  167SAPE   H3X18870   4.185   4.562   7.095  0.3940 -0.2243 -2.3555
  167SAPE   H3Y18871   4.046   4.617   7.013 -0.7202 -1.9048  1.2795
  167SAPE   C3418872   4.076   4.726   7.199  0.4284  0.2815 -0.8987
  167SAPE   H4X18873   3.989   4.795   7.190 -1.9549 -2.5466 -1.1990
  167SAPE   H4Y18874   4.155   4.786   7.250 -0.5391 -0.2203  1.3400
  167SAPE   C3518875   4.022   4.623   7.302 -1.1239  0.9866 -0.8078
  167SAPE   H5X18876   4.098   4.542   7.306  1.2605  2.8401 -3.8507
  167SAPE   H5Y18877   3.938   4.566   7.257 -1.0302  1.6088 -1.8068
  167SAPE   C3618878   3.998   4.682   7.438 -0.3348 -0.0729  0.2444
  167SAPE   H6X18879   3.892   4.715   7.436  0.1907  1.7660  1.0532
  167SAPE   H6Y18880   4.048   4.779   7.457 -0.7978  0.5126 -1.3204
  167SAPE   C3718881   4.010   4.585   7.560 -0.0681 -0.2007  0.1250
  167SAPE   H7X18882   4.119   4.561   7.566  0.6996  2.8822  0.0480
  167SAPE   H7Y18883   3.940   4.500   7.549  0.5697 -1.0252  2.0725
  167SAPE   C3818884   3.971   4.649   7.698  0.4141  0.0402 -0.2485
  167SAPE   H8X18885   3.896   4.728   7.677  0.2599  0.0819  0.4274
  167SAPE   H8Y18886   4.054   4.714   7.733  0.3601 -0.4883  0.9091
  167SAPE   C3918887   3.945   4.551   7.809 -0.4003 -0.5883 -0.2391
  167SAPE   H9X18888   4.029   4.479   7.816 -0.3790 -0.5271  0.1559
  167SAPE   H9Y18889   3.852   4.495   7.788 -0.3875 -0.5906 -0.2904
  167SAPE  C31018890   3.930   4.621   7.945 -0.2514  1.0461  0.9922
  167SAPE  H10X18891   3.832   4.673   7.946 -1.2635 -0.8073  0.9404
  167SAPE  H10Y18892   4.014   4.692   7.966  1.2771 -0.8941  1.8160
  167SAPE  C31118893   3.938   4.511   8.055  0.2526  0.1728  0.7026
  167SAPE  H11X18894   3.844   4.453   8.056 -0.2706  0.9289 -1.0830
  167SAPE  H11Y18895   3.946   4.576   8.145 -1.7221  2.4581 -0.6266
  167SAPE  C31218896   4.073   4.420   8.054  0.8503 -0.2362 -0.5836
  167SAPE  H12X18897   4.156   4.478   8.008 -0.3882  1.1942 -1.1115
  167SAPE  H12Y18898   4.040   4.341   7.983  0.0972  0.3731 -0.9226
  167SAPE  C31318899   4.126   4.355   8.186  1.1595 -0.7087 -0.1990
  167SAPE  H13X18900   4.054   4.277   8.219 -0.5377  0.0915 -1.8432
  167SAPE  H13Y18901   4.133   4.432   8.266  1.1736 -0.8511 -0.0614
  167SAPE  C31418902   4.271   4.306   8.175 -0.3843  0.4656  0.1763
  167SAPE  H14X18903   4.339   4.393   8.180 -0.1445  0.2536  0.6481
  167SAPE  H14Y18904   4.286   4.253   8.079  2.0123  0.4869  0.4745
  167SAPE  C31518905   4.315   4.205   8.284 -0.2384 -0.1407 -0.1321
  167SAPE  H15X18906   4.423   4.189   8.259  0.4402  1.0696  1.8235
  167SAPE  H15Y18907   4.266   4.106   8.282  0.5917 -0.5611 -1.0052
  167SAPE  C31618908   4.313   4.262   8.424 -0.0832 -0.0796  0.0617
  167SAPE  H16X18909   4.327   4.372   8.430 -3.1923  0.3372  1.6804
  167SAPE  H16Y18910   4.404   4.213   8.466  1.6830  1.2262 -2.0112
  167SAPE  C31718911   4.197   4.219   8.508  0.5373 -0.1672 -0.0427
  167SAPE  H17X18912   4.191   4.108   8.517 -0.4801 -0.0455  1.0042
  167SAPE  H17Y18913   4.106   4.249   8.451  0.4294 -0.7425 -0.1838
  167SAPE  C31818914   4.188   4.276   8.646 -0.8173  0.1805 -0.3266
  167SAPE  H18X18915   4.243   4.208   8.715 -3.0189  0.2116  1.5915
  167SAPE  H18Y18916   4.080   4.268   8.672 -0.8265 -2.3922 -0.9004
  167SAPE  H18Z18917   4.213   4.384   8.651  0.4038 -0.0196 -1.5487
  168SAPE     N18918   3.535   0.197   6.606 -0.0140  0.4537  0.4297
  168SAPE   HN118919   3.495   0.284   6.648 -0.3478  1.3263 -1.5771
  168SAPE   HN218920   3.615   0.212   6.542 -0.5260  1.1267 -0.0770
  168SAPE   HN318921   3.451   0.169   6.551  1.1535 -0.8426 -0.7487
  168SAPE   C1218922   3.573   0.080   6.691  0.0709  0.3269 -0.4957
  168SAPE  H12A18923   3.489   0.010   6.710  0.6170  0.2135  1.7451
  168SAPE  H12B18924   3.613   0.118   6.787 -4.0093  1.8355  0.8034
  168SAPE   C1118925   3.690   0.007   6.616  0.1362 -0.4116 -0.6177
  168SAPE  H11A18926   3.724  -0.065   6.694 -0.6774 -1.5359 -1.2767
  168SAPE  H11B18927   3.784   0.066   6.602 -0.8302  1.0624 -1.1055
  168SAPE     P18928   3.579  -0.199   6.488  0.2436 -0.4016 -0.1093
  168SAPE   O1318929   3.516  -0.209   6.356  0.0970 -0.1442 -0.5476
  168SAPE   O1418930   3.677  -0.306   6.519 -0.5352 -0.2723 -0.1837
  168SAPE   O1218931   3.651  -0.055   6.493  0.0948 -0.5818  0.0809
  168SAPE   O1118932   3.471  -0.179   6.604 -0.7411  0.6980  0.0018
  168SAPE    C118933   3.409  -0.298   6.666  0.1670  0.3219 -0.2596
  168SAPE    HA18934   3.303  -0.312   6.636  0.5382  0.2544 -1.5729
  168SAPE    HB18935   3.458  -0.396   6.657  0.3572  0.5024 -1.2122
  168SAPE    C218936   3.403  -0.275   6.827 -0.0407  0.1599  0.4407
  168SAPE    HS18937   3.367  -0.172   6.845 -0.8842  0.0629 -0.6196
  168SAPE   O2118938   3.532  -0.306   6.872 -0.6208  0.4569 -0.4028
  168SAPE   C2118939   3.584  -0.207   6.945 -0.8542 -0.3003  0.0189
  168SAPE   O2218940   3.526  -0.110   6.992 -0.4710  0.6534  0.9636
  168SAPE   C2218941   3.732  -0.237   6.963  0.3667 -0.0869 -0.4741
  168SAPE   H2R18942   3.761  -0.341   6.990  1.8040  0.6579  1.0943
  168SAPE   H2S18943   3.771  -0.229   6.859  0.0845  0.4769 -0.5405
  168SAPE    C318944   3.314  -0.382   6.885  0.1605 -0.2839  0.1541
  168SAPE    HX18945   3.355  -0.481   6.853 -1.8050 -1.1468  0.1411
  168SAPE    HY18946   3.217  -0.384   6.831  0.3374 -2.2068 -0.1789
  168SAPE   O3118947   3.293  -0.364   7.025 -0.4404 -1.0360 -0.5260
  168SAPE   C3118948   3.368  -0.443   7.101 -0.3015  0.2002  0.2168
  168SAPE   O3218949   3.423  -0.549   7.071 -0.1409  0.0038  0.2045
  168SAPE   C3218950   3.369  -0.398   7.244  0.2502 -0.6049 -0.3492
  168SAPE   H2X18951   3.264  -0.410   7.280 -0.1823  1.9814 -0.5477
  168SAPE   H2Y18952   3.381  -0.288   7.251  0.4793 -0.7153  1.5467
  168SAPE   C2318953   3.807  -0.131   7.050 -0.5571 -0.1934  0.0456
  168SAPE   H3R18954   3.754  -0.033   7.044 -0.6042 -0.1197  1.2787
  168SAPE   H3S18955   3.907  -0.121   7.002 -1.9331 -1.9784 -3.5706
  168SAPE   C2418956   3.834  -0.183   7.195  0.1108 -0.5265  0.0004
  168SAPE   H4R18957   3.885  -0.281   7.183 -2.8386 -1.9891 -1.9085
  168SAPE   H4S18958   3.736  -0.197   7.244 -0.5950 -0.9526 -1.4888
  168SAPE   C2518959   3.912  -0.090   7.287 -0.5040  0.6210 -0.1169
  168SAPE   H5R18960   3.991  -0.031   7.239  2.0767 -0.0124  3.0113
  168SAPE   C2618961   3.911  -0.077   7.425  0.6175 -0.4054 -0.6559
  168SAPE   H6R18962   3.976  -0.007   7.480  0.6547 -0.8234 -0.1662
  168SAPE   C2718963   3.818  -0.150   7.516 -0.0513  0.1680 -0.3590
  168SAPE   H7R18964   3.875  -0.225   7.574  1.5692 -0.6227 -2.8258
  168SAPE   H7S18965   3.745  -0.211   7.458  0.6250 -0.2409 -0.7996
  168SAPE   C2818966   3.730  -0.059   7.602 -0.4278  0.1953  0.5416
  168SAPE   H8R18967   3.637  -0.021   7.558 -0.5627 -1.1667 -0.4266
  168SAPE   C2918968   3.771  -0.010   7.725  0.4436  0.3153 -0.2269
  168SAPE   H9R18969   3.708   0.055   7.787  1.5600  1.2238 -0.0057
  168SAPE  C21018970   3.903  -0.035   7.790 -0.4896 -0.4458  0.1004
  168SAPE  H10R18971   3.942   0.064   7.824  2.1091 -1.4787  0.3564
  168SAPE  H10S18972   3.986  -0.060   7.721 -0.6357  1.7633 -0.9545
  168SAPE  C21118973   3.891  -0.126   7.909 -0.5690  0.4505  0.5746
  168SAPE  H11R18974   3.889  -0.234   7.886  0.8188  0.8861 -1.9499
  168SAPE  C21218975   3.870  -0.084   8.035  0.1458  0.0595 -0.4007
  168SAPE  H12R18976   3.858  -0.164   8.110 -1.4001 -0.1334 -0.8201
  168SAPE  C21318977   3.850   0.058   8.077  0.8978  0.9013 -0.1876
  168SAPE  H13R18978   3.836   0.127   7.990  0.3135  0.3836 -0.5119
  168SAPE  H13S18979   3.939   0.095   8.132  2.3836 -0.3358 -1.6318
  168SAPE  C21418980   3.730   0.062   8.179  0.1477  0.2559 -1.0945
  168SAPE  H14R18981   3.632   0.071   8.131 -0.8581 -4.3567 -0.3476
  168SAPE  C21518982   3.735   0.060   8.314  0.4479  0.6520  0.2002
  168SAPE  H15R18983   3.640   0.056   8.369  0.6084  2.5280  0.6744
  168SAPE  C21618984   3.864   0.049   8.392 -0.0913  0.2363 -0.3819
  168SAPE  H16R18985   3.881   0.144   8.447 -0.8416 -0.5580  1.3213
  168SAPE  H16S18986   3.952   0.042   8.325 -0.4862  0.5480 -0.9375
  168SAPE  C21718987   3.863  -0.067   8.495 -0.0876 -0.3326 -0.3237
  168SAPE  H17R18988   3.811  -0.154   8.450 -1.7533 -0.0007  0.8642
  168SAPE  H17S18989   3.797  -0.025   8.575 -1.5942 -1.0571 -1.1626
  168SAPE  C21818990   4.004  -0.113   8.534  0.2895 -0.7608  0.1412
  168SAPE  H18R18991   3.992  -0.185   8.618  1.0654 -1.7858 -0.5955
  168SAPE  H18S18992   4.060  -0.021   8.561  0.8393 -0.8936 -0.5179
  168SAPE  C21918993   4.080  -0.187   8.424 -0.6171  0.3199 -0.0403
  168SAPE  H19R18994   4.120  -0.122   8.344 -0.0503 -0.6890 -0.5877
  168SAPE  H19S18995   4.008  -0.249   8.366  0.1110  1.1946 -1.9466
  168SAPE  C22018996   4.191  -0.279   8.485  0.3963 -0.9153  0.0717
  168SAPE  H20R18997   4.263  -0.210   8.533 -1.8587  1.5929  0.0717
  168SAPE  H20S18998   4.242  -0.343   8.409 -1.2712  0.4309 -2.3319
  168SAPE  H20T18999   4.147  -0.342   8.565 -0.9051 -2.3288 -1.6881
  168SAPE   C3319000   3.478  -0.471   7.334 -0.3822 -0.0605 -0.6018
  168SAPE   H3X19001   3.575  -0.477   7.280  0.5051  0.8125  0.8540
  168SAPE   H3Y19002   3.448  -0.575   7.359 -0.7947  0.4616  1.1541
  168SAPE   C3419003   3.514  -0.390   7.458  0.1504  0.2600 -0.9318
  168SAPE   H4X19004   3.536  -0.284   7.436 -3.6097  1.2776 -0.4156
  168SAPE   H4Y19005   3.602  -0.422   7.519  1.8367  1.9019 -2.3842
  168SAPE   C3519006   3.386  -0.366   7.545  0.4617 -0.0875 -0.6312
  168SAPE   H5X19007   3.328  -0.460   7.544 -0.1857  0.3003 -1.6155
  168SAPE   H5Y19008   3.322  -0.292   7.492  2.2834  1.4574 -0.8101
  168SAPE   C3619009   3.396  -0.317   7.696 -0.4174 -0.3658  0.4852
  168SAPE   H6X19010   3.298  -0.328   7.747 -0.1236 -0.4569  1.0339
  168SAPE   H6Y19011   3.423  -0.209   7.692 -0.1632 -0.3989  1.1467
  168SAPE   C3719012   3.499  -0.387   7.771 -0.3323  0.2877  0.3039
  168SAPE   H7X19013   3.588  -0.332   7.734 -0.0671 -0.3615 -0.0461
  168SAPE   H7Y19014   3.504  -0.495   7.744 -2.2468 -0.6393  3.1304
  168SAPE   C3819015   3.501  -0.387   7.921  0.9251 -0.7888 -0.6198
  168SAPE   H8X19016   3.584  -0.457   7.943 -0.5394 -1.9979  1.3331
  168SAPE   H8Y19017   3.406  -0.430   7.958  1.2961 -0.5094  0.6823
  168SAPE   C3919018   3.517  -0.245   7.988 -0.2843 -0.0420  0.2257
  168SAPE   H9X19019   3.423  -0.193   7.961  0.0513 -1.1336 -3.8323
  168SAPE   H9Y19020   3.595  -0.185   7.936 -0.3803 -0.5426 -0.5229
  168SAPE  C31019021   3.548  -0.249   8.139 -0.1908 -0.9514 -0.9663
  168SAPE  H10X19022   3.554  -0.143   8.174 -1.4468 -0.1056 -3.0977
  168SAPE  H10Y19023   3.644  -0.304   8.151  0.0627 -1.1309 -3.2941
  168SAPE  C31119024   3.444  -0.311   8.229  0.0931  0.0510  0.4876
  168SAPE  H11X19025   3.403  -0.409   8.196  0.3709  0.0487  0.1413
  168SAPE  H11Y19026   3.359  -0.240   8.232  2.5764  3.2280  3.7527
  168SAPE  C31219027   3.500  -0.322   8.371  0.6097 -0.0568  0.2962
  168SAPE  H12X19028   3.549  -0.227   8.401  2.4650 -0.8796  0.0512
  168SAPE  H12Y19029   3.592  -0.384   8.362  1.5352  1.4551 -1.6156
  168SAPE  C31319030   3.402  -0.366   8.474  0.1325 -0.4543  0.0263
  168SAPE  H13X19031   3.320  -0.292   8.488  0.2991 -0.2075 -0.2778
  168SAPE  H13Y19032   3.461  -0.362   8.568 -0.5431  1.5274  0.4177
  168SAPE  C31419033   3.353  -0.503   8.460 -0.6023  1.1109 -0.0809
  168SAPE  H14X19034   3.439  -0.566   8.430 -0.3272  0.8489  1.1885
  168SAPE  H14Y19035   3.278  -0.514   8.378  0.3371  0.9807 -0.9432
  168SAPE  C31519036   3.293  -0.564   8.587  0.3079 -0.2266 -0.6098
  168SAPE  H15X19037   3.219  -0.496   8.634 -0.0700  0.2498 -1.8504
  168SAPE  H15Y19038   3.378  -0.572   8.658  0.4072  1.1063 -0.5454
  168SAPE  C31619039   3.234  -0.708   8.561 -0.2975 -0.1925 -0.2596
  168SAPE  H16X19040   3.231  -0.770   8.653 -1.1940  0.7565  0.3773
  168SAPE  H16Y19041   3.281  -0.760   8.476 -1.6354  3.8304 -3.8229
  168SAPE  C31719042   3.094  -0.696   8.515  0.7836  0.3289  0.4468
  168SAPE  H17X19043   3.094  -0.637   8.421 -1.0737  3.7123  2.3319
  168SAPE  H17Y19044   3.029  -0.626   8.572 -1.0488 -0.4583 -0.5981
  168SAPE  C31819045   3.024  -0.837   8.500 -0.8606  0.1429  0.5202
  168SAPE  H18X19046   2.980  -0.857   8.600 -0.1099 -0.2756  0.7770
  168SAPE  H18Y19047   3.098  -0.910   8.462 -1.9750 -1.8413  1.9643
  168SAPE  H18Z19048   2.943  -0.842   8.424 -0.2648  3.9442 -0.5580
  169SAPE     N19049   2.797   2.154   6.254 -0.1475 -0.4542  0.4403
  169SAPE   HN119050   2.774   2.062   6.210  0.8120 -1.8560  2.7111
  169SAPE   HN219051   2.730   2.217   6.206  0.0665 -1.7343 -1.6748
  169SAPE   HN319052   2.894   2.180   6.229 -0.0476  1.9713  2.8675
  169SAPE   C1219053   2.767   2.149   6.399 -0.1718 -0.1626  0.6268
  169SAPE  H12A19054   2.657   2.143   6.411 -0.3885  3.9772  2.4707
  169SAPE  H12B19055   2.808   2.242   6.445  1.2640 -0.1860 -0.5392
  169SAPE   C1119056   2.829   2.025   6.449  0.8816  0.9746 -0.2298
  169SAPE  H11A19057   2.797   2.034   6.555 -0.5146  1.1079 -0.6334
  169SAPE  H11B19058   2.940   2.026   6.444  0.9509  0.9369  1.0591
  169SAPE     P19059   2.838   1.774   6.356  0.5983  0.3934 -0.3235
  169SAPE   O1319060   2.737   1.672   6.327  0.7525 -0.1099 -0.5604
  169SAPE   O1419061   2.948   1.794   6.260 -0.7686 -0.3292  0.0523
  169SAPE   O1219062   2.766   1.912   6.382 -0.0972  0.2117 -0.2651
  169SAPE   O1119063   2.898   1.732   6.494  0.3960  0.1965 -0.2598
  169SAPE    C119064   2.809   1.735   6.608  0.1117  0.1154 -0.0815
  169SAPE    HA19065   2.741   1.822   6.607 -0.6787 -0.4645  1.0514
  169SAPE    HB19066   2.740   1.648   6.619  1.5332 -1.0707 -0.1671
  169SAPE    C219067   2.887   1.737   6.739 -0.2408  0.3185  0.2183
  169SAPE    HS19068   2.917   1.631   6.757  1.2558  0.8755  1.2367
  169SAPE   O2119069   2.799   1.794   6.836  0.4058  0.9843 -0.2619
  169SAPE   C2119070   2.704   1.715   6.888  0.4467  0.7090 -0.2213
  169SAPE   O2219071   2.695   1.593   6.872  0.1847  0.6319 -0.4466
  169SAPE   C2219072   2.629   1.785   7.003 -0.6839  0.2042  0.5973
  169SAPE   H2R19073   2.703   1.862   7.032  0.8047 -0.1653 -1.9209
  169SAPE   H2S19074   2.536   1.824   6.955 -1.1283 -2.5889 -1.0205
  169SAPE    C319075   3.015   1.828   6.727  0.5413 -0.5713  0.6912
  169SAPE    HX19076   3.003   1.933   6.693  1.6036  0.5074  3.3505
  169SAPE    HY19077   3.089   1.779   6.661  2.1229 -1.1983  2.8072
  169SAPE   O3119078   3.073   1.835   6.861 -0.5231  0.5443  0.3219
  169SAPE   C3119079   3.191   1.898   6.857  0.5605 -0.1562 -0.9211
  169SAPE   O3219080   3.244   1.934   6.752 -0.4466 -0.2337 -0.0712
  169SAPE   C3219081   3.250   1.902   7.001 -0.7570 -0.4087  0.5586
  169SAPE   H2X19082   3.311   1.809   7.005 -0.9062 -0.4625  2.2799
  169SAPE   H2Y19083   3.174   1.888   7.081 -0.3666  0.2540  1.0524
  169SAPE   C2319084   2.585   1.701   7.129 -1.0171  0.1359 -0.0699
  169SAPE   H3R19085   2.686   1.664   7.157  0.9659  4.2876 -0.9757
  169SAPE   H3S19086   2.530   1.610   7.096 -0.2189 -1.7055  3.2290
  169SAPE   C2419087   2.514   1.789   7.226  0.2915 -0.0757 -0.3708
  169SAPE   H4R19088   2.587   1.871   7.241  1.4958 -1.0699 -0.5787
  169SAPE   H4S19089   2.509   1.732   7.321  0.8004 -1.8257 -1.3450
  169SAPE   C2519090   2.378   1.835   7.184 -0.4629  0.7528  0.8359
  169SAPE   H5R19091   2.342   1.819   7.081  0.0379 -1.2357  0.9286
  169SAPE   C2619092   2.281   1.880   7.266 -0.1919 -0.5012 -0.2292
  169SAPE   H6R19093   2.185   1.902   7.217  0.2097 -0.7952 -1.1812
  169SAPE   C2719094   2.283   1.893   7.418 -0.8991  0.1804  0.5153
  169SAPE   H7R19095   2.295   2.002   7.436  2.2064  0.1378 -0.7840
  169SAPE   H7S19096   2.376   1.851   7.463  0.8952  3.1920 -0.1396
  169SAPE   C2819097   2.155   1.840   7.476 -0.1114 -0.0887  0.0081
  169SAPE   H8R19098   2.096   1.783   7.403  2.3157 -1.8794 -0.6533
  169SAPE   C2919099   2.110   1.870   7.607 -0.4627 -0.6179 -1.0403
  169SAPE   H9R19100   2.017   1.830   7.650 -0.0927  0.7192  1.1380
  169SAPE  C21019101   2.186   1.950   7.713 -0.2465 -0.2181 -0.4891
  169SAPE  H10R19102   2.116   2.010   7.774 -1.2534  0.1499 -1.9569
  169SAPE  H10S19103   2.242   2.032   7.664 -1.7904  1.4749  0.4408
  169SAPE  C21119104   2.298   1.876   7.786  0.5745 -0.1639  0.4192
  169SAPE  H11R19105   2.348   1.793   7.733  1.6587  0.0598  1.0487
  169SAPE  C21219106   2.327   1.891   7.920 -0.2428 -0.0104 -0.2630
  169SAPE  H12R19107   2.411   1.832   7.959 -0.6207  0.7848  1.9007
  169SAPE  C21319108   2.261   1.976   8.018  0.8539  0.0492 -0.0827
  169SAPE  H13R19109   2.279   1.928   8.116  1.8024 -0.7241 -0.6113
  169SAPE  H13S19110   2.153   1.960   8.000  0.3263  1.0487  1.9699
  169SAPE  C21419111   2.306   2.119   8.009  0.6716  0.4474  0.1767
  169SAPE  H14R19112   2.400   2.135   7.953  0.4058 -0.9962 -0.7479
  169SAPE  C21519113   2.256   2.219   8.088  0.1986  0.1252 -0.7629
  169SAPE  H15R19114   2.308   2.316   8.093  1.2389 -0.4693  2.9701
  169SAPE  C21619115   2.141   2.197   8.191  0.4488  0.0182 -0.1197
  169SAPE  H16R19116   2.077   2.115   8.153  0.6712  0.0728 -0.6172
  169SAPE  H16S19117   2.074   2.287   8.190 -2.3395 -1.9225 -1.6983
  169SAPE  C21719118   2.188   2.156   8.327  0.2247 -0.0456 -0.6717
  169SAPE  H17R19119   2.247   2.064   8.311 -1.1999 -1.2031  0.4095
  169SAPE  H17S19120   2.108   2.117   8.395  1.0134 -1.0737 -0.3180
  169SAPE  C21819121   2.269   2.262   8.395  0.4385 -0.3110 -0.8985
  169SAPE  H18R19122   2.204   2.349   8.369 -0.6166 -1.4816 -2.3526
  169SAPE  H18S19123   2.369   2.270   8.346  0.5822 -1.6485 -0.8637
  169SAPE  C21919124   2.291   2.244   8.549  0.1985  0.2177  0.4327
  169SAPE  H19R19125   2.354   2.155   8.566 -1.3439 -0.9032  0.5140
  169SAPE  H19S19126   2.188   2.228   8.587  0.1275 -0.3142  0.0306
  169SAPE  C22019127   2.342   2.366   8.621 -0.2285  0.3800  0.7407
  169SAPE  H20R19128   2.445   2.379   8.581  0.2168  0.6175  1.8932
  169SAPE  H20S19129   2.364   2.345   8.728 -3.4822  0.0115  1.4310
  169SAPE  H20T19130   2.294   2.466   8.610  0.8023  0.8580  0.4792
  169SAPE   C3319131   3.333   2.026   7.025 -0.5783 -0.2162 -0.2724
  169SAPE   H3X19132   3.273   2.111   7.064  2.9771  1.7826  1.3202
  169SAPE   H3Y19133   3.391   2.050   6.934  2.7143  0.1670  1.7697
  169SAPE   C3419134   3.449   1.994   7.124 -0.3843  0.3060 -0.3930
  169SAPE   H4X19135   3.514   2.084   7.126  0.2611 -0.1318 -1.0679
  169SAPE   H4Y19136   3.505   1.903   7.095 -1.8337 -0.9551  0.6041
  169SAPE   C3519137   3.389   1.978   7.259 -0.6295  0.7440 -0.0679
  169SAPE   H5X19138   3.304   1.907   7.247  2.4896 -3.3129 -0.4941
  169SAPE   H5Y19139   3.346   2.075   7.291 -0.2949  0.5352  1.0577
  169SAPE   C3619140   3.484   1.938   7.381 -0.3648  0.1556  0.1037
  169SAPE   H6X19141   3.563   2.014   7.394  1.2791 -1.7521  2.0811
  169SAPE   H6Y19142   3.532   1.838   7.368 -0.6446 -0.0301  0.4751
  169SAPE   C3719143   3.419   1.930   7.520 -0.2707 -0.1343  0.5527
  169SAPE   H7X19144   3.347   1.846   7.531 -1.1091  0.5549  0.4907
  169SAPE   H7Y19145   3.354   2.020   7.531 -1.1657 -0.5098 -1.2460
  169SAPE   C3819146   3.510   1.909   7.639  0.3113  0.4464  0.1602
  169SAPE   H8X19147   3.598   1.977   7.634  0.1072  0.6855 -0.2906
  169SAPE   H8Y19148   3.561   1.811   7.641 -1.2945 -0.4052  1.9104
  169SAPE   C3919149   3.446   1.924   7.778 -0.9799  0.4174  0.0937
  169SAPE   H9X19150   3.370   1.846   7.801 -0.3181 -0.0516  0.7351
  169SAPE   H9Y19151   3.408   2.028   7.773  1.5699  1.4860  1.0131
  169SAPE  C31019152   3.552   1.900   7.884 -0.2853  0.2512  0.5609
  169SAPE  H10X19153   3.649   1.944   7.851  0.6445 -1.4324  0.9297
  169SAPE  H10Y19154   3.562   1.791   7.899  0.9766  0.0361 -1.4435
  169SAPE  C31119155   3.508   1.960   8.016 -0.7110 -0.8776 -0.0375
  169SAPE  H11X19156   3.405   1.927   8.042 -0.4991 -1.2333  0.3684
  169SAPE  H11Y19157   3.512   2.071   8.009 -0.3206 -0.7586  1.6200
  169SAPE  C31219158   3.608   1.919   8.130  0.1124  0.3278  0.1295
  169SAPE  H12X19159   3.714   1.942   8.106  0.5914  0.7639  2.3788
  169SAPE  H12Y19160   3.604   1.810   8.150 -1.7660 -0.1961 -2.5239
  169SAPE  C31319161   3.565   2.005   8.247 -0.0445  0.2138 -0.4649
  169SAPE  H13X19162   3.454   2.007   8.250 -0.0092  1.5305  1.3400
  169SAPE  H13Y19163   3.595   2.112   8.247 -1.0756  0.5388  1.3223
  169SAPE  C31419164   3.627   1.949   8.378 -0.1047 -0.1992  0.5359
  169SAPE  H14X19165   3.693   1.860   8.368 -1.6591 -1.4725  1.1523
  169SAPE  H14Y19166   3.535   1.927   8.437  1.0336  2.1109  3.4673
  169SAPE  C31519167   3.715   2.053   8.455 -0.3267 -0.0839  0.4548
  169SAPE  H15X19168   3.664   2.152   8.452 -0.0025  0.1152 -2.6581
  169SAPE  H15Y19169   3.807   2.068   8.394 -0.8995  1.9285 -0.0121
  169SAPE  C31619170   3.740   2.007   8.599 -0.6529  0.5414  0.0986
  169SAPE  H16X19171   3.645   2.001   8.656  0.6994 -0.0820  2.4304
  169SAPE  H16Y19172   3.801   2.086   8.646 -0.6539  1.6256 -1.6491
  169SAPE  C31719173   3.833   1.871   8.596  0.2026 -0.0363 -0.5412
  169SAPE  H17X19174   3.895   1.874   8.505  1.2230 -1.1707  0.0842
  169SAPE  H17Y19175   3.773   1.777   8.596  1.0474 -0.6221  1.3704
  169SAPE  C31819176   3.938   1.868   8.706 -0.0780 -0.7606 -0.4446
  169SAPE  H18X19177   3.993   1.773   8.722 -0.7762 -1.1160 -0.0968
  169SAPE  H18Y19178   3.910   1.897   8.810  1.7556  0.2672 -0.1864
  169SAPE  H18Z19179   4.015   1.946   8.690 -2.0628  1.9235  1.9292
  170SAPE     N19180   3.611   3.801   6.224  0.0866  0.0048  0.7448
  170SAPE   HN119181   3.618   3.753   6.133 -0.4872 -1.0240  1.2342
  170SAPE   HN219182   3.693   3.777   6.284  1.2008  0.4710 -0.5433
  170SAPE   HN319183   3.521   3.771   6.266 -0.1418  3.0634  2.8667
  170SAPE   C1219184   3.620   3.955   6.209 -0.0420  0.2327  0.2462
  170SAPE  H12A19185   3.554   3.998   6.288 -0.2282 -0.3350  0.4112
  170SAPE  H12B19186   3.574   3.971   6.110  0.5233  0.6666  0.0531
  170SAPE   C1119187   3.761   4.005   6.179  0.6167 -0.1989 -0.4812
  170SAPE  H11A19188   3.755   4.101   6.122 -2.6105 -1.7537 -3.1386
  170SAPE  H11B19189   3.812   3.939   6.106  0.6585 -1.1188  0.3627
  170SAPE     P19190   3.891   4.132   6.367  0.3151  0.9873 -0.3732
  170SAPE   O1319191   4.002   4.189   6.289 -0.4484 -0.1200 -0.4764
  170SAPE   O1419192   3.767   4.217   6.378  0.5264 -0.3039  0.2710
  170SAPE   O1219193   3.841   3.999   6.299 -0.2135  0.3024 -0.4286
  170SAPE   O1119194   3.936   4.083   6.506 -0.1786 -0.1440  0.2617
  170SAPE    C119195   3.897   3.959   6.561 -0.6414 -0.1774 -0.2357
  170SAPE    HA19196   3.808   3.915   6.512  0.4048 -1.3371 -1.1592
  170SAPE    HB19197   3.984   3.890   6.553 -1.2642 -0.9630 -0.4278
  170SAPE    C219198   3.875   3.967   6.711  0.7440 -0.2781  0.6905
  170SAPE    HS19199   3.783   4.029   6.720  0.5680  0.3738 -3.6403
  170SAPE   O2119200   3.978   4.016   6.792 -0.4326 -0.7466 -0.3138
  170SAPE   C2119201   3.969   4.148   6.820 -0.5488  0.2919  0.5675
  170SAPE   O2219202   3.877   4.224   6.794 -0.3438  0.3924  0.7182
  170SAPE   C2219203   4.089   4.184   6.913  0.6056 -0.2658 -0.4519
  170SAPE   H2R19204   4.133   4.087   6.944 -2.3935 -1.2530  1.1297
  170SAPE   H2S19205   4.155   4.249   6.851  1.0711  0.3315  0.6400
  170SAPE    C319206   3.844   3.825   6.770  0.1332  0.6177  1.6345
  170SAPE    HX19207   3.924   3.752   6.748  0.1166  0.4467  2.1230
  170SAPE    HY19208   3.763   3.781   6.708  0.9033  2.8993 -1.1929
  170SAPE   O3119209   3.798   3.833   6.907 -0.5623  0.8086 -0.1451
  170SAPE   C3119210   3.885   3.789   6.997  0.6302  0.9489  0.3506
  170SAPE   O3219211   3.985   3.722   6.976 -0.0624 -0.5002 -0.1814
  170SAPE   C3219212   3.826   3.837   7.128  0.0951  0.0599  0.1408
  170SAPE   H2X19213   3.759   3.923   7.108  2.0659  1.6144 -0.1691
  170SAPE   H2Y19214   3.914   3.880   7.181  1.2006 -1.0513 -0.7384
  170SAPE   C2319215   4.053   4.266   7.038  0.8820 -0.1299  0.1068
  170SAPE   H3R19216   3.988   4.353   7.018  1.3717  0.2067 -0.0280
  170SAPE   H3S19217   4.144   4.320   7.072  1.9693 -3.1768  2.5656
  170SAPE   C2419218   4.000   4.187   7.163 -0.2548 -0.3430 -0.4453
  170SAPE   H4R19219   4.029   4.082   7.143  0.0067 -0.1513 -1.0727
  170SAPE   H4S19220   3.889   4.189   7.169 -0.2204 -1.1437  0.9924
  170SAPE   C2519221   4.068   4.244   7.286 -0.4722  0.3898  0.7987
  170SAPE   H5R19222   4.157   4.308   7.286 -0.0833 -0.1086 -0.8044
  170SAPE   C2619223   4.027   4.228   7.412 -0.0370 -0.1732 -0.2463
  170SAPE   H6R19224   4.096   4.250   7.495  0.4690  0.7381 -0.8922
  170SAPE   C2719225   3.913   4.138   7.460  0.2429 -0.3198 -0.1577
  170SAPE   H7R19226   3.949   4.053   7.522 -0.5966  2.0680  4.0128
  170SAPE   H7S19227   3.865   4.088   7.373  1.0440  0.1395 -0.8759
  170SAPE   C2819228   3.803   4.217   7.535  0.6194  0.1557  0.3515
  170SAPE   H8R19229   3.773   4.307   7.480 -0.6771  0.3562  1.3673
  170SAPE   C2919230   3.747   4.192   7.655  0.2599  0.2608  0.1356
  170SAPE   H9R19231   3.662   4.251   7.693 -1.0088 -2.1380  1.2886
  170SAPE  C21019232   3.772   4.079   7.754 -0.9261  0.3867  0.6554
  170SAPE  H10R19233   3.724   3.989   7.710 -3.2259  0.1838  3.2725
  170SAPE  H10S19234   3.716   4.094   7.849 -1.8738 -0.1406  0.1919
  170SAPE  C21119235   3.917   4.066   7.804  0.0873 -0.1674 -0.4381
  170SAPE  H11R19236   3.997   4.134   7.770 -0.1112  0.4306  0.2704
  170SAPE  C21219237   3.959   3.975   7.893 -0.4496  0.1641  0.4665
  170SAPE  H12R19238   4.064   3.976   7.924 -0.8674 -2.0339  2.2174
  170SAPE  C21319239   3.874   3.863   7.955 -0.8622 -0.6259 -0.1763
  170SAPE  H13R19240   3.934   3.770   7.967  0.3649  0.2498  0.7182
  170SAPE  H13S19241   3.786   3.838   7.893 -0.3773 -0.2062 -1.0471
  170SAPE  C21419242   3.822   3.913   8.081 -0.4636 -0.2393 -0.0259
  170SAPE  H14R19243   3.738   3.978   8.052  0.2746  1.8050  2.1394
  170SAPE  C21519244   3.858   3.879   8.211 -0.0195 -0.8780  0.1445
  170SAPE  H15R19245   3.791   3.918   8.290  0.8467  0.8008  0.0894
  170SAPE  C21619246   3.966   3.791   8.252 -0.4679 -0.2234 -0.0440
  170SAPE  H16R19247   4.030   3.749   8.170 -0.5365 -2.4381  0.9647
  170SAPE  H16S19248   3.916   3.702   8.296 -0.8900  0.2024  0.3425
  170SAPE  C21719249   4.061   3.846   8.361  0.4434  0.2784  0.1956
  170SAPE  H17R19250   4.007   3.850   8.459  1.9142 -2.7979  1.2550
  170SAPE  H17S19251   4.084   3.953   8.342 -2.0160  1.1878  1.7519
  170SAPE  C21819252   4.185   3.762   8.378  0.0365  0.2449  0.2858
  170SAPE  H18R19253   4.237   3.742   8.282 -1.0365 -2.9477  0.2796
  170SAPE  H18S19254   4.165   3.659   8.414  3.1723 -0.2888  0.7665
  170SAPE  C21919255   4.277   3.832   8.470  0.3761  0.2151 -0.5850
  170SAPE  H19R19256   4.311   3.933   8.439  0.5308 -0.0466 -1.2905
  170SAPE  H19S19257   4.364   3.763   8.462 -1.0027 -1.8082  0.8829
  170SAPE  C22019258   4.229   3.835   8.619  0.4679 -0.7249  0.0956
  170SAPE  H20R19259   4.304   3.892   8.678  0.5315  0.0991 -0.7677
  170SAPE  H20S19260   4.216   3.739   8.674  1.9773  0.5112  2.8216
  170SAPE  H20T19261   4.133   3.891   8.622  1.8446  1.7666  0.0984
  170SAPE   C3319262   3.768   3.726   7.229 -0.1336 -0.0129 -0.3367
  170SAPE   H3X19263   3.856   3.658   7.240 -0.8463 -0.7296  1.1167
  170SAPE   H3Y19264   3.689   3.670   7.175 -0.6067  1.8202 -1.6163
  170SAPE   C3419265   3.728   3.781   7.361 -0.3453 -0.1878 -0.5190
  170SAPE   H4X19266   3.643   3.852   7.353 -0.5591 -0.2855  0.7629
  170SAPE   H4Y19267   3.817   3.824   7.412 -0.0242 -0.2719 -0.9929
  170SAPE   C3519268   3.680   3.670   7.449  0.0468 -0.3493 -0.2530
  170SAPE   H5X19269   3.754   3.590   7.427  2.2618  2.0952 -2.3578
  170SAPE   H5Y19270   3.576   3.644   7.418 -0.8089  2.5096 -0.0808
  170SAPE   C3619271   3.691   3.709   7.597  0.1778  0.2002 -0.0667
  170SAPE   H6X19272   3.627   3.791   7.634  0.3379 -1.1066  3.5722
  170SAPE   H6Y19273   3.789   3.755   7.624 -0.4861  1.4738  0.2100
  170SAPE   C3719274   3.657   3.594   7.699 -0.1146 -0.4383  0.1210
  170SAPE   H7X19275   3.728   3.512   7.675 -0.2587  0.0171 -2.1040
  170SAPE   H7Y19276   3.552   3.561   7.682 -0.4353  0.4769  0.2591
  170SAPE   C3819277   3.679   3.597   7.852  0.6480  0.6323 -0.8980
  170SAPE   H8X19278   3.638   3.692   7.893 -1.4683 -0.7796  0.3939
  170SAPE   H8Y19279   3.790   3.588   7.862  0.4966 -0.5850 -0.1378
  170SAPE   C3919280   3.609   3.485   7.930 -0.0415 -0.6775  0.3181
  170SAPE   H9X19281   3.648   3.388   7.895  0.7240 -0.2871  0.0752
  170SAPE   H9Y19282   3.504   3.493   7.894 -0.3903  0.6453  1.4942
  170SAPE  C31019283   3.609   3.482   8.080 -0.2605  0.2432  0.1021
  170SAPE  H10X19284   3.576   3.387   8.128  0.6674  0.5935  1.4829
  170SAPE  H10Y19285   3.526   3.544   8.120 -1.5827 -1.2018 -0.3275
  170SAPE  C31119286   3.745   3.502   8.148  0.2709  0.3623  0.2098
  170SAPE  H11X19287   3.758   3.612   8.153  3.3028  0.1107 -0.1250
  170SAPE  H11Y19288   3.824   3.451   8.088 -0.5472 -0.7700  0.0734
  170SAPE  C31219289   3.752   3.458   8.300 -0.6023 -0.6302  0.4473
  170SAPE  H12X19290   3.855   3.483   8.335  0.9515 -0.5675 -3.6173
  170SAPE  H12Y19291   3.767   3.348   8.295 -0.9595 -0.6447 -0.6257
  170SAPE  C31319292   3.630   3.496   8.386  0.1837  0.9833 -0.0304
  170SAPE  H13X19293   3.637   3.434   8.478  0.4042 -2.2297 -2.0646
  170SAPE  H13Y19294   3.536   3.469   8.334 -0.3550  1.1391  0.8336
  170SAPE  C31419295   3.632   3.640   8.434  0.1137  0.3402  0.1334
  170SAPE  H14X19296   3.528   3.666   8.464 -0.1657 -0.0506 -0.4693
  170SAPE  H14Y19297   3.655   3.715   8.356  2.6943  0.1087  0.5772
  170SAPE  C31519298   3.728   3.666   8.549  0.2264  0.3253 -0.2308
  170SAPE  H15X19299   3.830   3.627   8.527  1.8895  1.2938  4.6494
  170SAPE  H15Y19300   3.699   3.600   8.633  2.3494 -2.0976 -1.2574
  170SAPE  C31619301   3.742   3.809   8.593 -0.1726  0.0535  0.2884
  170SAPE  H16X19302   3.639   3.849   8.581 -0.5677 -0.4714  1.7981
  170SAPE  H16Y19303   3.805   3.868   8.523 -0.6242 -0.8936 -0.9612
  170SAPE  C31719304   3.791   3.828   8.734  1.1661  0.5959  0.0712
  170SAPE  H17X19305   3.896   3.791   8.747  1.8445  1.9577 -1.2378
  170SAPE  H17Y19306   3.716   3.777   8.797  1.6900  1.1955  1.2110
  170SAPE  C31819307   3.792   3.978   8.774 -0.1060  0.5676 -0.2352
  170SAPE  H18X19308   3.696   4.021   8.739  0.3636 -0.1538 -2.6143
  170SAPE  H18Y19309   3.870   4.034   8.718  0.2857  0.8795  0.6187
  170SAPE  H18Z19310   3.807   3.978   8.884  0.7661 -1.4509 -0.3017
  171SAPE     N19311   5.220   5.362   6.303 -1.1472 -0.4043 -0.6986
  171SAPE   HN119312   5.312   5.387   6.345 -1.2837  0.0487 -0.6572
  171SAPE   HN219313   5.188   5.280   6.358 -0.4828 -1.0552 -1.2602
  171SAPE   HN319314   5.241   5.333   6.205  1.7151 -0.7983 -0.0615
  171SAPE   C1219315   5.132   5.488   6.321  0.5259  0.0473  0.1006
  171SAPE  H12A19316   5.052   5.475   6.244  0.1181 -2.8028  0.8755
  171SAPE  H12B19317   5.202   5.572   6.306 -0.3334  1.2123  2.2877
  171SAPE   C1119318   5.061   5.505   6.461  0.2632  0.3970  0.0085
  171SAPE  H11A19319   5.131   5.537   6.542  0.1427  1.0883 -0.1595
  171SAPE  H11B19320   5.020   5.403   6.479 -0.8853  0.7969 -0.2953
  171SAPE     P19321   4.975   5.751   6.458  0.0679 -0.0734 -0.0900
  171SAPE   O1319322   5.098   5.797   6.398 -0.6183  0.0631 -0.0573
  171SAPE   O1419323   4.852   5.811   6.413  0.3559  0.5314 -1.0291
  171SAPE   O1219324   4.955   5.600   6.446 -0.2792  0.3168 -0.2178
  171SAPE   O1119325   4.975   5.785   6.607 -0.5344 -0.1023 -0.3450
  171SAPE    C119326   4.864   5.753   6.697  0.3281 -0.3342 -0.2279
  171SAPE    HA19327   4.768   5.777   6.646  1.1906  1.4639 -1.0917
  171SAPE    HB19328   4.863   5.648   6.732  1.3807 -0.0073  0.8298
  171SAPE    C219329   4.860   5.855   6.811 -0.6058 -0.2212  0.0196
  171SAPE    HS19330   4.869   5.952   6.758 -3.3101 -0.1245 -0.3878
  171SAPE   O2119331   4.967   5.826   6.910  0.6061  0.2149 -0.0720
  171SAPE   C2119332   5.000   5.939   6.976 -0.4376  0.6879 -0.3797
  171SAPE   O2219333   4.963   6.050   6.956  0.0672 -0.5554  0.2703
  171SAPE   C2219334   5.098   5.910   7.088  0.5332  0.0888  0.0445
  171SAPE   H2R19335   5.089   5.807   7.128 -0.3875  1.2325  3.1064
  171SAPE   H2S19336   5.200   5.905   7.045  0.6754 -0.7577  0.4705
  171SAPE    C319337   4.716   5.849   6.885  0.4837  0.4213  0.2325
  171SAPE    HX19338   4.701   5.740   6.902 -1.5488  0.7817  1.0511
  171SAPE    HY19339   4.638   5.887   6.816  1.7051  1.1604 -0.7999
  171SAPE   O3119340   4.700   5.909   7.014 -0.4624  0.0424 -0.0639
  171SAPE   C3119341   4.659   6.032   7.018  0.6929  0.1286  0.1377
  171SAPE   O3219342   4.635   6.105   6.921  0.6066  0.3103  0.1815
  171SAPE   C3219343   4.630   6.088   7.159  0.0143  0.3241 -0.0044
  171SAPE   H2X19344   4.722   6.147   7.175  0.5149 -0.4902  0.1818
  171SAPE   H2Y19345   4.635   5.996   7.222  1.6189 -0.9702 -1.8783
  171SAPE   C2319346   5.075   6.018   7.197 -0.5758  0.6529  0.0213
  171SAPE   H3R19347   5.060   6.120   7.156  2.4145  0.4225 -1.9548
  171SAPE   H3S19348   5.163   6.030   7.265 -0.3222  1.6458 -0.4644
  171SAPE   C2419349   4.962   5.980   7.293  0.3131 -0.0450  0.1889
  171SAPE   H4R19350   4.980   5.879   7.334  2.0749  0.0629 -0.2257
  171SAPE   H4S19351   4.866   5.990   7.238  1.5949  2.6079 -1.8510
  171SAPE   C2519352   4.966   6.069   7.413 -0.5104  0.4142 -0.0553
  171SAPE   H5R19353   5.047   6.143   7.409  0.1908 -0.2959  0.4564
  171SAPE   C2619354   4.901   6.053   7.534  0.5012  0.0261 -0.2972
  171SAPE   H6R19355   4.907   6.127   7.615 -3.0982  0.7276 -0.5030
  171SAPE   C2719356   4.807   5.941   7.560 -0.1189  0.9241 -1.3037
  171SAPE   H7R19357   4.841   5.894   7.655  0.8596  1.1070 -1.5462
  171SAPE   H7S19358   4.811   5.858   7.486  1.2625 -2.0847  1.8318
  171SAPE   C2819359   4.661   5.972   7.565 -0.2965  0.9334  0.4788
  171SAPE   H8R19360   4.628   6.038   7.484  1.3391  1.0391 -0.1508
  171SAPE   C2919361   4.577   5.940   7.668  0.4063  0.5358 -0.1057
  171SAPE   H9R19362   4.473   5.956   7.638  0.8481  2.7179 -0.6963
  171SAPE  C21019363   4.610   5.866   7.793  0.0175 -0.2716  0.6306
  171SAPE  H10R19364   4.697   5.800   7.772  0.1890 -0.5720  2.1402
  171SAPE  H10S19365   4.522   5.811   7.831  0.0824  0.7866  2.4464
  171SAPE  C21119366   4.644   5.977   7.892 -0.0115  0.4437  0.1249
  171SAPE  H11R19367   4.732   6.041   7.874  0.4578  0.2790  1.7470
  171SAPE  C21219368   4.584   5.992   8.010  0.8108 -0.4494 -0.0703
  171SAPE  H12R19369   4.607   6.078   8.075  0.2010 -1.0740  1.0084
  171SAPE  C21319370   4.462   5.914   8.052  0.2835 -0.5207  0.2013
  171SAPE  H13R19371   4.507   5.823   8.097  1.6985  0.8487  1.6870
  171SAPE  H13S19372   4.399   5.872   7.970  0.7122 -1.2506  0.2387
  171SAPE  C21419373   4.373   5.984   8.155  0.5012  0.0625 -0.2274
  171SAPE  H14R19374   4.306   6.057   8.108 -0.4269 -0.0357  0.9101
  171SAPE  C21519375   4.364   5.974   8.293 -0.2590  0.0520 -0.3518
  171SAPE  H15R19376   4.282   6.030   8.341  0.6674 -0.2241  1.6513
  171SAPE  C21619377   4.454   5.894   8.380  0.0224  0.4649  0.6749
  171SAPE  H16R19378   4.551   5.947   8.383  1.8347 -2.6778  1.1512
  171SAPE  H16S19379   4.482   5.792   8.346 -2.1350  0.7733 -2.5090
  171SAPE  C21719380   4.387   5.865   8.518  0.1290  0.8089  0.2917
  171SAPE  H17R19381   4.296   5.810   8.486 -0.4950  1.8515  0.2446
  171SAPE  H17S19382   4.353   5.954   8.575  0.5773  0.9969  0.2688
  171SAPE  C21819383   4.473   5.765   8.605 -0.4893 -0.5388 -0.8826
  171SAPE  H18R19384   4.541   5.721   8.528 -0.3172  1.0954 -1.7120
  171SAPE  H18S19385   4.408   5.690   8.654  1.7382 -0.8414  1.8946
  171SAPE  C21919386   4.572   5.846   8.688 -0.1726  1.1784  0.4183
  171SAPE  H19R19387   4.518   5.919   8.752 -2.2848  1.2534 -1.3440
  171SAPE  H19S19388   4.634   5.908   8.621 -2.1677 -1.5089 -4.3858
  171SAPE  C22019389   4.651   5.756   8.784  0.8697 -0.2371 -0.1464
  171SAPE  H20R19390   4.700   5.806   8.870 -0.6405 -3.4252  2.7928
  171SAPE  H20S19391   4.732   5.711   8.723  1.3264 -0.4108  0.5868
  171SAPE  H20T19392   4.588   5.683   8.839 -0.8120  1.8362  0.8363
  171SAPE   C3319393   4.496   6.154   7.183 -0.1931  0.1723 -0.1420
  171SAPE   H3X19394   4.416   6.083   7.156 -1.6791  1.9899 -0.6990
  171SAPE   H3Y19395   4.481   6.243   7.119 -1.5739  0.0455 -0.0239
  171SAPE   C3419396   4.467   6.215   7.324  0.3163  0.2813 -0.6743
  171SAPE   H4X19397   4.539   6.299   7.333  0.0758  0.4042  0.1515
  171SAPE   H4Y19398   4.478   6.139   7.403 -3.2885 -0.5857 -0.8298
  171SAPE   C3519399   4.313   6.261   7.340  0.1736 -0.0904 -0.1224
  171SAPE   H5X19400   4.244   6.181   7.305 -1.8180  1.5345 -0.1340
  171SAPE   H5Y19401   4.296   6.349   7.273 -0.7049  0.1900  0.4497
  171SAPE   C3619402   4.275   6.290   7.487 -0.2405  0.2394 -0.4087
  171SAPE   H6X19403   4.168   6.320   7.487 -0.3691 -0.1477 -1.5987
  171SAPE   H6Y19404   4.343   6.370   7.524  0.4394 -0.6821  0.3675
  171SAPE   C3719405   4.276   6.165   7.581  0.1358 -0.4947 -0.7280
  171SAPE   H7X19406   4.381   6.135   7.602  0.3793  0.1320 -1.0115
  171SAPE   H7Y19407   4.220   6.088   7.523 -1.4415  1.3095 -1.7024
  171SAPE   C3819408   4.188   6.181   7.707 -0.6385 -0.4548  0.2314
  171SAPE   H8X19409   4.212   6.097   7.777 -0.2843  0.7422  1.5976
  171SAPE   H8Y19410   4.080   6.181   7.683 -0.4110 -1.0311 -0.8280
  171SAPE   C3919411   4.213   6.297   7.803  0.1497 -0.3768  0.6805
  171SAPE   H9X19412   4.233   6.391   7.748 -2.2610 -0.0951  0.1798
  171SAPE   H9Y19413   4.299   6.276   7.870 -2.3752 -0.9693  4.0221
  171SAPE  C31019414   4.093   6.323   7.895  0.3268  0.0863 -0.3230
  171SAPE  H10X19415   4.001   6.303   7.836  1.0181 -2.9364 -0.5343
  171SAPE  H10Y19416   4.097   6.429   7.927  0.3985 -0.4411  1.5493
  171SAPE  C31119417   4.094   6.236   8.023  0.7542 -0.7142 -0.5782
  171SAPE  H11X19418   4.194   6.242   8.071  0.3530 -0.2452  0.2174
  171SAPE  H11Y19419   4.076   6.132   7.989 -0.2853 -0.2811 -1.4050
  171SAPE  C31219420   3.991   6.272   8.128  0.6958  0.1050 -0.1138
  171SAPE  H12X19421   3.888   6.267   8.086  0.8278  0.4496 -0.4883
  171SAPE  H12Y19422   4.013   6.379   8.148  0.1799  0.6254 -2.0733
  171SAPE  C31319423   4.000   6.192   8.258 -0.9021 -0.2276  0.5802
  171SAPE  H13X19424   4.098   6.213   8.307 -0.6570  0.3519 -0.1440
  171SAPE  H13Y19425   3.993   6.085   8.228 -1.1040 -0.3544  1.0785
  171SAPE  C31419426   3.880   6.224   8.350  0.4742  0.2882  0.0817
  171SAPE  H14X19427   3.795   6.245   8.281  1.1528 -1.0962 -1.2311
  171SAPE  H14Y19428   3.906   6.310   8.416 -0.8711  0.2681  0.6711
  171SAPE  C31519429   3.845   6.100   8.435 -0.2363 -0.0125  0.9217
  171SAPE  H15X19430   3.928   6.075   8.504 -0.5232  1.2618  1.7744
  171SAPE  H15Y19431   3.820   6.007   8.379  0.7296  0.9467 -1.2047
  171SAPE  C31619432   3.735   6.132   8.539  0.4113 -0.1902  0.0573
  171SAPE  H16X19433   3.728   6.036   8.596 -0.4662 -0.4860 -0.5305
  171SAPE  H16Y19434   3.643   6.154   8.481  1.8551 -0.9494 -2.6729
  171SAPE  C31719435   3.780   6.247   8.630  0.1436  0.1963  0.6149
  171SAPE  H17X19436   3.755   6.342   8.580  1.5032  0.4553  0.4084
  171SAPE  H17Y19437   3.890   6.246   8.641  0.3306  1.9175 -0.8094
  171SAPE  C31819438   3.714   6.228   8.764  0.2796  0.2069  0.4294
  171SAPE  H18X19439   3.605   6.245   8.748  0.3381  2.3912  1.9115
  171SAPE  H18Y19440   3.755   6.290   8.846  0.7955 -0.7010  0.8797
  171SAPE  H18Z19441   3.710   6.122   8.797 -1.5918  0.1124 -0.0006
  172SAPE     N19442   4.973   4.721   6.409  0.4503  0.2595 -0.0160
  172SAPE   HN119443   4.934   4.631   6.375 -1.4209  0.4411  1.4768
  172SAPE   HN219444   5.041   4.758   6.340 -1.6782  1.2813 -1.6671
  172SAPE   HN319445   5.024   4.699   6.498  1.3586 -1.3350 -0.8919
  172SAPE   C1219446   4.859   4.824   6.427  0.0305  0.1931 -0.2290
  172SAPE  H12A19447   4.773   4.761   6.457 -0.4902 -0.0095 -2.0403
  172SAPE  H12B19448   4.849   4.869   6.326 -0.7360 -0.6784 -0.5539
  172SAPE   C1119449   4.899   4.921   6.541 -0.5161 -0.5236 -0.3235
  172SAPE  H11A19450   4.999   4.963   6.517 -0.7210  0.9706  1.2605
  172SAPE  H11B19451   4.923   4.865   6.634 -1.3921 -1.8291 -0.8425
  172SAPE     P19452   4.823   5.169   6.536  0.4238  0.1969  0.2859
  172SAPE   O1319453   4.829   5.192   6.391 -0.2868 -0.0625 -0.1910
  172SAPE   O1419454   4.716   5.251   6.598 -0.1223 -0.4468 -0.6974
  172SAPE   O1219455   4.804   5.018   6.576 -0.6717 -0.1985 -0.5051
  172SAPE   O1119456   4.961   5.195   6.604  0.1738 -0.5128 -0.0726
  172SAPE    C119457   4.988   5.160   6.740 -0.1151 -0.4715  0.5586
  172SAPE    HA19458   4.903   5.102   6.783 -0.7693 -0.1194 -0.2245
  172SAPE    HB19459   5.078   5.095   6.743  0.8128  0.7736  0.3570
  172SAPE    C219460   5.008   5.285   6.839 -0.4209 -0.3544 -0.1301
  172SAPE    HS19461   4.970   5.376   6.788  2.0365 -0.1334 -1.7010
  172SAPE   O2119462   5.149   5.294   6.867  0.5048  0.2611  0.6418
  172SAPE   C2119463   5.184   5.422   6.899 -0.2296 -0.1861 -0.0124
  172SAPE   O2219464   5.105   5.516   6.908 -0.6503 -0.2046 -0.2790
  172SAPE   C2219465   5.338   5.434   6.909 -0.3085 -0.3092  0.2943
  172SAPE   H2R19466   5.392   5.338   6.892  0.0944 -0.2279  1.0386
  172SAPE   H2S19467   5.375   5.493   6.823  5.1874 -1.1344  1.7072
  172SAPE    C319468   4.924   5.258   6.965  0.6283  0.0552 -0.5169
  172SAPE    HX19469   4.961   5.168   7.020  0.9095 -2.2906 -4.2104
  172SAPE    HY19470   4.819   5.242   6.933  0.0858 -0.1846  1.2636
  172SAPE   O3119471   4.933   5.362   7.066 -0.3133 -0.1460 -0.1976
  172SAPE   C3119472   4.851   5.477   7.052  0.0153  0.0355 -0.0574
  172SAPE   O3219473   4.775   5.495   6.961 -0.1768 -0.3311 -0.1126
  172SAPE   C3219474   4.879   5.577   7.169  0.6972 -0.6495  1.0521
  172SAPE   H2X19475   4.876   5.663   7.098  1.7130 -0.8777  0.7273
  172SAPE   H2Y19476   4.983   5.570   7.208  1.3002  2.9675  0.4457
  172SAPE   C2319477   5.383   5.507   7.035 -0.5190  0.1732 -0.0497
  172SAPE   H3R19478   5.322   5.598   7.052 -0.6733  0.5362 -2.2267
  172SAPE   H3S19479   5.490   5.531   7.023 -0.6356  0.7492  0.0475
  172SAPE   C2419480   5.378   5.419   7.163 -1.2192 -0.8385 -0.0248
  172SAPE   H4R19481   5.458   5.455   7.232 -2.2893  0.0241  0.7931
  172SAPE   H4S19482   5.416   5.318   7.135  0.5174 -0.3027  0.2300
  172SAPE   C2519483   5.251   5.403   7.233 -0.5813  0.3051  0.6573
  172SAPE   H5R19484   5.191   5.320   7.194  0.2691  0.4623 -1.1065
  172SAPE   C2619485   5.213   5.461   7.351  0.6864  0.0485 -0.5991
  172SAPE   H6R19486   5.112   5.449   7.391  0.2876 -0.1238 -1.6191
  172SAPE   C2719487   5.288   5.569   7.425  0.2687 -0.4214  0.0819
  172SAPE   H7R19488   5.384   5.585   7.372  0.3920 -2.6281 -0.4685
  172SAPE   H7S19489   5.327   5.522   7.518  1.8462 -0.7325 -0.7073
  172SAPE   C2819490   5.206   5.693   7.445  0.3175  0.2394 -0.3757
  172SAPE   H8R19491   5.220   5.778   7.376 -1.4979 -0.8998 -2.2808
  172SAPE   C2919492   5.118   5.717   7.545 -0.8788 -0.2757  0.0554
  172SAPE   H9R19493   5.066   5.813   7.556  1.0247  0.5793  2.3640
  172SAPE  C21019494   5.078   5.604   7.641  0.2532 -0.0343  0.1498
  172SAPE  H10R19495   5.163   5.579   7.708 -2.4798 -1.4648  3.3773
  172SAPE  H10S19496   5.057   5.509   7.586  0.2793 -1.2527  2.1363
  172SAPE  C21119497   4.960   5.635   7.726 -0.1377  0.1161  0.5282
  172SAPE  H11R19498   4.862   5.624   7.677  0.5185  0.8006 -0.9972
  172SAPE  C21219499   4.963   5.681   7.852 -0.1539 -0.0894  0.4032
  172SAPE  H12R19500   4.866   5.698   7.900 -1.1154  0.4856 -1.6607
  172SAPE  C21319501   5.092   5.702   7.936  0.0116 -0.4451  0.4960
  172SAPE  H13R19502   5.175   5.634   7.906  1.1093  0.4888  1.3140
  172SAPE  H13S19503   5.086   5.672   8.043 -0.9038  1.0108  0.8776
  172SAPE  C21419504   5.144   5.844   7.921  0.1247  0.1523  0.1609
  172SAPE  H14R19505   5.205   5.854   7.830 -0.2696  2.5863  0.1010
  172SAPE  C21519506   5.118   5.947   8.000  0.2567  0.4539  0.4474
  172SAPE  H15R19507   5.168   6.043   7.983 -0.0687  0.5698  0.1616
  172SAPE  C21619508   5.041   5.937   8.129  0.8290 -0.4467 -0.0725
  172SAPE  H16R19509   4.951   5.873   8.125 -0.6074  1.5373 -1.2910
  172SAPE  H16S19510   5.012   6.040   8.157  1.3286 -1.0973  3.1642
  172SAPE  C21719511   5.117   5.883   8.249 -0.2776  0.0760 -1.0883
  172SAPE  H17R19512   5.212   5.940   8.241 -0.2592  0.4617  1.1115
  172SAPE  H17S19513   5.136   5.775   8.232  0.9995 -0.0512  0.7733
  172SAPE  C21819514   5.049   5.901   8.385 -0.5886 -0.1082 -0.7480
  172SAPE  H18R19515   4.977   5.819   8.401 -2.4162  1.4630 -0.5352
  172SAPE  H18S19516   4.998   6.000   8.381  0.1146  0.2247 -1.9024
  172SAPE  C21919517   5.162   5.914   8.501 -0.0817  0.4263  0.3490
  172SAPE  H19R19518   5.212   6.010   8.477 -0.9536  1.1207  1.2219
  172SAPE  H19S19519   5.244   5.840   8.491 -0.4079  0.2388 -1.2653
  172SAPE  C22019520   5.110   5.938   8.645 -0.4513  0.4727 -0.0620
  172SAPE  H20R19521   5.061   5.841   8.670 -0.5712  0.4071 -0.5379
  172SAPE  H20S19522   5.043   6.027   8.644 -0.3986  0.5333 -1.7845
  172SAPE  H20T19523   5.201   5.956   8.705  0.6579 -0.2449 -1.4623
  172SAPE   C3319524   4.763   5.577   7.269 -0.5707  0.2405  0.2742
  172SAPE   H3X19525   4.662   5.572   7.223 -0.1546 -0.1909 -0.6201
  172SAPE   H3Y19526   4.762   5.680   7.311  1.5945  0.4027  0.0632
  172SAPE   C3419527   4.784   5.479   7.385  0.4668 -0.0318 -0.2927
  172SAPE   H4X19528   4.887   5.503   7.417  0.3574  2.0079 -1.2881
  172SAPE   H4Y19529   4.770   5.375   7.349 -1.5891 -0.1378  0.6676
  172SAPE   C3519530   4.680   5.515   7.496  0.3304  0.2025  0.1035
  172SAPE   H5X19531   4.574   5.507   7.464 -0.0343 -2.6558  1.6534
  172SAPE   H5Y19532   4.700   5.621   7.521  0.9645 -0.0226  0.5943
  172SAPE   C3619533   4.684   5.438   7.631  0.1926  0.6163 -0.7613
  172SAPE   H6X19534   4.788   5.435   7.670  0.0380 -0.9923 -0.3913
  172SAPE   H6Y19535   4.688   5.329   7.612 -0.6257  0.4239  0.1107
  172SAPE   C3719536   4.582   5.487   7.735  0.0740  0.6679  0.3955
  172SAPE   H7X19537   4.484   5.440   7.713  1.6328 -2.3612 -0.7972
  172SAPE   H7Y19538   4.594   5.597   7.747  0.9036  0.6394 -0.0718
  172SAPE   C3819539   4.617   5.435   7.880  0.4669  0.1889  0.2935
  172SAPE   H8X19540   4.704   5.491   7.919  2.4731 -2.0343 -0.7697
  172SAPE   H8Y19541   4.658   5.332   7.883 -0.3626 -0.1570  0.1188
  172SAPE   C3919542   4.489   5.436   7.968  0.1399 -0.4961  0.1061
  172SAPE   H9X19543   4.401   5.395   7.914 -0.3525 -0.5948  0.9800
  172SAPE   H9Y19544   4.464   5.541   7.990  0.3285 -0.4496  0.1016
  172SAPE  C31019545   4.496   5.340   8.082  0.2904 -0.0751  0.1631
  172SAPE  H10X19546   4.595   5.353   8.130  0.6032 -0.3117 -0.4175
  172SAPE  H10Y19547   4.485   5.240   8.034 -3.9645 -0.7163  2.0165
  172SAPE  C31119548   4.380   5.364   8.174 -0.4979 -0.2320  0.1786
  172SAPE  H11X19549   4.317   5.273   8.182 -1.5327  0.2078 -2.1065
  172SAPE  H11Y19550   4.309   5.433   8.124  0.0531  0.2512  0.0499
  172SAPE  C31219551   4.415   5.418   8.314  0.5384  0.1033 -0.2379
  172SAPE  H12X19552   4.320   5.446   8.364  0.2940 -2.0612  0.6176
  172SAPE  H12Y19553   4.489   5.500   8.312  0.9931 -0.2356  1.1506
  172SAPE  C31319554   4.476   5.323   8.413 -0.2982  0.3789 -0.0113
  172SAPE  H13X19555   4.585   5.315   8.395 -0.4614 -1.2204 -0.4626
  172SAPE  H13Y19556   4.424   5.226   8.397  0.1550  0.2851 -0.9619
  172SAPE  C31419557   4.460   5.354   8.561 -0.2636 -0.1872 -0.9094
  172SAPE  H14X19558   4.350   5.349   8.581 -0.0759 -0.3607  0.1105
  172SAPE  H14Y19559   4.496   5.459   8.571  1.2466 -0.7363 -0.4233
  172SAPE  C31519560   4.544   5.262   8.653  0.7414  0.1963 -0.0521
  172SAPE  H15X19561   4.554   5.312   8.752 -0.2223 -0.4874  0.4061
  172SAPE  H15Y19562   4.639   5.232   8.604  0.5256 -2.8143  1.1349
  172SAPE  C31619563   4.486   5.119   8.664 -0.3378 -0.8618 -0.2900
  172SAPE  H16X19564   4.485   5.074   8.562  0.1218 -0.1535 -0.6152
  172SAPE  H16Y19565   4.381   5.134   8.696 -0.1905  2.1960 -0.9111
  172SAPE  C31719566   4.564   5.033   8.767 -0.8081 -0.5179 -0.0119
  172SAPE  H17X19567   4.564   5.085   8.864 -0.3807 -0.4263 -0.0575
  172SAPE  H17Y19568   4.669   5.022   8.732 -0.3433  1.7659  0.5247
  172SAPE  C31819569   4.498   4.901   8.807  0.1736  0.2008  0.3371
  172SAPE  H18X19570   4.403   4.922   8.862 -0.0631  2.9890 -0.9407
  172SAPE  H18Y19571   4.558   4.836   8.873  0.3520  0.6995  0.6719
  172SAPE  H18Z19572   4.467   4.855   8.711 -1.9958  3.2032 -0.5589
  173SOPE     N19573   5.855   2.756  11.268 -0.2713  0.0381 -0.5124
  173SOPE   HN119574   5.864   2.858  11.254 -1.7262  0.7486  2.8510
  173SOPE   HN219575   5.808   2.742  11.359 -1.4451 -1.7000 -1.3273
  173SOPE   HN319576   5.949   2.711  11.260  1.0587  2.2495  1.6093
  173SOPE   C1219577   5.751   2.707  11.171  0.1098 -0.4363  0.3110
  173SOPE  H12A19578   5.791   2.735  11.071 -0.6184  1.5830  0.5402
  173SOPE  H12B19579   5.661   2.767  11.193 -0.6400 -1.4222  0.0404
  173SOPE   C1119580   5.731   2.556  11.177 -0.4267  0.0750  0.1024
  173SOPE  H11A19581   5.676   2.530  11.270 -3.3692  1.2135 -1.1966
  173SOPE  H11B19582   5.829   2.509  11.203 -0.6495  1.1687  3.2284
  173SOPE     P19583   5.703   2.397  10.968 -0.0673  0.5458 -0.3066
  173SOPE   O1319584   5.584   2.357  10.887 -0.2571 -0.1180  0.4157
  173SOPE   O1419585   5.766   2.287  11.043 -0.4212 -0.8006 -0.3694
  173SOPE   O1219586   5.663   2.516  11.059  0.8220  0.7704  0.2411
  173SOPE   O1119587   5.803   2.459  10.865 -0.0529  0.5872 -0.3620
  173SOPE    C119588   5.778   2.564  10.776 -0.2416  0.1423 -0.3543
  173SOPE    HA19589   5.851   2.644  10.802  3.7925 -2.6970 -1.9774
  173SOPE    HB19590   5.676   2.599  10.803 -0.6213 -1.3966  0.2842
  173SOPE    C219591   5.799   2.531  10.623  0.0551 -0.4261 -0.1202
  173SOPE    HS19592   5.813   2.625  10.566  2.3915 -1.7461 -1.9454
  173SOPE   O2119593   5.695   2.458  10.569 -0.2361 -0.4938 -0.4401
  173SOPE   C2119594   5.582   2.525  10.558  0.1538  0.0147 -0.5284
  173SOPE   O2219595   5.558   2.639  10.598 -0.4855 -0.1115 -0.3472
  173SOPE   C2219596   5.504   2.447  10.455  0.5424 -0.4387  0.1170
  173SOPE   H2R19597   5.450   2.365  10.507 -1.1875  0.5694 -0.0169
  173SOPE   H2S19598   5.576   2.430  10.372  0.1794  0.7206 -0.4625
  173SOPE    C319599   5.935   2.457  10.591  0.2180  0.2125 -0.8298
  173SOPE    HX19600   5.944   2.367  10.656  4.0081  1.0822  0.1476
  173SOPE    HY19601   6.018   2.526  10.621  0.3803 -0.0946 -0.5575
  173SOPE   O3119602   5.940   2.418  10.457  0.2344  0.1424  0.3173
  173SOPE   C3119603   6.056   2.375  10.419 -0.0056  0.5962 -0.6069
  173SOPE   O3219604   6.158   2.361  10.482  0.5393 -0.5767  0.6526
  173SOPE   C3219605   6.043   2.350  10.268  0.0603 -0.1742  0.1219
  173SOPE   H2X19606   6.109   2.424  10.219 -0.0169 -0.7141 -0.8355
  173SOPE   H2Y19607   5.944   2.367  10.222  1.2369  1.4689 -1.9876
  173SOPE   C2319608   5.397   2.525  10.377  0.4729 -0.1039  0.2363
  173SOPE   H3R19609   5.449   2.610  10.327  0.4306  0.6524  1.4350
  173SOPE   H3S19610   5.325   2.566  10.451  0.7952 -0.9246  1.0183
  173SOPE   C2419611   5.325   2.435  10.277 -0.9218  0.2416 -1.0194
  173SOPE   H4R19612   5.403   2.411  10.202  0.1932  2.5637 -0.6787
  173SOPE   H4S19613   5.304   2.341  10.333  1.9013  0.8633  1.3460
  173SOPE   C2519614   5.195   2.491  10.204 -0.7607 -0.0063 -0.6041
  173SOPE   H5R19615   5.122   2.522  10.282  0.3107  1.4697 -0.1313
  173SOPE   H5S19616   5.224   2.589  10.161 -1.2140  1.5068  2.3122
  173SOPE   C2619617   5.156   2.395  10.092  0.3087  0.1439  0.2535
  173SOPE   H6R19618   5.061   2.430  10.046  1.5533  0.8108 -1.9734
  173SOPE   H6S19619   5.234   2.395  10.013 -0.8708 -0.5789 -0.9591
  173SOPE   C2719620   5.156   2.237  10.119 -0.8909  0.6642 -0.5950
  173SOPE   H7R19621   5.247   2.199  10.171 -2.2168 -0.5132  0.9472
  173SOPE   H7S19622   5.075   2.218  10.192 -1.7472 -1.0745 -1.9287
  173SOPE   C2819623   5.142   2.152   9.997  0.1294  0.4694  0.0137
  173SOPE   H8R19624   5.216   2.171   9.915  0.1397 -2.6691 -0.8544
  173SOPE   H8S19625   5.172   2.050  10.030  2.2875  1.2272  0.6126
  173SOPE   C2919626   5.005   2.146   9.940  0.8260  0.2811 -0.4418
  173SOPE   H9119627   4.930   2.104  10.009 -2.5832  1.9338 -2.8177
  173SOPE  C21019628   4.970   2.189   9.817  0.0801  0.1989 -0.3044
  173SOPE  H10119629   4.865   2.175   9.788 -0.1235  0.4387  0.2922
  173SOPE  C21119630   5.048   2.248   9.700 -0.0372  0.3235 -0.3162
  173SOPE  H11R19631   5.109   2.339   9.717  1.4589 -0.4403 -1.3940
  173SOPE  H11S19632   4.978   2.290   9.624  1.5488  2.5147 -0.6589
  173SOPE  C21219633   5.131   2.144   9.627  0.3161  0.2693  0.8182
  173SOPE  H12R19634   5.218   2.104   9.682  2.9426  2.1945 -1.6276
  173SOPE  H12S19635   5.177   2.194   9.539  0.7222 -0.8993  0.3515
  173SOPE  C21319636   5.038   2.034   9.568 -1.2963  0.3537 -0.7087
  173SOPE  H13R19637   4.939   2.082   9.552 -2.4258 -0.4521  2.8483
  173SOPE  H13S19638   5.018   1.959   9.648 -0.1492  0.0317 -0.7114
  173SOPE  C21419639   5.079   1.964   9.436 -0.2547 -0.4275 -1.2836
  173SOPE  H14R19640   5.006   1.882   9.419  0.6503 -1.7505  0.8294
  173SOPE  H14S19641   5.175   1.910   9.451  0.9138  1.8568 -0.0267
  173SOPE  C21519642   5.083   2.055   9.312  0.2221 -0.1541 -0.4780
  173SOPE  H15R19643   5.180   2.110   9.313 -0.6134  1.3892 -0.4208
  173SOPE  H15S19644   5.005   2.133   9.318 -1.2537 -1.6528  0.4961
  173SOPE  C21619645   5.065   1.978   9.175 -0.1966 -0.2162 -0.3368
  173SOPE  H16R19646   5.087   2.056   9.098  0.5845 -2.2002 -2.2262
  173SOPE  H16S19647   4.959   1.944   9.176 -0.3544  0.2680  0.1357
  173SOPE  C21719648   5.157   1.849   9.159 -0.0793 -0.1821 -0.3433
  173SOPE  H17R19649   5.140   1.797   9.255  1.1309  1.4773  0.8164
  173SOPE  H17S19650   5.266   1.868   9.167  0.6724 -3.9830  0.5434
  173SOPE  C21819651   5.132   1.771   9.028 -0.3391 -0.8036  1.0875
  173SOPE  H18R19652   5.136   1.844   8.945  0.6207 -0.6566  1.2503
  173SOPE  H18S19653   5.030   1.727   9.028  0.5367 -2.9820 -0.2826
  173SOPE  H18T19654   5.213   1.696   9.015  0.4733  0.1012  0.8296
  173SOPE   C3319655   6.095   2.209  10.229  0.0491  0.4120 -0.1394
  173SOPE   H3X19656   6.054   2.121  10.283  0.4950 -0.7227 -1.5714
  173SOPE   H3Y19657   6.204   2.210  10.250  0.2243  2.5599 -0.9227
  173SOPE   C3419658   6.079   2.193  10.076  0.8640 -0.4871 -0.2345
  173SOPE   H4X19659   6.101   2.285  10.018  0.4154 -0.6742 -0.7133
  173SOPE   H4Y19660   5.971   2.180  10.056  0.6107  0.4328  0.4932
  173SOPE   C3519661   6.184   2.091  10.027 -0.5397  0.6554  0.5609
  173SOPE   H5X19662   6.157   1.999  10.084  0.3586  1.1518  1.8471
  173SOPE   H5Y19663   6.286   2.121  10.059 -0.0297  2.7570 -2.6855
  173SOPE   C3619664   6.180   2.056   9.874  0.3106  0.0445 -0.1181
  173SOPE   H6X19665   6.224   1.955   9.860  1.6219  0.7341 -1.0544
  173SOPE   H6Y19666   6.248   2.124   9.820 -0.0350  2.5983  2.4113
  173SOPE   C3719667   6.042   2.033   9.814  0.0503  0.1661 -0.2229
  173SOPE   H7X19668   5.991   2.131   9.813 -1.2950 -0.5102  0.5294
  173SOPE   H7Y19669   5.985   1.978   9.892  1.3089  0.6563  1.1007
  173SOPE   C3819670   6.034   1.960   9.681  0.0513 -0.2663 -0.0295
  173SOPE   H8X19671   5.928   1.943   9.652  0.0530  1.2137 -1.0276
  173SOPE   H8Y19672   6.078   1.861   9.705  1.3026  0.3365  0.2753
  173SOPE   C3919673   6.100   2.035   9.565  0.5487 -0.6792  0.1164
  173SOPE   H9X19674   6.202   2.069   9.594  0.4932 -1.1326  0.8666
  173SOPE   H9Y19675   6.048   2.131   9.545  0.0735 -0.3526  2.5750
  173SOPE  C31019676   6.113   1.958   9.435  0.4406  0.9668  0.1059
  173SOPE  H10X19677   6.185   1.874   9.448 -0.4251  0.3322  0.9631
  173SOPE  H10Y19678   6.158   2.026   9.360  0.1991  1.0785  0.0636
  173SOPE  C31119679   5.982   1.895   9.377  0.0135 -0.9300 -0.1577
  173SOPE  H11X19680   5.906   1.970   9.348 -2.6242 -3.6578 -0.8198
  173SOPE  H11Y19681   5.935   1.834   9.457 -0.0122 -0.6614  0.0321
  173SOPE  C31219682   6.009   1.816   9.245  0.7286  0.2293  1.0194
  173SOPE  H12X19683   6.058   1.722   9.277 -0.2894 -0.5907  0.2304
  173SOPE  H12Y19684   6.057   1.870   9.160  0.4278  0.0291  0.7179
  173SOPE  C31319685   5.875   1.779   9.176  0.0952 -0.3287  0.2754
  173SOPE  H13X19686   5.816   1.869   9.146 -1.7464 -1.8040 -0.6934
  173SOPE  H13Y19687   5.808   1.714   9.235 -1.8014  0.3064 -1.0828
  173SOPE  C31419688   5.890   1.706   9.043  0.1557  0.2277  0.3756
  173SOPE  H14X19689   5.939   1.773   8.969 -2.5826 -0.9169 -2.6813
  173SOPE  H14Y19690   5.794   1.689   8.991  0.1807 -0.5127  0.5695
  173SOPE  C31519691   5.961   1.574   9.037 -0.0175  0.0667 -0.3115
  173SOPE  H15X19692   5.896   1.495   9.080  0.2135 -1.7331 -2.9881
  173SOPE  H15Y19693   6.053   1.579   9.098  1.5514 -0.2353 -2.5115
  173SOPE  C31619694   5.996   1.531   8.895 -0.1703  0.2578 -0.8808
  173SOPE  H16X19695   6.049   1.594   8.821  0.7484  0.3744 -0.1468
  173SOPE  H16Y19696   5.894   1.499   8.864 -0.7320  1.3053 -0.1718
  173SOPE  C31719697   6.078   1.400   8.904 -0.3851  0.8951 -0.0678
  173SOPE  H17X19698   6.070   1.349   8.805 -0.2037  0.0714  0.3330
  173SOPE  H17Y19699   6.035   1.328   8.977  1.3992 -1.6716 -1.3974
  173SOPE  C31819700   6.225   1.415   8.935  0.7169  0.1449 -0.4383
  173SOPE  H18X19701   6.225   1.468   9.033 -0.8910  0.2136 -0.4483
  173SOPE  H18Y19702   6.272   1.473   8.853  0.0079  0.0325 -0.9308
  173SOPE  H18Z19703   6.277   1.318   8.950  0.4404 -0.0618 -0.8053
  174SOPE     N19704   4.746   2.021  10.868  0.2247  0.6297 -0.3500
  174SOPE   HN119705   4.652   1.987  10.840  0.1481  0.9174 -0.4468
  174SOPE   HN219706   4.737   2.121  10.895 -2.2649  0.3434  0.0467
  174SOPE   HN319707   4.814   2.009  10.790  0.8288 -0.5577  0.3299
  174SOPE   C1219708   4.792   1.937  10.982 -0.1739  0.2438 -0.2618
  174SOPE  H12A19709   4.781   1.833  10.943  0.0287  0.4467 -0.8690
  174SOPE  H12B19710   4.728   1.956  11.071  0.7923  0.1297  0.4719
  174SOPE   C1119711   4.938   1.960  10.994 -0.0019 -0.0194  0.2524
  174SOPE  H11A19712   4.978   1.901  11.079  1.2723  2.6288  1.6102
  174SOPE  H11B19713   4.960   2.064  11.024  1.5832 -0.3973  0.5088
  174SOPE     P19714   5.145   1.854  10.875  0.1609  0.0504 -0.0340
  174SOPE   O1319715   5.120   1.709  10.883  0.2748  0.1578 -0.2180
  174SOPE   O1419716   5.229   1.915  10.982 -0.1174  0.4380  0.6533
  174SOPE   O1219717   5.000   1.926  10.866 -0.5944 -0.8133 -0.2520
  174SOPE   O1119718   5.216   1.887  10.743 -0.3827 -0.1962  0.6844
  174SOPE    C119719   5.151   1.947  10.627 -0.2986 -0.0360  0.1814
  174SOPE    HA19720   5.124   2.051  10.655 -0.2591 -0.6824  2.8678
  174SOPE    HB19721   5.055   1.897  10.602  1.4835 -3.3966 -0.5086
  174SOPE    C219722   5.238   1.960  10.498  0.7130 -0.3348 -0.0901
  174SOPE    HS19723   5.172   2.012  10.425 -1.0989 -3.1447 -0.5797
  174SOPE   O2119724   5.272   1.832  10.451 -0.0202 -0.1381 -0.1710
  174SOPE   C2119725   5.189   1.769  10.366  0.2851 -0.9074 -0.4251
  174SOPE   O2219726   5.088   1.812  10.315 -0.0415  0.3323  0.7019
  174SOPE   C2219727   5.259   1.643  10.329 -0.2620  0.4512  0.9172
  174SOPE   H2R19728   5.183   1.562  10.320 -1.4747  1.6398 -0.0716
  174SOPE   H2S19729   5.327   1.608  10.409 -0.3342 -1.0029  0.3701
  174SOPE    C319730   5.361   2.049  10.529 -0.3510  0.5927  0.2143
  174SOPE    HX19731   5.424   2.018  10.615  0.9590 -1.3550 -1.3382
  174SOPE    HY19732   5.322   2.149  10.558 -1.2974  0.5681 -0.9052
  174SOPE   O3119733   5.439   2.049  10.410  0.2241 -0.6853  0.0474
  174SOPE   C3119734   5.539   1.961  10.391  0.4164  0.0695  0.1604
  174SOPE   O3219735   5.575   1.883  10.473  0.0431 -0.2437  0.0486
  174SOPE   C3219736   5.586   1.986  10.249 -0.2526  0.0828 -0.0959
  174SOPE   H2X19737   5.507   2.013  10.176 -0.9432  1.9664  1.2781
  174SOPE   H2Y19738   5.653   1.899  10.229  1.8990  0.2547  4.9043
  174SOPE   C2319739   5.326   1.663  10.191  0.3162 -0.5926  0.2394
  174SOPE   H3R19740   5.382   1.572  10.161 -0.7581 -0.5138 -2.1986
  174SOPE   H3S19741   5.403   1.742  10.191  0.5238 -0.7914 -0.9978
  174SOPE   C2419742   5.231   1.677  10.075 -0.1737  0.1855  0.6157
  174SOPE   H4R19743   5.147   1.605  10.083 -1.5110  1.1127 -3.0049
  174SOPE   H4S19744   5.179   1.775  10.070  0.4317  0.4694 -0.8701
  174SOPE   C2519745   5.303   1.661   9.935 -0.3766 -0.6677 -0.1828
  174SOPE   H5R19746   5.371   1.573   9.942 -0.8470 -0.9345  1.7087
  174SOPE   H5S19747   5.227   1.647   9.856 -2.2339  2.2139  0.9533
  174SOPE   C2619748   5.387   1.785   9.890  0.5819  1.1051 -0.0717
  174SOPE   H6R19749   5.336   1.881   9.914 -0.4592  0.2318  1.3881
  174SOPE   H6S19750   5.485   1.784   9.943 -0.6515 -2.3741  2.5081
  174SOPE   C2719751   5.422   1.778   9.737  0.1518  0.1541  0.6959
  174SOPE   H7R19752   5.449   1.671   9.726  1.3957  0.6146 -1.4820
  174SOPE   H7S19753   5.345   1.804   9.661  0.9943  1.5719  0.2909
  174SOPE   C2819754   5.541   1.875   9.702  0.5058 -0.3325  0.3100
  174SOPE   H8R19755   5.622   1.839   9.769 -2.0168  0.7046  4.2759
  174SOPE   H8S19756   5.566   1.845   9.598 -0.2137 -0.0610  0.0509
  174SOPE   C2919757   5.510   2.024   9.713  0.0157 -0.0278  0.0155
  174SOPE   H9119758   5.518   2.061   9.816  0.0534  2.3239 -0.7742
  174SOPE  C21019759   5.478   2.107   9.605  0.2445 -0.4485 -0.6038
  174SOPE  H10119760   5.463   2.213   9.628 -0.9154 -1.0109  1.5072
  174SOPE  C21119761   5.472   2.065   9.455  0.1012  0.8536 -0.0256
  174SOPE  H11R19762   5.373   2.101   9.418 -0.8257 -0.4571  1.0502
  174SOPE  H11S19763   5.445   1.957   9.461 -1.3634  1.0587 -1.8612
  174SOPE  C21219764   5.597   2.097   9.372 -0.0300 -0.1335 -0.3156
  174SOPE  H12R19765   5.673   2.029   9.418 -1.7143 -2.6754 -1.0445
  174SOPE  H12S19766   5.616   2.204   9.393  0.9816 -0.3061 -0.2963
  174SOPE  C21319767   5.609   2.061   9.222  0.1481 -0.6431 -0.4944
  174SOPE  H13R19768   5.599   1.950   9.226  0.6617 -0.6799  3.0881
  174SOPE  H13S19769   5.712   2.086   9.188  0.2116  0.7094  0.6142
  174SOPE  C21419770   5.495   2.127   9.143  0.2558 -0.0841 -0.4309
  174SOPE  H14R19771   5.515   2.236   9.134  0.9087 -0.2078 -0.4914
  174SOPE  H14S19772   5.399   2.122   9.199  1.4843  1.2576  1.9985
  174SOPE  C21519773   5.486   2.083   8.996 -0.4005  0.6090 -0.0529
  174SOPE  H15R19774   5.500   1.973   9.001  1.4147  0.8613  1.8067
  174SOPE  H15S19775   5.571   2.120   8.935  1.8194 -1.1342  1.8028
  174SOPE  C21619776   5.346   2.117   8.944  0.1128 -0.5081  0.4060
  174SOPE  H16R19777   5.311   2.219   8.971 -0.5060 -0.4241 -0.6364
  174SOPE  H16S19778   5.277   2.054   9.004  1.2721 -0.9436  1.3066
  174SOPE  C21719779   5.326   2.093   8.791 -0.0003 -0.8982 -0.3668
  174SOPE  H17R19780   5.323   1.983   8.772 -0.0492 -0.7663 -1.1367
  174SOPE  H17S19781   5.417   2.142   8.751 -0.0746 -1.1136 -0.8063
  174SOPE  C21819782   5.199   2.158   8.726  0.3661 -0.2510  0.6334
  174SOPE  H18R19783   5.199   2.269   8.735  0.0777 -0.3005  1.3725
  174SOPE  H18S19784   5.110   2.123   8.785  1.5971 -1.2015  2.0069
  174SOPE  H18T19785   5.177   2.128   8.622 -1.5566  0.3204  0.8319
  174SOPE   C3319786   5.696   2.098  10.252 -0.7534  0.0256  0.0200
  174SOPE   H3X19787   5.779   2.059  10.189 -1.7802 -0.5132 -1.0551
  174SOPE   H3Y19788   5.736   2.118  10.353 -1.3309  1.4559 -0.0016
  174SOPE   C3419789   5.651   2.231  10.192  0.2459  0.1943  0.1844
  174SOPE   H4X19790   5.713   2.316  10.225  1.6855  0.2471 -2.4621
  174SOPE   H4Y19791   5.544   2.242  10.222  0.0653  1.4167 -0.8357
  174SOPE   C3519792   5.639   2.237  10.036  0.1851  0.6417 -0.6852
  174SOPE   H5X19793   5.560   2.165  10.006 -1.7939  1.1451  2.8142
  174SOPE   H5Y19794   5.740   2.203  10.004  0.4055 -1.0464  1.5661
  174SOPE   C3619795   5.615   2.372   9.980  0.5092  0.0099  0.1782
  174SOPE   H6X19796   5.692   2.444  10.014  1.4375 -1.2708  0.8811
  174SOPE   H6Y19797   5.522   2.412  10.024  0.0400  0.0817 -0.8394
  174SOPE   C3719798   5.604   2.382   9.833 -0.6021  0.0551  0.5373
  174SOPE   H7X19799   5.514   2.333   9.791  1.1171 -1.9706 -0.9837
  174SOPE   H7Y19800   5.675   2.318   9.778 -0.3233  0.4055  0.4867
  174SOPE   C3819801   5.617   2.533   9.793 -0.4367  0.1358  0.7710
  174SOPE   H8X19802   5.715   2.578   9.821 -0.5934  1.0224 -0.0204
  174SOPE   H8Y19803   5.538   2.587   9.849 -2.6183 -1.6247 -0.4713
  174SOPE   C3919804   5.578   2.551   9.648 -0.4812 -0.2552  0.9694
  174SOPE   H9X19805   5.647   2.498   9.580 -0.4937 -0.0230  0.7729
  174SOPE   H9Y19806   5.599   2.657   9.620 -0.0798 -0.2399  1.3272
  174SOPE  C31019807   5.427   2.526   9.613 -0.0669  0.1952 -0.6497
  174SOPE  H10X19808   5.378   2.569   9.703  0.3693 -1.7282  0.5617
  174SOPE  H10Y19809   5.409   2.418   9.598  0.7835  0.0134 -0.4227
  174SOPE  C31119810   5.387   2.600   9.484  0.1826  0.2360  0.8911
  174SOPE  H11X19811   5.416   2.707   9.496 -0.0056  0.2649  1.0931
  174SOPE  H11Y19812   5.276   2.591   9.477  0.2649 -1.6176  1.3015
  174SOPE  C31219813   5.472   2.558   9.360 -0.1405 -0.5029 -0.1065
  174SOPE  H12X19814   5.428   2.464   9.321 -0.1821 -0.3568 -0.4174
  174SOPE  H12Y19815   5.574   2.526   9.389 -1.0065 -1.3087  2.3234
  174SOPE  C31319816   5.477   2.659   9.241  0.2035  0.5052 -0.3977
  174SOPE  H13X19817   5.536   2.749   9.268  2.8772 -1.5801  1.2366
  174SOPE  H13Y19818   5.373   2.680   9.208 -0.4591  0.7438  1.7294
  174SOPE  C31419819   5.543   2.599   9.122 -0.2881  1.1533 -1.1275
  174SOPE  H14X19820   5.487   2.511   9.083  1.6662 -0.7102 -0.0023
  174SOPE  H14Y19821   5.642   2.562   9.156 -1.4284 -1.0786 -0.0320
  174SOPE  C31519822   5.566   2.701   9.015 -0.3219  0.2641  0.1871
  174SOPE  H15X19823   5.610   2.790   9.064 -0.5693 -0.1173  1.1500
  174SOPE  H15Y19824   5.466   2.732   8.977  0.2986  0.3221 -1.4490
  174SOPE  C31619825   5.643   2.641   8.892  0.4901  0.3975 -0.1167
  174SOPE  H16X19826   5.585   2.555   8.852  1.2394  0.2276 -0.8497
  174SOPE  H16Y19827   5.741   2.608   8.931  2.3236  3.4286 -1.8055
  174SOPE  C31719828   5.668   2.744   8.787  0.3176 -0.1465  0.5118
  174SOPE  H17X19829   5.714   2.839   8.824 -0.1192 -0.1222  1.0011
  174SOPE  H17Y19830   5.573   2.770   8.735 -1.0828 -1.8620  2.0654
  174SOPE  C31819831   5.757   2.686   8.686 -0.0743  0.8443 -0.0705
  174SOPE  H18X19832   5.824   2.754   8.629  2.3064 -0.1101  1.4659
  174SOPE  H18Y19833   5.690   2.630   8.618 -2.5475  2.9263  0.4945
  174SOPE  H18Z19834   5.833   2.619   8.730 -2.3530 -1.2684  0.8611
  175SOPE     N19835   1.060   4.128  10.708 -0.5375 -0.0018 -0.8496
  175SOPE   HN119836   1.154   4.158  10.675 -0.0069 -0.1083  0.4639
  175SOPE   HN219837   1.064   4.099  10.808  0.8639  2.0190 -0.2681
  175SOPE   HN319838   1.026   4.058  10.639 -2.2917 -0.6194  0.5607
  175SOPE   C1219839   0.966   4.249  10.704 -0.4793  0.8730 -0.5429
  175SOPE  H12A19840   0.954   4.268  10.595  2.4216 -0.9937 -1.3161
  175SOPE  H12B19841   1.009   4.344  10.744 -1.6380  0.9816  0.5365
  175SOPE   C1119842   0.848   4.226  10.797 -0.1081 -0.3727 -0.0782
  175SOPE  H11A19843   0.778   4.312  10.809 -0.2628 -0.3441 -1.0671
  175SOPE  H11B19844   0.883   4.227  10.902 -0.5969 -1.9624  0.1196
  175SOPE     P19845   0.629   4.076  10.794 -0.0194 -0.5916 -0.0174
  175SOPE   O1319846   0.560   4.185  10.877  0.0386  0.4359 -0.3519
  175SOPE   O1419847   0.626   3.940  10.848 -0.3967  0.1785  0.6363
  175SOPE   O1219848   0.786   4.107  10.772  0.1147  0.1181  0.1973
  175SOPE   O1119849   0.572   4.065  10.645  0.3727 -0.7177 -0.0729
  175SOPE    C119850   0.660   4.058  10.532  0.4258 -0.0438  0.5083
  175SOPE    HA19851   0.662   3.954  10.494 -2.4677 -0.4933  1.3482
  175SOPE    HB19852   0.760   4.105  10.540  0.8086 -0.2257 -2.1364
  175SOPE    C219853   0.599   4.141  10.414  0.0065 -0.1670 -0.1239
  175SOPE    HS19854   0.672   4.130  10.331  2.4788  0.5862  1.8120
  175SOPE   O2119855   0.593   4.274  10.470 -0.0796  0.1879  0.0083
  175SOPE   C2119856   0.681   4.361  10.411 -0.5343  0.0778 -0.0955
  175SOPE   O2219857   0.764   4.328  10.323  0.4794  0.8579 -0.7457
  175SOPE   C2219858   0.668   4.496  10.488  0.2257 -0.5023 -0.0164
  175SOPE   H2R19859   0.762   4.523  10.539  0.1511 -2.2482  1.0917
  175SOPE   H2S19860   0.587   4.482  10.562 -0.5015 -0.1283 -0.7159
  175SOPE    C319861   0.459   4.102  10.365  0.4492 -0.7051  0.1999
  175SOPE    HX19862   0.388   4.138  10.442  0.6003 -0.5173  0.2501
  175SOPE    HY19863   0.450   3.992  10.350  0.8528 -0.5541 -1.3592
  175SOPE   O3119864   0.414   4.167  10.240 -0.0910  0.8664 -0.0603
  175SOPE   C3119865   0.469   4.132  10.129  0.8582 -0.5650 -0.2711
  175SOPE   O3219866   0.544   4.038  10.114  0.1594  0.4588  0.6024
  175SOPE   C3219867   0.424   4.242  10.019 -0.2483  0.3215 -0.2140
  175SOPE   H2X19868   0.328   4.294  10.043  0.7461  2.2531 -0.2059
  175SOPE   H2Y19869   0.416   4.182   9.926  6.4435 -2.2139  0.3354
  175SOPE   C2319870   0.634   4.621  10.395 -0.1180 -0.2419  0.3260
  175SOPE   H3R19871   0.712   4.633  10.317 -0.1479  1.2223  0.5043
  175SOPE   H3S19872   0.637   4.713  10.457 -1.4012 -0.0959  0.2011
  175SOPE   C2419873   0.494   4.607  10.325  0.2710  0.5043  0.6168
  175SOPE   H4R19874   0.485   4.500  10.297 -2.4757  1.0355 -0.8036
  175SOPE   H4S19875   0.415   4.625  10.401  0.2688 -1.4027  1.1059
  175SOPE   C2519876   0.493   4.692  10.194  0.2767 -0.2612 -0.1296
  175SOPE   H5R19877   0.519   4.797  10.217 -0.2751 -0.2736  0.5809
  175SOPE   H5S19878   0.571   4.658  10.123  0.8912  0.6127  0.1157
  175SOPE   C2619879   0.356   4.684  10.122  0.1928  0.1871 -0.1009
  175SOPE   H6R19880   0.344   4.580  10.085  4.0736 -0.8112  1.0424
  175SOPE   H6S19881   0.273   4.701  10.194 -1.7792 -0.9906 -1.9464
  175SOPE   C2719882   0.358   4.794  10.013  0.1450  0.1152  0.8859
  175SOPE   H7R19883   0.380   4.894  10.058  2.4018 -0.4070  1.0628
  175SOPE   H7S19884   0.442   4.776   9.943 -0.1788  0.5775  0.3722
  175SOPE   C2819885   0.229   4.790   9.924  0.2538  0.1295  0.0953
  175SOPE   H8R19886   0.230   4.695   9.866 -2.2123 -0.5992  1.0986
  175SOPE   H8S19887   0.138   4.798   9.987  0.2655  0.6946  0.0427
  175SOPE   C2919888   0.227   4.904   9.826  0.3795  0.8297 -0.2667
  175SOPE   H9119889   0.181   4.998   9.859 -0.8086 -0.2106  1.1392
  175SOPE  C21019890   0.267   4.889   9.698  0.5232  0.0347 -0.1835
  175SOPE  H10119891   0.255   4.974   9.628  1.5038 -0.5628 -1.0971
  175SOPE  C21119892   0.318   4.763   9.634 -0.4625  0.7483 -1.2059
  175SOPE  H11R19893   0.255   4.678   9.668  0.2453  1.0664  1.0403
  175SOPE  H11S19894   0.427   4.750   9.652 -0.6077  3.6876  3.5375
  175SOPE  C21219895   0.297   4.772   9.479 -0.2904 -0.8578  0.6151
  175SOPE  H12R19896   0.365   4.703   9.424  2.1145  0.7838  1.3770
  175SOPE  H12S19897   0.331   4.874   9.451 -0.3960 -0.8167  0.6363
  175SOPE  C21319898   0.157   4.744   9.437 -0.7662  0.4907 -0.1507
  175SOPE  H13R19899   0.088   4.824   9.470  0.0304  1.0849  0.0907
  175SOPE  H13S19900   0.118   4.649   9.480 -1.3946  0.4721 -0.7457
  175SOPE  C21419901   0.140   4.730   9.282 -0.2477 -0.1353  0.6339
  175SOPE  H14R19902   0.031   4.722   9.262  0.3263 -1.2840 -2.5282
  175SOPE  H14S19903   0.189   4.638   9.246 -0.9963 -0.2037 -0.2588
  175SOPE  C21519904   0.191   4.851   9.211 -0.0826  0.0365  0.5580
  175SOPE  H15R19905   0.302   4.851   9.218  0.1859 -2.7023 -1.8112
  175SOPE  H15S19906   0.147   4.941   9.258 -0.1956  0.3777 -0.1939
  175SOPE  C21619907   0.154   4.852   9.058 -0.1878  0.1906  1.1920
  175SOPE  H16R19908   0.174   4.953   9.017  0.1204  0.1432  1.2205
  175SOPE  H16S19909   0.043   4.857   9.056 -0.2620 -0.9989  1.4337
  175SOPE  C21719910   0.198   4.723   8.974 -0.6969 -0.9002 -0.0398
  175SOPE  H17R19911   0.150   4.737   8.875 -3.5609 -0.0632  1.3484
  175SOPE  H17S19912   0.161   4.628   9.018  0.5238 -0.7443  1.4078
  175SOPE  C21819913   0.346   4.701   8.945  0.3956 -0.1457  0.9412
  175SOPE  H18R19914   0.363   4.606   8.889 -3.3840 -0.1271 -0.5050
  175SOPE  H18S19915   0.398   4.695   9.043  1.0365  1.5918  0.7260
  175SOPE  H18T19916   0.392   4.785   8.889 -1.1689 -0.8016 -1.4751
  175SOPE   C3319917   0.526   4.359   9.993 -0.6248  0.1463  0.3396
  175SOPE   H3X19918   0.632   4.324   9.994 -1.0683 -1.2914 -0.6201
  175SOPE   H3Y19919   0.515   4.433  10.076 -1.4337 -0.3739  0.7083
  175SOPE   C3419920   0.489   4.437   9.865 -0.1982  0.5117  0.7554
  175SOPE   H4X19921   0.523   4.543   9.875  0.3051  0.4228  0.0532
  175SOPE   H4Y19922   0.379   4.442   9.851 -0.2578 -0.9996  0.5483
  175SOPE   C3519923   0.565   4.385   9.744  0.6130  0.1494 -0.2621
  175SOPE   H5X19924   0.597   4.281   9.768 -0.2396  0.3173  1.7818
  175SOPE   H5Y19925   0.657   4.448   9.735  2.5529 -2.6344 -1.4503
  175SOPE   C3619926   0.497   4.395   9.605  0.2530  0.0862  0.2464
  175SOPE   H6X19927   0.430   4.484   9.604 -0.4304 -0.3957  1.2181
  175SOPE   H6Y19928   0.425   4.312   9.590  2.3064 -1.6060 -0.7680
  175SOPE   C3719929   0.594   4.399   9.490  0.3835  0.0749  0.2638
  175SOPE   H7X19930   0.640   4.298   9.499 -2.0454 -1.1020  0.4972
  175SOPE   H7Y19931   0.671   4.475   9.511 -0.6438  0.2402  4.2486
  175SOPE   C3819932   0.524   4.408   9.353  0.3885 -0.1313 -0.3760
  175SOPE   H8X19933   0.497   4.516   9.352  4.6094  1.1431  0.4454
  175SOPE   H8Y19934   0.435   4.341   9.353  0.7256 -0.6439  1.5024
  175SOPE   C3919935   0.612   4.395   9.233 -0.9371 -0.3385 -0.2624
  175SOPE   H9X19936   0.654   4.293   9.244 -1.2272 -0.5385 -0.9446
  175SOPE   H9Y19937   0.694   4.470   9.237 -0.6531 -0.6508 -0.2433
  175SOPE  C31019938   0.538   4.399   9.101  0.0044 -0.4118 -0.1793
  175SOPE  H10X19939   0.484   4.495   9.085 -0.4880 -0.5511  0.5997
  175SOPE  H10Y19940   0.469   4.313   9.086  1.2738 -1.3629 -0.7521
  175SOPE  C31119941   0.634   4.379   8.985  0.5808 -0.1601  0.2347
  175SOPE  H11X19942   0.698   4.293   9.014  0.2787  0.0185  1.5009
  175SOPE  H11Y19943   0.700   4.467   8.978  0.6935 -0.4039 -2.6737
  175SOPE  C31219944   0.561   4.325   8.855 -0.2601 -0.3877 -0.1135
  175SOPE  H12X19945   0.492   4.406   8.824  1.8932  1.5476 -0.1181
  175SOPE  H12Y19946   0.506   4.229   8.868 -0.2426 -0.2788  0.8736
  175SOPE  C31319947   0.658   4.284   8.740 -0.2317  0.3420  0.2601
  175SOPE  H13X19948   0.715   4.193   8.768  1.2439  0.9204 -0.7635
  175SOPE  H13Y19949   0.738   4.358   8.724 -0.7578  0.7761 -0.4106
  175SOPE  C31419950   0.576   4.261   8.612 -0.0363  0.1603 -0.3439
  175SOPE  H14X19951   0.539   4.357   8.570  0.0697 -0.0107 -0.8337
  175SOPE  H14Y19952   0.487   4.198   8.635  0.0438  0.2882  0.3489
  175SOPE  C31519953   0.658   4.198   8.493  0.2124  0.9704  0.4016
  175SOPE  H15X19954   0.583   4.170   8.415  0.5878  0.6036  0.1676
  175SOPE  H15Y19955   0.714   4.103   8.510 -1.2941 -0.6230 -2.6079
  175SOPE  C31619956   0.745   4.296   8.413  0.0829  0.2501 -0.8423
  175SOPE  H16X19957   0.695   4.395   8.422 -1.3173 -0.5949  1.8971
  175SOPE  H16Y19958   0.759   4.265   8.308 -0.0403 -2.2421 -0.1689
  175SOPE  C31719959   0.887   4.312   8.469  0.8219 -0.3787  0.8183
  175SOPE  H17X19960   0.931   4.210   8.463  0.2258 -0.5952 -0.1098
  175SOPE  H17Y19961   0.887   4.345   8.575  1.6918 -0.7699  0.9567
  175SOPE  C31819962   0.955   4.406   8.367  0.1189 -0.2626 -0.4845
  175SOPE  H18X19963   1.049   4.449   8.409 -0.3685  0.5327 -0.1833
  175SOPE  H18Y19964   0.894   4.496   8.344 -0.8987 -1.3491 -2.2673
  175SOPE  H18Z19965   0.991   4.355   8.276 -2.3233 -1.1545 -1.0229
  176SOPE     N19966   0.589   1.898  10.858  0.4253  0.1308  0.2879
  176SOPE   HN119967   0.663   1.836  10.819  0.1777  0.3176 -0.4828
  176SOPE   HN219968   0.623   1.983  10.906 -0.4024  0.7127 -0.1290
  176SOPE   HN319969   0.540   1.835  10.924  2.9356 -0.2243  1.9561
  176SOPE   C1219970   0.505   1.957  10.752 -0.4440 -0.1261 -0.0825
  176SOPE  H12A19971   0.478   1.876  10.681  0.6527 -1.9636  1.4977
  176SOPE  H12B19972   0.575   2.026  10.700  1.5021 -1.9592 -0.0331
  176SOPE   C1119973   0.379   2.027  10.799 -0.1883 -0.2536 -0.1591
  176SOPE  H11A19974   0.323   2.055  10.707 -1.1733 -1.0793  0.1728
  176SOPE  H11B19975   0.411   2.116  10.859 -1.9766  0.1247  0.2840
  176SOPE     P19976   0.155   1.995  10.938 -0.3752 -0.1910  0.1388
  176SOPE   O1319977   0.151   2.138  10.891  0.1491  0.2342  0.5920
  176SOPE   O1419978   0.158   1.976  11.086 -0.1258 -0.2309  0.4127
  176SOPE   O1219979   0.296   1.945  10.877  0.2012  0.5941 -0.1089
  176SOPE   O1119980   0.046   1.904  10.871  0.7502 -0.0866  0.0006
  176SOPE    C119981   0.056   1.763  10.858 -0.4684 -0.1920 -0.1772
  176SOPE    HA19982  -0.046   1.720  10.868 -0.9908  0.7151 -1.3036
  176SOPE    HB19983   0.111   1.717  10.943  0.7170  0.6645 -0.4597
  176SOPE    C219984   0.124   1.728  10.723  0.4598 -0.3600  0.0830
  176SOPE    HS19985   0.226   1.763  10.752 -0.2595  2.8566 -0.8261
  176SOPE   O2119986   0.049   1.799  10.623 -0.4446 -0.5149 -0.3345
  176SOPE   C2119987   0.136   1.871  10.545 -0.6226 -0.4847 -0.6557
  176SOPE   O2219988   0.255   1.871  10.555 -0.1112  0.2163  0.4334
  176SOPE   C2219989   0.057   1.959  10.450  0.6319 -0.3454 -0.3749
  176SOPE   H2R19990   0.100   2.061  10.455 -3.0347  1.4263 -1.4085
  176SOPE   H2S19991  -0.048   1.973  10.484  1.3632 -1.0147  2.4309
  176SOPE    C319992   0.116   1.578  10.687 -0.5899 -0.5481  0.6434
  176SOPE    HX19993   0.006   1.567  10.684 -0.7002  0.5625  0.3310
  176SOPE    HY19994   0.163   1.525  10.773  0.9192  1.3565  1.0503
  176SOPE   O3119995   0.176   1.545  10.556 -0.3008 -0.0626  0.2563
  176SOPE   C3119996   0.122   1.437  10.504 -0.1600  0.7423  0.1555
  176SOPE   O3219997   0.037   1.368  10.555  0.2146  0.1934  0.1345
  176SOPE   C3219998   0.176   1.403  10.367 -0.6682  0.5432 -0.1229
  176SOPE   H2X19999   0.108   1.329  10.321  0.5185 -0.4502 -0.3279
  176SOPE   H2Y20000   0.274   1.353  10.384 -0.6694  0.5295 -0.1556
  176SOPE   C2320001   0.067   1.913  10.303  0.2681 -0.0100  0.3032
  176SOPE   H3R20002   0.017   1.814  10.303 -0.8575  0.5464 -0.3208
  176SOPE   H3S20003   0.169   1.892  10.265 -0.0387 -1.2790  0.1079
  176SOPE   C2420004  -0.013   2.005  10.209  0.3132  0.2515 -0.0677
  176SOPE   H4R20005  -0.116   2.020  10.248  1.3203  2.1335  2.1047
  176SOPE   H4S20006   0.043   2.101  10.211 -0.3695  0.6514  0.4186
  176SOPE   C2520007  -0.018   1.961  10.063 -0.1688  0.1264  0.4434
  176SOPE   H5R20008   0.087   1.973  10.030  0.4312  0.0512  2.1944
  176SOPE   H5S20009  -0.039   1.853  10.051  3.7895 -0.9823  1.9508
  176SOPE   C2620010  -0.111   2.041   9.973 -0.3056  0.1570 -0.0976
  176SOPE   H6R20011  -0.218   2.038  10.001 -0.6361  0.2512 -1.2885
  176SOPE   H6S20012  -0.077   2.147   9.979 -0.9075  0.3516 -0.1059
  176SOPE   C2720013  -0.099   1.984   9.830 -0.7556 -0.3430 -0.7817
  176SOPE   H7R20014   0.009   1.957   9.820  0.1317  2.0667  1.2659
  176SOPE   H7S20015  -0.156   1.889   9.819 -1.0001 -0.2298 -0.4887
  176SOPE   C2820016  -0.150   2.075   9.711  0.2433 -0.0510 -0.2837
  176SOPE   H8R20017  -0.242   2.126   9.747 -0.5010 -2.4766  1.4860
  176SOPE   H8S20018  -0.065   2.146   9.697  0.6481 -0.7661 -1.5815
  176SOPE   C2920019  -0.161   1.993   9.589  0.9328 -0.3602  0.5678
  176SOPE   H9120020  -0.181   1.885   9.596 -1.4485  0.1308  2.4160
  176SOPE  C21020021  -0.152   2.046   9.463 -0.0106 -0.2043  0.5806
  176SOPE  H10120022  -0.176   1.975   9.382 -2.4402  2.1051 -0.9119
  176SOPE  C21120023  -0.125   2.184   9.411 -0.1002 -0.1747 -0.1406
  176SOPE  H11R20024  -0.043   2.190   9.336  0.4495  0.4645  0.4875
  176SOPE  H11S20025  -0.092   2.259   9.486  0.7253 -1.3007  0.6731
  176SOPE  C21220026  -0.249   2.233   9.332 -0.8215  0.2686 -0.3001
  176SOPE  H12R20027  -0.343   2.206   9.385 -0.1791 -2.1445 -0.2440
  176SOPE  H12S20028  -0.243   2.172   9.239  1.4985  1.2228 -0.8529
  176SOPE  C21320029  -0.243   2.383   9.311 -0.2470 -0.5422  0.2101
  176SOPE  H13R20030  -0.139   2.408   9.281 -1.4049  0.9112 -3.1592
  176SOPE  H13S20031  -0.250   2.438   9.407 -1.8826  2.4767 -1.5002
  176SOPE  C21420032  -0.343   2.450   9.214  0.7457  0.7823 -0.0625
  176SOPE  H14R20033  -0.440   2.414   9.257  0.9081 -2.3699 -1.9871
  176SOPE  H14S20034  -0.347   2.422   9.107 -1.1244 -1.0378  0.4002
  176SOPE  C21520035  -0.351   2.598   9.222 -0.2309 -0.0624 -0.3477
  176SOPE  H15R20036  -0.311   2.634   9.319 -0.4095  0.0712 -0.3241
  176SOPE  H15S20037  -0.459   2.626   9.222 -0.2283  0.2345  2.3644
  176SOPE  C21620038  -0.270   2.664   9.107  0.2700 -0.3628 -0.4913
  176SOPE  H16R20039  -0.308   2.620   9.013 -0.1905 -0.5981 -0.1957
  176SOPE  H16S20040  -0.165   2.628   9.115  0.9203  1.4860 -0.1093
  176SOPE  C21720041  -0.308   2.811   9.091  0.0355  0.2541 -0.1096
  176SOPE  H17R20042  -0.248   2.869   9.164  2.1993  0.4591 -1.9584
  176SOPE  H17S20043  -0.412   2.830   9.126 -0.1015 -1.0873  0.2758
  176SOPE  C21820044  -0.281   2.878   8.952 -0.7266 -0.3155  0.3301
  176SOPE  H18R20045  -0.182   2.863   8.903 -0.9598  0.3126 -0.3532
  176SOPE  H18S20046  -0.300   2.986   8.965  0.4899  0.0575 -0.7692
  176SOPE  H18T20047  -0.363   2.840   8.887 -1.1675  0.5403  0.3720
  176SOPE   C3320048   0.215   1.531  10.284 -0.1145  0.1554  0.2299
  176SOPE   H3X20049   0.292   1.595  10.332  1.5083 -1.1464 -0.5450
  176SOPE   H3Y20050   0.123   1.593  10.277  0.5258  1.1733  0.5600
  176SOPE   C3420051   0.265   1.487  10.146 -0.2568 -0.5555 -1.0042
  176SOPE   H4X20052   0.366   1.442  10.161 -0.2257  0.4104  2.7247
  176SOPE   H4Y20053   0.288   1.582  10.093 -1.1476  0.1808 -0.1185
  176SOPE   C3520054   0.181   1.389  10.059 -0.2186 -0.7599 -0.3982
  176SOPE   H5X20055   0.076   1.424  10.055 -0.1741 -0.3374  1.2134
  176SOPE   H5Y20056   0.188   1.299  10.124 -1.0754 -1.0594 -0.7158
  176SOPE   C3620057   0.236   1.364   9.921 -0.8793  0.2571  0.7981
  176SOPE   H6X20058   0.168   1.290   9.874 -1.3041  1.2501 -0.2111
  176SOPE   H6Y20059   0.336   1.318   9.931 -0.4609  0.9914  0.0883
  176SOPE   C3720060   0.225   1.484   9.831  0.0864  0.0877  0.1384
  176SOPE   H7X20061   0.269   1.467   9.731  0.6321  1.8557  0.0433
  176SOPE   H7Y20062   0.295   1.555   9.881  1.1738 -1.8178  1.4395
  176SOPE   C3820063   0.079   1.531   9.800 -0.0865 -0.1063 -0.6230
  176SOPE   H8X20064   0.049   1.574   9.897  2.0956  1.5380 -0.6000
  176SOPE   H8Y20065   0.019   1.441   9.776  1.5174 -1.3677 -0.0869
  176SOPE   C3920066   0.068   1.642   9.698  0.2151 -0.6203  0.1326
  176SOPE   H9X20067   0.155   1.708   9.716 -1.3500  1.0616  1.8424
  176SOPE   H9Y20068  -0.015   1.710   9.726  0.4008  0.7335 -2.2868
  176SOPE  C31020069   0.075   1.586   9.556 -0.7206  0.0779 -0.2655
  176SOPE  H10X20070  -0.016   1.529   9.530 -2.2639  0.9425  2.7939
  176SOPE  H10Y20071   0.163   1.523   9.534 -1.0161  0.8226 -4.2790
  176SOPE  C31120072   0.072   1.708   9.464  0.2649 -0.0731 -0.0177
  176SOPE  H11X20073   0.164   1.767   9.483  0.4274  0.6785 -2.6864
  176SOPE  H11Y20074  -0.014   1.773   9.491 -0.6034 -1.7973  1.6123
  176SOPE  C31220075   0.082   1.662   9.315 -0.7466  0.3451  0.0453
  176SOPE  H12X20076  -0.001   1.596   9.283  1.4657 -2.4571 -0.3450
  176SOPE  H12Y20077   0.180   1.615   9.293 -0.4924  0.9687 -0.1760
  176SOPE  C31320078   0.064   1.781   9.224  1.0606 -0.2681  1.0307
  176SOPE  H13X20079   0.148   1.854   9.229 -0.8496  2.1357  0.2219
  176SOPE  H13Y20080  -0.031   1.836   9.244  0.2947 -2.2604  3.5076
  176SOPE  C31420081   0.042   1.738   9.079 -0.7427  0.8643  0.2620
  176SOPE  H14X20082   0.015   1.833   9.027 -0.2101  1.0730  0.3578
  176SOPE  H14Y20083  -0.043   1.667   9.071  0.8581 -1.2724  1.1737
  176SOPE  C31520084   0.163   1.671   9.012 -0.8419 -0.1613 -0.3669
  176SOPE  H15X20085   0.179   1.569   9.053  0.1430 -0.4511 -1.4380
  176SOPE  H15Y20086   0.260   1.718   9.036 -0.1307 -1.4535 -0.5979
  176SOPE  C31620087   0.164   1.676   8.857  0.1669 -0.3111 -0.9928
  176SOPE  H16X20088   0.269   1.657   8.829  1.0631 -1.4957  2.6392
  176SOPE  H16Y20089   0.129   1.777   8.826 -1.6448  0.0270  1.7853
  176SOPE  C31720090   0.069   1.569   8.793 -0.4595  0.1371  0.3304
  176SOPE  H17X20091   0.096   1.567   8.686  1.6881 -2.1242  0.8092
  176SOPE  H17Y20092  -0.038   1.596   8.810 -0.0137  1.6996  0.7395
  176SOPE  C31820093   0.099   1.423   8.833 -0.0501 -0.7149 -0.4595
  176SOPE  H18X20094   0.050   1.413   8.932  0.3142  1.3825 -0.0311
  176SOPE  H18Y20095   0.210   1.413   8.843 -0.1810 -1.2025  0.6494
  176SOPE  H18Z20096   0.057   1.358   8.753  0.2134  0.4415 -1.5629
  177SOPE     N20097   0.939   6.334  10.746 -0.3135  0.2304 -0.5825
  177SOPE   HN120098   0.879   6.376  10.819  1.7790  2.4734 -0.0183
  177SOPE   HN220099   0.909   6.235  10.739 -0.4024  0.2173 -0.0123
  177SOPE   HN320100   1.037   6.341  10.780  1.3374 -0.7857 -4.4750
  177SOPE   C1220101   0.923   6.412  10.617  0.3605  0.1526 -0.3645
  177SOPE  H12A20102   0.978   6.364  10.533 -0.2414 -0.9092 -0.1678
  177SOPE  H12B20103   0.963   6.513  10.641 -0.1898  0.3713 -0.3596
  177SOPE   C1120104   0.772   6.449  10.575 -0.6707  0.3562 -0.2666
  177SOPE  H11A20105   0.717   6.355  10.554  0.8718 -1.0780  1.6216
  177SOPE  H11B20106   0.782   6.502  10.478 -1.7693 -4.4146 -3.3450
  177SOPE     P20107   0.637   6.650  10.678  0.1212 -0.2788 -0.1347
  177SOPE   O1320108   0.709   6.753  10.604 -0.4831 -0.4764  0.6535
  177SOPE   O1420109   0.581   6.684  10.814  0.2678 -0.5026 -0.1855
  177SOPE   O1220110   0.715   6.521  10.686 -0.1623  0.2784 -0.4848
  177SOPE   O1120111   0.521   6.622  10.578 -0.2194 -0.1232 -0.5548
  177SOPE    C120112   0.419   6.726  10.560 -0.4804  0.2240  0.1330
  177SOPE    HA20113   0.467   6.824  10.545 -3.4884  2.4521  3.5400
  177SOPE    HB20114   0.364   6.736  10.656  2.0513 -1.3076  1.8600
  177SOPE    C220115   0.323   6.688  10.443 -0.6057  0.5406  0.3902
  177SOPE    HS20116   0.253   6.775  10.435 -3.2710 -1.2013  2.7415
  177SOPE   O2120117   0.255   6.565  10.477  0.4487  0.3596 -0.2677
  177SOPE   C2120118   0.137   6.551  10.420 -0.4030  0.0027  0.3115
  177SOPE   O2220119   0.076   6.634  10.358 -0.2620 -0.0920 -0.3711
  177SOPE   C2220120   0.097   6.404  10.438 -0.3549 -0.0153  0.5561
  177SOPE   H2R20121  -0.014   6.401  10.444 -0.6887 -0.5953 -3.3293
  177SOPE   H2S20122   0.144   6.376  10.535  0.1372  0.3284  0.4128
  177SOPE    C320123   0.399   6.681  10.304  0.4988 -0.2492  0.1211
  177SOPE    HX20124   0.455   6.586  10.294  0.8937  0.0062 -0.1084
  177SOPE    HY20125   0.470   6.765  10.321  1.1167 -0.7381  0.0063
  177SOPE   O3120126   0.329   6.734  10.188 -0.0741  0.5956 -0.0198
  177SOPE   C3120127   0.320   6.650  10.097  0.4829 -0.1315  0.2224
  177SOPE   O3220128   0.365   6.538  10.092 -1.2687  0.5587 -0.2535
  177SOPE   C3220129   0.235   6.701   9.976 -0.6722  0.0062  0.1786
  177SOPE   H2X20130   0.257   6.810   9.971  1.3463 -0.3319  0.8246
  177SOPE   H2Y20131   0.131   6.666   9.994  0.9695 -3.8231  3.8826
  177SOPE   C2320132   0.145   6.320  10.320  0.2032 -0.2837  0.0478
  177SOPE   H3R20133   0.145   6.210  10.339  0.9249 -0.2747  0.1243
  177SOPE   H3S20134   0.248   6.352  10.295  0.5759 -0.0242  1.8006
  177SOPE   C2420135   0.062   6.345  10.191 -0.8879  0.6402  0.1448
  177SOPE   H4R20136  -0.042   6.309  10.205  0.0723 -2.6988 -0.2989
  177SOPE   H4S20137   0.068   6.454  10.174  1.2508  0.6509  0.7229
  177SOPE   C2520138   0.132   6.281  10.070 -0.7229 -0.3808 -0.8410
  177SOPE   H5R20139   0.242   6.294  10.081 -0.8887 -0.3072  1.1569
  177SOPE   H5S20140   0.123   6.170  10.076 -1.6355 -0.3118 -0.8867
  177SOPE   C2620141   0.071   6.322   9.933  0.2162  0.7916  0.2248
  177SOPE   H6R20142  -0.037   6.299   9.919  0.1922  0.9883  0.0768
  177SOPE   H6S20143   0.081   6.433   9.928 -1.1840  0.9140 -0.2699
  177SOPE   C2720144   0.150   6.252   9.818  0.5076 -0.3450  0.4733
  177SOPE   H7R20145   0.255   6.272   9.846  0.9699 -1.6444 -0.2394
  177SOPE   H7S20146   0.135   6.142   9.816 -0.2342 -0.2478 -0.2992
  177SOPE   C2820147   0.118   6.321   9.678 -0.4398 -0.2605  0.0280
  177SOPE   H8R20148   0.014   6.295   9.647 -1.3428  0.9295  1.8895
  177SOPE   H8S20149   0.107   6.431   9.686 -0.1006 -0.1209 -1.1978
  177SOPE   C2920150   0.202   6.272   9.575  0.1216  0.3868  0.0027
  177SOPE   H9120151   0.295   6.242   9.625 -1.1957 -1.1062  1.6879
  177SOPE  C21020152   0.183   6.266   9.440  0.3031 -0.1182  0.5644
  177SOPE  H10120153   0.261   6.228   9.373 -1.4983  0.3625 -1.9256
  177SOPE  C21120154   0.060   6.312   9.365 -0.6673  0.1176 -0.2571
  177SOPE  H11R20155   0.061   6.423   9.352 -2.0875 -0.0628 -2.3669
  177SOPE  H11S20156  -0.029   6.285   9.427  0.1121  2.4415  2.0600
  177SOPE  C21220157   0.041   6.244   9.228 -0.4314  0.2318 -0.4107
  177SOPE  H12R20158  -0.062   6.272   9.195  0.1590 -0.2509 -2.8176
  177SOPE  H12S20159   0.045   6.135   9.248  3.0041  0.7643  2.8132
  177SOPE  C21320160   0.134   6.275   9.112 -0.5902 -0.0421  0.5612
  177SOPE  H13R20161   0.231   6.230   9.142 -1.4973 -1.9594  0.7905
  177SOPE  H13S20162   0.140   6.383   9.086 -2.9382 -0.0171 -0.1118
  177SOPE  C21420163   0.095   6.201   8.993 -0.7350  0.2843  0.1816
  177SOPE  H14R20164  -0.007   6.228   8.960 -1.0103 -0.0448  0.7639
  177SOPE  H14S20165   0.074   6.094   9.016  0.0367  0.2016  0.5512
  177SOPE  C21520166   0.186   6.235   8.874 -0.0781  0.0467 -0.0238
  177SOPE  H15R20167   0.291   6.216   8.907  0.2410  0.9129 -0.5269
  177SOPE  H15S20168   0.168   6.336   8.832 -3.4459 -0.9352 -1.2373
  177SOPE  C21620169   0.157   6.128   8.761 -0.3491  0.2004 -0.6840
  177SOPE  H16R20170   0.047   6.132   8.749 -0.5837 -1.0718  0.7123
  177SOPE  H16S20171   0.182   6.029   8.804  0.2544  0.7750  0.3285
  177SOPE  C21720172   0.225   6.155   8.630  0.1672 -0.0719 -0.6268
  177SOPE  H17R20173   0.331   6.145   8.659  0.0692 -1.2013 -0.6464
  177SOPE  H17S20174   0.208   6.262   8.603 -0.4567 -0.2743 -1.0746
  177SOPE  C21820175   0.194   6.061   8.521 -0.7134  0.2539 -0.5468
  177SOPE  H18R20176   0.086   6.071   8.495 -0.3953  0.1298 -1.9821
  177SOPE  H18S20177   0.219   5.954   8.539 -0.6777  0.4412  0.6108
  177SOPE  H18T20178   0.259   6.098   8.439 -0.0658  3.3427  1.2160
  177SOPE   C3320179   0.297   6.626   9.857  0.6513 -0.4876  0.0452
  177SOPE   H3X20180   0.276   6.517   9.859 -2.4405  0.0092 -0.6655
  177SOPE   H3Y20181   0.408   6.634   9.858  0.6710 -0.6008 -0.7751
  177SOPE   C3420182   0.255   6.684   9.718 -0.0582 -0.1297  0.1734
  177SOPE   H4X20183   0.273   6.793   9.707 -0.2794 -0.0414  0.6379
  177SOPE   H4Y20184   0.145   6.668   9.709  0.0044  0.0965 -1.3411
  177SOPE   C3520185   0.320   6.616   9.599  0.0099 -0.2928  0.5802
  177SOPE   H5X20186   0.295   6.508   9.608  3.4715 -1.2184  0.2170
  177SOPE   H5Y20187   0.429   6.635   9.596  0.2598 -1.7319  0.1372
  177SOPE   C3620188   0.252   6.664   9.470  0.2434  0.1072 -0.0485
  177SOPE   H6X20189   0.275   6.772   9.478 -0.2221  0.2658 -0.7312
  177SOPE   H6Y20190   0.141   6.659   9.477  0.0649  1.1720 -1.4987
  177SOPE   C3720191   0.307   6.610   9.338  0.3294  0.1429  0.2407
  177SOPE   H7X20192   0.311   6.499   9.332 -0.2021 -0.0055  2.1346
  177SOPE   H7Y20193   0.413   6.640   9.325  0.9059 -1.8671 -0.0518
  177SOPE   C3820194   0.249   6.668   9.202  0.6254  0.3776 -0.3024
  177SOPE   H8X20195   0.227   6.777   9.202  0.7186  0.3955 -0.5180
  177SOPE   H8Y20196   0.149   6.619   9.201  0.0981  1.4227 -0.4870
  177SOPE   C3920197   0.312   6.623   9.071  0.0048  0.5505  0.3690
  177SOPE   H9X20198   0.329   6.513   9.077 -0.8400  0.4622  1.5439
  177SOPE   H9Y20199   0.407   6.677   9.053  0.5049 -0.2052  0.6577
  177SOPE  C31020200   0.222   6.630   8.947 -0.2442 -0.4327  0.6265
  177SOPE  H10X20201   0.184   6.734   8.941  0.1363 -0.3145  0.2277
  177SOPE  H10Y20202   0.134   6.563   8.963  0.8198 -2.2532 -0.7210
  177SOPE  C31120203   0.307   6.602   8.817 -0.1008  0.4816 -0.5728
  177SOPE  H11X20204   0.340   6.497   8.802  0.0419 -0.0938  2.9902
  177SOPE  H11Y20205   0.400   6.661   8.835  1.1456 -1.2937 -0.9128
  177SOPE  C31220206   0.239   6.648   8.689 -0.0258  0.1059 -0.1800
  177SOPE  H12X20207   0.196   6.745   8.723  3.0115  1.5345 -0.0657
  177SOPE  H12Y20208   0.153   6.586   8.656  0.1435 -0.4596  0.4277
  177SOPE  C31320209   0.348   6.658   8.578 -0.1439 -0.4196 -0.3164
  177SOPE  H13X20210   0.392   6.556   8.571 -2.4492 -1.5053  0.0349
  177SOPE  H13Y20211   0.431   6.726   8.603  0.8643 -1.2447 -1.3300
  177SOPE  C31420212   0.301   6.688   8.437 -0.7570 -0.3577 -0.8872
  177SOPE  H14X20213   0.268   6.593   8.390 -0.9854 -0.8497  0.2566
  177SOPE  H14Y20214   0.392   6.731   8.390  1.3409 -2.9945  0.5055
  177SOPE  C31520215   0.185   6.791   8.433  0.0485  0.1258  0.2493
  177SOPE  H15X20216   0.227   6.870   8.500 -0.0357 -1.0149  1.7072
  177SOPE  H15Y20217   0.090   6.755   8.479 -0.1818  0.5361  0.0971
  177SOPE  C31620218   0.165   6.857   8.297 -0.2537 -0.0330  0.3352
  177SOPE  H16X20219   0.263   6.891   8.256 -0.3304 -1.3864 -1.1032
  177SOPE  H16Y20220   0.101   6.946   8.315 -1.3894 -0.9809  1.1060
  177SOPE  C31720221   0.086   6.771   8.200  0.3730  0.4246  0.3572
  177SOPE  H17X20222  -0.019   6.759   8.235  0.8366  1.4294  2.1962
  177SOPE  H17Y20223   0.146   6.678   8.188  1.1297  0.7906  1.2353
  177SOPE  C31820224   0.072   6.842   8.062 -0.2271  0.0042  0.1624
  177SOPE  H18X20225   0.001   6.784   7.999  1.7131 -1.2478 -0.9629
  177SOPE  H18Y20226   0.169   6.852   8.009 -0.5370 -1.1357 -0.6538
  177SOPE  H18Z20227   0.031   6.944   8.075 -1.3049 -0.1364 -1.7567
  178SOPE     N20228   4.176   4.681  10.933 -0.0585  0.3181 -0.5245
  178SOPE   HN120229   4.184   4.693  10.830 -0.9660 -0.6314 -0.7274
  178SOPE   HN220230   4.087   4.724  10.962 -0.2533 -1.6629  2.1868
  178SOPE   HN320231   4.253   4.729  10.985 -0.3260 -0.2997  0.4787
  178SOPE   C1220232   4.170   4.537  10.980 -0.1810 -0.4291 -0.2553
  178SOPE  H12A20233   4.182   4.547  11.090  0.6112  0.1088 -0.3865
  178SOPE  H12B20234   4.253   4.487  10.925  0.8139 -1.0111  1.6837
  178SOPE   C1120235   4.039   4.467  10.952  0.4388 -0.1271  0.3338
  178SOPE  H11A20236   4.050   4.360  10.980 -0.8502 -0.8127 -1.5675
  178SOPE  H11B20237   4.025   4.477  10.842  0.9319 -0.4601  0.2328
  178SOPE     P20238   3.837   4.639  10.979  0.2715  0.0169  0.1463
  178SOPE   O1320239   3.926   4.749  11.001 -1.3195  0.0952 -1.0897
  178SOPE   O1420240   3.703   4.629  11.044  0.1030  0.0335 -0.1665
  178SOPE   O1220241   3.925   4.520  11.022 -0.2441 -0.3186  0.3296
  178SOPE   O1120242   3.822   4.619  10.822  0.1839 -0.4500  0.1049
  178SOPE    C120243   3.722   4.544  10.777 -0.0970 -0.2934  1.8696
  178SOPE    HA20244   3.625   4.597  10.788  0.0916  0.4354  0.3319
  178SOPE    HB20245   3.717   4.447  10.830  1.5414 -0.5713  1.5693
  178SOPE    C220246   3.747   4.512  10.627 -0.4342 -0.2443  1.0655
  178SOPE    HS20247   3.667   4.442  10.594  1.6498 -1.7712 -1.1386
  178SOPE   O2120248   3.872   4.443  10.604 -0.3158 -0.0113 -0.3405
  178SOPE   C2120249   3.877   4.310  10.621  0.6717 -0.2153  0.3187
  178SOPE   O2220250   3.774   4.242  10.620  0.2281  0.0646 -0.0386
  178SOPE   C2220251   4.024   4.262  10.627  0.9757 -0.7119  0.0298
  178SOPE   H2R20252   4.014   4.202  10.720 -0.5685 -1.2312 -0.4417
  178SOPE   H2S20253   4.081   4.354  10.652 -1.4143  0.5926  1.0709
  178SOPE    C320254   3.739   4.637  10.531  0.1497  0.0629 -0.4965
  178SOPE    HX20255   3.803   4.718  10.571  0.4300  0.0933 -1.0024
  178SOPE    HY20256   3.638   4.682  10.538 -0.3198 -0.8250 -1.2883
  178SOPE   O3120257   3.765   4.610  10.399  0.1395  0.6742  0.6049
  178SOPE   C3120258   3.887   4.634  10.357 -0.2068 -0.4719  0.7209
  178SOPE   O3220259   3.976   4.681  10.426  0.0528  0.1021  0.3467
  178SOPE   C3220260   3.884   4.608  10.204 -0.1104 -0.0473  0.2604
  178SOPE   H2X20261   3.816   4.678  10.151  0.2086 -0.6565 -0.9716
  178SOPE   H2Y20262   3.843   4.506  10.188 -2.2270  0.9624 -1.2862
  178SOPE   C2320263   4.078   4.178  10.521 -0.4439 -0.0056  0.1162
  178SOPE   H3R20264   4.005   4.099  10.491 -1.4094  1.3267 -1.1963
  178SOPE   H3S20265   4.174   4.136  10.558  1.9742  2.4854 -2.8095
  178SOPE   C2420266   4.125   4.265  10.400 -0.5710  0.7497 -0.1951
  178SOPE   H4R20267   4.024   4.297  10.368  0.3547  2.1696 -1.8310
  178SOPE   H4S20268   4.188   4.351  10.432 -1.8824  2.6304 -2.3230
  178SOPE   C2520269   4.201   4.181  10.295  0.2193  0.2651 -0.0416
  178SOPE   H5R20270   4.303   4.160  10.334 -0.5406 -3.5462  0.2225
  178SOPE   H5S20271   4.154   4.083  10.276  0.6916 -0.7111  3.2149
  178SOPE   C2620272   4.224   4.249  10.165  0.0909  0.2475  0.4503
  178SOPE   H6R20273   4.124   4.266  10.119 -0.6560 -0.5812  1.6719
  178SOPE   H6S20274   4.277   4.346  10.176  0.6055 -0.0679  0.7956
  178SOPE   C2720275   4.315   4.160  10.073 -1.1792 -0.7425  1.1152
  178SOPE   H7R20276   4.417   4.155  10.118 -0.6694 -1.7138 -0.0778
  178SOPE   H7S20277   4.269   4.060  10.070 -0.8853 -0.8856  1.3703
  178SOPE   C2820278   4.327   4.224   9.919  0.1366  0.4929  0.0528
  178SOPE   H8R20279   4.377   4.322   9.934 -0.8207  0.8440  1.0625
  178SOPE   H8S20280   4.393   4.154   9.863 -0.5234  0.5950 -0.8829
  178SOPE   C2920281   4.199   4.240   9.842  0.4754 -0.4119  0.0234
  178SOPE   H9120282   4.105   4.247   9.900 -0.1102  0.1220 -0.9600
  178SOPE  C21020283   4.174   4.250   9.711 -0.4528  0.5299 -0.3092
  178SOPE  H10120284   4.070   4.260   9.677 -0.9094 -2.0606  0.1113
  178SOPE  C21120285   4.281   4.248   9.608  0.9427  0.4691 -0.0128
  178SOPE  H11R20286   4.263   4.175   9.526  0.4305 -1.8390  2.0316
  178SOPE  H11S20287   4.384   4.229   9.645  0.9137 -0.6112 -0.4743
  178SOPE  C21220288   4.282   4.390   9.540  0.1472  0.7973 -0.3552
  178SOPE  H12R20289   4.329   4.462   9.611  0.4093  1.3471 -1.0707
  178SOPE  H12S20290   4.177   4.416   9.516  0.3439  1.4467 -0.5379
  178SOPE  C21320291   4.389   4.393   9.429  0.3957  1.0528 -1.1471
  178SOPE  H13R20292   4.393   4.293   9.382  0.4303  1.7006 -2.5967
  178SOPE  H13S20293   4.489   4.416   9.472  0.3298 -1.0839  0.2621
  178SOPE  C21420294   4.345   4.494   9.320 -0.2443  0.3834 -0.2811
  178SOPE  H14R20295   4.350   4.597   9.360  0.1855  1.0162 -1.8711
  178SOPE  H14S20296   4.243   4.474   9.281 -0.7754  0.9855  0.7737
  178SOPE  C21520297   4.447   4.473   9.208  0.0132 -0.2224 -0.3665
  178SOPE  H15R20298   4.470   4.365   9.194  0.4422 -0.1725 -0.0768
  178SOPE  H15S20299   4.545   4.508   9.248  0.1551 -1.5915  0.5627
  178SOPE  C21620300   4.406   4.542   9.082  0.3572 -0.6608  0.4812
  178SOPE  H16R20301   4.391   4.650   9.105  1.8225 -0.0126 -1.3011
  178SOPE  H16S20302   4.302   4.514   9.055  0.1679  1.7244 -1.5783
  178SOPE  C21720303   4.485   4.508   8.956  0.5076 -0.4917  0.7764
  178SOPE  H17R20304   4.592   4.535   8.973 -0.0420  1.3384  1.6050
  178SOPE  H17S20305   4.454   4.559   8.863  1.6684  1.4724  1.4067
  178SOPE  C21820306   4.483   4.360   8.925  0.4254 -0.8396  0.2537
  178SOPE  H18R20307   4.380   4.318   8.917  0.2852 -0.5252  0.3960
  178SOPE  H18S20308   4.545   4.304   8.998  0.9639 -2.8696 -1.6519
  178SOPE  H18T20309   4.525   4.343   8.824  2.1230  2.9908  0.1352
  178SOPE   C3320310   4.026   4.608  10.145 -0.0751 -0.2137 -0.4876
  178SOPE   H3X20311   4.088   4.545  10.212  0.8600  0.9037 -0.2738
  178SOPE   H3Y20312   4.074   4.707  10.160  1.8919 -1.4673  2.3909
  178SOPE   C3420313   4.038   4.552   9.995 -0.6472  0.5072 -0.3049
  178SOPE   H4X20314   3.979   4.458   9.993  0.0346  0.0847 -1.9840
  178SOPE   H4Y20315   4.145   4.530   9.976 -0.6830 -0.0813  0.1385
  178SOPE   C3520316   3.988   4.657   9.897  0.0893 -0.0358  0.3494
  178SOPE   H5X20317   4.005   4.758   9.940 -1.8431  1.3859 -1.9851
  178SOPE   H5Y20318   3.878   4.646   9.887 -0.3205  3.6481 -0.6095
  178SOPE   C3620319   4.059   4.649   9.761 -0.2852 -0.0617 -0.2542
  178SOPE   H6X20320   4.053   4.544   9.725 -1.5034  0.6112 -2.1513
  178SOPE   H6Y20321   4.165   4.674   9.782 -0.6665  0.4071  1.2368
  178SOPE   C3720322   3.997   4.737   9.658  0.1278 -0.1545  0.2806
  178SOPE   H7X20323   3.996   4.839   9.703  2.8780  0.0783  0.0139
  178SOPE   H7Y20324   3.889   4.715   9.646 -0.1329 -0.2727  2.4648
  178SOPE   C3820325   4.070   4.754   9.525 -0.0360  0.4045  0.2358
  178SOPE   H8X20326   4.034   4.675   9.455 -2.0798  1.7257 -0.3089
  178SOPE   H8Y20327   4.180   4.766   9.531  0.0716  1.3523 -2.5431
  178SOPE   C3920328   4.009   4.878   9.445 -0.0467  0.4128 -0.5403
  178SOPE   H9X20329   4.038   4.972   9.496  0.5565 -0.3075  0.5023
  178SOPE   H9Y20330   3.899   4.864   9.446 -0.0262  0.1257  0.9997
  178SOPE  C31020331   4.058   4.869   9.300 -0.0075 -0.4414 -0.7641
  178SOPE  H10X20332   4.059   4.762   9.272 -1.5709 -0.4471 -0.9246
  178SOPE  H10Y20333   4.162   4.905   9.316  0.0775 -0.5015 -1.1887
  178SOPE  C31120334   3.986   4.960   9.207 -0.1065 -0.0508 -0.7223
  178SOPE  H11X20335   3.993   5.065   9.244 -0.9794 -0.2070 -0.0690
  178SOPE  H11Y20336   3.877   4.940   9.201 -0.2262  0.8440 -1.7196
  178SOPE  C31220337   4.044   4.943   9.073 -0.4116  0.0320  0.5100
  178SOPE  H12X20338   4.045   4.835   9.047 -1.0421  0.3173 -0.8010
  178SOPE  H12Y20339   4.146   4.986   9.072 -1.6310  3.2811 -1.0829
  178SOPE  C31320340   3.965   5.014   8.967  0.8838  0.1839 -0.3657
  178SOPE  H13X20341   3.933   5.105   9.022  0.7294 -0.7777  1.2013
  178SOPE  H13Y20342   3.872   4.954   8.959  0.9111  0.2776 -1.5494
  178SOPE  C31420343   4.046   5.039   8.842 -0.1740 -0.7439 -0.0247
  178SOPE  H14X20344   4.102   4.946   8.820  0.6756 -0.2955  0.2090
  178SOPE  H14Y20345   4.121   5.115   8.874 -1.3177  0.0833  0.7643
  178SOPE  C31520346   3.969   5.091   8.719 -0.3646  0.1352  0.0541
  178SOPE  H15X20347   3.911   5.182   8.747 -1.5408 -0.4795 -0.3160
  178SOPE  H15Y20348   3.904   5.010   8.678  0.4614 -0.2228 -0.5611
  178SOPE  C31620349   4.065   5.136   8.601 -0.3122 -0.3492  0.4144
  178SOPE  H16X20350   4.092   5.044   8.545 -0.3284  0.3656 -0.8135
  178SOPE  H16Y20351   4.161   5.185   8.628  0.8610 -2.1906 -0.2246
  178SOPE  C31720352   3.985   5.213   8.494 -0.0790 -0.1449 -0.0516
  178SOPE  H17X20353   3.954   5.312   8.535 -1.0062 -0.4312 -0.0421
  178SOPE  H17Y20354   3.908   5.140   8.460 -0.0112 -0.5826  0.6972
  178SOPE  C31820355   4.073   5.253   8.373 -0.4149 -0.2027 -0.0153
  178SOPE  H18X20356   4.092   5.170   8.302 -1.1636 -0.1119 -0.3279
  178SOPE  H18Y20357   4.170   5.301   8.401 -0.5977  1.0595 -1.4171
  178SOPE  H18Z20358   4.010   5.321   8.311 -0.3785 -0.2697 -0.1257
  179SOPE     N20359   1.982   4.813   6.306 -0.1071 -0.4582 -0.2958
  179SOPE   HN120360   1.923   4.880   6.253  2.2081  0.9194 -1.2770
  179SOPE   HN220361   2.043   4.871   6.367  2.1366 -0.2672 -2.5338
  179SOPE   HN320362   2.035   4.765   6.230  1.2107  1.8405 -0.9179
  179SOPE   C1220363   1.896   4.730   6.399 -0.0206  1.0859  0.0134
  179SOPE  H12A20364   1.959   4.645   6.434 -0.2471  1.8177  2.2972
  179SOPE  H12B20365   1.813   4.693   6.334 -0.1689  0.7466  0.3940
  179SOPE   C1120366   1.854   4.827   6.507  0.8185 -0.6711 -0.3349
  179SOPE  H11A20367   1.753   4.793   6.539  0.1424 -0.2437 -1.9003
  179SOPE  H11B20368   1.842   4.933   6.476  0.3291  0.1598  2.3897
  179SOPE     P20369   2.082   4.876   6.626  0.5369 -0.4638 -0.1827
  179SOPE   O1320370   2.097   4.959   6.502 -0.1871  0.2584 -0.0362
  179SOPE   O1420371   2.178   4.772   6.651 -0.3190  0.0629  0.5983
  179SOPE   O1220372   1.936   4.819   6.621  0.2215 -0.0502 -0.0793
  179SOPE   O1120373   2.083   4.984   6.742  0.0137 -0.3613 -0.1604
  179SOPE    C120374   1.976   5.014   6.826 -0.3599 -0.0284 -1.0333
  179SOPE    HA20375   1.876   4.982   6.789 -1.4565  0.2956  1.4743
  179SOPE    HB20376   1.956   5.123   6.833 -0.7365 -0.1895  0.9885
  179SOPE    C220377   1.999   4.962   6.967  0.1245 -0.8976 -0.1024
  179SOPE    HS20378   1.957   5.044   7.028 -2.3753 -0.9730 -1.5722
  179SOPE   O2120379   2.134   4.940   7.003 -0.6870 -0.0842  0.0510
  179SOPE   C2120380   2.217   5.039   7.011  0.2320 -0.2219  0.0683
  179SOPE   O2220381   2.185   5.153   6.994 -0.0388 -0.0938 -0.7646
  179SOPE   C2220382   2.356   4.980   7.024 -0.0971 -0.0213  0.0201
  179SOPE   H2R20383   2.403   4.991   6.924 -2.9358  0.3780 -1.3830
  179SOPE   H2S20384   2.340   4.872   7.042  1.0408 -0.7299 -2.7488
  179SOPE    C320385   1.925   4.828   7.001 -0.3535  0.2558 -0.0167
  179SOPE    HX20386   1.951   4.738   6.941  0.2380 -1.3128  2.4343
  179SOPE    HY20387   1.822   4.854   6.971  0.6785  2.3358 -2.1564
  179SOPE   O3120388   1.945   4.792   7.144 -0.1460 -0.2446  0.0587
  179SOPE   C3120389   2.047   4.712   7.179 -0.1703 -0.2266 -0.3562
  179SOPE   O3220390   2.131   4.671   7.103 -0.3361  0.1606  0.4005
  179SOPE   C3220391   2.031   4.686   7.325  0.0848 -0.2882 -0.0294
  179SOPE   H2X20392   1.942   4.627   7.356  0.4396 -1.7381 -1.6096
  179SOPE   H2Y20393   2.016   4.784   7.375 -0.2511  0.5754 -1.7588
  179SOPE   C2320394   2.433   5.046   7.143 -0.0234 -0.6704 -0.0249
  179SOPE   H3R20395   2.442   5.156   7.126  0.9351 -1.0847 -2.8707
  179SOPE   H3S20396   2.539   5.017   7.133  0.9040  2.1415  0.6447
  179SOPE   C2420397   2.362   5.019   7.277 -0.6279  0.1781  0.1587
  179SOPE   H4R20398   2.270   5.081   7.281  0.1180  1.2835  0.6895
  179SOPE   H4S20399   2.343   4.909   7.281 -2.4613  0.3449 -2.0742
  179SOPE   C2520400   2.461   5.054   7.390 -0.4572  0.1899  0.2615
  179SOPE   H5R20401   2.559   5.009   7.363 -0.0382  1.4306 -0.3875
  179SOPE   H5S20402   2.474   5.164   7.380  0.1067  0.0836 -0.2614
  179SOPE   C2620403   2.411   5.025   7.530 -1.2685  0.3789 -0.1340
  179SOPE   H6R20404   2.304   5.053   7.525 -0.9544  1.7702  0.3610
  179SOPE   H6S20405   2.411   4.915   7.547 -0.4934  0.3204 -0.4589
  179SOPE   C2720406   2.482   5.109   7.634  0.3014 -0.3688  0.0896
  179SOPE   H7R20407   2.588   5.076   7.644  0.4202 -1.0570 -2.5831
  179SOPE   H7S20408   2.493   5.214   7.598  1.2021  0.3494  2.3295
  179SOPE   C2820409   2.397   5.103   7.767  0.6494 -0.2288  0.1705
  179SOPE   H8R20410   2.396   5.003   7.816  0.3173  0.6557  2.0453
  179SOPE   H8S20411   2.457   5.160   7.841 -0.6625 -1.1578  2.0542
  179SOPE   C2920412   2.255   5.162   7.754  0.0470  0.0622 -0.1785
  179SOPE   H9120413   2.238   5.229   7.669  1.3370 -0.9321 -1.2727
  179SOPE  C21020414   2.152   5.142   7.836 -0.1992  0.9432  0.0375
  179SOPE  H10120415   2.054   5.186   7.815 -0.8371  0.1522  1.2532
  179SOPE  C21120416   2.159   5.058   7.969  0.8779 -0.4499  0.3364
  179SOPE  H11R20417   2.259   5.031   8.009 -0.3385 -1.2287  3.0679
  179SOPE  H11S20418   2.116   4.958   7.945  0.6739 -0.3799  0.4173
  179SOPE  C21220419   2.082   5.108   8.097  0.2244  0.2030 -0.2274
  179SOPE  H12R20420   1.980   5.137   8.062 -0.7946 -0.7801  1.7522
  179SOPE  H12S20421   2.128   5.200   8.139  1.1924 -0.9506  1.3403
  179SOPE  C21320422   2.076   5.013   8.217  0.2878 -0.3754  0.1652
  179SOPE  H13R20423   2.180   4.998   8.253  0.8313 -1.1411 -1.5750
  179SOPE  H13S20424   2.038   4.915   8.179  0.4614 -0.8095  1.0878
  179SOPE  C21420425   1.972   5.065   8.314  0.1079  0.3076 -0.1663
  179SOPE  H14R20426   1.886   5.080   8.244  0.9874 -0.5280 -1.4779
  179SOPE  H14S20427   2.000   5.164   8.357 -3.5354  0.4808  2.2513
  179SOPE  C21520428   1.925   4.954   8.401 -0.2878  0.3883 -0.1291
  179SOPE  H15R20429   2.007   4.907   8.461  0.2198  2.3246  0.7811
  179SOPE  H15S20430   1.889   4.871   8.337 -3.8718 -0.3408  2.5510
  179SOPE  C21620431   1.808   5.010   8.496 -0.2541 -0.1552 -0.3809
  179SOPE  H16R20432   1.722   5.018   8.427  0.3557  1.2066 -1.0169
  179SOPE  H16S20433   1.844   5.110   8.529 -2.1390  0.7511 -0.9705
  179SOPE  C21720434   1.777   4.924   8.617 -0.6449 -0.0564  0.5974
  179SOPE  H17R20435   1.871   4.887   8.663 -0.1361  0.5464  0.0622
  179SOPE  H17S20436   1.717   4.841   8.574  1.5309 -0.8680 -1.0847
  179SOPE  C21820437   1.719   5.023   8.725  1.2454  0.1795  0.7522
  179SOPE  H18R20438   1.622   5.068   8.693  0.3759 -0.6332  2.1260
  179SOPE  H18S20439   1.784   5.094   8.780  2.6332 -1.8700  1.9166
  179SOPE  H18T20440   1.688   4.966   8.816  1.3444  0.3344  0.8849
  179SOPE   C3320441   2.155   4.610   7.382 -0.1745 -0.6476  0.0332
  179SOPE   H3X20442   2.233   4.686   7.406 -0.6806  0.2181 -0.9537
  179SOPE   H3Y20443   2.199   4.537   7.311  0.5794 -0.7269  0.5685
  179SOPE   C3420444   2.126   4.511   7.501 -1.0873  0.0185  1.1082
  179SOPE   H4X20445   2.220   4.456   7.526  3.2173  5.7626 -0.2383
  179SOPE   H4Y20446   2.056   4.431   7.470  0.6092 -1.8107  1.7814
  179SOPE   C3520447   2.068   4.600   7.613 -0.3301  0.2977  0.2867
  179SOPE   H5X20448   1.972   4.645   7.580 -2.3378 -2.8281  1.3400
  179SOPE   H5Y20449   2.135   4.685   7.634  1.1647 -0.8748  0.4652
  179SOPE   C3620450   2.023   4.522   7.742 -0.1137  0.2243 -1.1103
  179SOPE   H6X20451   1.949   4.443   7.716  0.4273  0.2193 -2.7685
  179SOPE   H6Y20452   1.985   4.602   7.809  0.8434 -0.7273  0.6209
  179SOPE   C3720453   2.147   4.457   7.809  0.6160 -0.1052 -0.2079
  179SOPE   H7X20454   2.202   4.392   7.738 -0.2722 -1.2397  0.1101
  179SOPE   H7Y20455   2.113   4.382   7.884 -1.3582  1.7700  0.8928
  179SOPE   C3820456   2.241   4.547   7.879 -0.8277 -0.0422 -0.0505
  179SOPE   H8X20457   2.267   4.638   7.821  1.1630  0.8304  2.0253
  179SOPE   H8Y20458   2.346   4.508   7.882  0.5708  3.2661 -1.0863
  179SOPE   C3920459   2.203   4.602   8.012 -0.8349 -0.2611  0.2419
  179SOPE   H9X20460   2.177   4.520   8.083 -2.3362 -0.8534 -0.9350
  179SOPE   H9Y20461   2.105   4.654   8.015  0.1235  1.6506 -0.4310
  179SOPE  C31020462   2.313   4.697   8.077  0.2584  0.1514 -0.9287
  179SOPE  H10X20463   2.266   4.752   8.162  1.5712 -0.2434  0.0904
  179SOPE  H10Y20464   2.335   4.776   8.002 -0.6052 -1.5934 -3.0946
  179SOPE  C31120465   2.440   4.623   8.124  0.4623  0.9873  0.1010
  179SOPE  H11X20466   2.474   4.553   8.045 -1.2211  0.7729 -0.4908
  179SOPE  H11Y20467   2.421   4.562   8.215 -1.0624  0.6103 -0.4423
  179SOPE  C31220468   2.553   4.723   8.158 -0.0536 -0.6496  0.5564
  179SOPE  H12X20469   2.560   4.772   8.058  0.0494  0.2471  0.9891
  179SOPE  H12Y20470   2.649   4.669   8.175 -0.4542 -1.7392 -0.5429
  179SOPE  C31320471   2.518   4.824   8.260 -0.2078 -0.5583 -0.6769
  179SOPE  H13X20472   2.479   4.776   8.352  0.7823  0.1373  0.1192
  179SOPE  H13Y20473   2.447   4.896   8.215  0.2784 -0.2335 -0.9319
  179SOPE  C31420474   2.651   4.890   8.303  0.0452 -0.1488 -0.6932
  179SOPE  H14X20475   2.708   4.925   8.214 -1.6519  1.6495 -1.1501
  179SOPE  H14Y20476   2.715   4.817   8.356  0.7353  1.4932  0.8329
  179SOPE  C31520477   2.624   5.016   8.391 -0.2352  0.5635 -0.4676
  179SOPE  H15X20478   2.531   5.067   8.359 -1.1024  0.8602  2.2754
  179SOPE  H15Y20479   2.712   5.083   8.394  0.3152 -0.1678  1.1818
  179SOPE  C31620480   2.589   4.980   8.538 -0.7142  0.0282 -0.2549
  179SOPE  H16X20481   2.680   4.938   8.587 -1.8537 -0.4745  1.5052
  179SOPE  H16Y20482   2.505   4.908   8.526  0.1209 -0.7441 -1.8314
  179SOPE  C31720483   2.543   5.106   8.611  0.2422 -0.1058 -0.6297
  179SOPE  H17X20484   2.444   5.139   8.571  0.0406 -3.5044 -3.4330
  179SOPE  H17Y20485   2.628   5.176   8.604 -0.8072  2.0553  4.0555
  179SOPE  C31820486   2.533   5.077   8.762  0.3347 -0.6424  1.4004
  179SOPE  H18X20487   2.634   5.040   8.791  0.5614 -0.3050  1.0677
  179SOPE  H18Y20488   2.452   5.004   8.781  0.1022 -0.1990  2.1311
  179SOPE  H18Z20489   2.516   5.171   8.818 -1.1304  0.6133 -0.9685
  180SOPE     N20490   1.323   0.662   6.174  0.1629 -0.2632  0.3042
  180SOPE   HN120491   1.362   0.600   6.099 -1.2669  1.6783 -2.1868
  180SOPE   HN220492   1.331   0.610   6.264 -1.1519  0.1047  0.6537
  180SOPE   HN320493   1.224   0.682   6.151  0.5430  1.5603  0.1151
  180SOPE   C1220494   1.396   0.786   6.190 -0.2954 -0.0960  0.0233
  180SOPE  H12A20495   1.346   0.846   6.269 -1.4467 -1.9454  0.7626
  180SOPE  H12B20496   1.387   0.846   6.097 -0.9439 -0.6468 -0.2725
  180SOPE   C1120497   1.546   0.768   6.222  0.3965 -0.1779  1.0352
  180SOPE  H11A20498   1.585   0.872   6.232 -1.9489  0.7161  1.5891
  180SOPE  H11B20499   1.592   0.718   6.134 -0.9790 -0.8234  0.6613
  180SOPE     P20500   1.701   0.632   6.375 -0.2513  0.0264 -0.0201
  180SOPE   O1320501   1.798   0.743   6.381  0.7552  0.2191  0.5313
  180SOPE   O1420502   1.737   0.519   6.283 -0.2451 -0.0208 -0.0199
  180SOPE   O1220503   1.558   0.686   6.338  0.0714  0.1280  0.1310
  180SOPE   O1120504   1.675   0.565   6.521 -0.3391  0.3047 -0.1676
  180SOPE    C120505   1.562   0.483   6.544 -0.3550  0.5587 -0.1127
  180SOPE    HA20506   1.574   0.396   6.477 -0.2632  0.5046 -0.0260
  180SOPE    HB20507   1.466   0.536   6.525 -0.1802  0.7757 -0.3888
  180SOPE    C220508   1.555   0.412   6.680  0.4119 -0.1080  0.1493
  180SOPE    HS20509   1.495   0.320   6.664  1.0662 -0.0285 -4.2220
  180SOPE   O2120510   1.507   0.512   6.769 -0.1872  0.4977 -0.1006
  180SOPE   C2120511   1.402   0.461   6.840 -0.0560  0.6930  0.1836
  180SOPE   O2220512   1.371   0.346   6.841  0.2423  0.2229  0.0672
  180SOPE   C2220513   1.333   0.575   6.918  0.1136 -0.4744 -0.7680
  180SOPE   H2R20514   1.237   0.605   6.871 -0.0290  0.6367  0.1913
  180SOPE   H2S20515   1.404   0.660   6.927 -0.2090 -0.3448  1.0810
  180SOPE    C320516   1.697   0.363   6.717 -0.0755 -0.0721 -0.1693
  180SOPE    HX20517   1.774   0.441   6.738 -0.5188  0.0561  1.0757
  180SOPE    HY20518   1.742   0.310   6.631 -0.0136 -0.4906  0.1229
  180SOPE   O3120519   1.683   0.270   6.823  0.6782  0.9665 -0.3137
  180SOPE   C3120520   1.645   0.139   6.795  0.5161  0.1166  0.0463
  180SOPE   O3220521   1.625   0.101   6.683  0.0841 -0.3213  0.3039
  180SOPE   C3220522   1.641   0.051   6.918 -0.0609 -0.2047 -0.7871
  180SOPE   H2X20523   1.746   0.047   6.954 -0.3815 -1.2320  0.1192
  180SOPE   H2Y20524   1.615  -0.056   6.899  4.3487 -1.1305 -2.9869
  180SOPE   C2320525   1.281   0.518   7.054 -0.1139  0.8939  0.2169
  180SOPE   H3R20526   1.203   0.441   7.038  2.1178 -1.5439  0.2888
  180SOPE   H3S20527   1.238   0.612   7.095 -2.9294  0.1700 -0.8400
  180SOPE   C2420528   1.393   0.466   7.147 -0.6300  0.0248  0.3897
  180SOPE   H4R20529   1.407   0.356   7.138 -0.7101 -0.3299  3.4948
  180SOPE   H4S20530   1.498   0.491   7.120 -0.1358 -0.0613  2.1047
  180SOPE   C2520531   1.358   0.503   7.294  0.3102 -0.4899 -0.0741
  180SOPE   H5R20532   1.423   0.435   7.353 -0.1303 -1.1776 -0.3763
  180SOPE   H5S20533   1.386   0.608   7.319 -2.4920  0.5432 -0.9130
  180SOPE   C2620534   1.212   0.487   7.343 -0.3189 -0.5168 -0.8579
  180SOPE   H6R20535   1.138   0.541   7.281 -0.4935 -1.3068 -1.3639
  180SOPE   H6S20536   1.190   0.378   7.338 -0.5686 -0.4968 -0.1907
  180SOPE   C2720537   1.189   0.557   7.486  0.5661  0.1180  0.0646
  180SOPE   H7R20538   1.189   0.668   7.483  0.0266  0.1579  1.0938
  180SOPE   H7S20539   1.096   0.523   7.535  1.4857 -0.7640  1.2565
  180SOPE   C2820540   1.302   0.522   7.587  0.2384  0.8942  0.2251
  180SOPE   H8R20541   1.301   0.412   7.574 -0.5208  1.0941 -1.7562
  180SOPE   H8S20542   1.397   0.564   7.547  0.7428 -0.9373 -0.6019
  180SOPE   C2920543   1.258   0.572   7.726 -0.4131  0.5389  0.0244
  180SOPE   H9120544   1.149   0.560   7.735 -0.1285 -1.5620  1.3199
  180SOPE  C21020545   1.333   0.614   7.830 -0.4498  0.1575  0.1528
  180SOPE  H10120546   1.281   0.635   7.925  0.3828 -1.9818  1.1478
  180SOPE  C21120547   1.486   0.616   7.826 -0.8263 -1.4092 -0.2838
  180SOPE  H11R20548   1.531   0.710   7.863 -0.8942 -1.5142  0.0721
  180SOPE  H11S20549   1.519   0.596   7.722  0.1087  0.9261 -0.4936
  180SOPE  C21220550   1.546   0.511   7.918 -0.3455 -0.7710  0.0715
  180SOPE  H12R20551   1.506   0.410   7.897 -0.6571 -0.0907 -3.0921
  180SOPE  H12S20552   1.515   0.536   8.022  2.2220 -2.2816  1.3018
  180SOPE  C21320553   1.699   0.494   7.922 -0.4323 -0.1736  0.2767
  180SOPE  H13R20554   1.742   0.595   7.938 -0.8221  0.4965 -2.4916
  180SOPE  H13S20555   1.737   0.466   7.821  1.2633  1.5421  0.3840
  180SOPE  C21420556   1.743   0.396   8.038 -0.2917 -0.2702  0.1968
  180SOPE  H14R20557   1.830   0.332   8.015  2.2154  3.1044 -0.5340
  180SOPE  H14S20558   1.656   0.336   8.072 -1.1171  0.9947  0.4009
  180SOPE  C21520559   1.794   0.482   8.154  0.5996  0.8423 -0.1546
  180SOPE  H15R20560   1.708   0.533   8.202  1.6313  2.5225  0.0194
  180SOPE  H15S20561   1.862   0.563   8.120  0.0210  1.5997  0.4573
  180SOPE  C21620562   1.874   0.400   8.263 -0.6902  0.0485  0.5290
  180SOPE  H16R20563   1.886   0.471   8.347  2.1309  2.6681 -1.8140
  180SOPE  H16S20564   1.973   0.360   8.232 -1.1245 -2.4930  2.1148
  180SOPE  C21720565   1.795   0.273   8.311  0.2775  0.2633  0.1384
  180SOPE  H17R20566   1.779   0.198   8.232  2.1654 -1.9467  1.7083
  180SOPE  H17S20567   1.694   0.309   8.342 -0.3079  0.9259 -2.3082
  180SOPE  C21820568   1.858   0.195   8.432  0.4423  0.3804  0.2343
  180SOPE  H18R20569   1.790   0.117   8.473 -1.3668  1.3959 -0.6815
  180SOPE  H18S20570   1.892   0.255   8.519 -0.1025 -1.5623  1.8364
  180SOPE  H18T20571   1.951   0.143   8.401  1.0061  1.9540 -0.8682
  180SOPE   C3320572   1.551   0.113   7.030  0.3837 -0.3728 -0.2434
  180SOPE   H3X20573   1.459   0.155   6.984 -0.1828 -1.8193 -0.4941
  180SOPE   H3Y20574   1.607   0.201   7.069  0.2207 -0.7813  0.9704
  180SOPE   C3420575   1.516   0.025   7.148 -0.3996 -0.5330  0.1198
  180SOPE   H4X20576   1.599  -0.049   7.157  0.2740  0.2931  1.0344
  180SOPE   H4Y20577   1.424  -0.033   7.125 -0.1339 -1.0530  0.3453
  180SOPE   C3520578   1.512   0.094   7.285  0.1836 -1.1595  0.2312
  180SOPE   H5X20579   1.511   0.016   7.364  0.8228 -0.3804  1.0300
  180SOPE   H5Y20580   1.422   0.157   7.301  0.6117 -0.7576  1.1453
  180SOPE   C3620581   1.636   0.177   7.313 -0.2855 -0.1180  0.6348
  180SOPE   H6X20582   1.648   0.270   7.253  3.7062 -0.9886 -0.2352
  180SOPE   H6Y20583   1.726   0.120   7.283 -0.3203 -1.8418  3.4355
  180SOPE   C3720584   1.640   0.228   7.455  0.1374 -0.2607 -0.2260
  180SOPE   H7X20585   1.548   0.285   7.480  1.5242  2.6758 -1.3189
  180SOPE   H7Y20586   1.717   0.307   7.465 -1.3869  1.3668 -0.7835
  180SOPE   C3820587   1.675   0.126   7.569 -0.2404 -0.2903  0.0716
  180SOPE   H8X20588   1.772   0.073   7.558  1.6922  2.9128  0.4044
  180SOPE   H8Y20589   1.600   0.044   7.573 -0.6130 -0.0482 -1.3912
  180SOPE   C3920590   1.689   0.189   7.705  0.4884  0.1596 -0.4610
  180SOPE   H9X20591   1.597   0.245   7.731 -0.0572  0.5036 -2.9615
  180SOPE   H9Y20592   1.780   0.253   7.706 -0.4597  1.5650 -1.3554
  180SOPE  C31020593   1.713   0.081   7.818 -0.3734 -0.3320  0.2882
  180SOPE  H10X20594   1.733   0.129   7.916  2.1023 -3.4041  1.4757
  180SOPE  H10Y20595   1.800   0.017   7.789  1.3814  1.3885  1.4764
  180SOPE  C31120596   1.593   0.002   7.841  0.2940 -0.7007  0.1426
  180SOPE  H11X20597   1.562  -0.058   7.753  1.7794 -1.3280  0.0097
  180SOPE  H11Y20598   1.502   0.057   7.874  1.3539  1.1167  0.2090
  180SOPE  C31220599   1.624  -0.107   7.950 -0.1326 -0.1580 -0.0912
  180SOPE  H12X20600   1.731  -0.135   7.944 -0.5291 -1.7567 -0.2176
  180SOPE  H12Y20601   1.554  -0.193   7.940 -2.1936  1.4968 -0.6262
  180SOPE  C31320602   1.596  -0.052   8.094 -0.3029  0.4576 -0.4361
  180SOPE  H13X20603   1.499   0.003   8.094 -0.7458 -0.3029 -0.9325
  180SOPE  H13Y20604   1.683   0.012   8.118 -0.5426  0.1454  1.3984
  180SOPE  C31420605   1.600  -0.160   8.199 -0.2102  0.2961 -0.6728
  180SOPE  H14X20606   1.681  -0.230   8.170  1.6950  1.9980  0.2379
  180SOPE  H14Y20607   1.501  -0.211   8.195  0.1033 -0.3824  0.0778
  180SOPE  C31520608   1.626  -0.113   8.339  0.0528  1.2643 -0.1412
  180SOPE  H15X20609   1.544  -0.043   8.366 -0.4688  1.3087 -1.7042
  180SOPE  H15Y20610   1.722  -0.057   8.333  1.2011 -0.4298  1.4255
  180SOPE  C31620611   1.638  -0.212   8.453  0.0946  0.0758 -0.1157
  180SOPE  H16X20612   1.585  -0.308   8.435 -0.0342  0.4506 -1.8595
  180SOPE  H16Y20613   1.574  -0.171   8.534 -0.6937  0.1694 -0.7809
  180SOPE  C31720614   1.783  -0.246   8.496  0.0856 -0.4969 -0.4195
  180SOPE  H17X20615   1.836  -0.157   8.537  2.2851 -1.4706 -1.0088
  180SOPE  H17Y20616   1.849  -0.258   8.408 -0.0018  0.8388 -0.6972
  180SOPE  C31820617   1.797  -0.360   8.593 -0.1173  0.9986 -0.3296
  180SOPE  H18X20618   1.903  -0.370   8.625 -0.2224  4.7017  1.7598
  180SOPE  H18Y20619   1.763  -0.461   8.561  1.6467 -0.7307  2.7903
  180SOPE  H18Z20620   1.747  -0.332   8.689  2.8321  0.2715  1.5592
  181SOPE     N20621   2.143   3.608   6.071  0.4965 -0.1554 -0.0202
  181SOPE   HN120622   2.056   3.563   6.104  1.8426 -3.0856 -0.1419
  181SOPE   HN220623   2.139   3.705   6.108 -1.2662  0.1950 -0.9897
  181SOPE   HN320624   2.122   3.622   5.970  0.1296  1.9897  0.3065
  181SOPE   C1220625   2.263   3.539   6.121  0.7295 -0.4667 -0.1374
  181SOPE  H12A20626   2.260   3.438   6.075  0.9797  0.4387 -2.2984
  181SOPE  H12B20627   2.247   3.526   6.230  2.1808 -1.0478  0.0350
  181SOPE   C1120628   2.397   3.624   6.100  0.5645  0.2961 -0.0549
  181SOPE  H11A20629   2.414   3.642   5.992 -3.1347  0.7428 -0.6831
  181SOPE  H11B20630   2.482   3.566   6.142  0.3437  1.3414  1.9818
  181SOPE     P20631   2.465   3.793   6.284  0.3430  0.0322 -0.0691
  181SOPE   O1320632   2.429   3.936   6.309 -0.1443 -0.2736 -0.0499
  181SOPE   O1420633   2.609   3.765   6.265  0.4627  0.5361 -0.8677
  181SOPE   O1220634   2.383   3.755   6.154  0.0834 -0.8880  0.0157
  181SOPE   O1120635   2.406   3.695   6.392  0.2433 -0.5488 -0.2546
  181SOPE    C120636   2.273   3.701   6.448 -0.3872 -0.0079  0.7120
  181SOPE    HA20637   2.222   3.603   6.443 -1.9725  0.7831  0.7206
  181SOPE    HB20638   2.206   3.760   6.382 -0.5605 -0.8256  0.1551
  181SOPE    C220639   2.270   3.749   6.594 -0.2441 -0.6470  0.5738
  181SOPE    HS20640   2.328   3.843   6.602 -0.9151 -0.2756  1.1469
  181SOPE   O2120641   2.323   3.647   6.677  0.1305 -0.0190 -0.5560
  181SOPE   C2120642   2.391   3.694   6.783  0.2398  0.4661 -0.0326
  181SOPE   O2220643   2.424   3.808   6.808  0.4871 -0.3028 -0.1069
  181SOPE   C2220644   2.421   3.571   6.871  0.8541 -0.8570 -0.1524
  181SOPE   H2R20645   2.486   3.505   6.809 -0.8286 -3.2268  0.4390
  181SOPE   H2S20646   2.327   3.512   6.882  0.4427 -0.2086 -0.1199
  181SOPE    C320647   2.124   3.787   6.637  0.3881 -0.7387 -0.1834
  181SOPE    HX20648   2.066   3.693   6.639 -0.6680 -0.1212 -0.9779
  181SOPE    HY20649   2.081   3.849   6.556  0.5264  0.9461  0.9703
  181SOPE   O3120650   2.114   3.854   6.758 -0.6507  0.4404  0.9485
  181SOPE   C3120651   2.143   3.987   6.760 -0.4902 -0.2385  0.2345
  181SOPE   O3220652   2.209   4.047   6.676 -0.4900  0.0667  0.2119
  181SOPE   C3220653   2.093   4.055   6.891 -0.2062  0.0935  0.4752
  181SOPE   H2X20654   1.995   4.009   6.914  0.4407 -1.4818  0.2174
  181SOPE   H2Y20655   2.100   4.165   6.881 -1.0949  0.0838 -0.4120
  181SOPE   C2320656   2.479   3.611   7.008  0.0208  0.6819  0.1589
  181SOPE   H3R20657   2.415   3.685   7.060  0.1072  0.5561  0.4417
  181SOPE   H3S20658   2.586   3.633   6.987 -0.1930 -0.2337 -2.3194
  181SOPE   C2420659   2.470   3.504   7.107  0.2684  0.3469 -0.0451
  181SOPE   H4R20660   2.373   3.451   7.096 -0.5832  0.6103  4.2019
  181SOPE   H4S20661   2.552   3.430   7.094  0.2791 -0.1742  2.4229
  181SOPE   C2520662   2.483   3.548   7.257 -0.0771  0.3263  0.3233
  181SOPE   H5R20663   2.380   3.581   7.280  0.1268  0.6927  0.7460
  181SOPE   H5S20664   2.513   3.466   7.326  0.6000  0.7592  0.5607
  181SOPE   C2620665   2.549   3.683   7.288  0.6927  0.1297  0.1632
  181SOPE   H6R20666   2.658   3.669   7.270  0.5196  0.7940 -1.6311
  181SOPE   H6S20667   2.519   3.767   7.222  1.2240 -1.2075 -1.8500
  181SOPE   C2720668   2.518   3.741   7.428 -0.3898 -0.0658  0.6548
  181SOPE   H7R20669   2.575   3.834   7.450  0.6204 -0.9424  1.8937
  181SOPE   H7S20670   2.411   3.769   7.438 -0.7411 -0.7435 -0.9336
  181SOPE   C2820671   2.543   3.654   7.548 -0.6545 -0.3182 -0.6643
  181SOPE   H8R20672   2.525   3.714   7.640 -0.0705 -0.3362 -0.5341
  181SOPE   H8S20673   2.468   3.572   7.551 -0.9500 -0.0192  1.4484
  181SOPE   C2920674   2.683   3.591   7.553 -0.2716 -0.1811  0.3625
  181SOPE   H9120675   2.725   3.554   7.458  0.1728  1.9802 -0.3374
  181SOPE  C21020676   2.759   3.582   7.666 -0.0295 -0.3674 -0.1234
  181SOPE  H10120677   2.859   3.539   7.652  0.6127  1.5297 -1.8020
  181SOPE  C21120678   2.716   3.615   7.810 -0.4630 -0.1216 -0.0985
  181SOPE  H11R20679   2.670   3.524   7.855  2.3547 -2.6487 -1.9418
  181SOPE  H11S20680   2.650   3.704   7.822  0.1851  0.3294  0.1686
  181SOPE  C21220681   2.850   3.658   7.875  0.1827 -0.0847 -0.4142
  181SOPE  H12R20682   2.903   3.735   7.815  0.8570  0.8087  1.2516
  181SOPE  H12S20683   2.917   3.569   7.881 -0.8820 -0.8372  2.0148
  181SOPE  C21320684   2.841   3.731   8.012 -0.0811  0.2649  0.0637
  181SOPE  H13R20685   2.799   3.655   8.081 -1.4917  2.0796  1.3305
  181SOPE  H13S20686   2.768   3.815   8.003 -0.6323  0.1603  2.6637
  181SOPE  C21420687   2.978   3.788   8.054 -0.3487 -0.5642 -1.0287
  181SOPE  H14R20688   3.013   3.868   7.986  0.0707  0.0587 -0.0965
  181SOPE  H14S20689   3.054   3.707   8.047  1.4113  0.7578  1.1642
  181SOPE  C21520690   2.978   3.842   8.200  0.7050 -0.3558 -0.1256
  181SOPE  H15R20691   2.903   3.923   8.187  1.2119 -0.1639 -2.3140
  181SOPE  H15S20692   3.069   3.902   8.221 -0.6253  1.2170  1.4444
  181SOPE  C21620693   2.940   3.729   8.291 -0.3888 -0.4478  0.1921
  181SOPE  H16R20694   3.032   3.668   8.296  0.0017  0.2258  2.6956
  181SOPE  H16S20695   2.854   3.667   8.257 -0.1796 -1.9792  2.2937
  181SOPE  C21720696   2.905   3.778   8.437 -0.3173  0.4043 -0.0892
  181SOPE  H17R20697   2.818   3.847   8.430 -0.5280  0.2028  0.5939
  181SOPE  H17S20698   2.986   3.838   8.485 -1.9299  1.0315  1.9783
  181SOPE  C21820699   2.866   3.665   8.529  0.2609 -0.3338 -0.1921
  181SOPE  H18R20700   2.953   3.610   8.570 -0.6212 -0.3290  1.8022
  181SOPE  H18S20701   2.811   3.584   8.477  1.3370  0.1036 -2.0955
  181SOPE  H18T20702   2.805   3.705   8.613  0.6715  3.2288 -1.3990
  181SOPE   C3320703   2.198   4.029   7.001 -0.4226 -0.0100  0.3532
  181SOPE   H3X20704   2.297   4.067   6.968 -0.7430  0.2895 -0.2764
  181SOPE   H3Y20705   2.219   3.920   7.008 -0.9865 -0.1148  0.4965
  181SOPE   C3420706   2.168   4.102   7.134 -0.2420  0.6631  0.0667
  181SOPE   H4X20707   2.076   4.062   7.181 -1.7172  2.1067 -1.4700
  181SOPE   H4Y20708   2.152   4.211   7.119 -1.2215  0.4258 -0.7141
  181SOPE   C3520709   2.272   4.085   7.240  0.6232  0.1384  0.4642
  181SOPE   H5X20710   2.360   4.153   7.227  0.5801  0.0582 -0.3181
  181SOPE   H5Y20711   2.317   3.984   7.232  0.3232  0.1277 -1.5803
  181SOPE   C3620712   2.217   4.109   7.383 -0.3463  0.6714 -0.1844
  181SOPE   H6X20713   2.120   4.054   7.383 -1.3229  2.2944 -1.5321
  181SOPE   H6Y20714   2.178   4.213   7.390 -1.3847  0.3364 -0.6395
  181SOPE   C3720715   2.318   4.065   7.495 -0.1656 -0.3532 -0.9940
  181SOPE   H7X20716   2.415   4.109   7.463 -1.2421  2.6359 -0.4816
  181SOPE   H7Y20717   2.329   3.955   7.502  2.0857 -0.1170 -0.0493
  181SOPE   C3820718   2.273   4.102   7.632  1.0767  0.3104 -0.0882
  181SOPE   H8X20719   2.179   4.053   7.664  1.8268 -0.4253  1.0383
  181SOPE   H8Y20720   2.249   4.211   7.636  1.7351  0.4718  4.3268
  181SOPE   C3920721   2.391   4.082   7.729 -0.0651 -0.9682  0.2909
  181SOPE   H9X20722   2.490   4.110   7.686  0.6807 -2.4545  0.9398
  181SOPE   H9Y20723   2.401   3.972   7.739  0.6254 -0.9005  0.4231
  181SOPE  C31020724   2.356   4.138   7.872 -0.2704 -0.5542 -0.5525
  181SOPE  H10X20725   2.291   4.063   7.922 -0.1648  0.7341  1.6521
  181SOPE  H10Y20726   2.291   4.228   7.860 -3.1393 -2.6601 -1.6940
  181SOPE  C31120727   2.480   4.170   7.963 -0.0345 -0.4078  0.1682
  181SOPE  H11X20728   2.518   4.271   7.938 -0.3100 -0.2089  0.5502
  181SOPE  H11Y20729   2.557   4.092   7.942 -1.8880 -2.1624 -0.4865
  181SOPE  C31220730   2.451   4.172   8.117 -0.0814  0.9037  0.2576
  181SOPE  H12X20731   2.424   4.074   8.163 -0.1889  0.5978 -0.4423
  181SOPE  H12Y20732   2.363   4.237   8.138 -1.0857 -0.6665  1.1141
  181SOPE  C31320733   2.584   4.216   8.186 -0.4537  0.4689  0.9878
  181SOPE  H13X20734   2.618   4.315   8.148 -1.1913  1.0556  1.8116
  181SOPE  H13Y20735   2.661   4.140   8.161  0.6103  0.0665  4.8721
  181SOPE  C31420736   2.584   4.218   8.342 -0.1178  0.1749 -0.0480
  181SOPE  H14X20737   2.523   4.128   8.368  0.7500 -0.9008 -1.5335
  181SOPE  H14Y20738   2.534   4.308   8.382  0.8884 -0.3765  2.6410
  181SOPE  C31520739   2.723   4.200   8.407 -0.1516 -0.0159 -0.2374
  181SOPE  H15X20740   2.751   4.097   8.373 -0.2244  0.0908 -0.6313
  181SOPE  H15Y20741   2.721   4.202   8.518  0.9935  2.2981 -0.2092
  181SOPE  C31620742   2.835   4.293   8.368  0.0982 -0.3105  0.1497
  181SOPE  H16X20743   2.841   4.305   8.258  0.4795  0.2473  0.2256
  181SOPE  H16Y20744   2.933   4.258   8.405  0.1971 -0.4017 -0.1941
  181SOPE  C31720745   2.814   4.437   8.427  0.3866  0.8947  0.2299
  181SOPE  H17X20746   2.708   4.469   8.419  0.2674  0.8480  1.5493
  181SOPE  H17Y20747   2.869   4.511   8.365  0.8575 -0.2909 -0.8177
  181SOPE  C31820748   2.846   4.442   8.578 -0.1079 -0.0732 -0.1667
  181SOPE  H18X20749   2.954   4.424   8.602 -0.3226 -0.0211  0.8786
  181SOPE  H18Y20750   2.779   4.370   8.630 -0.5398 -0.8186 -1.6847
  181SOPE  H18Z20751   2.832   4.545   8.616  2.4606  0.0686  0.6238
  182SOPE     N20752   2.413   6.398   6.120  0.3849  0.3540  1.0524
  182SOPE   HN120753   2.467   6.472   6.070  0.5898 -1.3791 -1.4814
  182SOPE   HN220754   2.318   6.378   6.085  0.8685  0.2351 -0.2505
  182SOPE   HN320755   2.398   6.431   6.218 -0.2390 -2.4118  1.9665
  182SOPE   C1220756   2.497   6.276   6.142 -0.5127  0.1530  0.0463
  182SOPE  H12A20757   2.598   6.314   6.168 -0.9832  0.7569  1.0620
  182SOPE  H12B20758   2.510   6.223   6.046 -0.0148  2.3309 -1.1435
  182SOPE   C1120759   2.456   6.176   6.250  0.4067 -0.8048  0.5435
  182SOPE  H11A20760   2.446   6.235   6.344  0.7899 -0.0073  0.0981
  182SOPE  H11B20761   2.532   6.099   6.276  0.4927 -0.9778 -0.2172
  182SOPE     P20762   2.205   6.080   6.295  0.0790 -0.2226  0.0932
  182SOPE   O1320763   2.147   5.949   6.248  0.4967  0.1583  0.1448
  182SOPE   O1420764   2.122   6.199   6.272 -0.0567 -0.7358 -0.0945
  182SOPE   O1220765   2.336   6.100   6.221  0.2634  0.0202  0.0086
  182SOPE   O1120766   2.244   6.055   6.448 -0.0602  0.5008 -0.1054
  182SOPE    C120767   2.271   6.168   6.533  0.2036 -0.2673 -0.7244
  182SOPE    HA20768   2.258   6.264   6.478 -1.6876 -0.6311 -0.9700
  182SOPE    HB20769   2.375   6.179   6.571 -0.2436 -1.2732  0.8691
  182SOPE    C220770   2.184   6.158   6.659 -0.1509 -0.3352  0.8800
  182SOPE    HS20771   2.088   6.208   6.634 -0.2831 -0.8459  0.3493
  182SOPE   O2120772   2.259   6.222   6.759 -0.2071  0.0395 -0.1649
  182SOPE   C2120773   2.259   6.350   6.766  0.1846  0.1339  0.3625
  182SOPE   O2220774   2.184   6.420   6.697 -0.5371 -0.2509  0.5148
  182SOPE   C2220775   2.348   6.395   6.882 -0.5615 -0.8539  0.2079
  182SOPE   H2R20776   2.288   6.452   6.956  0.9815 -0.1485  0.9627
  182SOPE   H2S20777   2.426   6.465   6.842 -3.0950  1.0867 -1.6891
  182SOPE    C320778   2.158   6.011   6.707 -0.2964 -0.1430  0.2333
  182SOPE    HX20779   2.249   5.951   6.683 -0.2964  0.2931 -0.9668
  182SOPE    HY20780   2.084   5.975   6.633  1.1127  1.8847 -2.3757
  182SOPE   O3120781   2.133   5.994   6.846  0.5946 -0.3974  0.3062
  182SOPE   C3120782   2.010   6.019   6.890 -0.2438  0.2727 -0.0219
  182SOPE   O3220783   1.920   6.067   6.825 -0.2538 -0.7277  0.0060
  182SOPE   C3220784   2.008   5.994   7.048  0.6505 -0.2603 -0.0337
  182SOPE   H2X20785   2.102   6.022   7.100  0.2829  2.2893 -0.6348
  182SOPE   H2Y20786   2.008   5.886   7.075 -0.5126 -0.0250  1.0278
  182SOPE   C2320787   2.416   6.288   6.953 -0.6037  0.4546  0.0889
  182SOPE   H3R20788   2.498   6.328   7.015 -0.2744 -2.5443  1.7711
  182SOPE   H3S20789   2.455   6.207   6.887 -2.2529 -1.3267  1.1919
  182SOPE   C2420790   2.330   6.209   7.054 -0.5348 -0.2596  0.0791
  182SOPE   H4R20791   2.273   6.284   7.114  2.5073  2.0271  0.3498
  182SOPE   H4S20792   2.266   6.148   6.987  0.9673 -0.0417 -1.6349
  182SOPE   C2520793   2.405   6.127   7.149  0.3129 -0.0718  0.3260
  182SOPE   H5R20794   2.336   6.048   7.187 -0.9654  0.7003 -0.3334
  182SOPE   H5S20795   2.497   6.089   7.099 -0.8295  0.2044 -2.1226
  182SOPE   C2620796   2.446   6.206   7.276  0.3563 -0.4680  0.1345
  182SOPE   H6R20797   2.488   6.306   7.252  2.4592 -1.3445 -0.0159
  182SOPE   H6S20798   2.360   6.219   7.345  1.3559 -1.2604  1.5851
  182SOPE   C2720799   2.564   6.128   7.336  0.0620 -0.2523  0.4458
  182SOPE   H7R20800   2.555   6.018   7.335  1.2408 -0.3700  0.6703
  182SOPE   H7S20801   2.650   6.147   7.267 -1.6055  0.1846 -1.6235
  182SOPE   C2820802   2.612   6.169   7.480 -0.1002 -0.1642  0.1241
  182SOPE   H8R20803   2.713   6.127   7.500  0.4894  0.6061 -1.1152
  182SOPE   H8S20804   2.617   6.280   7.483 -1.7196 -0.0721  0.4723
  182SOPE   C2920805   2.525   6.117   7.591  0.3781 -0.1812 -0.3017
  182SOPE   H9120806   2.481   6.018   7.573 -0.3522 -0.6739  3.3822
  182SOPE  C21020807   2.506   6.176   7.713  0.4674 -0.0759  0.4101
  182SOPE  H10120808   2.455   6.113   7.787 -0.6183  0.1838 -0.0958
  182SOPE  C21120809   2.570   6.303   7.767 -0.3717 -0.3212  0.1821
  182SOPE  H11R20810   2.529   6.402   7.737  1.1671  0.2790 -0.0706
  182SOPE  H11S20811   2.678   6.310   7.742 -0.7179 -0.5640 -1.4794
  182SOPE  C21220812   2.563   6.292   7.921  0.1027  0.5630 -0.4621
  182SOPE  H12R20813   2.618   6.197   7.941 -2.3856 -0.7967  0.3875
  182SOPE  H12S20814   2.456   6.274   7.946  0.6428 -1.3766  0.6071
  182SOPE  C21320815   2.626   6.423   7.980  0.2211  0.3040  0.0030
  182SOPE  H13R20816   2.564   6.499   7.929 -0.4940 -0.9192 -1.0199
  182SOPE  H13S20817   2.731   6.439   7.947  0.4458  0.8116  0.9247
  182SOPE  C21420818   2.631   6.434   8.135  0.8241 -0.9296  0.1533
  182SOPE  H14R20819   2.523   6.444   8.159  0.7073  1.1685 -1.0509
  182SOPE  H14S20820   2.681   6.529   8.162  2.1285 -1.6033  0.1671
  182SOPE  C21520821   2.664   6.309   8.214  0.0478 -0.2918  0.6067
  182SOPE  H15R20822   2.772   6.286   8.201 -0.1950 -1.4026  0.4782
  182SOPE  H15S20823   2.597   6.229   8.176 -2.7314  1.9720  0.4438
  182SOPE  C21620824   2.637   6.332   8.365 -0.5033  0.0371  0.1756
  182SOPE  H16R20825   2.532   6.353   8.392 -0.2764  0.2714  0.9058
  182SOPE  H16S20826   2.690   6.429   8.374  0.9676 -0.8456  1.8406
  182SOPE  C21720827   2.696   6.217   8.447  0.0475 -0.1891 -0.1728
  182SOPE  H17R20828   2.801   6.186   8.432 -0.3949 -0.9172 -2.0932
  182SOPE  H17S20829   2.640   6.128   8.411  1.4173 -1.5208  0.9129
  182SOPE  C21820830   2.663   6.217   8.599 -0.1304 -0.5714  0.0556
  182SOPE  H18R20831   2.679   6.114   8.638  1.1802 -1.6438 -2.9844
  182SOPE  H18S20832   2.556   6.243   8.612  0.0229 -0.2550  0.7463
  182SOPE  H18T20833   2.726   6.294   8.650 -3.6414  4.6223 -2.5362
  182SOPE   C3320834   1.890   6.062   7.127 -0.1422  0.3714 -0.6132
  182SOPE   H3X20835   1.787   6.051   7.087 -0.1552 -0.4532 -0.3733
  182SOPE   H3Y20836   1.919   6.169   7.121 -0.3360  0.3669 -1.6553
  182SOPE   C3420837   1.885   6.034   7.288  0.1298  0.0875 -0.1959
  182SOPE   H4X20838   1.834   5.936   7.300  0.9106 -0.4501 -1.1290
  182SOPE   H4Y20839   1.820   6.117   7.322  0.3874 -0.3210  1.3791
  182SOPE   C3520840   2.021   6.048   7.355 -0.2687 -0.5038  0.2929
  182SOPE   H5X20841   2.074   6.138   7.316 -2.5512  0.2051 -1.3626
  182SOPE   H5Y20842   2.078   5.953   7.342 -1.1623 -0.8144 -1.6603
  182SOPE   C3620843   2.010   6.074   7.513  0.0612 -0.1023  0.2599
  182SOPE   H6X20844   1.909   6.115   7.534 -0.3099  0.2656 -1.9630
  182SOPE   H6Y20845   2.095   6.140   7.542 -0.1981 -1.1224  3.7916
  182SOPE   C3720846   2.024   5.961   7.610  0.0482  0.4716  0.2646
  182SOPE   H7X20847   2.115   5.899   7.599  0.0636  0.5442 -0.0293
  182SOPE   H7Y20848   1.939   5.896   7.580  0.1379  0.0264  0.9664
  182SOPE   C3820849   2.009   6.001   7.751 -0.5749 -0.4715  0.5894
  182SOPE   H8X20850   1.988   5.907   7.808  0.0716 -1.0986 -0.1883
  182SOPE   H8Y20851   1.926   6.071   7.774 -1.2829 -1.6624  1.8827
  182SOPE   C3920852   2.132   6.070   7.815  0.5679  0.0954  0.4206
  182SOPE   H9X20853   2.151   6.175   7.784  0.9052 -0.7041 -2.3196
  182SOPE   H9Y20854   2.222   6.017   7.776  2.8052  1.5985  3.1501
  182SOPE  C31020855   2.139   6.052   7.967  0.4499  0.1857  0.2899
  182SOPE  H10X20856   2.147   5.943   7.987 -1.9629  0.2480  1.9430
  182SOPE  H10Y20857   2.045   6.091   8.010 -1.9953 -3.0842 -1.6368
  182SOPE  C31120858   2.258   6.121   8.033  0.0160 -0.2824 -0.0465
  182SOPE  H11X20859   2.260   6.232   8.026  2.3449 -0.1912  1.2893
  182SOPE  H11Y20860   2.347   6.075   7.986 -0.3131 -0.2382 -0.7205
  182SOPE  C31220861   2.267   6.087   8.185 -0.2542 -0.1996 -0.9266
  182SOPE  H12X20862   2.373   6.102   8.214 -0.5912 -2.9672  2.3754
  182SOPE  H12Y20863   2.242   5.981   8.206 -0.7490  0.0693 -0.0906
  182SOPE  C31320864   2.194   6.184   8.278  0.2422  0.3719  0.6908
  182SOPE  H13X20865   2.083   6.184   8.272  0.2703 -0.8966 -0.4287
  182SOPE  H13Y20866   2.232   6.282   8.243  0.9929 -0.6034 -1.4043
  182SOPE  C31420867   2.247   6.185   8.419  1.4241 -0.5588 -0.1731
  182SOPE  H14X20868   2.357   6.170   8.418  1.3818 -0.9573 -2.0179
  182SOPE  H14Y20869   2.208   6.095   8.472  1.1822 -0.2127  0.2416
  182SOPE  C31520870   2.200   6.301   8.506 -0.5899  0.6774 -0.7557
  182SOPE  H15X20871   2.090   6.322   8.510 -0.8480 -0.5957 -0.8879
  182SOPE  H15Y20872   2.232   6.401   8.470  1.9875  0.1310 -0.1260
  182SOPE  C31620873   2.250   6.288   8.652  0.5747 -0.0389  0.2128
  182SOPE  H16X20874   2.353   6.246   8.650  0.5870  0.0160 -0.7387
  182SOPE  H16Y20875   2.187   6.218   8.711 -0.9920  0.4918 -0.7883
  182SOPE  C31720876   2.272   6.419   8.735  0.5114  0.4464  0.1256
  182SOPE  H17X20877   2.283   6.389   8.842 -0.4382 -1.9423 -0.3813
  182SOPE  H17Y20878   2.187   6.488   8.725  2.0225  2.4738  0.6085
  182SOPE  C31820879   2.390   6.497   8.685 -0.4906  0.7964  0.3944
  182SOPE  H18X20880   2.411   6.597   8.730  3.1063 -0.1733  1.2021
  182SOPE  H18Y20881   2.385   6.521   8.577 -0.6051 -1.1107 -0.0520
  182SOPE  H18Z20882   2.485   6.444   8.706 -1.1748 -0.2556  0.9048
  183SOPE     N20883   6.117   4.420   6.400  0.0124 -0.7191  0.0244
  183SOPE   HN120884   6.174   4.354   6.457  1.7158  1.0719  0.5108
  183SOPE   HN220885   6.182   4.487   6.353  0.3276 -0.0459  1.3593
  183SOPE   HN320886   6.057   4.483   6.458  1.6650  0.2476  0.7457
  183SOPE   C1220887   6.027   4.338   6.311 -0.0860 -0.4980  0.1946
  183SOPE  H12A20888   6.084   4.313   6.219 -1.6462  0.0799 -0.9733
  183SOPE  H12B20889   5.938   4.399   6.283  0.0214  0.2271  1.3368
  183SOPE   C1120890   5.989   4.203   6.380  0.2303  0.1072  0.1314
  183SOPE  H11A20891   5.888   4.178   6.342 -0.0867 -0.5214  1.3753
  183SOPE  H11B20892   5.966   4.229   6.485  0.9306  1.5119 -0.0425
  183SOPE     P20893   6.197   4.082   6.471 -0.1328  0.6207 -0.4801
  183SOPE   O1320894   6.286   4.194   6.433  0.1594  0.4723 -0.5766
  183SOPE   O1420895   6.253   3.947   6.469  0.3291 -0.6561  0.5199
  183SOPE   O1220896   6.075   4.090   6.370  0.2356  0.3458 -0.1645
  183SOPE   O1120897   6.140   4.115   6.616 -0.0886  0.6165 -0.1645
  183SOPE    C120898   6.053   4.024   6.687 -0.5940 -0.0359 -0.4026
  183SOPE    HA20899   6.019   3.934   6.632 -0.7182  0.2484 -0.7970
  183SOPE    HB20900   5.953   4.067   6.710 -1.4790 -1.4999 -1.3377
  183SOPE    C220901   6.126   3.984   6.818 -0.7087  0.2703 -0.4057
  183SOPE    HS20902   6.064   3.921   6.886  0.8382  1.6134  2.4424
  183SOPE   O2120903   6.156   4.098   6.896 -0.5252 -0.0327  0.2786
  183SOPE   C2120904   6.055   4.166   6.954 -0.1601  0.2113 -0.0520
  183SOPE   O2220905   5.936   4.157   6.942 -0.9705  0.6258 -0.3244
  183SOPE   C2220906   6.118   4.280   7.031 -0.4004  0.0722 -0.9067
  183SOPE   H2R20907   6.047   4.365   7.038 -1.2338 -0.7450  1.4956
  183SOPE   H2S20908   6.202   4.306   6.963  0.8248 -0.5337  0.3149
  183SOPE    C320909   6.254   3.898   6.785  0.1261  1.1473  0.1319
  183SOPE    HX20910   6.320   3.956   6.718  1.5384  0.9389  1.2859
  183SOPE    HY20911   6.222   3.807   6.731 -0.7101 -0.8858  3.7222
  183SOPE   O3120912   6.317   3.857   6.906 -0.1346  0.2095  0.6832
  183SOPE   C3120913   6.256   3.762   6.977  0.3065 -0.7850 -0.8473
  183SOPE   O3220914   6.150   3.715   6.948 -0.3588  0.0805 -0.2294
  183SOPE   C3220915   6.346   3.729   7.096  0.4692 -0.4780 -0.1952
  183SOPE   H2X20916   6.437   3.792   7.083  0.8515 -1.0249 -0.1801
  183SOPE   H2Y20917   6.375   3.623   7.079  1.2344 -0.0864 -1.4666
  183SOPE   C2320918   6.168   4.239   7.171  0.3046 -0.0653 -0.3691
  183SOPE   H3R20919   6.228   4.323   7.212 -1.8990  0.3460  2.2505
  183SOPE   H3S20920   6.223   4.142   7.165 -1.8251 -1.3734  0.1751
  183SOPE   C2420921   6.056   4.219   7.279  0.4598  0.0793  0.0277
  183SOPE   H4R20922   5.982   4.301   7.271  0.0735 -0.3568 -1.0679
  183SOPE   H4S20923   6.016   4.120   7.248 -1.1596  0.8305 -0.3789
  183SOPE   C2520924   6.102   4.206   7.428  0.0397 -0.1574 -0.0829
  183SOPE   H5R20925   6.021   4.145   7.474  1.4368 -0.8821  1.4953
  183SOPE   H5S20926   6.188   4.136   7.423  0.6089  0.5180  0.2415
  183SOPE   C2620927   6.105   4.334   7.506  0.2902 -0.4440  0.1636
  183SOPE   H6R20928   6.171   4.391   7.438 -0.7068 -1.1370 -1.4422
  183SOPE   H6S20929   6.003   4.377   7.496  0.0731 -1.4110 -2.5087
  183SOPE   C2720930   6.158   4.321   7.646  0.9976  0.7450  0.1537
  183SOPE   H7R20931   6.083   4.284   7.719  0.4316  1.1916 -0.1913
  183SOPE   H7S20932   6.240   4.246   7.644 -0.1492 -0.8955  4.4492
  183SOPE   C2820933   6.219   4.451   7.704  0.4650 -0.2453  0.3531
  183SOPE   H8R20934   6.280   4.428   7.794 -1.8352  0.6113  2.2742
  183SOPE   H8S20935   6.277   4.503   7.626  0.1892 -0.9275 -0.3225
  183SOPE   C2920936   6.109   4.551   7.749  0.8973  0.1128  0.2728
  183SOPE   H9120937   6.026   4.562   7.677  1.9634 -0.7167 -1.1467
  183SOPE  C21020938   6.111   4.624   7.865  0.3021  0.4138  0.5783
  183SOPE  H10120939   6.031   4.697   7.885  1.5322  1.3973  2.1167
  183SOPE  C21120940   6.217   4.623   7.975 -0.0937 -0.7748  0.2215
  183SOPE  H11R20941   6.272   4.719   7.974 -2.7959  0.8669 -0.3114
  183SOPE  H11S20942   6.295   4.545   7.963 -0.4977 -0.9226 -1.8878
  183SOPE  C21220943   6.162   4.601   8.118  0.0943 -0.4678 -0.9371
  183SOPE  H12R20944   6.119   4.498   8.125 -1.0642  0.0931  1.0426
  183SOPE  H12S20945   6.080   4.674   8.132 -2.0499 -2.7913 -0.4958
  183SOPE  C21320946   6.272   4.607   8.224 -0.1646  0.7202 -0.6893
  183SOPE  H13R20947   6.285   4.714   8.250 -0.3994  0.5572  0.1339
  183SOPE  H13S20948   6.359   4.554   8.179 -1.6333 -2.7805  0.2657
  183SOPE  C21420949   6.216   4.543   8.347 -0.2952 -0.0612 -0.6846
  183SOPE  H14R20950   6.223   4.432   8.341  1.3596  0.0748 -2.6217
  183SOPE  H14S20951   6.111   4.578   8.357 -0.2633 -0.4613  1.5898
  183SOPE  C21520952   6.286   4.601   8.469  0.1324  0.8790 -0.3091
  183SOPE  H15R20953   6.266   4.710   8.467 -1.3128  0.6448  0.4503
  183SOPE  H15S20954   6.396   4.590   8.459  0.1218  0.2605  0.1573
  183SOPE  C21620955   6.247   4.554   8.607 -0.4210 -0.6481  0.2541
  183SOPE  H16R20956   6.310   4.595   8.690 -2.0331  3.1229 -0.1833
  183SOPE  H16S20957   6.271   4.445   8.600 -1.2544 -0.7584 -1.1025
  183SOPE  C21720958   6.105   4.602   8.645 -0.0162  0.5587 -0.0513
  183SOPE  H17R20959   6.040   4.559   8.565  1.9956 -2.3775 -0.2632
  183SOPE  H17S20960   6.098   4.713   8.645  0.8798  0.6240  0.3985
  183SOPE  C21820961   6.073   4.545   8.788 -0.1378  0.1467  0.2793
  183SOPE  H18R20962   6.153   4.570   8.861 -0.3482  0.1533  0.5123
  183SOPE  H18S20963   6.058   4.435   8.782 -3.7423  0.4491  1.1518
  183SOPE  H18T20964   5.971   4.577   8.819  0.3800  3.3880 -0.9470
  183SOPE   C3320965   6.285   3.779   7.230 -0.5193 -0.6393 -0.5584
  183SOPE   H3X20966   6.183   3.735   7.234 -0.8585  0.1605 -0.2780
  183SOPE   H3Y20967   6.275   3.889   7.223 -0.1762 -0.6448 -1.2200
  183SOPE   C3420968   6.376   3.752   7.357  0.0684 -0.5607  0.2750
  183SOPE   H4X20969   6.475   3.801   7.345 -0.1847 -0.0086  0.4394
  183SOPE   H4Y20970   6.390   3.642   7.368 -2.0833 -0.9003  0.0711
  183SOPE   C3520971   6.296   3.797   7.480  0.2179 -0.4885 -0.1064
  183SOPE   H5X20972   6.188   3.768   7.483 -1.1214  3.7148 -1.4322
  183SOPE   H5Y20973   6.286   3.907   7.486 -0.4857 -0.4968 -0.9058
  183SOPE   C3620974   6.365   3.749   7.605  0.2166 -0.9816 -0.4031
  183SOPE   H6X20975   6.458   3.810   7.613 -0.6267  0.7394 -2.7129
  183SOPE   H6Y20976   6.391   3.641   7.603  0.7940 -0.8569  0.0075
  183SOPE   C3720977   6.287   3.784   7.732 -0.4089 -0.3362 -0.9574
  183SOPE   H7X20978   6.187   3.736   7.730 -0.1680 -1.0194  0.7781
  183SOPE   H7Y20979   6.272   3.894   7.728 -1.2753 -0.2884  1.5112
  183SOPE   C3820980   6.367   3.735   7.857 -0.2842  0.7491 -0.0744
  183SOPE   H8X20981   6.475   3.761   7.853 -0.2066  0.8577  1.8868
  183SOPE   H8Y20982   6.379   3.625   7.863  2.3037  1.0501  1.5856
  183SOPE   C3920983   6.335   3.789   7.993 -0.4072  0.6792 -0.1931
  183SOPE   H9X20984   6.238   3.744   8.025  0.0662 -0.8688 -0.8436
  183SOPE   H9Y20985   6.322   3.899   7.990  0.6984  0.8766  1.2050
  183SOPE  C31020986   6.444   3.773   8.098 -0.2232  0.2427  0.1549
  183SOPE  H10X20987   6.519   3.851   8.075  0.5752 -0.9548 -1.4932
  183SOPE  H10Y20988   6.490   3.673   8.083  0.6079  0.4646  1.1017
  183SOPE  C31120989   6.394   3.770   8.247  0.2182 -0.3382 -0.3732
  183SOPE  H11X20990   6.333   3.677   8.254  1.4225 -1.1102  0.4487
  183SOPE  H11Y20991   6.333   3.860   8.267 -1.6758 -2.2553  3.7234
  183SOPE  C31220992   6.508   3.754   8.349  0.2699 -0.3668  0.2999
  183SOPE  H12X20993   6.584   3.834   8.338  0.2709 -0.3500  0.4235
  183SOPE  H12Y20994   6.553   3.655   8.326  0.5116 -0.0802 -0.4618
  183SOPE  C31320995   6.452   3.750   8.493  0.0468 -0.2298  0.1494
  183SOPE  H13X20996   6.402   3.844   8.523  0.2992  0.1267 -0.5184
  183SOPE  H13Y20997   6.546   3.744   8.553  1.5172 -0.7924 -2.0964
  183SOPE  C31420998   6.353   3.635   8.513 -0.2964 -1.1586 -0.0919
  183SOPE  H14X20999   6.378   3.556   8.440  0.3862 -0.5627 -0.5190
  183SOPE  H14Y21000   6.248   3.670   8.504 -0.3319 -1.0231  0.7121
  183SOPE  C31521001   6.356   3.589   8.660 -0.1516 -0.1271  0.8035
  183SOPE  H15X21002   6.340   3.670   8.734 -0.5814 -1.2487  1.9819
  183SOPE  H15Y21003   6.458   3.557   8.692  0.5776  1.5297  0.1949
  183SOPE  C31621004   6.258   3.476   8.698 -0.2445 -0.6376  0.4391
  183SOPE  H16X21005   6.305   3.399   8.764 -2.5023 -2.0277  0.5490
  183SOPE  H16Y21006   6.232   3.429   8.601  0.9865  0.0382 -0.2461
  183SOPE  C31721007   6.114   3.520   8.744 -0.3542  0.4187 -0.5248
  183SOPE  H17X21008   6.124   3.550   8.850  2.8987 -1.5755 -0.1354
  183SOPE  H17Y21009   6.043   3.434   8.753 -0.3136  0.3069 -1.2199
  183SOPE  C31821010   6.051   3.641   8.675 -0.0707  0.1663 -1.0294
  183SOPE  H18X21011   5.967   3.682   8.734  2.2194  0.8981  1.9654
  183SOPE  H18Y21012   6.005   3.613   8.578  1.3023 -1.8214 -1.1693
  183SOPE  H18Z21013   6.116   3.731   8.670 -1.4275  1.2589  0.1726
  184SOPE     N21014   2.266   4.122   6.404 -0.5057 -0.2772  0.1811
  184SOPE   HN121015   2.262   4.088   6.502 -0.0776  0.6111  0.5161
  184SOPE   HN221016   2.182   4.097   6.348  0.2892  0.7128 -1.5258
  184SOPE   HN321017   2.346   4.077   6.354 -1.3997  0.2624 -1.8254
  184SOPE   C1221018   2.296   4.270   6.409  0.4748  0.2536 -0.7650
  184SOPE  H12A21019   2.385   4.271   6.475 -0.6149  0.7292  0.7537
  184SOPE  H12B21020   2.210   4.320   6.457  0.0364  0.5756 -1.8509
  184SOPE   C1121021   2.325   4.343   6.277  0.0606  0.7711  0.4636
  184SOPE  H11A21022   2.340   4.450   6.302 -1.7049  0.6440  2.3356
  184SOPE  H11B21023   2.234   4.330   6.215  0.4365 -0.7531  0.1754
  184SOPE     P21024   2.577   4.286   6.237  0.0013  0.1436  0.2670
  184SOPE   O1321025   2.610   4.428   6.245  0.3999  0.0081  0.1427
  184SOPE   O1421026   2.655   4.189   6.153  0.0854 -0.4640  0.4951
  184SOPE   O1221027   2.430   4.273   6.205 -0.4612 -0.1645  0.0453
  184SOPE   O1121028   2.587   4.225   6.387 -0.6193 -0.8562 -0.2556
  184SOPE    C121029   2.712   4.263   6.451 -0.3649  0.2934  0.1388
  184SOPE    HA21030   2.729   4.372   6.440  2.4826 -0.1145 -0.2373
  184SOPE    HB21031   2.797   4.213   6.399 -0.4063 -0.0549  0.4007
  184SOPE    C221032   2.706   4.229   6.598  0.1534  0.5416 -0.2185
  184SOPE    HS21033   2.648   4.307   6.653 -1.6596 -1.6338  1.1225
  184SOPE   O2121034   2.838   4.211   6.656  0.1284 -0.5074 -0.7446
  184SOPE   C2121035   2.936   4.302   6.644  0.7360  0.6895  0.1819
  184SOPE   O2221036   2.926   4.408   6.584 -0.6030  0.7769  0.0785
  184SOPE   C2221037   3.064   4.240   6.694  0.5235  0.2862 -0.1944
  184SOPE   H2R21038   3.152   4.295   6.655  1.1294 -1.1169 -0.9032
  184SOPE   H2S21039   3.071   4.135   6.656 -0.4868  0.3654 -0.6202
  184SOPE    C321040   2.616   4.102   6.621  0.4392  0.1821 -0.3254
  184SOPE    HX21041   2.651   4.032   6.542  2.4179 -1.7654  2.0962
  184SOPE    HY21042   2.506   4.108   6.609  0.4818 -1.4248 -2.0629
  184SOPE   O3121043   2.645   4.035   6.742 -0.0020  0.3016  1.0534
  184SOPE   C3121044   2.572   4.078   6.853  0.2053 -0.2129 -0.0381
  184SOPE   O3221045   2.499   4.176   6.851 -0.2862 -0.0927  0.0191
  184SOPE   C3221046   2.620   4.009   6.979  0.4430  0.0788 -0.1479
  184SOPE   H2X21047   2.700   3.932   6.966 -0.3905 -0.9045  0.4150
  184SOPE   H2Y21048   2.541   3.946   7.024 -0.1863  0.6185 -0.4949
  184SOPE   C2321049   3.056   4.237   6.853 -0.0117  0.5334 -0.0363
  184SOPE   H3R21050   3.132   4.160   6.880 -1.4802 -1.1041 -0.3781
  184SOPE   H3S21051   2.963   4.182   6.880 -1.4185  1.2090 -3.1056
  184SOPE   C2421052   3.072   4.368   6.934 -0.1889  0.2984 -0.0639
  184SOPE   H4R21053   3.173   4.412   6.922  0.2097 -0.8516 -1.1330
  184SOPE   H4S21054   2.985   4.435   6.912 -0.0361  1.1898  1.8507
  184SOPE   C2521055   3.043   4.350   7.080 -0.0192 -0.0183 -0.0823
  184SOPE   H5R21056   2.934   4.331   7.091  0.5592 -2.5515  2.9436
  184SOPE   H5S21057   3.106   4.263   7.110 -0.4220 -0.3305 -0.1304
  184SOPE   C2621058   3.086   4.477   7.161  0.3277  0.8157  0.3633
  184SOPE   H6R21059   3.193   4.498   7.142  0.1216  1.8355  0.2552
  184SOPE   H6S21060   3.035   4.570   7.127  0.2320  0.2107 -1.2254
  184SOPE   C2721061   3.063   4.466   7.310  0.7515  0.2704 -0.2893
  184SOPE   H7R21062   3.072   4.564   7.361 -3.9640  0.6915  0.1687
  184SOPE   H7S21063   2.955   4.443   7.320  0.2224  1.8760 -1.8306
  184SOPE   C2821064   3.153   4.359   7.373  0.1691 -0.1904  1.1217
  184SOPE   H8R21065   3.143   4.257   7.331  1.1070  0.4490 -0.7552
  184SOPE   H8S21066   3.255   4.385   7.338 -0.7375  0.8661 -0.8764
  184SOPE   C2921067   3.147   4.349   7.520 -0.4644  0.3761  0.0417
  184SOPE   H9121068   3.049   4.367   7.566 -1.0434  0.7257 -1.2742
  184SOPE  C21021069   3.242   4.305   7.599 -0.5061  0.0750  0.2786
  184SOPE  H10121070   3.231   4.296   7.708 -1.0625  0.2811  0.2414
  184SOPE  C21121071   3.373   4.247   7.559 -0.1757 -0.3515 -0.2187
  184SOPE  H11R21072   3.438   4.254   7.648 -2.2241 -0.6485  1.3885
  184SOPE  H11S21073   3.426   4.323   7.497 -0.2739 -0.6890 -0.7274
  184SOPE  C21221074   3.376   4.103   7.504 -0.0474 -0.2381 -0.7764
  184SOPE  H12R21075   3.468   4.107   7.442  0.6276 -0.3210  0.1867
  184SOPE  H12S21076   3.297   4.070   7.434 -0.4967 -0.6131 -0.0998
  184SOPE  C21321077   3.393   3.989   7.605  0.1251 -0.3784 -0.7294
  184SOPE  H13R21078   3.473   4.025   7.674 -0.2671 -0.8007 -0.0388
  184SOPE  H13S21079   3.437   3.905   7.548  2.1890  0.4731 -0.4957
  184SOPE  C21421080   3.263   3.950   7.673 -0.4615  0.5373  0.5119
  184SOPE  H14R21081   3.204   3.935   7.580 -0.1937  2.8050 -0.1068
  184SOPE  H14S21082   3.225   4.040   7.726  2.3903  2.2772 -0.1724
  184SOPE  C21521083   3.256   3.825   7.754 -0.3463 -0.4439  0.5949
  184SOPE  H15R21084   3.336   3.761   7.711  0.0798  1.8020 -2.2585
  184SOPE  H15S21085   3.163   3.767   7.737  0.1833 -0.9146 -0.8187
  184SOPE  C21621086   3.270   3.845   7.909 -0.3313  0.8276  0.8201
  184SOPE  H16R21087   3.246   3.749   7.959 -1.3705  1.3213  1.3063
  184SOPE  H16S21088   3.191   3.921   7.930 -0.1180  0.8949  1.4013
  184SOPE  C21721089   3.415   3.882   7.944 -0.5357  0.1728  0.4983
  184SOPE  H17R21090   3.436   3.983   7.903 -0.2408 -0.6488 -1.4869
  184SOPE  H17S21091   3.476   3.803   7.895 -1.1332 -0.8136  1.3073
  184SOPE  C21821092   3.434   3.872   8.095 -0.4766 -0.3312  0.1750
  184SOPE  H18R21093   3.461   3.766   8.115 -0.2203 -0.3972 -0.4942
  184SOPE  H18S21094   3.343   3.886   8.156 -1.7015 -4.3672 -0.4484
  184SOPE  H18T21095   3.521   3.931   8.133 -0.9051  2.6721 -2.9738
  184SOPE   C3321096   2.683   4.112   7.084  0.6774 -0.0515  0.1187
  184SOPE   H3X21097   2.597   4.166   7.130  0.5593 -0.7549  0.7524
  184SOPE   H3Y21098   2.763   4.180   7.047  1.9972 -2.1021 -0.9832
  184SOPE   C3421099   2.766   4.035   7.188 -0.1500  0.4363 -0.4800
  184SOPE   H4X21100   2.855   4.001   7.130  0.5983  0.8477  0.3989
  184SOPE   H4Y21101   2.713   3.946   7.227  2.0797 -0.0672  1.6596
  184SOPE   C3521102   2.792   4.129   7.305 -0.3387 -0.1345 -0.6790
  184SOPE   H5X21103   2.697   4.171   7.345  0.2594  1.8569 -1.2248
  184SOPE   H5Y21104   2.862   4.211   7.278  1.0006 -1.4584 -1.3758
  184SOPE   C3621105   2.856   4.052   7.421  0.3250 -0.5392  0.3901
  184SOPE   H6X21106   2.964   4.036   7.403  0.6022 -1.0151  2.3147
  184SOPE   H6Y21107   2.806   3.953   7.429  1.5420 -1.6582 -3.5279
  184SOPE   C3721108   2.834   4.117   7.565 -0.3013 -0.4316 -0.4315
  184SOPE   H7X21109   2.728   4.150   7.573 -0.1674 -0.2464  0.7842
  184SOPE   H7Y21110   2.893   4.209   7.583 -1.7859  0.5926 -0.5840
  184SOPE   C3821111   2.856   4.022   7.691 -0.0900 -0.1771 -0.0791
  184SOPE   H8X21112   2.959   3.989   7.667 -0.0836  0.9604 -1.7276
  184SOPE   H8Y21113   2.789   3.934   7.700  0.6616 -0.7155  0.3644
  184SOPE   C3921114   2.876   4.088   7.833  0.3156  0.2508  0.0414
  184SOPE   H9X21115   2.898   4.004   7.902 -3.0011  0.4448  1.4909
  184SOPE   H9Y21116   2.775   4.125   7.858  0.4333  0.0192  0.8821
  184SOPE  C31021117   2.970   4.200   7.853 -0.6264  0.7593  0.5133
  184SOPE  H10X21118   2.930   4.292   7.806 -1.8494 -0.8159 -1.6752
  184SOPE  H10Y21119   3.066   4.177   7.802 -1.2385 -0.7837  0.0140
  184SOPE  C31121120   2.995   4.233   8.000  0.0147  0.4359  1.0269
  184SOPE  H11X21121   3.022   4.135   8.045 -0.1297 -0.6132 -1.0111
  184SOPE  H11Y21122   2.907   4.275   8.052 -1.0786 -1.2303  0.6196
  184SOPE  C31221123   3.114   4.332   8.008  0.1471 -0.1142  0.8621
  184SOPE  H12X21124   3.076   4.425   7.961 -0.8565 -0.1915  1.4994
  184SOPE  H12Y21125   3.198   4.286   7.952  0.6381  0.3469  1.2086
  184SOPE  C31321126   3.160   4.361   8.151 -0.2110  0.2423  0.9627
  184SOPE  H13X21127   3.078   4.395   8.218 -0.1067  1.1911  0.6180
  184SOPE  H13Y21128   3.249   4.427   8.155  0.7105 -0.8283 -0.8287
  184SOPE  C31421129   3.219   4.230   8.213  0.1569  0.2215  0.1113
  184SOPE  H14X21130   3.289   4.187   8.139 -0.7661 -2.5567  0.7566
  184SOPE  H14Y21131   3.136   4.163   8.244 -1.4313  2.1621  0.2550
  184SOPE  C31521132   3.280   4.253   8.353  0.1064 -0.3980 -0.6125
  184SOPE  H15X21133   3.209   4.296   8.427 -0.1654  0.0023 -1.1033
  184SOPE  H15Y21134   3.359   4.331   8.346  0.8377 -1.0852 -0.1378
  184SOPE  C31621135   3.340   4.123   8.411  0.0623  0.1101 -0.1423
  184SOPE  H16X21136   3.380   4.154   8.510 -1.4314 -1.0901  0.8771
  184SOPE  H16Y21137   3.418   4.083   8.343  0.9964 -0.0097  0.9661
  184SOPE  C31721138   3.245   4.011   8.442  0.4898  0.4787  0.2936
  184SOPE  H17X21139   3.222   3.955   8.350 -0.2001  0.8966  0.1988
  184SOPE  H17Y21140   3.154   4.056   8.489  0.4134  0.5604  0.0687
  184SOPE  C31821141   3.300   3.912   8.553  1.2651 -0.4983  0.2925
  184SOPE  H18X21142   3.245   3.816   8.550 -0.2378  0.3062  0.6579
  184SOPE  H18Y21143   3.283   3.962   8.651 -1.3406  0.6547 -0.6573
  184SOPE  H18Z21144   3.409   3.898   8.542  1.4382  0.9448 -0.0795
  185SAPI   C1221145   5.332   0.053  10.881 -0.0312  0.3274 -0.0916
  185SAPI    H221146   5.391   0.129  10.825  2.0825 -2.5287 -1.9726
  185SAPI    O221147   5.217   0.026  10.802 -0.7658 -0.6125  0.3400
  185SAPI   HO221148   5.223   0.063  10.713 -0.2930 -0.0907  0.5806
  185SAPI   C1321149   5.428  -0.058  10.885 -0.1639 -0.6785  0.2009
  185SAPI    H321150   5.517  -0.031  10.945  2.4197  0.8188 -3.8842
  185SAPI    O321151   5.478  -0.085  10.755 -0.3249 -0.4375  0.1865
  185SAPI   HO321152   5.410  -0.133  10.708 -1.4690  1.1194  0.1931
  185SAPI   C1421153   5.363  -0.176  10.959 -0.6967  0.1603  1.2253
  185SAPI    H421154   5.278  -0.209  10.895  1.9817  0.6992 -3.0728
  185SAPI    O421155   5.454  -0.292  10.966  0.5418 -0.6905 -0.2534
  185SAPI   HO421156   5.405  -0.373  10.984  0.5149 -0.9596 -1.4937
  185SAPI   C1521157   5.317  -0.138  11.093  0.2455  0.1182 -0.1890
  185SAPI    H521158   5.403  -0.102  11.153  0.7073  0.2284 -0.9139
  185SAPI    O521159   5.266  -0.249  11.171 -0.1392 -0.1722 -0.4322
  185SAPI   HO521160   5.343  -0.298  11.203 -1.2162 -1.4163  0.3388
  185SAPI   C1621161   5.220  -0.017  11.091 -0.2291 -0.1608  0.1504
  185SAPI    H621162   5.130  -0.053  11.036  0.1782 -2.5239  0.8965
  185SAPI    O621163   5.190   0.027  11.220  0.5690 -0.5405  0.0559
  185SAPI   HO621164   5.199   0.123  11.217  2.4128 -0.6077  1.4404
  185SAPI   C1121165   5.293   0.100  11.018  0.3361 -0.2400  0.5987
  185SAPI    H121166   5.385   0.118  11.077  0.1750 -2.1197  1.4893
  185SAPI     P21167   5.278   0.366  10.995  0.3578  0.4808  0.2963
  185SAPI   O1321168   5.414   0.360  11.033  0.1616 -0.1015 -0.4576
  185SAPI   O1421169   5.190   0.464  11.061  0.5471 -0.8198  0.5061
  185SAPI   O1221170   5.206   0.215  11.012 -1.0452 -1.2282  0.0126
  185SAPI   O1121171   5.266   0.392  10.840 -0.3420 -0.3808  0.1977
  185SAPI    C121172   5.142   0.379  10.773  0.2587  0.1100  0.3364
  185SAPI    HA21173   5.109   0.273  10.775  0.8180 -0.0548  1.7769
  185SAPI    HB21174   5.064   0.445  10.816 -3.6459 -3.1090 -1.2071
  185SAPI    C221175   5.153   0.412  10.624  0.4749 -0.2521  0.1554
  185SAPI    HS21176   5.073   0.357  10.571 -0.0413 -1.1460  1.8069
  185SAPI   O2121177   5.284   0.389  10.574 -0.1882  0.3450  0.2998
  185SAPI   C2121178   5.314   0.259  10.556  0.2718 -0.0449 -0.1829
  185SAPI   O2221179   5.236   0.170  10.580 -0.7967  0.2944 -0.1703
  185SAPI   C2221180   5.439   0.240  10.478 -0.1924  0.7452 -0.2014
  185SAPI   H2R21181   5.494   0.336  10.486  2.1419 -0.5047 -0.2638
  185SAPI   H2S21182   5.495   0.167  10.541 -1.5020  0.3950  0.5970
  185SAPI    C321183   5.122   0.566  10.604  0.0245  0.5369  0.1792
  185SAPI    HX21184   5.188   0.622  10.673 -0.1777 -0.3096  1.0787
  185SAPI    HY21185   5.020   0.573  10.646 -0.2521 -0.0700 -0.3589
  185SAPI   O3121186   5.101   0.612  10.465 -0.3109  0.1025  0.1629
  185SAPI   C3121187   5.219   0.644  10.410  0.1671 -1.2445  0.4349
  185SAPI   O3221188   5.333   0.647  10.458  0.6812 -0.1537 -0.1631
  185SAPI   C3221189   5.184   0.662  10.259  0.2292 -0.1153 -0.3477
  185SAPI   H2X21190   5.114   0.747  10.250 -0.2835 -0.7397 -3.2168
  185SAPI   H2Y21191   5.126   0.575  10.221  2.0077 -1.8636  0.7263
  185SAPI   C2321192   5.409   0.190  10.336  0.7202  0.6481  0.0877
  185SAPI   H3R21193   5.338   0.105  10.330  0.7704  0.6567 -0.7228
  185SAPI   H3S21194   5.510   0.153  10.307  0.4861 -0.7167  0.8988
  185SAPI   C2421195   5.363   0.295  10.237 -0.3646  0.2117  0.1536
  185SAPI   H4R21196   5.406   0.267  10.138 -0.0817  0.2452  0.2653
  185SAPI   H4S21197   5.420   0.390  10.247 -0.6774  0.5714 -1.2472
  185SAPI   C2521198   5.215   0.321  10.218  0.2966 -0.0899 -0.5098
  185SAPI   H5R21199   5.163   0.348  10.311 -1.3192  0.9786 -1.6534
  185SAPI   C2621200   5.145   0.335  10.099 -0.4513 -0.2862  0.2782
  185SAPI   H6R21201   5.039   0.364  10.108 -0.1136  0.9054  0.5304
  185SAPI   C2721202   5.212   0.315   9.967 -0.6638 -0.2760 -0.0738
  185SAPI   H7R21203   5.228   0.206   9.952 -1.5620 -0.3314 -0.6995
  185SAPI   H7S21204   5.309   0.369   9.957  0.3440 -1.8026  0.9898
  185SAPI   C2821205   5.125   0.362   9.855  0.1954  0.3744 -0.3670
  185SAPI   H8R21206   5.026   0.401   9.883  0.5185 -0.8669  2.9646
  185SAPI   C2921207   5.163   0.380   9.727 -0.4935  0.2305  0.5277
  185SAPI   H9R21208   5.090   0.432   9.663  2.3102  1.7571 -1.6299
  185SAPI  C21021209   5.305   0.352   9.678 -0.2519 -0.2021 -0.3313
  185SAPI  H10R21210   5.384   0.351   9.756 -0.3820  1.7950 -0.1077
  185SAPI  H10S21211   5.324   0.431   9.602 -0.8380  0.5512  0.2785
  185SAPI  C21121212   5.323   0.217   9.620 -0.3664 -0.1654 -0.2073
  185SAPI  H11R21213   5.287   0.131   9.679  0.2264 -0.4373 -0.2351
  185SAPI  C21221214   5.406   0.189   9.519  0.1734 -0.6865 -0.0254
  185SAPI  H12R21215   5.427   0.087   9.484 -2.2146 -0.4823 -2.4461
  185SAPI  C21321216   5.495   0.286   9.445  0.0207 -0.3094  0.4426
  185SAPI  H13R21217   5.476   0.393   9.467  2.2336  0.5309 -1.3222
  185SAPI  H13S21218   5.470   0.270   9.338 -1.0598 -2.6644  0.9713
  185SAPI  C21421219   5.645   0.257   9.472 -0.6490 -0.6732  0.1841
  185SAPI  H14R21220   5.677   0.262   9.577  2.5315  2.0791 -0.7284
  185SAPI  C21521221   5.744   0.234   9.381  0.2355  0.2519  0.4496
  185SAPI  H15R21222   5.850   0.228   9.411 -0.0936  1.3999  1.9290
  185SAPI  C21621223   5.734   0.219   9.227 -0.0669  0.1734  0.0702
  185SAPI  H16R21224   5.794   0.299   9.180 -1.2900  1.2327  0.2399
  185SAPI  H16S21225   5.628   0.228   9.196  0.1904  0.3450 -0.7688
  185SAPI  C21721226   5.788   0.089   9.153  0.2420 -0.1234 -0.6396
  185SAPI  H17R21227   5.737  -0.003   9.188  0.6021 -0.4563 -0.9743
  185SAPI  H17S21228   5.898   0.074   9.163  0.3001  0.2796 -0.6427
  185SAPI  C21821229   5.768   0.106   9.006  0.2430  0.6211 -0.0921
  185SAPI  H18R21230   5.671   0.151   8.976 -1.1165 -0.2484  2.6326
  185SAPI  H18S21231   5.753  -0.001   8.980 -3.9202  0.8973  0.4589
  185SAPI  C21921232   5.891   0.168   8.935 -0.0408  0.5215 -0.6249
  185SAPI  H19R21233   5.980   0.102   8.931 -0.3806  0.1373 -2.9075
  185SAPI  H19S21234   5.919   0.259   8.994 -0.7174 -0.9400  2.1206
  185SAPI  C22021235   5.857   0.210   8.793 -0.3464  0.1512 -0.5868
  185SAPI  H20R21236   5.765   0.273   8.798  1.3998  2.7771  0.3007
  185SAPI  H20S21237   5.854   0.129   8.717 -1.3195  2.4033 -3.0863
  185SAPI  H20T21238   5.934   0.281   8.756 -0.4660 -0.8159 -2.8312
  185SAPI   C3321239   5.295   0.705  10.163 -0.5204  0.1520  0.1606
  185SAPI   H3X21240   5.368   0.623  10.145  1.6590  2.1118 -0.3269
  185SAPI   H3Y21241   5.348   0.796  10.197 -2.9603  1.9015 -0.4479
  185SAPI   C3421242   5.235   0.735  10.024 -0.2205 -0.0638  0.0286
  185SAPI   H4X21243   5.164   0.821  10.029  0.6557  0.6603  0.2945
  185SAPI   H4Y21244   5.165   0.653   9.996  2.2209 -1.3645 -2.7059
  185SAPI   C3521245   5.333   0.731   9.912 -0.6174  0.1986  0.2510
  185SAPI   H5X21246   5.380   0.632   9.929 -2.0694 -0.9925 -2.1446
  185SAPI   H5Y21247   5.410   0.811   9.911 -1.0223  0.5899 -0.2999
  185SAPI   C3621248   5.254   0.746   9.781 -0.3893  0.1062  0.3174
  185SAPI   H6X21249   5.207   0.846   9.789 -1.9173 -0.3846 -1.7518
  185SAPI   H6Y21250   5.178   0.664   9.783  1.6991 -1.9498  2.3666
  185SAPI   C3721251   5.351   0.746   9.663  0.0510 -0.2822  1.1192
  185SAPI   H7X21252   5.405   0.649   9.657 -0.0930 -0.3760  1.3145
  185SAPI   H7Y21253   5.424   0.826   9.690  0.4416  0.1227 -0.9864
  185SAPI   C3821254   5.278   0.765   9.529 -0.2580 -0.1230  0.5413
  185SAPI   H8X21255   5.253   0.873   9.518  5.7891  1.7101  0.8497
  185SAPI   H8Y21256   5.185   0.705   9.528 -1.1941  1.2471  1.2856
  185SAPI   C3921257   5.360   0.716   9.407  0.0024 -0.4180 -0.4053
  185SAPI   H9X21258   5.300   0.708   9.313 -0.4850 -1.1148 -0.0500
  185SAPI   H9Y21259   5.402   0.615   9.427  1.0865  0.1861  0.4332
  185SAPI  C31021260   5.484   0.805   9.362  0.5704  0.2440 -0.2699
  185SAPI  H10X21261   5.516   0.772   9.260  0.1949 -0.8903 -0.0233
  185SAPI  H10Y21262   5.568   0.769   9.426 -1.1220 -0.9755  1.3566
  185SAPI  C31121263   5.453   0.957   9.350  0.1933  0.9437 -0.2291
  185SAPI  H11X21264   5.405   0.990   9.444  1.1923  0.3787  0.4878
  185SAPI  H11Y21265   5.394   0.967   9.256 -0.0122 -1.2887 -0.3940
  185SAPI  C31221266   5.573   1.042   9.330 -0.5934  0.4004 -0.5444
  185SAPI  H12X21267   5.648   1.034   9.412  0.7978 -1.2292 -1.9186
  185SAPI  H12Y21268   5.555   1.152   9.335  2.3190  0.9477  3.1600
  185SAPI  C31321269   5.639   1.011   9.200 -0.8868  0.2746  0.0862
  185SAPI  H13X21270   5.570   1.036   9.117 -1.2257  0.7208  0.4984
  185SAPI  H13Y21271   5.659   0.902   9.186  2.3205  0.8689 -0.7335
  185SAPI  C31421272   5.771   1.092   9.174  0.0684 -0.2016  0.5992
  185SAPI  H14X21273   5.842   1.049   9.248 -1.0838 -0.8300  1.3850
  185SAPI  H14Y21274   5.750   1.199   9.193 -0.4934  0.3163 -2.4005
  185SAPI  C31521275   5.796   1.077   9.023 -0.1073  0.9286 -0.2410
  185SAPI  H15X21276   5.749   0.984   8.987  0.5466  0.7836 -0.7521
  185SAPI  H15Y21277   5.905   1.065   9.007 -0.2532 -1.2847  0.2006
  185SAPI  C31621278   5.752   1.193   8.937 -0.3091 -0.0822 -0.0273
  185SAPI  H16X21279   5.796   1.287   8.978  3.0414 -0.1918 -2.9072
  185SAPI  H16Y21280   5.644   1.198   8.960  0.1864  2.0788  2.2341
  185SAPI  C31721281   5.772   1.177   8.790 -0.1162  0.2868  0.4444
  185SAPI  H17X21282   5.754   1.069   8.772  0.4788 -0.2648  2.7149
  185SAPI  H17Y21283   5.876   1.190   8.753 -0.8626  0.7212 -1.5870
  185SAPI  C31821284   5.696   1.272   8.705 -0.3528 -0.1889 -0.3079
  185SAPI  H18X21285   5.590   1.256   8.735 -0.7427 -2.7045 -2.6967
  185SAPI  H18Y21286   5.719   1.252   8.598 -0.1852  1.3148 -0.5727
  185SAPI  H18Z21287   5.725   1.376   8.731 -2.1140  0.7775 -1.9368
  186SAPI   C1221288   1.318   6.150  10.829  0.4637 -0.2038  0.3419
  186SAPI    H221289   1.403   6.142  10.758  0.8081 -0.5671  0.7918
  186SAPI    O221290   1.226   6.246  10.786 -0.1202 -0.6012 -0.1264
  186SAPI   HO221291   1.252   6.328  10.828  3.7237 -0.6756 -1.9258
  186SAPI   C1321292   1.258   6.005  10.834  0.5829  0.0471 -0.8849
  186SAPI    H321293   1.344   5.942  10.864  0.0383  0.5504  2.1024
  186SAPI    O321294   1.216   5.957  10.711  0.3536 -0.4662  0.3538
  186SAPI   HO321295   1.156   6.022  10.674  0.7480 -0.5519 -0.4632
  186SAPI   C1421296   1.155   5.992  10.940  0.7299 -0.2987 -0.7413
  186SAPI    H421297   1.061   6.041  10.907 -2.0986 -3.3153  2.0167
  186SAPI    O421298   1.107   5.855  10.942  0.6822  0.5852 -0.2794
  186SAPI   HO421299   1.027   5.839  10.891  0.9979 -2.1807 -0.0627
  186SAPI   C1521300   1.194   6.036  11.074 -0.0245 -0.0233 -0.0369
  186SAPI    H521301   1.267   5.961  11.111  0.0476 -1.3269 -2.6419
  186SAPI    O521302   1.075   6.033  11.159 -0.0901  0.1298 -0.3570
  186SAPI   HO521303   1.101   5.981  11.236 -0.1229 -1.2112 -1.2231
  186SAPI   C1621304   1.254   6.188  11.068 -0.0516  0.3643 -0.0107
  186SAPI    H621305   1.176   6.257  11.031 -1.6435 -0.2327  2.0383
  186SAPI    O621306   1.290   6.233  11.193  0.0975 -0.0687 -0.4176
  186SAPI   HO621307   1.382   6.261  11.193  0.2386 -0.5186 -1.2939
  186SAPI   C1121308   1.373   6.183  10.968  0.7858  0.2860  0.5433
  186SAPI    H121309   1.432   6.096  11.004 -1.3223 -1.5302 -0.2312
  186SAPI     P21310   1.608   6.312  10.943  0.0115 -0.1246 -0.1354
  186SAPI   O1321311   1.672   6.189  10.993 -0.2897 -0.0216  0.0543
  186SAPI   O1421312   1.668   6.443  10.989 -0.4115 -0.5513  0.1749
  186SAPI   O1221313   1.448   6.308  10.980  0.0412  0.3551 -0.0492
  186SAPI   O1121314   1.612   6.317  10.784  0.2725  0.3111 -0.3812
  186SAPI    C121315   1.561   6.420  10.708  0.3490 -0.9230  0.4352
  186SAPI    HA21316   1.481   6.467  10.770  0.1169  1.0663 -1.2459
  186SAPI    HB21317   1.637   6.501  10.705 -0.6318  0.0202  0.3640
  186SAPI    C221318   1.516   6.367  10.573  0.7847 -0.1818  0.1384
  186SAPI    HS21319   1.439   6.289  10.591  1.3350 -0.3040  2.2624
  186SAPI   O2121320   1.629   6.324  10.494 -0.2972 -0.4178  0.4794
  186SAPI   C2121321   1.617   6.210  10.437  0.1427  0.2805 -0.8442
  186SAPI   O2221322   1.525   6.126  10.456 -0.2320 -0.0666 -0.8022
  186SAPI   C2221323   1.732   6.192  10.340  0.5756 -0.3568 -0.3370
  186SAPI   H2R21324   1.751   6.293  10.299  0.3344  0.1707  0.8018
  186SAPI   H2S21325   1.814   6.154  10.405  0.0129 -0.9103  0.0660
  186SAPI    C321326   1.444   6.474  10.492 -0.1185 -0.6458  0.3125
  186SAPI    HX21327   1.526   6.543  10.464 -1.8523  0.5825 -2.1614
  186SAPI    HY21328   1.356   6.515  10.547 -0.6271 -0.3229 -0.7178
  186SAPI   O3121329   1.402   6.421  10.365  0.5579 -0.1841  0.2725
  186SAPI   C3121330   1.275   6.380  10.362  0.5974  0.4431  0.7741
  186SAPI   O3221331   1.200   6.371  10.455 -0.5655  0.3444 -0.4239
  186SAPI   C3221332   1.241   6.349  10.213 -0.1072 -0.1202 -0.1247
  186SAPI   H2X21333   1.323   6.291  10.164  0.9964  0.3771  1.0703
  186SAPI   H2Y21334   1.265   6.446  10.165  2.3187 -0.5561  0.0396
  186SAPI   C2321335   1.688   6.092  10.232 -0.3234  0.3360  0.5212
  186SAPI   H3R21336   1.643   6.003  10.282 -0.3683  0.0814  0.0341
  186SAPI   H3S21337   1.772   6.059  10.167 -1.0378 -0.2394 -0.1358
  186SAPI   C2421338   1.577   6.152  10.142 -0.0267 -0.0039  0.0955
  186SAPI   H4R21339   1.611   6.253  10.111 -1.1671  0.5469  0.5792
  186SAPI   H4S21340   1.484   6.165  10.202  0.6824  0.2070  1.1718
  186SAPI   C2521341   1.569   6.046  10.029 -0.2998 -0.1722 -0.0689
  186SAPI   H5R21342   1.513   5.955  10.056 -3.2288  2.4047  3.5036
  186SAPI   C2621343   1.623   6.062   9.909 -0.2800 -0.4867  0.0180
  186SAPI   H6R21344   1.623   5.977   9.839 -1.0653  0.4229 -1.1205
  186SAPI   C2721345   1.694   6.185   9.871 -0.6446 -0.4288  0.7527
  186SAPI   H7R21346   1.782   6.213   9.934  1.6209  0.5047 -2.5515
  186SAPI   H7S21347   1.629   6.275   9.874  0.3216  0.3614 -0.6262
  186SAPI   C2821348   1.757   6.179   9.731 -1.0151 -0.3298 -0.3503
  186SAPI   H8R21349   1.865   6.159   9.734 -1.3365 -2.1019  1.3641
  186SAPI   C2921350   1.708   6.215   9.611 -0.6462  1.0721  0.3227
  186SAPI   H9R21351   1.778   6.213   9.527  0.8270 -0.8376  1.5270
  186SAPI  C21021352   1.570   6.270   9.589  0.2435 -0.0093  0.2908
  186SAPI  H10R21353   1.571   6.380   9.573  2.8877 -0.3377 -3.0344
  186SAPI  H10S21354   1.504   6.263   9.677  0.7383  1.5756  0.8288
  186SAPI  C21121355   1.494   6.208   9.474 -0.3549  0.1377  0.1521
  186SAPI  H11R21356   1.412   6.139   9.500 -0.2896  0.5793  1.6601
  186SAPI  C21221357   1.531   6.222   9.343  0.5127 -0.2630 -0.5866
  186SAPI  H12R21358   1.476   6.168   9.264  0.2002 -2.3462  0.9607
  186SAPI  C21321359   1.648   6.290   9.282  0.3829  0.4236 -0.4889
  186SAPI  H13R21360   1.735   6.221   9.271  0.3018  0.2573 -0.1128
  186SAPI  H13S21361   1.683   6.370   9.350 -1.9799  2.0878 -1.1257
  186SAPI  C21421362   1.618   6.354   9.150 -0.6709 -0.3987  0.1768
  186SAPI  H14R21363   1.569   6.452   9.161  0.2313  0.3773 -2.1230
  186SAPI  C21521364   1.657   6.313   9.030  0.0207  0.1216 -0.5643
  186SAPI  H15R21365   1.615   6.368   8.944 -0.2137 -0.7208 -1.0015
  186SAPI  C21621366   1.732   6.197   8.990 -0.4113 -0.1999  0.2802
  186SAPI  H16R21367   1.782   6.147   9.075 -0.0058 -0.2071  0.0416
  186SAPI  H16S21368   1.821   6.239   8.937  0.0533  0.7617  1.7497
  186SAPI  C21721369   1.659   6.083   8.923  0.0166  0.9683 -0.4029
  186SAPI  H17R21370   1.737   6.005   8.909 -0.4832  0.0765  1.3859
  186SAPI  H17S21371   1.620   6.103   8.821  1.1136 -2.4960 -1.6565
  186SAPI  C21821372   1.543   6.021   9.004  0.5698 -0.0824  0.0974
  186SAPI  H18R21373   1.464   6.093   9.035 -0.3167 -0.2955 -1.5308
  186SAPI  H18S21374   1.598   5.990   9.095  1.6704 -0.5885 -0.7138
  186SAPI  C21921375   1.491   5.889   8.940  0.1239  0.5928  0.4079
  186SAPI  H19R21376   1.448   5.820   9.016  0.1334  0.1474  0.0109
  186SAPI  H19S21377   1.579   5.843   8.891  0.4759 -0.1053  1.6712
  186SAPI  C22021378   1.386   5.909   8.828 -1.0418  0.1685 -0.6203
  186SAPI  H20R21379   1.305   5.963   8.881  0.4738 -0.1559  2.2242
  186SAPI  H20S21380   1.372   5.805   8.790  4.2215 -1.2204  0.3852
  186SAPI  H20T21381   1.433   5.974   8.750  3.0445 -1.9235 -0.1548
  186SAPI   C3321382   1.100   6.293  10.187 -0.1852  0.2713 -0.5727
  186SAPI   H3X21383   1.017   6.346  10.238  0.2236  0.8901 -0.5270
  186SAPI   H3Y21384   1.111   6.189  10.224  1.7483  1.5209  2.8476
  186SAPI   C3421385   1.071   6.296  10.041  0.2864 -0.2385  0.8466
  186SAPI   H4X21386   1.081   6.399   9.999 -3.7393  0.6041  1.5229
  186SAPI   H4Y21387   0.964   6.267  10.035  0.2398 -0.1640  1.2748
  186SAPI   C3521388   1.163   6.200   9.963  0.5478 -0.7053 -0.6251
  186SAPI   H5X21389   1.172   6.108  10.025  2.3769  0.1668  0.4799
  186SAPI   H5Y21390   1.266   6.241   9.954  0.4957 -0.4513 -0.0588
  186SAPI   C3621391   1.106   6.167   9.826  0.2794 -0.5623 -0.5150
  186SAPI   H6X21392   1.006   6.118   9.833  0.2922 -0.7416 -1.4049
  186SAPI   H6Y21393   1.177   6.085   9.801  0.5002 -1.0760  1.6344
  186SAPI   C3721394   1.104   6.267   9.707  0.4471 -0.1450  0.1052
  186SAPI   H7X21395   1.194   6.331   9.713  1.0074 -0.6996 -1.8235
  186SAPI   H7Y21396   1.011   6.328   9.715 -0.2111 -0.9822 -0.9142
  186SAPI   C3821397   1.129   6.206   9.572  0.4160  0.7617  0.6127
  186SAPI   H8X21398   1.078   6.108   9.559 -0.0779  1.2736 -1.7144
  186SAPI   H8Y21399   1.237   6.184   9.556  0.0913  0.0400 -0.7096
  186SAPI   C3921400   1.079   6.302   9.471  1.0261 -0.3986 -0.9046
  186SAPI   H9X21401   1.144   6.393   9.472  2.0778 -0.9117  4.0729
  186SAPI   H9Y21402   0.980   6.332   9.511  1.2488 -0.8543  0.0301
  186SAPI  C31021403   1.061   6.263   9.318 -0.8934 -0.0882 -0.4688
  186SAPI  H10X21404   0.970   6.316   9.282 -0.2390  1.2585 -0.1939
  186SAPI  H10Y21405   1.047   6.154   9.299 -3.2013 -0.7635  3.9871
  186SAPI  C31121406   1.179   6.307   9.231  0.1647  0.0319  0.1574
  186SAPI  H11X21407   1.272   6.281   9.286  1.3825  3.7623  0.1743
  186SAPI  H11Y21408   1.175   6.418   9.219 -1.3832 -0.1089 -0.8951
  186SAPI  C31221409   1.206   6.242   9.095  0.7312  0.2639  0.0897
  186SAPI  H12X21410   1.222   6.132   9.102 -1.4208  0.0137  3.1423
  186SAPI  H12Y21411   1.298   6.288   9.054  1.6983  0.0869  1.9725
  186SAPI  C31321412   1.090   6.272   8.998 -0.3409 -0.5602  0.4915
  186SAPI  H13X21413   1.091   6.383   8.990 -0.4129 -0.5317  0.8455
  186SAPI  H13Y21414   0.994   6.229   9.034 -0.7340 -0.2134 -0.1179
  186SAPI  C31421415   1.106   6.198   8.861  0.1996 -0.7868 -0.1214
  186SAPI  H14X21416   1.011   6.226   8.811 -1.1318 -2.5171  1.3067
  186SAPI  H14Y21417   1.109   6.088   8.874  0.6757 -0.8362 -0.6064
  186SAPI  C31521418   1.229   6.240   8.788 -0.0137  0.4153  0.4956
  186SAPI  H15X21419   1.315   6.189   8.836  0.8410 -0.1343 -1.5146
  186SAPI  H15Y21420   1.238   6.350   8.805 -1.5161  0.8198 -1.0601
  186SAPI  C31621421   1.228   6.211   8.639  0.2050 -0.1518 -0.1609
  186SAPI  H16X21422   1.221   6.101   8.623  0.6392  0.2988 -4.6442
  186SAPI  H16Y21423   1.332   6.235   8.610  0.4373 -0.2363  0.5757
  186SAPI  C31721424   1.129   6.288   8.552  0.1630  0.1431 -0.2354
  186SAPI  H17X21425   1.138   6.399   8.555 -0.0581  0.1457  0.4198
  186SAPI  H17Y21426   1.022   6.264   8.567 -0.3159  2.4055  0.2954
  186SAPI  C31821427   1.142   6.259   8.398  0.8021  0.4653  0.2005
  186SAPI  H18X21428   1.079   6.330   8.340 -0.2014 -0.7055 -0.1680
  186SAPI  H18Y21429   1.104   6.158   8.373  0.0270  1.1776 -1.6614
  186SAPI  H18Z21430   1.249   6.276   8.373  0.9492  0.5504  0.8608
  187SAPI   C1221431   4.141   1.546   6.588  0.2306  0.0459  0.4696
  187SAPI    H221432   4.180   1.513   6.687  0.1896  1.0126  0.8271
  187SAPI    O221433   4.010   1.496   6.564  0.1484 -0.6704  0.4905
  187SAPI   HO221434   4.024   1.417   6.511 -0.4068  0.4491 -1.4037
  187SAPI   C1321435   4.147   1.697   6.592 -0.6518  1.0522  0.3814
  187SAPI    H321436   4.255   1.714   6.613 -0.2848  0.5427 -0.9811
  187SAPI    O321437   4.076   1.751   6.699 -0.1298  0.0969 -0.5346
  187SAPI   HO321438   3.987   1.719   6.686  0.2340 -0.5726 -1.4608
  187SAPI   C1421439   4.099   1.755   6.457 -0.4957 -0.1854 -1.4719
  187SAPI    H421440   3.993   1.737   6.429 -1.3836  1.6883  0.3774
  187SAPI    O421441   4.110   1.896   6.461 -0.3923 -0.2889 -0.8109
  187SAPI   HO421442   4.188   1.920   6.511 -2.8171  3.2551  1.7672
  187SAPI   C1521443   4.190   1.700   6.349 -0.1754  0.4358 -0.3151
  187SAPI    H521444   4.294   1.731   6.373  0.4484 -0.8835 -1.2058
  187SAPI    O521445   4.152   1.751   6.220 -0.5076  0.0546 -0.3808
  187SAPI   HO521446   4.132   1.673   6.168  1.5040 -0.0593 -1.0536
  187SAPI   C1621447   4.180   1.548   6.344 -0.6446  0.3099 -0.0131
  187SAPI    H621448   4.076   1.516   6.322 -0.1793 -1.7660  0.6076
  187SAPI    O621449   4.265   1.507   6.239  0.2261  0.6782  0.1520
  187SAPI   HO621450   4.292   1.416   6.255 -0.7674  0.4463  0.5800
  187SAPI   C1121451   4.231   1.492   6.478 -0.0944 -1.1017 -0.1342
  187SAPI    H121452   4.329   1.537   6.505 -2.0012  4.8854 -1.5505
  187SAPI     P21453   4.376   1.266   6.517 -0.0103  0.2766  0.2082
  187SAPI   O1321454   4.488   1.307   6.433  0.0306 -0.4226  0.1163
  187SAPI   O1421455   4.351   1.119   6.506 -0.4880 -0.1135  0.3562
  187SAPI   O1221456   4.230   1.353   6.481  0.0038  0.6683 -0.1924
  187SAPI   O1121457   4.404   1.311   6.662 -0.0039  0.1473  0.3526
  187SAPI    C121458   4.319   1.286   6.774  0.4988 -0.2326  0.2420
  187SAPI    HA21459   4.282   1.386   6.804  1.2416  0.7667 -1.9910
  187SAPI    HB21460   4.227   1.229   6.747  1.1152 -0.9389 -0.4254
  187SAPI    C221461   4.396   1.232   6.896  0.3298  0.0403 -0.1352
  187SAPI    HS21462   4.473   1.309   6.921 -0.0627  0.3143  0.2580
  187SAPI   O2121463   4.452   1.101   6.877 -0.5321 -0.3755 -0.7258
  187SAPI   C2121464   4.587   1.094   6.849  0.3204 -0.1381 -0.2377
  187SAPI   O2221465   4.658   1.190   6.842  0.1311 -0.2996  0.2612
  187SAPI   C2221466   4.623   0.952   6.815  0.2062  0.2720 -0.1271
  187SAPI   H2R21467   4.543   0.897   6.868 -0.0189  1.5078  0.8666
  187SAPI   H2S21468   4.610   0.939   6.706  2.8166  3.0859 -0.9099
  187SAPI    C321469   4.315   1.230   7.023 -0.3410  0.0535 -0.1876
  187SAPI    HX21470   4.384   1.209   7.108 -0.0554 -2.4953 -0.9415
  187SAPI    HY21471   4.259   1.134   7.020 -0.4989  0.1572 -0.6673
  187SAPI   O3121472   4.227   1.343   7.038  0.2277  0.2870  0.1195
  187SAPI   C3121473   4.166   1.347   7.149 -0.4029 -0.3158 -0.4916
  187SAPI   O3221474   4.174   1.257   7.233 -0.2317 -0.2260  0.3387
  187SAPI   C3221475   4.074   1.475   7.157  0.0477  0.5094 -0.3246
  187SAPI   H2X21476   4.019   1.471   7.060  0.8062  0.1251 -0.7485
  187SAPI   H2Y21477   4.142   1.562   7.162 -1.5267  1.7082  2.7436
  187SAPI   C2321478   4.771   0.916   6.846 -0.4552  0.2121 -0.3942
  187SAPI   H3R21479   4.848   0.974   6.791  0.4519 -2.0415 -1.6309
  187SAPI   H3S21480   4.785   0.809   6.821  2.6106  0.0370  1.5830
  187SAPI   C2421481   4.805   0.930   7.005  0.0337 -0.2916 -0.0822
  187SAPI   H4R21482   4.782   1.033   7.040  3.2955  0.2490  0.8564
  187SAPI   H4S21483   4.915   0.917   7.017 -0.2556 -1.3319  1.8371
  187SAPI   C2521484   4.732   0.829   7.085 -0.3600  0.1448 -0.3921
  187SAPI   H5R21485   4.728   0.725   7.051  0.1508 -0.9236  2.5578
  187SAPI   C2621486   4.661   0.851   7.194 -0.3871  1.0332 -0.2651
  187SAPI   H6R21487   4.622   0.763   7.248  0.2532 -0.2113 -1.7576
  187SAPI   C2721488   4.633   0.989   7.259 -1.0400 -0.0298  0.3136
  187SAPI   H7R21489   4.600   1.063   7.184 -1.4775 -0.2087  0.3225
  187SAPI   H7S21490   4.730   1.024   7.298 -1.4878  2.0637 -0.3529
  187SAPI   C2821491   4.541   1.010   7.380 -0.4978 -0.4950  0.1111
  187SAPI   H8R21492   4.466   1.091   7.374 -0.1873 -0.0606  1.6051
  187SAPI   C2921493   4.547   0.946   7.502 -0.0543  0.1947 -0.0673
  187SAPI   H9R21494   4.475   0.975   7.580  2.7755  1.1742  2.3738
  187SAPI  C21021495   4.646   0.834   7.549 -0.1299  0.6660 -0.3030
  187SAPI  H10R21496   4.699   0.790   7.462 -1.6171 -1.0668 -0.3966
  187SAPI  H10S21497   4.582   0.756   7.595  0.8313 -0.3112 -0.5789
  187SAPI  C21121498   4.752   0.884   7.645  0.1139  0.5085  0.6206
  187SAPI  H11R21499   4.840   0.927   7.595 -0.4789 -0.4996 -1.3709
  187SAPI  C21221500   4.754   0.882   7.781 -0.2084  0.0723 -0.2783
  187SAPI  H12R21501   4.839   0.925   7.836 -0.1573 -0.3399 -0.0263
  187SAPI  C21321502   4.656   0.803   7.868  0.3354  0.0443 -0.8787
  187SAPI  H13R21503   4.699   0.707   7.905  1.5309  0.5084 -1.0282
  187SAPI  H13S21504   4.560   0.794   7.811  1.7477  1.2942 -3.6476
  187SAPI  C21421505   4.631   0.897   7.987  0.9139 -0.0086  0.3063
  187SAPI  H14R21506   4.588   0.993   7.955  0.5421  0.3400  1.7674
  187SAPI  C21521507   4.648   0.878   8.117  0.8754  0.0943 -0.7657
  187SAPI  H15R21508   4.612   0.952   8.190  1.2000  0.2034 -0.7152
  187SAPI  C21621509   4.704   0.754   8.193 -0.3296 -0.6086  0.2453
  187SAPI  H16R21510   4.773   0.698   8.126  0.1138 -1.1203  1.1148
  187SAPI  H16S21511   4.621   0.683   8.213  0.3797 -2.0385 -1.5653
  187SAPI  C21721512   4.773   0.770   8.326  0.1059 -0.0899 -0.2988
  187SAPI  H17R21513   4.706   0.817   8.400 -2.2012 -2.5778 -0.6641
  187SAPI  H17S21514   4.864   0.834   8.324 -1.1843  1.8482  1.0019
  187SAPI  C21821515   4.829   0.633   8.384 -0.7246 -0.2076 -0.0209
  187SAPI  H18R21516   4.910   0.672   8.448 -0.4290 -0.4090 -0.2681
  187SAPI  H18S21517   4.873   0.578   8.297  0.7747  2.5674 -1.1542
  187SAPI  C21921518   4.731   0.554   8.469  0.0500  0.0425  0.3365
  187SAPI  H19R21519   4.654   0.626   8.504  0.1414 -0.2461  1.1520
  187SAPI  H19S21520   4.786   0.501   8.549  0.9837 -0.4850 -0.6240
  187SAPI  C22021521   4.649   0.444   8.396 -0.3009  0.8365  0.5337
  187SAPI  H20R21522   4.584   0.390   8.469  1.4747 -1.1351  0.7606
  187SAPI  H20S21523   4.712   0.365   8.350 -2.2826 -0.5265  0.0213
  187SAPI  H20T21524   4.597   0.490   8.310  0.5676  0.7766 -0.0312
  187SAPI   C3321525   3.994   1.480   7.281 -0.0926  0.1181 -0.2121
  187SAPI   H3X21526   3.934   1.388   7.294 -0.2316  0.4192  1.4442
  187SAPI   H3Y21527   3.919   1.561   7.264  0.9787  0.9465 -1.1764
  187SAPI   C3421528   4.080   1.513   7.405  0.5088 -0.0165 -0.3676
  187SAPI   H4X21529   4.128   1.609   7.376 -1.2261  0.4803 -1.8394
  187SAPI   H4Y21530   4.159   1.439   7.427 -0.7243 -1.6503 -1.2659
  187SAPI   C3521531   3.994   1.532   7.530 -0.1604  0.1277  1.0655
  187SAPI   H5X21532   3.952   1.437   7.569  1.1047 -1.3712 -1.0020
  187SAPI   H5Y21533   3.913   1.604   7.507  1.4067  0.8186 -3.3681
  187SAPI   C3621534   4.064   1.597   7.648  0.2424 -0.3294  0.2064
  187SAPI   H6X21535   3.985   1.623   7.721  1.4410  1.6138  0.9046
  187SAPI   H6Y21536   4.126   1.686   7.623  0.3133 -0.7581 -1.1944
  187SAPI   C3721537   4.154   1.495   7.717  0.3105  0.3450 -0.4595
  187SAPI   H7X21538   4.217   1.446   7.640  0.0411  2.3241 -2.0180
  187SAPI   H7Y21539   4.079   1.424   7.757 -1.4216  2.1229 -0.3507
  187SAPI   C3821540   4.250   1.551   7.823  0.7172  0.1681 -0.4442
  187SAPI   H8X21541   4.290   1.649   7.788  1.6712 -0.4505 -1.1273
  187SAPI   H8Y21542   4.332   1.476   7.826  0.0838 -0.6359 -2.0992
  187SAPI   C3921543   4.190   1.580   7.958 -0.2221  0.0949  0.0827
  187SAPI   H9X21544   4.081   1.590   7.938 -0.4279 -0.3631  0.9539
  187SAPI   H9Y21545   4.239   1.675   7.987  1.2766 -0.5411 -0.2999
  187SAPI  C31021546   4.215   1.461   8.056  0.2722 -0.1865  0.1892
  187SAPI  H10X21547   4.180   1.368   8.007  0.1373 -0.4648  0.8106
  187SAPI  H10Y21548   4.151   1.481   8.144 -0.6650  0.7129 -0.6680
  187SAPI  C31121549   4.362   1.451   8.107  0.2979  0.6573 -0.3245
  187SAPI  H11X21550   4.396   1.552   8.138 -1.2736  0.3062  2.9707
  187SAPI  H11Y21551   4.434   1.426   8.025 -1.0349  0.9145 -1.6054
  187SAPI  C31221552   4.362   1.348   8.222 -0.4064 -0.3770 -0.7103
  187SAPI  H12X21553   4.301   1.263   8.184 -3.5386  1.6923 -0.7476
  187SAPI  H12Y21554   4.306   1.394   8.306  0.5902  1.4925 -1.0047
  187SAPI  C31321555   4.501   1.293   8.254  0.1246  0.1753 -1.1799
  187SAPI  H13X21556   4.563   1.385   8.256  0.4673 -0.0447  0.4523
  187SAPI  H13Y21557   4.538   1.223   8.177 -0.0686 -0.9346 -0.2859
  187SAPI  C31421558   4.509   1.234   8.394  0.4247  0.1858  0.0307
  187SAPI  H14X21559   4.425   1.164   8.408  0.6528 -0.4229 -1.4362
  187SAPI  H14Y21560   4.495   1.307   8.476  0.9144  0.1543  0.1451
  187SAPI  C31521561   4.644   1.151   8.420 -0.3240  0.0214 -0.6486
  187SAPI  H15X21562   4.729   1.217   8.394  1.4472 -1.7152  0.4618
  187SAPI  H15Y21563   4.646   1.060   8.356  0.6199  1.8447 -3.3894
  187SAPI  C31621564   4.659   1.119   8.563  0.3747 -0.3808  0.5444
  187SAPI  H16X21565   4.737   1.040   8.566 -2.1039 -3.0540 -0.3632
  187SAPI  H16Y21566   4.561   1.078   8.597  0.2186 -1.0799 -0.6760
  187SAPI  C31721567   4.704   1.229   8.665  0.0140 -0.1192 -0.0555
  187SAPI  H17X21568   4.628   1.310   8.654 -0.1211  0.5098  4.1386
  187SAPI  H17Y21569   4.810   1.262   8.651  0.5741 -1.4365  0.8958
  187SAPI  C31821570   4.677   1.178   8.808  0.1269 -0.0217 -1.0713
  187SAPI  H18X21571   4.585   1.118   8.820  0.7067 -0.5869  0.9487
  187SAPI  H18Y21572   4.674   1.261   8.881 -3.3288 -0.3949 -0.6269
  187SAPI  H18Z21573   4.760   1.109   8.836 -1.2012 -2.3254 -2.4616
  188SAPI   C1221574   5.459   4.772   6.540  0.0041  0.2881  0.7897
  188SAPI    H221575   5.494   4.828   6.451 -1.6920  1.6487  0.9273
  188SAPI    O221576   5.515   4.832   6.662  0.4408  0.0269  0.7917
  188SAPI   HO221577   5.609   4.836   6.642  0.4152 -0.1394  0.6306
  188SAPI   C1321578   5.312   4.765   6.541  0.2626 -0.8876  0.2053
  188SAPI    H321579   5.273   4.730   6.443  0.7937  1.7063 -1.0109
  188SAPI    O321580   5.252   4.896   6.546 -0.3399  0.0782 -0.0524
  188SAPI   HO321581   5.294   4.937   6.623  0.2902 -1.4370  0.4572
  188SAPI   C1421582   5.254   4.675   6.650 -0.8615 -0.1933  0.2711
  188SAPI    H421583   5.295   4.717   6.744 -0.2714 -0.2142  0.0276
  188SAPI    O421584   5.115   4.671   6.653  0.5040  0.0076  0.4461
  188SAPI   HO421585   5.084   4.618   6.727  0.1994 -0.0816  0.2576
  188SAPI   C1521586   5.329   4.533   6.640 -0.6374 -0.5231 -0.0987
  188SAPI    H521587   5.307   4.489   6.541 -0.5041  1.4944 -1.0758
  188SAPI    O521588   5.283   4.438   6.736 -0.0920  0.0382 -0.4407
  188SAPI   HO521589   5.232   4.369   6.694 -1.2528  0.9772 -0.6060
  188SAPI   C1621590   5.477   4.544   6.648  0.0431  0.2220  0.0402
  188SAPI    H621591   5.503   4.581   6.750  3.0787 -1.5146 -0.0002
  188SAPI    O621592   5.534   4.410   6.634 -0.4312 -0.0631 -0.4763
  188SAPI   HO621593   5.495   4.367   6.710 -0.3624 -1.2758 -1.1107
  188SAPI   C1121594   5.526   4.632   6.538 -0.0399 -0.1390  0.1103
  188SAPI    H121595   5.492   4.592   6.440  0.5729 -2.1811  0.6806
  188SAPI     P21596   5.765   4.628   6.415 -0.2525 -0.2040 -0.0701
  188SAPI   O1321597   5.689   4.601   6.289 -0.0466  0.1866  0.4480
  188SAPI   O1421598   5.893   4.555   6.450 -0.8867 -0.0332 -0.1304
  188SAPI   O1221599   5.668   4.634   6.548 -0.0465 -0.1109 -0.2505
  188SAPI   O1121600   5.798   4.783   6.412  0.4297 -0.0259 -0.4022
  188SAPI    C121601   5.919   4.845   6.454  0.4998 -0.4788  0.1947
  188SAPI    HA21602   6.002   4.775   6.478 -0.0936 -0.7924  1.4029
  188SAPI    HB21603   5.960   4.909   6.372  0.6992 -0.1481  0.5508
  188SAPI    C221604   5.890   4.942   6.573 -1.2428 -0.3722 -0.3072
  188SAPI    HS21605   5.986   4.996   6.590  0.2100 -2.3278 -1.7528
  188SAPI   O2121606   5.847   4.866   6.687  0.1520 -0.7678  0.3095
  188SAPI   C2121607   5.941   4.798   6.746  0.0913 -0.7456 -0.1498
  188SAPI   O2221608   6.060   4.799   6.719 -0.0368  0.1638 -0.2338
  188SAPI   C2221609   5.879   4.719   6.863 -0.0508 -0.2363 -0.8748
  188SAPI   H2R21610   5.809   4.777   6.927 -0.6695 -3.0869  1.2436
  188SAPI   H2S21611   5.819   4.637   6.817 -0.7939  0.4875 -1.2161
  188SAPI    C321612   5.790   5.051   6.537  0.0578 -0.4567 -0.2497
  188SAPI    HX21613   5.691   4.999   6.539 -0.3643  0.3670  0.7663
  188SAPI    HY21614   5.802   5.103   6.439 -0.7420  0.9761  0.3851
  188SAPI   O3121615   5.790   5.147   6.649 -0.0360 -0.4586 -0.1031
  188SAPI   C3121616   5.670   5.223   6.658  0.4210  0.0981  1.1093
  188SAPI   O3221617   5.567   5.209   6.596 -0.1010 -0.7137  0.0347
  188SAPI   C3221618   5.679   5.337   6.757 -0.0641 -0.0290 -0.7127
  188SAPI   H2X21619   5.574   5.363   6.784  0.0125  0.8628 -1.2383
  188SAPI   H2Y21620   5.737   5.421   6.714  2.6080 -0.7755  1.1999
  188SAPI   C2321621   5.987   4.668   6.959  0.8444  0.7409  0.4959
  188SAPI   H3R21622   6.081   4.638   6.908  1.2725  1.2311  0.9806
  188SAPI   H3S21623   5.956   4.576   7.013  1.6703 -1.3485 -2.3136
  188SAPI   C2421624   6.025   4.780   7.060  0.0710  0.3075  0.2598
  188SAPI   H4R21625   5.931   4.805   7.113 -0.1029 -2.0899  1.2095
  188SAPI   H4S21626   6.053   4.866   6.995  2.3244 -0.0873  0.6213
  188SAPI   C2521627   6.140   4.744   7.157  0.4035 -0.0241 -0.4064
  188SAPI   H5R21628   6.231   4.707   7.109  0.4302  0.4681 -0.7473
  188SAPI   C2621629   6.126   4.761   7.289 -0.1765 -0.1755 -0.5911
  188SAPI   H6R21630   6.212   4.764   7.357  0.8727 -0.9829 -1.8261
  188SAPI   C2721631   5.995   4.814   7.352  0.3808  0.7552 -0.0219
  188SAPI   H7R21632   5.909   4.749   7.326  1.6240 -0.1405 -2.1866
  188SAPI   H7S21633   5.989   4.915   7.306 -0.6755  1.5679  1.7927
  188SAPI   C2821634   6.000   4.827   7.502 -0.0987  0.2682  0.1273
  188SAPI   H8R21635   6.101   4.840   7.543  0.2597  0.6627 -0.8467
  188SAPI   C2921636   5.898   4.819   7.588 -0.0410  0.1489  1.2062
  188SAPI   H9R21637   5.917   4.825   7.696 -0.2210  0.3483  1.2261
  188SAPI  C21021638   5.751   4.797   7.555 -0.2389  0.1783  0.1343
  188SAPI  H10R21639   5.744   4.704   7.494 -0.9449 -1.1520  2.1599
  188SAPI  H10S21640   5.723   4.876   7.481 -0.4598  0.1869  0.2247
  188SAPI  C21121641   5.644   4.779   7.659  0.3627 -0.2357 -0.0665
  188SAPI  H11R21642   5.598   4.680   7.659 -1.7234  0.6770 -0.5877
  188SAPI  C21221643   5.601   4.874   7.744  0.2202 -0.1828 -0.0022
  188SAPI  H12R21644   5.517   4.848   7.809 -0.4736  1.8670 -0.0066
  188SAPI  C21321645   5.655   5.020   7.757 -0.1934  0.2850 -0.1267
  188SAPI  H13R21646   5.568   5.089   7.767 -1.4524 -1.1758 -0.5201
  188SAPI  H13S21647   5.690   5.048   7.655 -4.8205 -0.7598 -2.3113
  188SAPI  C21421648   5.751   5.039   7.867 -0.1744  0.4541  0.3676
  188SAPI  H14R21649   5.843   4.979   7.857 -0.3323 -0.0081  1.5266
  188SAPI  C21521650   5.736   5.109   7.980  0.6121 -0.0050 -0.8922
  188SAPI  H15R21651   5.827   5.127   8.039 -0.2906 -2.9209  1.6591
  188SAPI  C21621652   5.619   5.196   8.030  0.0746 -0.4757  0.9422
  188SAPI  H16R21653   5.534   5.171   7.963  0.7691  0.3804 -0.3199
  188SAPI  H16S21654   5.638   5.301   7.998  3.3976 -0.9860  0.8969
  188SAPI  C21721655   5.577   5.176   8.178 -0.0927 -0.2804 -0.0507
  188SAPI  H17R21656   5.548   5.071   8.200 -1.2425  0.3663  1.7583
  188SAPI  H17S21657   5.487   5.238   8.196 -1.2387 -1.4075 -1.6781
  188SAPI  C21821658   5.694   5.217   8.274 -0.0225 -0.2820  0.4185
  188SAPI  H18R21659   5.706   5.327   8.268 -0.2276 -0.1929  1.4709
  188SAPI  H18S21660   5.790   5.173   8.238  0.3268  1.0379 -0.3373
  188SAPI  C21921661   5.667   5.191   8.423  0.9702  0.2260 -1.0352
  188SAPI  H19R21662   5.679   5.082   8.440  0.4562  0.4967  1.6224
  188SAPI  H19S21663   5.559   5.203   8.443  0.8119 -1.8424 -0.3961
  188SAPI  C22021664   5.766   5.255   8.530  0.1093 -0.0086 -0.4799
  188SAPI  H20R21665   5.771   5.362   8.497 -0.6838 -0.4209 -2.0465
  188SAPI  H20S21666   5.868   5.215   8.511  0.4053  0.2349  0.5676
  188SAPI  H20T21667   5.738   5.230   8.634 -2.1124  0.3139 -0.9473
  188SAPI   C3321668   5.751   5.278   6.878 -0.5479 -0.2704 -0.1750
  188SAPI   H3X21669   5.856   5.254   6.852 -0.6368  1.2553 -2.3109
  188SAPI   H3Y21670   5.705   5.182   6.911 -0.1500 -0.0323  1.1184
  188SAPI   C3421671   5.763   5.374   6.992  0.1066  0.2233  0.5859
  188SAPI   H4X21672   5.669   5.431   7.007  1.6284  2.5967  1.9329
  188SAPI   H4Y21673   5.837   5.443   6.945 -0.5225  0.8043  0.4346
  188SAPI   C3521674   5.818   5.306   7.122  0.8175 -0.1000 -1.0947
  188SAPI   H5X21675   5.928   5.315   7.137  0.6953 -0.6188  0.1667
  188SAPI   H5Y21676   5.794   5.197   7.121  0.2258  0.0272 -1.3572
  188SAPI   C3621677   5.759   5.363   7.251  0.3777  0.7995  0.6388
  188SAPI   H6X21678   5.651   5.341   7.246  1.0073 -2.7067 -0.4728
  188SAPI   H6Y21679   5.782   5.471   7.242  1.1877  0.5102 -1.0407
  188SAPI   C3721680   5.810   5.312   7.386 -0.8469  0.8778  0.3605
  188SAPI   H7X21681   5.909   5.361   7.401 -0.3915 -0.4356  1.7974
  188SAPI   H7Y21682   5.830   5.204   7.395  3.0287  1.5168  0.9698
  188SAPI   C3821683   5.719   5.358   7.500 -0.0725  0.0067 -0.0060
  188SAPI   H8X21684   5.681   5.278   7.567 -0.7934  0.4254  0.0956
  188SAPI   H8Y21685   5.623   5.393   7.457  0.1311  0.1302 -0.3597
  188SAPI   C3921686   5.783   5.464   7.585  0.2901 -0.1072  0.0001
  188SAPI   H9X21687   5.815   5.556   7.531  1.7165 -0.3696  0.3639
  188SAPI   H9Y21688   5.875   5.416   7.625  0.2000 -1.6903 -1.5527
  188SAPI  C31021689   5.697   5.497   7.710  0.2476 -0.4542 -0.2496
  188SAPI  H10X21690   5.686   5.409   7.778  1.0051 -1.3885 -1.3065
  188SAPI  H10Y21691   5.594   5.535   7.691  0.5501  0.6550  0.2421
  188SAPI  C31121692   5.746   5.595   7.817  0.0643 -0.2371  0.3352
  188SAPI  H11X21693   5.794   5.685   7.774  2.9963 -1.5522  0.6138
  188SAPI  H11Y21694   5.817   5.549   7.889  0.4016  1.5947  1.2243
  188SAPI  C31221695   5.630   5.639   7.904 -0.4315 -0.4820 -0.5014
  188SAPI  H12X21696   5.603   5.554   7.970  0.3955  1.1098  2.0361
  188SAPI  H12Y21697   5.536   5.683   7.862 -0.4874  1.0058  1.0680
  188SAPI  C31321698   5.681   5.754   8.000 -0.3311 -0.3589 -0.0233
  188SAPI  H13X21699   5.719   5.841   7.943 -0.0451 -0.6012 -0.2072
  188SAPI  H13Y21700   5.755   5.689   8.052 -0.7309 -0.3175  0.6144
  188SAPI  C31421701   5.574   5.806   8.105 -0.2204  0.4899  0.7760
  188SAPI  H14X21702   5.554   5.724   8.177 -1.5106 -3.5726 -3.6959
  188SAPI  H14Y21703   5.487   5.827   8.040  0.3248 -0.6724 -0.3791
  188SAPI  C31521704   5.627   5.933   8.177 -0.4861  0.2473 -0.4342
  188SAPI  H15X21705   5.690   5.990   8.106 -1.1598  0.3776 -0.9378
  188SAPI  H15Y21706   5.689   5.890   8.258 -2.3736 -0.2749  0.8193
  188SAPI  C31621707   5.513   6.016   8.233 -0.5827  0.2518 -0.6908
  188SAPI  H16X21708   5.455   5.967   8.315 -1.3885 -2.2893 -2.6644
  188SAPI  H16Y21709   5.430   6.028   8.160  0.1503 -1.3342 -1.8378
  188SAPI  C31721710   5.560   6.146   8.291  0.0302 -0.5033  0.0835
  188SAPI  H17X21711   5.650   6.147   8.356 -0.1392  2.6040  0.3900
  188SAPI  H17Y21712   5.480   6.187   8.356 -1.1220 -1.7209 -0.5118
  188SAPI  C31821713   5.591   6.244   8.179 -0.6822 -0.8980  0.4025
  188SAPI  H18X21714   5.687   6.211   8.135 -0.2397  1.5373 -0.6280
  188SAPI  H18Y21715   5.583   6.349   8.215 -1.9275 -0.8340 -0.0238
  188SAPI  H18Z21716   5.520   6.230   8.095 -1.9799 -2.2100  1.6516
  189POPC     N21717   5.710   6.337  10.738  0.1638 -0.7477 -0.4258
  189POPC   C1221718   5.570   6.313  10.710  0.6206 -0.3850  0.2339
  189POPC  H12A21719   5.539   6.370  10.624 -0.4245 -0.5562  0.4830
  189POPC  H12B21720   5.517   6.344  10.800  2.9975  0.3378  1.4759
  189POPC   C1321721   5.761   6.267  10.862  0.1190  0.8301 -0.0122
  189POPC  H13A21722   5.869   6.271  10.867  0.0804  0.5643  1.7704
  189POPC  H13B21723   5.718   6.312  10.950 -1.2377  1.1714 -0.8252
  189POPC  H13C21724   5.742   6.162  10.847 -0.9843  1.1186 -0.6948
  189POPC   C1421725   5.789   6.284  10.624 -0.9034  0.2466  0.9041
  189POPC  H14A21726   5.804   6.177  10.633  2.4779  0.4519 -0.9006
  189POPC  H14B21727   5.743   6.309  10.530  1.4878  2.1004  0.1555
  189POPC  H14C21728   5.884   6.333  10.619 -0.7594 -0.1387 -2.4171
  189POPC   C1521729   5.722   6.479  10.748  0.3168  0.3037  0.2286
  189POPC  H15A21730   5.682   6.527  10.660 -0.7213 -0.1261  0.4489
  189POPC  H15B21731   5.825   6.511  10.754  0.6905  0.1208 -3.2538
  189POPC  H15C21732   5.662   6.515  10.831  0.1901 -0.1938  0.3521
  189POPC   C1121733   5.523   6.167  10.693 -0.0504  0.7258  0.3784
  189POPC  H11A21734   5.598   6.112  10.632  1.3609 -0.0491  2.6678
  189POPC  H11B21735   5.424   6.170  10.644  0.4212 -2.3661 -0.9743
  189POPC     P21736   5.386   6.081  10.904  0.0163  0.0554  0.0253
  189POPC   O1321737   5.368   6.205  10.983  0.7417  0.3457  1.0802
  189POPC   O1421738   5.397   5.963  10.988  0.1805 -0.0334 -0.1388
  189POPC   O1221739   5.513   6.100  10.813  0.0090 -0.1993 -0.1315
  189POPC   O1121740   5.278   6.052  10.790 -0.3572 -0.2955 -0.5421
  189POPC    C121741   5.296   5.936  10.712 -0.0926  0.2909  0.7935
  189POPC    HA21742   5.235   5.854  10.755  0.0038 -0.3842 -0.3363
  189POPC    HB21743   5.400   5.898  10.714  0.4425  1.5358 -1.0703
  189POPC    C221744   5.263   5.955  10.567  0.3996  0.1133  0.0175
  189POPC    HS21745   5.336   6.029  10.526  2.2244 -1.9998 -0.7392
  189POPC   O2121746   5.132   6.002  10.563  0.3532  0.4443 -0.2505
  189POPC   C2121747   5.105   6.106  10.481  0.1511  0.5483  0.2412
  189POPC   O2221748   5.186   6.169  10.416  0.0164  0.4816  0.3419
  189POPC   C2221749   4.958   6.131  10.483  0.1535  0.0216  0.4993
  189POPC   H2R21750   4.930   6.205  10.561 -1.3548 -0.7438  0.7157
  189POPC   H2S21751   4.893   6.043  10.503 -0.4949  0.5595  0.8169
  189POPC    C321752   5.285   5.827  10.484 -1.2096  0.6202 -0.5484
  189POPC    HX21753   5.211   5.751  10.515  1.7301 -2.0827  0.3493
  189POPC    HY21754   5.385   5.791  10.516 -2.4475 -2.6615 -0.0389
  189POPC   O3121755   5.287   5.842  10.338  0.1925  0.2469 -0.1308
  189POPC   C3121756   5.398   5.896  10.287 -0.1085 -0.4101  0.1425
  189POPC   O3221757   5.502   5.905  10.348  0.0758  0.1384 -0.5007
  189POPC   C3221758   5.381   5.912  10.132  0.0693  0.1350  0.5921
  189POPC   H2X21759   5.339   6.015  10.125 -0.2415  0.0300  0.8651
  189POPC   H2Y21760   5.310   5.845  10.080  0.4082  2.7597 -3.6967
  189POPC   C2321761   4.901   6.167  10.339 -0.5391  0.2186 -0.2197
  189POPC   H3R21762   4.959   6.254  10.302 -1.2384  0.9443  0.3519
  189POPC   H3S21763   4.793   6.194  10.343 -0.5075  0.3064  0.0944
  189POPC   C2421764   4.905   6.046  10.243  0.2248 -0.8360 -0.3164
  189POPC   H4R21765   4.817   6.038  10.175  0.0751  0.0137 -0.2387
  189POPC   H4S21766   4.914   5.959  10.310  0.6243  0.6329  1.6267
  189POPC   C2521767   5.020   6.034  10.144  0.5444 -0.1259 -0.1247
  189POPC   H5R21768   5.015   5.935  10.093  0.3769 -0.4788  0.5612
  189POPC   H5S21769   5.116   6.027  10.201 -0.8240 -0.6262  2.2879
  189POPC   C2621770   5.009   6.152  10.041 -0.5279  0.4778  0.0110
  189POPC   H6R21771   5.068   6.243  10.062 -0.1188  1.0714 -3.1999
  189POPC   H6S21772   4.901   6.179  10.039 -0.5472  0.3467 -1.8560
  189POPC   C2721773   5.048   6.099   9.902 -0.3177 -1.3305  0.3663
  189POPC   H7R21774   4.974   6.025   9.865 -0.7993 -0.2319 -0.9391
  189POPC   H7S21775   5.142   6.044   9.926  1.1088  1.7482  2.5385
  189POPC   C2821776   5.084   6.205   9.797  0.1898 -0.5634  0.2755
  189POPC   H8R21777   5.116   6.293   9.858  0.6881  0.0789 -0.8649
  189POPC   H8S21778   4.993   6.235   9.742 -0.2995  0.6196  1.6581
  189POPC   C2921779   5.201   6.158   9.708  0.0297 -0.5524  0.6009
  189POPC   H9121780   5.288   6.127   9.768  1.7731  0.8910 -1.0749
  189POPC  C21021781   5.210   6.141   9.571  0.1926  0.3518 -0.3598
  189POPC  H10121782   5.299   6.099   9.523 -1.1224 -0.0415 -2.6617
  189POPC  C21121783   5.107   6.175   9.468  0.4201 -0.0222  0.3365
  189POPC  H11R21784   5.007   6.214   9.496  0.9812  2.4170 -0.8128
  189POPC  H11S21785   5.088   6.079   9.416  0.1863  0.1844  0.0362
  189POPC  C21221786   5.166   6.261   9.358 -0.1499  0.4551  0.0249
  189POPC  H12R21787   5.233   6.339   9.400 -1.7630  1.4303  0.8546
  189POPC  H12S21788   5.085   6.322   9.313 -1.3134 -0.6147  0.6077
  189POPC  C21321789   5.247   6.175   9.263  0.2820 -0.5232  0.1010
  189POPC  H13R21790   5.190   6.092   9.216  1.4331 -1.0251 -0.4483
  189POPC  H13S21791   5.335   6.144   9.323  0.5216  0.7415  0.4400
  189POPC  C21421792   5.306   6.258   9.150 -0.4071  0.2464 -0.8885
  189POPC  H14R21793   5.356   6.349   9.189  1.3958 -1.7051  1.7573
  189POPC  H14S21794   5.211   6.277   9.096 -0.6158 -3.5890 -2.1623
  189POPC  C21521795   5.399   6.172   9.069 -0.0823 -0.7523  0.4542
  189POPC  H15R21796   5.351   6.076   9.041 -0.1975 -0.6730  0.3805
  189POPC  H15S21797   5.490   6.135   9.123  0.3301 -0.3075  0.0773
  189POPC  C21621798   5.431   6.240   8.932  0.2596  0.3707  0.1725
  189POPC  H16R21799   5.481   6.337   8.949  0.5359  0.6313 -1.8132
  189POPC  H16S21800   5.336   6.263   8.880 -0.2717  0.7905  1.3078
  189POPC  C21721801   5.514   6.148   8.839  0.0809  0.4078  0.0900
  189POPC  H17R21802   5.463   6.054   8.809  0.7722  0.0097  0.1356
  189POPC  H17S21803   5.609   6.112   8.886 -1.3779 -3.0698  0.6901
  189POPC  C21821804   5.550   6.209   8.703  0.4130  0.5037 -0.5888
  189POPC  H18R21805   5.606   6.137   8.639 -0.3196 -0.4955 -0.1300
  189POPC  H18S21806   5.627   6.288   8.716  0.8583  0.0179 -0.2374
  189POPC  H18T21807   5.466   6.249   8.643 -0.4742 -2.6378 -1.6360
  189POPC   C3321808   5.519   5.908  10.056  0.3779  0.5200  0.2647
  189POPC   H3X21809   5.580   5.818  10.081 -0.7435  0.3159  2.5678
  189POPC   H3Y21810   5.581   5.997  10.079  1.7095 -0.5375  0.8650
  189POPC   C3421811   5.509   5.912   9.907  0.0777  0.2624  0.1895
  189POPC   H4X21812   5.451   6.005   9.886 -0.2912  0.2909  1.2806
  189POPC   H4Y21813   5.447   5.833   9.859  0.4464  0.7282 -1.1158
  189POPC   C3521814   5.639   5.886   9.830  0.8503  0.1911  0.1668
  189POPC   H5X21815   5.676   5.784   9.853 -0.0193  0.3258  2.4048
  189POPC   H5Y21816   5.719   5.954   9.865  1.3773 -0.2252 -0.2139
  189POPC   C3621817   5.618   5.900   9.678 -0.6331 -0.1205 -0.0271
  189POPC   H6X21818   5.556   5.988   9.651  0.4094  0.8025  0.4774
  189POPC   H6Y21819   5.565   5.808   9.644  1.1658 -0.0876 -3.2612
  189POPC   C3721820   5.745   5.895   9.588  0.7134 -0.6019  0.5077
  189POPC   H7X21821   5.822   5.823   9.621  1.4942 -1.1868 -2.2908
  189POPC   H7Y21822   5.797   5.994   9.585 -2.8879  1.6226  3.1784
  189POPC   C3821823   5.703   5.862   9.440 -0.3749  0.4655  0.6460
  189POPC   H8X21824   5.634   5.943   9.407 -0.1863  0.7936  1.0442
  189POPC   H8Y21825   5.660   5.760   9.433  1.4416 -0.4207  1.6854
  189POPC   C3921826   5.829   5.869   9.351  0.0607  0.0227  0.1295
  189POPC   H9X21827   5.903   5.794   9.384  0.9453  0.5039 -0.7002
  189POPC   H9Y21828   5.871   5.972   9.355 -0.8002  0.3657  0.7533
  189POPC  C31021829   5.782   5.828   9.206 -0.2109 -0.5468 -1.0089
  189POPC  H10X21830   5.722   5.917   9.178  0.9077  1.1605  1.6418
  189POPC  H10Y21831   5.710   5.744   9.214  0.3565 -0.9553  0.0447
  189POPC  C31121832   5.899   5.791   9.114  0.1881 -0.0470  0.1623
  189POPC  H11X21833   5.896   5.680   9.111  1.6816 -0.1201  0.3733
  189POPC  H11Y21834   5.993   5.821   9.165 -0.7792  2.6284  0.5672
  189POPC  C31221835   5.900   5.863   8.978 -0.1940  0.3691  0.0883
  189POPC  H12X21836   5.948   5.962   8.987  0.3558  0.0552  0.7563
  189POPC  H12Y21837   5.794   5.885   8.952 -0.7938 -1.4894  0.7826
  189POPC  C31321838   5.961   5.779   8.861 -0.3517 -0.6907 -0.2685
  189POPC  H13X21839   5.892   5.695   8.836 -1.0081  0.3164 -1.9622
  189POPC  H13Y21840   6.056   5.743   8.907  0.7392  0.9960 -1.0998
  189POPC  C31421841   5.977   5.865   8.731 -0.4200 -0.7980  0.0403
  189POPC  H14X21842   6.006   5.794   8.651 -1.0414 -1.0581  0.0343
  189POPC  H14Y21843   6.057   5.941   8.744  2.2421 -3.3965 -0.2215
  189POPC  C31521844   5.843   5.933   8.690 -0.6166  0.5305 -0.6220
  189POPC  H15X21845   5.864   5.974   8.589 -0.1663  1.3979 -0.1855
  189POPC  H15Y21846   5.817   6.023   8.749  1.1299  0.3845  0.4094
  189POPC  C31621847   5.723   5.840   8.662 -0.5402  0.0395  0.2761
  189POPC  H16X21848   5.643   5.893   8.605  0.6826 -0.8887 -2.5214
  189POPC  H16Y21849   5.682   5.794   8.754 -1.4373 -1.0864 -0.6543
  189POPC  H16Z21850   5.750   5.750   8.603 -1.5625  0.8872 -1.5750
  190POPC     N21851   0.322   0.876  11.063 -0.0635 -0.1776 -0.5209
  190POPC   C1221852   0.248   0.775  11.152 -0.3592 -0.5635 -0.5385
  190POPC  H12A21853   0.180   0.832  11.214  0.0048  0.0570 -0.7125
  190POPC  H12B21854   0.312   0.723  11.222 -0.9669  0.2586  0.6739
  190POPC   C1321855   0.224   0.947  10.977  0.0146 -0.1132 -0.3021
  190POPC  H13A21856   0.154   0.882  10.927  0.1710 -0.4398 -0.0999
  190POPC  H13B21857   0.168   1.017  11.037 -0.5870  0.0369 -1.0217
  190POPC  H13C21858   0.268   0.994  10.891  1.5614  0.8458  0.9621
  190POPC   C1421859   0.391   0.983  11.142 -0.1647 -0.5499 -0.4333
  190POPC  H14A21860   0.454   0.950  11.223 -1.5139 -0.7172  0.5610
  190POPC  H14B21861   0.458   1.049  11.088  2.9279 -0.9800  2.5621
  190POPC  H14C21862   0.318   1.047  11.189 -3.4651 -2.6982 -2.2450
  190POPC   C1521863   0.413   0.810  10.979  0.2759  0.6379 -0.2026
  190POPC  H15A21864   0.433   0.872  10.894  0.6282  3.7668  1.9951
  190POPC  H15B21865   0.372   0.718  10.939 -0.9668  2.0796 -2.4537
  190POPC  H15C21866   0.505   0.770  11.019  0.1634  2.6619  2.3457
  190POPC   C1121867   0.158   0.674  11.078 -0.4450  0.9307 -0.1782
  190POPC  H11A21868   0.139   0.580  11.133 -1.8109  1.2129 -0.1439
  190POPC  H11B21869   0.220   0.641  10.991 -0.0243 -0.5377  0.6439
  190POPC     P21870  -0.067   0.777  11.136  0.9025  0.0669 -0.1291
  190POPC   O1321871  -0.024   0.910  11.193  0.2723  0.0176 -0.4011
  190POPC   O1421872  -0.103   0.669  11.233  0.9106 -0.1426 -0.5017
  190POPC   O1221873   0.033   0.728  11.033 -0.0374  0.5011 -0.0143
  190POPC   O1121874  -0.196   0.806  11.047  0.9363  0.0029  0.0529
  190POPC    C121875  -0.257   0.692  10.981  0.3090 -0.4069  0.5382
  190POPC    HA21876  -0.362   0.722  10.964  0.8465 -0.0303 -2.7667
  190POPC    HB21877  -0.243   0.603  11.046 -1.3495 -0.9882  0.1426
  190POPC    C221878  -0.196   0.663  10.844 -0.5150  0.3865  0.8658
  190POPC    HS21879  -0.093   0.623  10.854 -0.7937 -0.4124  0.6282
  190POPC   O2121880  -0.190   0.788  10.773  0.1314  0.2823  0.3225
  190POPC   C2121881  -0.074   0.825  10.722  0.5839  0.5070 -0.2058
  190POPC   O2221882   0.022   0.755  10.711 -0.2746 -0.2496  0.4597
  190POPC   C2221883  -0.086   0.971  10.670  0.1434  0.2246  0.1384
  190POPC   H2R21884  -0.059   1.046  10.748  2.4752  0.5669 -0.8957
  190POPC   H2S21885  -0.189   0.995  10.638 -0.4575 -0.5844  1.3567
  190POPC    C321886  -0.277   0.552  10.768  0.1830  0.6479 -0.0625
  190POPC    HX21887  -0.379   0.595  10.754  1.7019  4.1931 -1.3804
  190POPC    HY21888  -0.279   0.459  10.828  0.1973  1.5236  1.3501
  190POPC   O3121889  -0.207   0.537  10.642  0.3020  0.2521  0.1964
  190POPC   C3121890  -0.129   0.435  10.630 -0.3000 -0.0104 -0.1334
  190POPC   O3221891  -0.108   0.351  10.716 -0.3606 -0.1624  0.9728
  190POPC   C3221892  -0.057   0.438  10.492  0.0641 -0.1269 -0.1425
  190POPC   H2X21893   0.024   0.514  10.491 -0.8361  0.8651 -1.1345
  190POPC   H2Y21894  -0.129   0.470  10.414 -0.2691 -0.6098 -0.0321
  190POPC   C2321895   0.019   0.998  10.558 -0.0540 -0.6770 -0.1390
  190POPC   H3R21896   0.121   0.977  10.594 -0.1589  0.4224  0.8810
  190POPC   H3S21897   0.023   1.108  10.541  1.8211 -0.5894  0.6642
  190POPC   C2421898  -0.021   0.938  10.429 -0.0725  0.0703  0.2307
  190POPC   H4R21899  -0.105   1.002  10.395  0.3817 -0.2427 -1.5949
  190POPC   H4S21900  -0.054   0.833  10.437  1.4571 -0.4306  0.2447
  190POPC   C2521901   0.092   0.961  10.325  0.5431  0.0541  0.3329
  190POPC   H5R21902   0.186   0.911  10.355  1.2060 -0.2452 -2.0420
  190POPC   H5S21903   0.113   1.070  10.326  1.1670 -0.0702  0.7679
  190POPC   C2621904   0.060   0.911  10.183  0.4451  0.6553 -0.0050
  190POPC   H6R21905  -0.022   0.974  10.142 -0.8076 -1.1007 -0.3178
  190POPC   H6S21906   0.016   0.809  10.175  0.1957  0.9328 -3.2021
  190POPC   C2721907   0.181   0.913  10.098 -0.8111  0.1066 -0.6181
  190POPC   H7R21908   0.257   0.851  10.149 -1.0864  1.6754  1.8700
  190POPC   H7S21909   0.217   1.018  10.099 -0.8574  0.1909  2.6869
  190POPC   C2821910   0.160   0.861   9.954 -0.4333  0.4554 -0.0760
  190POPC   H8R21911   0.083   0.780   9.956  1.2743 -1.2253  1.0609
  190POPC   H8S21912   0.249   0.799   9.927 -1.6731 -1.0314 -0.9270
  190POPC   C2921913   0.127   0.957   9.844  0.3022  0.5799  0.9563
  190POPC   H9121914   0.028   1.003   9.857  0.9217  1.9374  1.0509
  190POPC  C21021915   0.198   0.988   9.731 -0.6974  0.3077  0.1348
  190POPC  H10121916   0.162   1.072   9.670 -1.3212  2.2406  2.9557
  190POPC  C21121917   0.338   0.928   9.695  0.3664 -0.3359  0.1607
  190POPC  H11R21918   0.360   0.841   9.760 -0.2575  0.0764  0.9391
  190POPC  H11S21919   0.405   1.011   9.725  1.5217 -0.8890 -0.8293
  190POPC  C21221920   0.367   0.890   9.547  0.2513  0.1707  0.5392
  190POPC  H12R21921   0.288   0.821   9.509  0.5361  0.2948 -0.3116
  190POPC  H12S21922   0.468   0.843   9.550  0.8701  1.1701 -1.9718
  190POPC  C21321923   0.369   1.003   9.449 -0.4782 -0.0818  0.0207
  190POPC  H13R21924   0.448   1.078   9.474 -2.0873  1.3453  0.9931
  190POPC  H13S21925   0.280   1.068   9.434  0.6571  1.5165 -0.0968
  190POPC  C21421926   0.404   0.942   9.313  0.4176 -0.0453 -0.3348
  190POPC  H14R21927   0.408   1.025   9.238 -0.3877  0.3489  0.0389
  190POPC  H14S21928   0.323   0.870   9.289  0.7601 -0.2980 -0.7581
  190POPC  C21521929   0.543   0.879   9.308 -0.1033 -0.0969  0.1198
  190POPC  H15R21930   0.551   0.798   9.384  0.4643 -1.3083 -1.1719
  190POPC  H15S21931   0.608   0.963   9.338  0.3133 -0.1380 -0.6508
  190POPC  C21621932   0.569   0.832   9.162  0.2256 -0.0484  0.2757
  190POPC  H16R21933   0.575   0.917   9.092  0.7901 -1.0795 -0.9717
  190POPC  H16S21934   0.483   0.769   9.129  1.0772 -1.0104 -0.1511
  190POPC  C21721935   0.706   0.751   9.158 -0.0606  0.8659  0.7167
  190POPC  H17R21936   0.685   0.649   9.119  3.2540  0.0110  0.8368
  190POPC  H17S21937   0.736   0.733   9.263 -0.4197  0.9791  0.8374
  190POPC  C21821938   0.811   0.813   9.071  0.0729 -0.4314  0.5933
  190POPC  H18R21939   0.903   0.751   9.069 -0.3376 -1.0570  1.0217
  190POPC  H18S21940   0.829   0.915   9.113 -2.3559  0.8527 -1.1863
  190POPC  H18T21941   0.773   0.850   8.973  0.9474 -0.3732  0.2705
  190POPC   C3321942   0.002   0.299  10.460 -0.3034  0.5161 -0.1319
  190POPC   H3X21943   0.061   0.254  10.543  1.2065 -0.2444 -1.5512
  190POPC   H3Y21944   0.076   0.311  10.377  0.9005 -0.3326  0.7709
  190POPC   C3421945  -0.091   0.180  10.402 -0.4004  0.3577  0.2226
  190POPC   H4X21946  -0.167   0.145  10.475  0.4021 -0.3677  0.7345
  190POPC   H4Y21947  -0.029   0.089  10.384 -0.5502  0.4724 -0.9188
  190POPC   C3521948  -0.155   0.208  10.270  0.3765  0.0551 -0.0174
  190POPC   H5X21949  -0.191   0.313  10.267  1.1342  0.3991 -4.6157
  190POPC   H5Y21950  -0.241   0.139  10.259 -0.0532  0.1673  2.2506
  190POPC   C3621951  -0.054   0.186  10.153 -0.1184  0.0618 -0.4398
  190POPC   H6X21952  -0.007   0.086  10.159 -3.3596 -1.5729 -0.4344
  190POPC   H6Y21953   0.034   0.252  10.173  0.5281 -0.8953 -0.0722
  190POPC   C3721954  -0.109   0.220  10.017 -0.1053  0.4062  0.4028
  190POPC   H7X21955  -0.110   0.331  10.009 -3.1578  0.4496  0.0591
  190POPC   H7Y21956  -0.213   0.182  10.004 -0.4973  0.8855  1.9288
  190POPC   C3821957  -0.025   0.174   9.901  0.7007  1.2573 -0.9516
  190POPC   H8X21958  -0.026   0.063   9.901 -2.5079  1.2050 -0.2377
  190POPC   H8Y21959   0.075   0.215   9.928 -0.3170  3.7425 -0.6908
  190POPC   C3921960  -0.060   0.235   9.767  0.2506  0.4089 -0.1850
  190POPC   H9X21961  -0.023   0.339   9.760  1.3441 -0.0399 -1.6351
  190POPC   H9Y21962  -0.168   0.231   9.744  0.1176 -2.2652  0.5616
  190POPC  C31021963   0.018   0.180   9.650  0.2279  0.5268  0.1771
  190POPC  H10X21964   0.004   0.070   9.653 -0.5298  0.5640 -1.2730
  190POPC  H10Y21965   0.127   0.205   9.650  0.1095  1.1098  1.2674
  190POPC  C31121966  -0.049   0.237   9.525 -0.2518 -0.1493  0.6345
  190POPC  H11X21967  -0.011   0.341   9.537  1.4487 -0.8544  1.6586
  190POPC  H11Y21968  -0.157   0.218   9.508  0.3140 -1.3822 -1.9414
  190POPC  C31221969   0.021   0.196   9.396 -0.9327  0.9541 -0.4892
  190POPC  H12X21970  -0.007   0.089   9.392  2.2090 -0.0171  0.5326
  190POPC  H12Y21971   0.132   0.202   9.402 -0.8193 -0.3920 -0.8965
  190POPC  C31321972  -0.029   0.266   9.277  0.5712  0.2107  0.6155
  190POPC  H13X21973  -0.000   0.373   9.281  0.5767  0.2685 -0.6956
  190POPC  H13Y21974  -0.140   0.265   9.270  0.4827  2.7266  0.7358
  190POPC  C31421975   0.021   0.205   9.146 -0.5343  0.0268 -0.6832
  190POPC  H14X21976   0.014   0.095   9.161 -0.4878  0.4817  4.1834
  190POPC  H14Y21977   0.128   0.231   9.152 -0.3603 -0.9821  2.1074
  190POPC  C31521978  -0.046   0.246   9.019  0.4273  0.3364  0.0049
  190POPC  H15X21979  -0.153   0.215   9.015  0.9620 -1.5405 -1.2620
  190POPC  H15Y21980  -0.001   0.188   8.935  0.3793  0.2458  0.0415
  190POPC  C31621981  -0.041   0.401   8.977 -0.2412 -0.2059 -0.3262
  190POPC  H16X21982  -0.105   0.457   9.048  1.1853 -1.6915  2.3033
  190POPC  H16Y21983  -0.069   0.408   8.870 -1.3319  2.8072  0.0746
  190POPC  H16Z21984   0.064   0.434   8.996 -0.8069  0.7918  1.3467
  191POPC     N21985   1.152   1.875   6.075 -0.6355  0.5338  0.1176
  191POPC   C1221986   1.142   1.747   6.165 -0.1011 -0.2208 -0.3236
  191POPC  H12A21987   1.139   1.667   6.092  0.0067 -0.0038 -0.5700
  191POPC  H12B21988   1.054   1.750   6.227  0.5398  1.4940  0.5627
  191POPC   C1321989   1.284   1.875   5.995  0.8528 -0.1134  0.3912
  191POPC  H13A21990   1.301   1.776   5.955 -0.5612 -1.2401  2.3823
  191POPC  H13B21991   1.276   1.937   5.907 -0.2277 -0.7298  0.0219
  191POPC  H13C21992   1.361   1.892   6.068  2.4922 -2.5229 -0.6450
  191POPC   C1421993   1.032   1.868   5.988 -0.5655 -0.3892  0.1385
  191POPC  H14A21994   0.950   1.839   6.051 -0.6789  1.0282  0.6869
  191POPC  H14B21995   1.014   1.970   5.955 -0.6325 -0.4839 -0.1232
  191POPC  H14C21996   1.036   1.805   5.901 -4.1140 -0.7573  0.1008
  191POPC   C1521997   1.148   2.000   6.154 -0.5324  0.1167 -0.4071
  191POPC  H15A21998   1.221   1.991   6.233 -1.4916  0.0479  0.4977
  191POPC  H15B21999   1.056   1.997   6.211 -0.1139  4.4675  0.8326
  191POPC  H15C22000   1.156   2.089   6.093  0.6329  0.1818 -0.1895
  191POPC   C1122001   1.265   1.719   6.256 -0.7463  0.1745  0.5123
  191POPC  H11A22002   1.351   1.699   6.188 -0.7462 -2.6860  1.2287
  191POPC  H11B22003   1.239   1.625   6.310 -0.8321 -0.9805 -1.4167
  191POPC     P22004   1.422   1.855   6.404  0.5995  0.1575  0.4694
  191POPC   O1322005   1.416   1.989   6.460  0.7596  0.0396 -0.4559
  191POPC   O1422006   1.535   1.816   6.309  0.2086 -0.0402 -0.6291
  191POPC   O1222007   1.283   1.825   6.344  0.4287  0.1490 -0.8074
  191POPC   O1122008   1.421   1.762   6.529  0.2643  0.2344 -0.3831
  191POPC    C122009   1.313   1.711   6.602  1.0441 -0.4567 -0.5954
  191POPC    HA22010   1.292   1.603   6.581  2.3223 -1.3476  2.2368
  191POPC    HB22011   1.230   1.783   6.587  0.1596 -0.6164  2.7744
  191POPC    C222012   1.324   1.726   6.756  0.1107 -0.7497  0.5554
  191POPC    HS22013   1.220   1.725   6.796 -1.0466  0.7798 -2.1212
  191POPC   O2122014   1.389   1.857   6.789 -0.4892  0.0439  0.4075
  191POPC   C2122015   1.309   1.958   6.795 -0.8237 -0.5317  0.9467
  191POPC   O2222016   1.189   1.956   6.817 -0.7852  0.4856 -0.0323
  191POPC   C2222017   1.384   2.097   6.774 -0.5734  0.3268  0.5496
  191POPC   H2R22018   1.378   2.142   6.672 -0.7852  1.8353  1.2018
  191POPC   H2S22019   1.491   2.066   6.774 -1.1451 -1.9703  2.3322
  191POPC    C322020   1.419   1.624   6.812 -0.1045 -0.6767  0.2744
  191POPC    HX22021   1.505   1.628   6.742  0.5755  0.1641  1.1422
  191POPC    HY22022   1.369   1.526   6.797  0.6401 -0.8055 -1.7305
  191POPC   O3122023   1.466   1.651   6.947  0.3292 -0.1021  0.1492
  191POPC   C3122024   1.398   1.613   7.052  0.9645 -0.6139 -0.0531
  191POPC   O3222025   1.283   1.578   7.046 -0.2917 -0.0817 -0.0813
  191POPC   C3222026   1.471   1.647   7.181 -0.1559 -1.0306  0.0872
  191POPC   H2X22027   1.486   1.756   7.193  0.1743 -1.2867  2.3472
  191POPC   H2Y22028   1.569   1.596   7.175  0.2740 -0.1508 -0.6651
  191POPC   C2322029   1.347   2.187   6.886  0.4726 -0.2734 -0.4198
  191POPC   H3R22030   1.236   2.182   6.897  0.5746 -0.2651  0.6169
  191POPC   H3S22031   1.357   2.291   6.848 -1.8989 -0.0948 -0.7000
  191POPC   C2422032   1.425   2.161   7.012 -0.4133  0.3385  0.6941
  191POPC   H4R22033   1.531   2.137   6.987 -1.0619 -0.6753 -1.3100
  191POPC   H4S22034   1.390   2.073   7.070  0.2405 -0.7979 -0.5748
  191POPC   C2522035   1.405   2.270   7.122 -0.0322 -0.3077 -0.0705
  191POPC   H5R22036   1.299   2.298   7.104 -0.8112 -2.1390  1.4263
  191POPC   H5S22037   1.476   2.351   7.094 -0.4940  0.1129 -0.0435
  191POPC   C2622038   1.420   2.222   7.267 -1.8939  0.7662 -0.3315
  191POPC   H6R22039   1.509   2.157   7.279 -1.5946  1.0474 -1.0066
  191POPC   H6S22040   1.343   2.144   7.289 -0.8087 -0.5115 -0.9329
  191POPC   C2722041   1.413   2.337   7.359 -0.4239  0.4323  0.2260
  191POPC   H7R22042   1.329   2.407   7.338  1.0672  2.8020  1.6858
  191POPC   H7S22043   1.500   2.402   7.336 -0.1342 -0.2800 -0.7538
  191POPC   C2822044   1.401   2.304   7.507  0.0650 -0.2764  0.4418
  191POPC   H8R22045   1.393   2.193   7.518  0.3219 -0.5232 -1.5028
  191POPC   H8S22046   1.306   2.351   7.537 -0.4101  0.6621 -2.2524
  191POPC   C2922047   1.507   2.357   7.595  0.0134 -0.3777  0.1436
  191POPC   H9122048   1.604   2.304   7.589 -0.3835 -1.5251  2.4849
  191POPC  C21022049   1.513   2.464   7.679  0.5226 -0.3181  1.0079
  191POPC  H10122050   1.609   2.492   7.725 -0.2550  2.1366  1.3247
  191POPC  C21122051   1.400   2.566   7.694  0.4134  0.2883 -0.0606
  191POPC  H11R22052   1.294   2.533   7.691  0.1407  0.8669  2.1403
  191POPC  H11S22053   1.401   2.643   7.614  0.7641 -0.8651 -1.2207
  191POPC  C21222054   1.396   2.635   7.832  0.3555 -0.2594  0.0597
  191POPC  H12R22055   1.303   2.693   7.851  0.6437  0.4209 -0.5965
  191POPC  H12S22056   1.474   2.713   7.836 -0.1980  0.3597 -0.7428
  191POPC  C21322057   1.422   2.542   7.953 -0.2810 -0.2506 -0.3633
  191POPC  H13R22058   1.427   2.593   8.052 -0.8112 -0.4455 -0.2377
  191POPC  H13S22059   1.516   2.485   7.938  0.6777  0.9482  0.8164
  191POPC  C21422060   1.319   2.426   7.964 -0.3334 -0.9305 -0.1775
  191POPC  H14R22061   1.325   2.363   7.872 -0.6178 -0.0228 -0.8353
  191POPC  H14S22062   1.220   2.477   7.955  0.5951  0.7443 -1.7871
  191POPC  C21522063   1.339   2.346   8.100 -0.2463  0.1642 -0.6692
  191POPC  H15R22064   1.442   2.305   8.101 -0.5298 -0.5585  0.4054
  191POPC  H15S22065   1.261   2.267   8.110  0.9466 -0.8565  1.2231
  191POPC  C21622066   1.331   2.429   8.228 -0.0805 -0.4676 -0.8878
  191POPC  H16R22067   1.235   2.485   8.223 -1.2223 -2.3051 -0.5618
  191POPC  H16S22068   1.406   2.510   8.241  2.6256 -2.6244 -1.9181
  191POPC  C21722069   1.346   2.356   8.366  0.1552 -0.3052 -0.0113
  191POPC  H17R22070   1.440   2.297   8.364 -0.4769 -1.3336 -0.2774
  191POPC  H17S22071   1.258   2.298   8.400 -0.0331  0.7726  1.4351
  191POPC  C21822072   1.352   2.467   8.471 -0.1158 -0.2823 -0.1674
  191POPC  H18R22073   1.436   2.539   8.456  1.8560 -1.6842  3.0835
  191POPC  H18S22074   1.376   2.417   8.566 -1.5418 -0.3710  0.1752
  191POPC  H18T22075   1.252   2.515   8.481 -1.1699 -1.1303 -4.5526
  191POPC   C3322076   1.397   1.590   7.304  0.0029  0.4744  0.1121
  191POPC   H3X22077   1.354   1.489   7.284  0.7097  0.2353 -0.2487
  191POPC   H3Y22078   1.323   1.669   7.327 -0.8921  0.0082 -1.0755
  191POPC   C3422079   1.485   1.571   7.431 -0.2776  0.2886 -0.0359
  191POPC   H4X22080   1.555   1.657   7.435  1.5051 -1.1175  0.7754
  191POPC   H4Y22081   1.557   1.486   7.436 -0.8929 -0.2845 -0.6806
  191POPC   C3522082   1.409   1.575   7.559 -0.4686 -0.9461 -0.2963
  191POPC   H5X22083   1.332   1.495   7.567 -2.3859  0.9479  1.5873
  191POPC   H5Y22084   1.359   1.674   7.562 -0.2716 -0.5943 -4.1009
  191POPC   C3622085   1.488   1.568   7.688 -0.3264  0.1640 -0.3916
  191POPC   H6X22086   1.558   1.655   7.690  0.0610 -0.1198  2.2603
  191POPC   H6Y22087   1.542   1.471   7.683 -0.3995  0.1872 -3.4280
  191POPC   C3722088   1.413   1.567   7.820  0.4226  0.0677 -0.3973
  191POPC   H7X22089   1.325   1.500   7.810 -0.2107  0.8391 -0.0909
  191POPC   H7Y22090   1.362   1.663   7.842 -0.5640 -0.1787 -1.5339
  191POPC   C3822091   1.499   1.523   7.941 -0.3299  0.0372  1.3378
  191POPC   H8X22092   1.586   1.593   7.946 -0.6305  0.7271 -1.4660
  191POPC   H8Y22093   1.544   1.424   7.920  0.9142  0.4828  1.7628
  191POPC   C3922094   1.409   1.514   8.063  1.1697 -0.0961 -0.9461
  191POPC   H9X22095   1.346   1.423   8.052 -2.1728  1.7349  1.2755
  191POPC   H9Y22096   1.344   1.603   8.051 -1.4817 -1.5250  1.6194
  191POPC  C31022097   1.486   1.526   8.194 -0.2248  0.3219  0.0319
  191POPC  H10X22098   1.537   1.624   8.205  0.1235 -0.0293  2.0445
  191POPC  H10Y22099   1.567   1.449   8.198 -1.2407 -0.8909 -1.5193
  191POPC  C31122100   1.412   1.506   8.328 -0.3750 -0.2640 -0.3514
  191POPC  H11X22101   1.382   1.400   8.347  0.7763 -0.3987  0.8042
  191POPC  H11Y22102   1.321   1.570   8.326 -0.4598 -0.3498  0.4320
  191POPC  C31222103   1.500   1.535   8.454 -0.6265 -0.3728 -0.0650
  191POPC  H12X22104   1.457   1.494   8.548 -0.7134 -0.0367  0.0415
  191POPC  H12Y22105   1.504   1.645   8.465 -0.6599 -0.4371  0.6619
  191POPC  C31322106   1.646   1.490   8.454 -0.5160 -0.2634  0.5081
  191POPC  H13X22107   1.698   1.535   8.541 -0.7662  0.3792  0.3266
  191POPC  H13Y22108   1.691   1.547   8.370  1.5937 -0.0932  1.6677
  191POPC  C31422109   1.662   1.335   8.455  0.0549 -0.4381 -0.3674
  191POPC  H14X22110   1.610   1.283   8.371 -2.5350  1.1455  0.1223
  191POPC  H14Y22111   1.617   1.300   8.550 -0.3665 -0.5588 -0.6053
  191POPC  C31522112   1.815   1.294   8.448 -0.0139  0.2502 -0.6236
  191POPC  H15X22113   1.870   1.348   8.528  0.4989 -3.5131  1.8254
  191POPC  H15Y22114   1.866   1.317   8.353  1.5925 -1.5218 -0.2376
  191POPC  C31622115   1.842   1.151   8.473  0.0237  0.2828 -0.5281
  191POPC  H16X22116   1.952   1.148   8.464  0.0455 -0.5405 -0.1200
  191POPC  H16Y22117   1.786   1.096   8.394 -1.5859 -0.5414  1.0942
  191POPC  H16Z22118   1.795   1.115   8.567  1.2746  0.8522  0.3379
  192POPC     N22119   1.617   4.875   5.775  0.6094  0.1959  0.4822
  192POPC   C1222120   1.544   4.978   5.855 -0.1397 -0.9815 -0.0569
  192POPC  H12A22121   1.471   5.021   5.788 -0.4486 -2.2476 -0.5708
  192POPC  H12B22122   1.611   5.058   5.884 -2.3759  0.4606  1.4819
  192POPC   C1322123   1.520   4.787   5.707  0.6050  0.6338 -0.5947
  192POPC  H13A22124   1.458   4.733   5.777 -0.1928  0.4456 -1.4309
  192POPC  H13B22125   1.467   4.827   5.623 -0.8723  0.9305  0.4405
  192POPC  H13C22126   1.569   4.705   5.656  3.3684  0.9129  1.3928
  192POPC   C1422127   1.695   4.948   5.671  0.2525  0.1371  0.0321
  192POPC  H14A22128   1.743   4.880   5.602  0.4744 -0.5919  0.8892
  192POPC  H14B22129   1.640   5.022   5.615  0.6170  1.5472  1.4359
  192POPC  H14C22130   1.766   5.021   5.709 -1.6765  1.7754  0.7005
  192POPC   C1522131   1.710   4.797   5.857 -0.2009 -0.5219 -0.1296
  192POPC  H15A22132   1.756   4.720   5.798  0.1762  0.8102 -1.6252
  192POPC  H15B22133   1.653   4.750   5.936 -0.0919 -1.5657 -0.6598
  192POPC  H15C22134   1.796   4.853   5.892  0.4486 -2.5893  1.8286
  192POPC   C1122135   1.471   4.947   5.989 -0.8180 -0.5911 -0.4283
  192POPC  H11A22136   1.393   4.870   5.973 -1.1242 -0.8820  2.0385
  192POPC  H11B22137   1.418   5.039   6.021 -1.8384 -1.9904  2.1690
  192POPC     P22138   1.656   4.992   6.184 -0.2141  0.0299  0.0236
  192POPC   O1322139   1.626   5.136   6.161  0.3355  0.9103 -0.1755
  192POPC   O1422140   1.797   4.952   6.186 -0.1993  0.2686 -0.5120
  192POPC   O1222141   1.571   4.898   6.082 -0.2669  0.4487 -0.1356
  192POPC   O1122142   1.597   4.953   6.334 -0.2625  0.0849  0.9082
  192POPC    C122143   1.463   4.909   6.342 -0.0769  0.2396 -0.4709
  192POPC    HA22144   1.456   4.803   6.313 -0.0390  0.2007 -0.3406
  192POPC    HB22145   1.394   4.961   6.272 -0.9622 -2.7324 -1.9249
  192POPC    C222146   1.401   4.914   6.486  0.6886  0.3685 -0.2748
  192POPC    HS22147   1.297   4.876   6.473  0.6379  0.0179  0.9900
  192POPC   O2122148   1.399   5.054   6.526 -0.4366  0.0201 -0.3790
  192POPC   C2122149   1.302   5.123   6.471 -0.0272  0.1183  0.1903
  192POPC   O2222150   1.216   5.084   6.391 -0.6719  0.5072  0.1427
  192POPC   C2222151   1.298   5.258   6.550 -0.6708  0.1723  0.4221
  192POPC   H2R22152   1.310   5.340   6.476 -0.0290 -1.0082 -0.8344
  192POPC   H2S22153   1.388   5.272   6.614  0.3680  0.2481 -1.0126
  192POPC    C322154   1.483   4.830   6.581 -0.1990  0.2694 -0.9799
  192POPC    HX22155   1.580   4.880   6.598  0.2992 -1.3353  1.4308
  192POPC    HY22156   1.503   4.728   6.540 -0.0537  0.6851 -1.9617
  192POPC   O3122157   1.419   4.820   6.713 -0.5825  0.0847  0.1263
  192POPC   C3122158   1.493   4.760   6.799  0.3663 -0.9361 -0.0508
  192POPC   O3222159   1.597   4.702   6.781  0.1205 -0.1865 -0.4481
  192POPC   C3222160   1.420   4.773   6.933 -0.1214 -0.4693  0.2183
  192POPC   H2X22161   1.335   4.701   6.931 -2.7685  2.3975  0.4238
  192POPC   H2Y22162   1.384   4.878   6.944 -0.4459 -0.5330 -0.2069
  192POPC   C2322163   1.175   5.266   6.637  0.3808  0.0963  0.3941
  192POPC   H3R22164   1.079   5.265   6.580  0.8256  0.0832 -0.3745
  192POPC   H3S22165   1.190   5.368   6.677 -2.6269  0.4689  0.8082
  192POPC   C2422166   1.196   5.178   6.759 -0.6762  0.9974  0.1653
  192POPC   H4R22167   1.300   5.191   6.795 -1.0676 -0.9114  2.2223
  192POPC   H4S22168   1.187   5.071   6.729 -1.2307  1.3229 -0.8853
  192POPC   C2522169   1.077   5.196   6.864  0.2087  0.0338  0.1903
  192POPC   H5R22170   0.983   5.159   6.818  0.7878 -0.6277 -0.4820
  192POPC   H5S22171   1.068   5.305   6.887  1.7339  0.2022  0.0966
  192POPC   C2622172   1.105   5.111   6.989 -0.2476 -0.1468 -0.3035
  192POPC   H6R22173   1.184   5.161   7.048  0.9308  0.6637 -2.4685
  192POPC   H6S22174   1.149   5.013   6.958 -0.1383  0.0539 -0.8035
  192POPC   C2722175   0.979   5.101   7.080 -0.5111  0.2135  0.1066
  192POPC   H7R22176   0.921   5.021   7.029  1.5930 -1.9815  0.9854
  192POPC   H7S22177   0.921   5.195   7.091  1.3260  1.5703 -1.1150
  192POPC   C2822178   1.016   5.037   7.213  0.0581 -0.6946  0.3330
  192POPC   H8R22179   1.108   4.976   7.204 -1.3250 -2.9644  0.7502
  192POPC   H8S22180   0.941   4.974   7.266 -0.7762  1.3678  1.7138
  192POPC   C2922181   1.038   5.154   7.308 -0.7092 -0.1282 -0.7814
  192POPC   H9122182   0.956   5.227   7.316  2.4132  3.5663  0.9550
  192POPC  C21022183   1.157   5.173   7.377  0.1836  0.3326 -0.3420
  192POPC  H10122184   1.161   5.264   7.437 -1.6002 -0.1182  0.5639
  192POPC  C21122185   1.276   5.084   7.370  0.3391 -0.7501 -0.3826
  192POPC  H11R22186   1.307   5.064   7.265  0.7511 -0.3060 -0.3489
  192POPC  H11S22187   1.253   4.990   7.424 -1.4304  0.3871  0.9598
  192POPC  C21222188   1.393   5.140   7.455  0.4542  0.4299  0.0181
  192POPC  H12R22189   1.414   5.243   7.419 -2.7542  0.3959 -2.4643
  192POPC  H12S22190   1.479   5.071   7.442  1.3159  1.5161 -0.1255
  192POPC  C21322191   1.364   5.118   7.606 -0.1250  0.3420 -0.1911
  192POPC  H13R22192   1.383   5.011   7.629 -2.9645  0.0877  1.5155
  192POPC  H13S22193   1.260   5.144   7.636  0.2986  0.8110  0.9111
  192POPC  C21422194   1.457   5.196   7.695  0.2359  0.0732 -0.6080
  192POPC  H14R22195   1.431   5.304   7.693 -0.0593  0.0581  1.0263
  192POPC  H14S22196   1.557   5.184   7.649  0.5426 -1.1063  0.3257
  192POPC  C21522197   1.453   5.147   7.843 -0.4039 -0.1737 -0.0064
  192POPC  H15R22198   1.477   5.040   7.862 -0.9708 -0.0137  1.8216
  192POPC  H15S22199   1.352   5.165   7.886  0.1763  1.8815  0.6159
  192POPC  C21622200   1.538   5.231   7.941 -0.1041 -0.0225  0.5416
  192POPC  H16R22201   1.501   5.336   7.951 -2.1789 -0.5568 -0.8740
  192POPC  H16S22202   1.644   5.238   7.908 -0.7055  1.3413 -1.2768
  192POPC  C21722203   1.538   5.161   8.081 -0.2030 -0.0439  0.6048
  192POPC  H17R22204   1.564   5.053   8.070  0.2659  0.1229 -0.0133
  192POPC  H17S22205   1.432   5.170   8.113  0.1776  2.1803  1.3575
  192POPC  C21822206   1.635   5.238   8.180  0.6734 -0.7310 -0.9119
  192POPC  H18R22207   1.604   5.342   8.161 -0.4382 -1.1300 -1.3445
  192POPC  H18S22208   1.744   5.231   8.162  0.5060 -2.3248 -1.5268
  192POPC  H18T22209   1.609   5.206   8.284  0.6209 -0.1767 -0.7509
  192POPC   C3322210   1.508   4.750   7.061 -0.0018 -0.7574 -0.3304
  192POPC   H3X22211   1.563   4.845   7.078 -0.2584  0.0148 -3.2386
  192POPC   H3Y22212   1.588   4.672   7.063 -0.6343 -1.6778 -4.0305
  192POPC   C3422213   1.423   4.737   7.186  0.0158  0.1306 -0.3661
  192POPC   H4X22214   1.394   4.630   7.181  3.9589 -1.0398 -1.7447
  192POPC   H4Y22215   1.335   4.804   7.178  0.5918  0.7567 -1.6792
  192POPC   C3522216   1.495   4.768   7.318  0.1669 -0.2747  0.5020
  192POPC   H5X22217   1.519   4.875   7.334 -0.9100  0.2270 -0.9861
  192POPC   H5Y22218   1.587   4.706   7.309  0.1345 -0.1433 -1.1734
  192POPC   C3622219   1.409   4.719   7.445 -0.5681  0.1421  0.7468
  192POPC   H6X22220   1.368   4.618   7.423  0.6868  0.0287 -1.3551
  192POPC   H6Y22221   1.318   4.779   7.465 -0.3700  0.6518  0.1409
  192POPC   C3722222   1.491   4.721   7.573 -0.0733  0.4996  0.2519
  192POPC   H7X22223   1.512   4.830   7.582  1.5160  0.2822 -0.4751
  192POPC   H7Y22224   1.586   4.666   7.552 -0.4708  0.0811 -0.5134
  192POPC   C3822225   1.439   4.687   7.721 -0.5903 -0.8234 -0.0128
  192POPC   H8X22226   1.497   4.732   7.804 -2.1493 -0.8066  1.1029
  192POPC   H8Y22227   1.450   4.577   7.736  0.5355 -0.9088 -1.2173
  192POPC   C3922228   1.292   4.739   7.750  0.6274  0.1074  0.1943
  192POPC   H9X22229   1.227   4.667   7.697 -0.0277 -0.2927  1.4984
  192POPC   H9Y22230   1.268   4.846   7.731 -1.6136 -0.2189  0.9376
  192POPC  C31022231   1.251   4.710   7.897  0.1082  0.1382  0.4847
  192POPC  H10X22232   1.267   4.601   7.913  0.1055 -0.3124 -2.0941
  192POPC  H10Y22233   1.144   4.736   7.909  0.6368  2.1905  1.0848
  192POPC  C31122234   1.327   4.787   8.004  0.6712 -0.1997  0.1770
  192POPC  H11X22235   1.348   4.891   7.972  0.5803 -0.3332 -0.3285
  192POPC  H11Y22236   1.431   4.748   8.012  1.4955  1.8730  0.1884
  192POPC  C31222237   1.273   4.777   8.148  0.2711 -0.1772  0.2292
  192POPC  H12X22238   1.287   4.682   8.205  0.7296  0.6628  1.5576
  192POPC  H12Y22239   1.163   4.792   8.138  0.2659 -1.6729 -3.0452
  192POPC  C31322240   1.337   4.880   8.242  0.2949  0.1560  0.1846
  192POPC  H13X22241   1.316   4.983   8.207 -0.2485  0.1992  0.6104
  192POPC  H13Y22242   1.446   4.870   8.224  0.1653  2.9158 -3.1552
  192POPC  C31422243   1.301   4.855   8.391  0.1011 -0.5384  0.7433
  192POPC  H14X22244   1.323   4.751   8.425  3.2749  0.6428  2.7661
  192POPC  H14Y22245   1.190   4.863   8.400 -0.5294 -3.8243 -1.9085
  192POPC  C31522246   1.377   4.957   8.483  0.6992  0.5613 -0.1371
  192POPC  H15X22247   1.349   5.056   8.441 -0.7781 -0.6571 -2.1692
  192POPC  H15Y22248   1.482   4.933   8.454 -0.1549 -2.8348 -0.8074
  192POPC  C31622249   1.341   4.942   8.629 -0.2579 -0.3466 -0.6896
  192POPC  H16X22250   1.240   4.977   8.661  0.7371  2.3344 -0.2078
  192POPC  H16Y22251   1.407   5.000   8.696 -1.6599 -1.6377  2.0132
  192POPC  H16Z22252   1.355   4.840   8.671  1.5573  0.2788  0.3165
  193SOD    SOD22253   5.138   2.585   6.077 -0.3136 -0.3167  0.2914
  194SOD    SOD22254   4.037   3.890  12.237 -0.3912 -0.3233 -0.3241
  195SOD    SOD22255   2.836   3.450  11.668  0.6903  0.5575 -0.1505
  196SOD    SOD22256   6.515   4.764   3.143 -0.4094 -0.4187  0.1938
  197SOD    SOD22257   4.492   2.408  16.508 -0.0821 -0.2352  0.1990
  198SOD    SOD22258   4.423   1.603   6.089 -0.7357 -0.4309 -0.0970
  199SOD    SOD22259   4.681   0.553   5.428  0.2293  0.2081  0.0728
  200SOD    SOD22260   0.845   0.338   4.122  0.2215  0.1988 -0.1433
  201SOD    SOD22261   6.621   1.310   4.630 -0.2507  0.1609  0.3576
  202SOD    SOD22262   2.163   6.021   5.724  0.3984  0.3511 -0.4026
  203SOD    SOD22263   5.314   5.059   4.072  0.1693  0.1949  0.4402
  204SOD    SOD22264   4.613   5.419   6.097  0.1295  0.2718 -0.4595
  205SOD    SOD22265   2.936   2.879   6.197  0.4289 -0.7944  0.1275
  206SOD    SOD22266   0.619   1.160  11.489  0.8790 -0.2095  0.5720
  207SOD    SOD22267   5.244   0.920  11.029 -0.2287  0.6449  0.4700
  208SOD    SOD22268   4.234   0.885   2.627 -0.1691  0.1766 -0.1317
  209SOD    SOD22269   2.738   3.790  12.130  0.2591 -0.2276  0.0074
  210SOD    SOD22270   2.919   0.485  11.722  0.2578 -0.3622  0.6754
  211SOD    SOD22271   0.514   2.012   5.489  0.3237  0.4652  0.0029
  212SOD    SOD22272   0.570   5.679  11.790 -0.4666  0.0648  0.2741
  213SOD    SOD22273   5.549   4.078  16.121  0.4726 -0.0138 -0.4852
  214SOD    SOD22274   3.275   1.199  15.048 -0.4480 -0.5644 -0.2518
  215SOD    SOD22275   5.447   2.606   1.361  0.0841  0.1873 -0.0371
  216SOD    SOD22276   6.661   4.795  15.489 -0.2834 -0.2778 -0.1084
  217SOD    SOD22277   6.008   5.330  11.011 -0.4520  0.2809  0.2204
  218SOD    SOD22278   5.883   2.395   2.450  0.4500  0.2586  0.0801
  219SOD    SOD22279   4.172   2.258   1.816 -0.2262  0.0932 -0.2257
  220SOD    SOD22280   1.964   0.614  11.490 -0.1222  0.5482  0.6047
  221SOD    SOD22281   6.115   1.625   5.238  0.1690  0.4589 -0.1201
  222SOD    SOD22282   3.602   3.615   4.243  0.1713 -0.0347  0.1131
  223SOD    SOD22283   4.543   6.053  10.765  0.0871  0.1362 -0.2618
  224SOD    SOD22284   1.427   2.061   0.815 -0.0876 -0.1991  0.2350
  225SOD    SOD22285   2.043   1.085   0.687 -0.2436 -0.4276  0.1601
  226SOD    SOD22286   1.548   0.097   6.229  0.0576  0.3066 -0.2505
  227SOD    SOD22287   2.301   4.907   2.711 -0.0465  0.4431 -0.2517
  228SOD    SOD22288   1.109   1.525  13.456 -0.3176 -0.5724  0.3979
  229SOD    SOD22289   6.014   4.201  11.710  0.0881  0.0311  0.3525
  230SOD    SOD22290   1.368   6.620  16.645 -0.1278 -0.0953  0.0522
  231SOD    SOD22291   5.646   6.617  17.373  0.0827 -0.4775  0.3581
  232SOD    SOD22292   0.843   6.036  14.395 -0.4262  0.3002 -0.3402
  233SOD    SOD22293   5.142   3.622   3.238  0.0997  0.2075  0.1482
  234SOD    SOD22294   1.470   0.237   0.989 -0.3920  0.4121  0.1869
  235SOD    SOD22295   0.052   1.147  15.461  0.0687  0.4327  0.1112
  236SOD    SOD22296   2.592   3.529  16.525  0.0070  0.3386 -0.6548
  237SOD    SOD22297   5.956   0.032  15.077 -0.2719  0.2471  0.4692
  238SOD    SOD22298   6.280   1.126   5.840  0.5371  0.0836  0.4253
  239SOD    SOD22299   2.296   5.523  17.031 -0.1385 -0.0198 -0.0529
  240SOD    SOD22300   3.202   5.290   1.765  0.3011  0.8569  0.0953
  241SOD    SOD22301   1.260   1.915   1.838  0.4712 -0.0165  0.8554
  242SOD    SOD22302   0.012   5.902  11.128 -0.0885 -0.1805 -0.3122
  243SOD    SOD22303   5.657   2.692  16.844  0.2855  0.1529 -0.0649
  244SOD    SOD22304   2.303   1.335   6.366 -0.2341 -0.0683  0.0114
  245SOD    SOD22305   2.066   3.659  11.196  0.1114 -0.0745  0.2682
  246SOD    SOD22306   0.621   4.001   6.308 -0.3232  0.8335 -0.2478
  247SOD    SOD22307   3.369   0.238  16.304 -0.1481 -0.0513  0.5771
  248SOD    SOD22308   3.311   2.005   6.512  0.3335  0.0806  0.1693
  249SOD    SOD22309   5.470   0.731  10.628  0.1001 -0.0132  0.4535
  250SOD    SOD22310   6.483   4.254   5.433  0.1154 -0.1349 -0.3565
  251SOD    SOD22311   2.322   2.473  14.008  0.3784  0.2660  0.1793
  252SOD    SOD22312   2.001   1.550  10.983 -0.2699 -0.2506 -0.1230
  253SOD    SOD22313   1.558   5.695   6.526 -0.0515  1.0090 -0.1288
  254SOD    SOD22314   0.064   4.976  13.886 -0.0639  0.1642 -0.7472
  255SOD    SOD22315   5.124   0.069   4.218 -0.1787  0.2410  0.6130
  256SOD    SOD22316   2.024   5.157  12.039 -0.3562  0.1914 -0.2975
  257SOD    SOD22317   4.493   6.652   1.282  0.3319  0.1031  0.4005
  258SOD    SOD22318   2.181   2.871  16.522 -0.0954 -0.1314  0.0649
  259SOD    SOD22319   4.376   4.357   5.855 -0.0544 -0.4860  0.5457
  260SOD    SOD22320   2.563   0.464  16.523  0.0847 -0.6777  0.3483
  261SOD    SOD22321   6.468   1.422  15.785  0.2754 -0.1455 -0.6612
  262SOD    SOD22322   5.151   5.206   2.524 -0.0971 -0.5425  0.5727
  263SOD    SOD22323   2.599   5.430   6.036 -0.4889 -0.3235  0.1409
  264SOD    SOD22324   3.679   0.823   3.415 -0.3827  0.0771 -0.1693
  265SOD    SOD22325   0.422   4.163  12.605 -0.7162 -0.1061 -0.4696
  266SOD    SOD22326   2.414   1.603  13.863 -0.4010  0.1345  0.4659
  267SOD    SOD22327   6.718   3.202  16.510 -0.4104 -0.6107  0.0043
  268SOD    SOD22328   4.776   1.112  16.532  0.2468  0.4567  0.2776
  269SOD    SOD22329   3.661   3.901  11.731 -0.0671 -0.1668 -0.2435
  270CLA    CLA22330   0.893   2.301   2.239  0.2419  0.0374 -0.4628
  271CLA    CLA22331   0.833   2.445   0.191 -0.0456 -0.1828  0.4638
  272CLA    CLA22332   1.733   6.408   1.354 -0.1025 -0.5708  0.2418
  273CLA    CLA22333   1.988   0.022  14.791 -0.0133 -0.3338 -0.4249
  274CLA    CLA22334   5.123   1.871  13.787 -0.0257 -0.4591  0.5797
  275CLA    CLA22335   2.187   1.184  15.363  0.5038 -0.4809  0.0617
  276CLA    CLA22336   3.838   1.821   2.763 -0.4904 -0.0478 -0.0422
  277CLA    CLA22337   3.024   2.871   2.739 -0.3808 -0.2795  0.1938
  278CLA    CLA22338   0.187   3.033   0.016 -0.3304 -0.0287  0.0972
  279CLA    CLA22339   6.471   5.992   3.991 -0.0862 -0.0048 -0.0069
  280CLA    CLA22340   0.118   5.228  13.385 -0.2697  0.1457  0.0877
  281CLA    CLA22341   5.137   6.306   0.594 -0.0429 -0.0390  0.2185
  282CLA    CLA22342   0.103   0.638   0.801 -0.2879  0.0800  0.1291
  283CLA    CLA22343   1.754   2.482   2.025 -0.1868  0.1095  0.3188
  284CLA    CLA22344   1.687   4.291  15.832  0.1870 -0.1673 -0.1431
  285CLA    CLA22345   1.809   4.198   2.022  0.0102 -0.0457 -0.0039
  286CLA    CLA22346   2.766   0.342  14.111  0.1167  0.2821  0.3817
  287CLA    CLA22347   3.490   4.704  15.194  0.3055  0.4404  0.1667
  288CLA    CLA22348   5.804   5.298  13.959 -0.1821 -0.4884  0.0985
  289CLA    CLA22349   1.374   6.691  15.528 -0.0353  0.0644 -0.1442
  290CLA    CLA22350   6.631   3.017  14.491  0.1191 -0.1921  0.2081
  291CLA    CLA22351   6.302   1.461  14.974 -0.2429 -0.3994  0.0851
  292CLA    CLA22352   3.978   3.829  17.276  0.0589 -0.3583 -0.1510
  293CLA    CLA22353   1.875   1.170   5.204  0.1481 -0.2199  0.1209
  294CLA    CLA22354   6.337   3.766   0.055 -0.3642 -0.0999 -0.0678
  295CLA    CLA22355   3.580   0.923   1.304  0.2543 -0.3391  0.1667
  296CLA    CLA22356   0.086   3.996  13.911  0.0818  0.0854  0.1861
  297CLA    CLA22357   4.618   1.711   2.697  0.1910 -0.2307  0.4309
  298CLA    CLA22358   1.744   6.049  13.545  0.0908  0.4067  0.0146
  299CLA    CLA22359   0.632   1.762   1.398 -0.2488  0.3333 -0.1192
  300CLA    CLA22360   5.883   5.255   3.633 -0.1605  0.3099  0.3601
  301CLA    CLA22361   5.560   3.792   4.166  0.3757  0.4433  0.0939
  302CLA    CLA22362   0.530   1.077  15.741  0.1568 -0.3530  0.0002
  303CLA    CLA22363   2.911   4.182  17.338 -0.1027  0.0389  0.3667
  304CLA    CLA22364   0.202   6.503  14.223 -0.1946 -0.3586  0.4754
  305CLA    CLA22365   5.696   4.758   3.998 -0.3417  0.2792  0.3758
  306CLA    CLA22366   2.567   1.123  14.878  0.0869  0.3656 -0.0134
  307CLA    CLA22367   5.036   6.619  16.343 -0.1456 -0.0955  0.0807
  308CLA    CLA22368   2.334   2.591  12.756 -0.1422  0.2750 -0.0047
  309CLA    CLA22369   6.218   5.428  13.233  0.0901 -0.1232  0.3250
  310CLA    CLA22370   4.132   0.289   3.025 -0.0085 -0.1221 -0.1055
  311CLA    CLA22371   2.581   2.688   4.242  0.1087 -0.2035  0.0820
  312CLA    CLA22372   2.745   0.097  16.778  0.0707  0.1252 -0.3648
  313CLA    CLA22373   4.114   3.495   5.430 -0.1925  0.0968  0.3743
  314CLA    CLA22374   2.369   2.171   3.556  0.4542  0.2725  0.1105
  315CLA    CLA22375   4.981   5.749  13.125 -0.1742 -0.0784 -0.4616
  316CLA    CLA22376   1.483   5.361   0.341 -0.3173 -0.2706  0.1497
  317CLA    CLA22377   4.377   0.320  16.021  0.0783 -0.2258  0.0827
  318CLA    CLA22378   0.545   1.753   5.539  0.2655 -0.1832  0.1557
  319CLA    CLA22379   4.899   2.077   0.884  0.5200  0.1395 -0.1086
  320CLA    CLA22380   3.835   3.686   2.222 -0.1512 -0.0344  0.0559
  321CLA    CLA22381   4.923   1.688  14.483 -0.1550 -0.1597  0.1160
  322CLA    CLA22382   2.980   3.959  11.778  0.2606  0.0590  0.5241
  323TIP3   OH222383   6.504   5.435  12.137  0.2702 -0.5205 -0.3807
  323TIP3    H122384   6.579   5.446  12.195  0.9808 -0.9899 -1.1751
  323TIP3    H222385   6.444   5.506  12.160  0.0299 -1.3257  1.6527
  324TIP3   OH222386   3.383   5.626   6.020  0.5302 -0.1726 -0.0668
  324TIP3    H122387   3.370   5.626   5.925  0.3273  1.5517 -0.0686
  324TIP3    H222388   3.294   5.623   6.056  0.4827  1.3715  0.0173
  325TIP3   OH222389   5.924   2.445   1.249  0.2725 -0.0538  0.3794
  325TIP3    H122390   5.923   2.424   1.155 -0.0680  1.4943  0.0182
  325TIP3    H222391   5.976   2.525   1.255 -1.4761  1.0801  1.2264
  326TIP3   OH222392   2.777   3.998  16.538 -0.3088  0.8790 -0.0124
  326TIP3    H122393   2.852   3.946  16.566 -0.2136  0.5661 -0.8241
  326TIP3    H222394   2.785   4.080  16.587 -1.1485 -0.2872  2.2302
  327TIP3   OH222395   3.030   5.381  15.358 -0.1751  0.2938  0.1960
  327TIP3    H122396   3.093   5.453  15.355 -0.8829  0.9559  0.8685
  327TIP3    H222397   3.072   5.311  15.308  0.0005  1.5654 -1.5509
  328TIP3   OH222398   3.611   6.685   1.575 -0.0155  0.2821  0.1115
  328TIP3    H122399   3.690   6.693   1.521  1.2582 -0.8836  1.7303
  328TIP3    H222400   3.613   6.761   1.632  0.4390 -0.1994  0.7525
  329TIP3   OH222401   2.495   0.055  16.048  0.2571  0.8097  0.2317
  329TIP3    H122402   2.429   0.085  16.112 -2.6398 -0.0044 -2.1236
  329TIP3    H222403   2.478  -0.039  16.040  3.3987  0.0592  1.2043
  330TIP3   OH222404   3.339   4.499  15.025 -0.3418 -0.1465  0.1802
  330TIP3    H122405   3.373   4.567  15.084 -1.6489 -0.7046  1.6483
  330TIP3    H222406   3.246   4.494  15.045 -0.3230 -2.2126 -0.0414
  331TIP3   OH222407   6.165   6.016   5.061 -0.1874  0.2789 -0.1224
  331TIP3    H122408   6.203   5.985   4.979  0.1465  1.0040 -0.2472
  331TIP3    H222409   6.231   5.997   5.128 -0.5047 -0.4116  0.0001
  332TIP3   OH222410   5.034   3.484  14.394 -0.4319  0.3482 -0.1628
  332TIP3    H122411   4.965   3.531  14.347  0.9739  2.9904  0.2251
  332TIP3    H222412   5.048   3.535  14.474 -1.2076 -2.7618  2.1670
  333TIP3   OH222413   2.065   0.661  15.281 -0.1646 -0.6945 -0.7174
  333TIP3    H122414   2.085   0.697  15.194  1.8945 -0.2005 -0.0716
  333TIP3    H222415   2.034   0.736  15.331  3.9835  0.3630  0.5827
  334TIP3   OH222416   4.137   5.671  13.227  0.5262 -0.1343 -0.1009
  334TIP3    H122417   4.100   5.655  13.140 -1.0844 -1.7330  0.8140
  334TIP3    H222418   4.128   5.766  13.240 -0.9202 -0.1208 -0.9644
  335TIP3   OH222419   4.625   1.584  14.390 -0.7498 -0.1836  0.5570
  335TIP3    H122420   4.712   1.610  14.422 -1.1060 -0.6416  1.9702
  335TIP3    H222421   4.566   1.602  14.463 -2.0050  0.8508 -0.6493
  336TIP3   OH222422   2.789   1.150   4.501 -0.8533 -0.3589 -0.1827
  336TIP3    H122423   2.785   1.190   4.588  2.6633 -2.3539  1.0881
  336TIP3    H222424   2.835   1.215   4.447  0.4250 -0.6127  0.5515
  337TIP3   OH222425   0.976   0.215  16.635  0.0461 -0.1798  0.2938
  337TIP3    H122426   1.005   0.237  16.547  0.8364  0.9636  0.8150
  337TIP3    H222427   0.932   0.294  16.666  1.1400 -0.0050  1.4793
  338TIP3   OH222428   6.697   1.632  16.500 -0.0497 -0.4924 -0.3241
  338TIP3    H122429   6.761   1.621  16.569 -2.2343  1.8587  2.3185
  338TIP3    H222430   6.707   1.722  16.471 -0.8332 -0.6893 -1.2852
  339TIP3   OH222431   5.203   0.682   2.835  0.2529  0.0410 -0.1330
  339TIP3    H122432   5.210   0.606   2.776  0.0501 -0.4877  0.5149
  339TIP3    H222433   5.142   0.654   2.903 -1.0593  1.3441 -0.7271
  340TIP3   OH222434   0.432   3.476   4.232  0.6888  0.1309  0.3620
  340TIP3    H122435   0.483   3.502   4.308 -0.5099  0.2524  1.1623
  340TIP3    H222436   0.375   3.551   4.215 -0.1492 -0.4897  0.3408
  341TIP3   OH222437   5.159   5.322   0.148 -0.5889  0.5877  0.2459
  341TIP3    H122438   5.136   5.372   0.226 -0.8785  2.0091 -0.7125
  341TIP3    H222439   5.085   5.337   0.088  0.4643  1.0162 -0.9766
  342TIP3   OH222440   0.327   3.910   0.264 -0.1833  0.1307 -0.2897
  342TIP3    H122441   0.234   3.929   0.252  0.1984  2.3670 -0.0434
  342TIP3    H222442   0.331   3.863   0.347 -1.1645 -0.8361 -0.7645
  343TIP3   OH222443   1.491   4.094  13.898  0.2830  0.0220  0.1891
  343TIP3    H122444   1.586   4.082  13.904  0.2317 -0.9338 -0.7158
  343TIP3    H222445   1.456   4.005  13.892 -0.3353  0.3810 -4.1655
  344TIP3   OH222446   5.386   2.261  17.199  0.7365  0.6559 -0.3605
  344TIP3    H122447   5.296   2.245  17.228 -0.0085  1.1538 -2.2387
  344TIP3    H222448   5.439   2.253  17.278 -1.0912  1.4788  0.9999
  345TIP3   OH222449   2.412   6.321  12.053 -0.2219  0.3246  0.3780
  345TIP3    H122450   2.407   6.411  12.020 -0.5093  0.2000  0.0680
  345TIP3    H222451   2.356   6.320  12.130  1.6475  0.9995  1.8020
  346TIP3   OH222452   1.091   0.912   4.266 -0.3223 -0.1150  0.2475
  346TIP3    H122453   1.159   0.893   4.201 -0.3852  0.6162 -0.0481
  346TIP3    H222454   1.139   0.920   4.349 -0.0904  0.0844  0.0941
  347TIP3   OH222455   2.518   0.547   0.539 -0.2106  0.0497  0.4727
  347TIP3    H122456   2.466   0.499   0.603  3.6323 -0.5081  3.5570
  347TIP3    H222457   2.586   0.485   0.512  0.0094  1.2387 -2.0142
  348TIP3   OH222458   1.027   2.595  14.738 -0.2661 -0.3560  0.0684
  348TIP3    H122459   1.086   2.530  14.701 -0.6886 -0.9913  0.4888
  348TIP3    H222460   1.073   2.678  14.727  0.1814 -0.6900 -0.6828
  349TIP3   OH222461   1.802   5.482   5.595  0.1519 -0.1829 -0.2739
  349TIP3    H122462   1.841   5.569   5.580  1.2633 -0.9662 -2.2997
  349TIP3    H222463   1.850   5.448   5.671 -0.0778  0.8372  0.3474
  350TIP3   OH222464   1.362   6.472  15.276  0.4936  0.1301 -0.2601
  350TIP3    H122465   1.416   6.549  15.294  2.2326 -1.0500 -0.1769
  350TIP3    H222466   1.422   6.399  15.284 -1.0429 -1.2284 -0.6826
  351TIP3   OH222467   2.077   5.257  10.709  0.0236 -0.1881 -0.6875
  351TIP3    H122468   2.155   5.208  10.735 -0.8956  0.0862  3.0888
  351TIP3    H222469   2.004   5.200  10.731 -0.9326  0.4983 -1.9673
  352TIP3   OH222470   2.335   0.255  15.492  0.2448 -0.0991  0.0001
  352TIP3    H122471   2.288   0.172  15.490 -0.5847  0.3651 -1.2857
  352TIP3    H222472   2.267   0.321  15.478  1.0230  0.7403  0.0638
  353TIP3   OH222473   6.646   2.198  14.978 -0.1133 -0.0515 -0.0814
  353TIP3    H122474   6.691   2.138  14.918  0.8498 -0.8615  1.3936
  353TIP3    H222475   6.660   2.285  14.940  1.5958 -0.4138 -0.3864
  354TIP3   OH222476   1.227   5.914   0.666  0.2462 -0.1956 -0.4900
  354TIP3    H122477   1.215   5.822   0.688 -0.6562  0.3653  1.5478
  354TIP3    H222478   1.312   5.917   0.624  0.9950 -1.7556  0.7956
  355TIP3   OH222479   3.943   2.919  12.102  0.6412 -0.4458 -0.2442
  355TIP3    H122480   3.902   2.892  12.020 -1.7441  2.5388 -0.1827
  355TIP3    H222481   3.921   2.849  12.163  1.1241 -1.9617 -1.7141
  356TIP3   OH222482   0.393   5.733  14.936  0.2181 -0.2909  0.3389
  356TIP3    H122483   0.352   5.813  14.905 -0.3942 -1.0102 -0.7807
  356TIP3    H222484   0.470   5.722  14.879  0.6782 -0.1637  0.9226
  357TIP3   OH222485   5.075   5.848   2.911 -0.5057  0.0916 -0.2263
  357TIP3    H122486   5.055   5.831   2.819  1.4448 -0.4764 -0.5930
  357TIP3    H222487   5.124   5.930   2.910 -3.5587  2.0977  0.7655
  358TIP3   OH222488   4.786   5.270   0.082 -0.5379  0.3652  0.0706
  358TIP3    H122489   4.736   5.192   0.054  0.5484  0.2558 -1.7468
  358TIP3    H222490   4.848   5.237   0.146  0.2807 -0.4076 -1.0861
  359TIP3   OH222491   3.262   5.957   2.818 -0.3236  0.4722 -0.2902
  359TIP3    H122492   3.278   5.899   2.744  0.7673  1.3418 -0.7591
  359TIP3    H222493   3.175   5.995   2.801 -1.2555 -1.2998  0.2460
  360TIP3   OH222494   5.176   1.765   4.078  0.1756 -0.1052  0.1988
  360TIP3    H122495   5.207   1.723   3.998  0.6488 -0.8573  0.7489
  360TIP3    H222496   5.087   1.793   4.059 -0.2528 -1.5976 -0.1351
  361TIP3   OH222497   6.541   3.156  12.892 -0.1032 -0.1476 -0.0398
  361TIP3    H122498   6.632   3.184  12.883 -0.4244  0.4809 -1.7669
  361TIP3    H222499   6.497   3.228  12.936  0.0725 -0.0903  0.0424
  362TIP3   OH222500   4.998   1.466   1.102  0.1774  0.0925  0.0056
  362TIP3    H122501   5.038   1.542   1.059  0.3275  0.2870  0.4755
  362TIP3    H222502   5.015   1.480   1.195 -0.6630 -0.0128  0.1835
  363TIP3   OH222503   6.164   1.013  17.355  0.5355  0.3770 -0.4337
  363TIP3    H122504   6.225   0.994  17.426  0.5727  2.1150  0.0430
  363TIP3    H222505   6.220   1.026  17.278  0.4716 -1.9050 -0.9407
  364TIP3   OH222506   5.104   1.671   2.771 -0.5098 -0.3955  0.2157
  364TIP3    H122507   5.075   1.671   2.679 -0.9025 -0.6492  0.3362
  364TIP3    H222508   5.035   1.624   2.818 -0.9967  0.9046  0.8539
  365TIP3   OH222509   2.570   2.776   0.817  0.6457 -0.8550 -0.2721
  365TIP3    H122510   2.488   2.806   0.778  1.6126  0.5283 -1.3172
  365TIP3    H222511   2.625   2.751   0.743  3.0822  3.2294 -0.1197
  366TIP3   OH222512   5.400   6.652  16.141  0.2629 -0.1308 -0.0095
  366TIP3    H122513   5.316   6.692  16.119  0.5799  0.9011  0.5760
  366TIP3    H222514   5.441   6.714  16.202  1.9595 -0.0257 -1.1671
  367TIP3   OH222515   2.386   6.586   0.395  0.2608 -0.3002 -0.3414
  367TIP3    H122516   2.470   6.587   0.350  0.2717 -0.6123 -0.3318
  367TIP3    H222517   2.408   6.595   0.488  0.1815  1.4611 -0.4511
  368TIP3   OH222518   4.043   1.570   2.404  0.3162 -0.1352  0.1230
  368TIP3    H122519   3.995   1.496   2.442  0.3613  0.3519  1.1678
  368TIP3    H222520   4.114   1.587   2.466  0.5324  0.5461 -0.2987
  369TIP3   OH222521   4.590   2.547  14.065 -0.2083  0.0428 -0.8085
  369TIP3    H122522   4.551   2.509  14.144  1.5992  1.1024  0.6481
  369TIP3    H222523   4.523   2.534  13.998 -1.6683 -1.2001  0.7856
  370TIP3   OH222524   1.306   1.567  16.409  0.1067 -1.0442  0.4133
  370TIP3    H122525   1.373   1.602  16.468 -1.4368  1.3055  0.9265
  370TIP3    H222526   1.231   1.550  16.467 -1.1405  0.4566 -0.6964
  371TIP3   OH222527   5.156   0.687   1.414 -0.1857  0.3693 -0.8256
  371TIP3    H122528   5.082   0.665   1.357 -0.8095  0.7321 -0.1744
  371TIP3    H222529   5.129   0.655   1.500  0.5319  0.2751 -0.6350
  372TIP3   OH222530   3.215   5.440  13.790 -0.4049  0.1757  0.6136
  372TIP3    H122531   3.201   5.535  13.795 -0.0444  0.2653  0.0487
  372TIP3    H222532   3.309   5.431  13.771 -0.6502 -0.2585 -0.4572
  373TIP3   OH222533   2.532   6.639  13.246  0.4522  0.5745 -0.3363
  373TIP3    H122534   2.602   6.670  13.304 -0.1916  0.7439  0.3743
  373TIP3    H222535   2.455   6.632  13.303  0.1240 -0.5580 -0.8874
  374TIP3   OH222536   0.159   3.082   1.862 -0.7095  0.0985  0.3967
  374TIP3    H122537   0.082   3.025   1.871 -1.4803  1.1888  0.8751
  374TIP3    H222538   0.204   3.075   1.947  0.1185 -1.0429 -0.0962
  375TIP3   OH222539   4.761   3.146  13.347 -0.3610 -0.1145  0.0501
  375TIP3    H122540   4.788   3.117  13.260 -0.1538 -1.1907  0.4631
  375TIP3    H222541   4.764   3.242  13.342 -2.5866 -0.0480 -1.8312
  376TIP3   OH222542   3.299   3.409   1.479  0.3391  0.0654  0.6075
  376TIP3    H122543   3.290   3.496   1.519  0.3624 -0.5291  1.9638
  376TIP3    H222544   3.377   3.372   1.520  1.1091 -0.1053 -0.9487
  377TIP3   OH222545   3.649   0.251   3.033  0.5794  0.2305 -0.6847
  377TIP3    H122546   3.696   0.295   3.104  1.6026  1.3212 -1.9946
  377TIP3    H222547   3.701   0.172   3.017  0.4941  0.1154 -0.4079
  378TIP3   OH222548   0.056   5.039   1.894 -0.3062 -0.3806  0.2720
  378TIP3    H122549  -0.007   5.031   1.823 -0.7492  0.0870  0.6078
  378TIP3    H222550   0.137   5.066   1.851 -1.0470  1.7996  0.1364
  379TIP3   OH222551   0.881   5.491  12.080  0.1887 -0.4926 -0.4010
  379TIP3    H122552   0.847   5.476  12.168  2.5497 -0.1120  0.6340
  379TIP3    H222553   0.859   5.411  12.032 -2.7515 -0.0020 -0.1031
  380TIP3   OH222554   1.625   2.900  12.796 -0.5068 -0.4229  0.0749
  380TIP3    H122555   1.694   2.837  12.775 -0.2566 -0.3796  0.7278
  380TIP3    H222556   1.582   2.917  12.712  0.3279 -0.3857 -0.3619
  381TIP3   OH222557   5.124   5.890  12.629  0.5620  0.0327 -0.1768
  381TIP3    H122558   5.086   5.971  12.596  0.4467 -0.9497 -2.6317
  381TIP3    H222559   5.211   5.888  12.591  0.7121 -0.8131  0.2065
  382TIP3   OH222560   2.355   1.247   4.621  0.0959  0.4588  0.2671
  382TIP3    H122561   2.279   1.302   4.602  0.5500  1.1408  0.3830
  382TIP3    H222562   2.318   1.171   4.667 -0.4441  1.1147  0.9679
  383TIP3   OH222563   4.380   0.473   0.068 -0.9927  0.1965 -0.8592
  383TIP3    H122564   4.450   0.488   0.005 -0.9510  1.4066 -0.5517
  383TIP3    H222565   4.423   0.429   0.142 -0.2726  1.9257 -0.1878
  384TIP3   OH222566   3.375   0.202   4.314 -0.1436  0.0312 -0.4169
  384TIP3    H122567   3.340   0.145   4.381  0.9098 -0.2750 -0.1172
  384TIP3    H222568   3.452   0.243   4.354  0.7295 -0.4554 -1.5488
  385TIP3   OH222569   6.039   1.057  14.275  0.2536  0.8057  0.7894
  385TIP3    H122570   6.061   1.062  14.368 -0.4218  0.6024  0.9705
  385TIP3    H222571   5.948   1.086  14.271  0.6253  1.9067  0.0383
  386TIP3   OH222572   4.948   3.329   5.455  0.3577  0.0348 -0.1747
  386TIP3    H122573   4.866   3.377   5.441  0.0013 -0.6417 -0.4565
  386TIP3    H222574   4.970   3.294   5.369  0.4009 -0.6348  0.1036
  387TIP3   OH222575   6.385   0.214  12.147  0.1765 -0.0511  0.2518
  387TIP3    H122576   6.313   0.152  12.143  1.4400 -1.4917 -1.6353
  387TIP3    H222577   6.427   0.196  12.232 -1.2443  0.3651  1.0742
  388TIP3   OH222578   2.885   4.485   5.976 -0.5832  0.6645 -0.3145
  388TIP3    H122579   2.966   4.536   5.969  0.0605 -0.2704  0.1620
  388TIP3    H222580   2.908   4.399   5.942 -1.0030 -0.0107  1.0488
  389TIP3   OH222581   6.306   3.663   5.380  0.1511  0.1221 -0.1292
  389TIP3    H122582   6.331   3.741   5.430  2.8369  1.3113 -2.9952
  389TIP3    H222583   6.368   3.595   5.407 -0.7284 -0.3741  0.7050
  390TIP3   OH222584   2.002   4.665   2.869  0.3416  0.3110  0.1353
  390TIP3    H122585   1.968   4.719   2.798  0.6697 -0.7107 -0.8351
  390TIP3    H222586   2.097   4.681   2.869  0.3128  0.4871  0.4998
  391TIP3   OH222587   1.323   3.807  11.290 -0.3046 -0.5163 -0.0159
  391TIP3    H122588   1.324   3.840  11.380  1.4602  0.4224 -0.3165
  391TIP3    H222589   1.285   3.878  11.239 -0.3926 -0.6516 -0.1385
  392TIP3   OH222590   3.881   5.462  14.086  0.5579 -0.2329 -0.2513
  392TIP3    H122591   3.883   5.466  14.181  0.8039  0.5683 -0.2862
  392TIP3    H222592   3.833   5.382  14.066  1.7050 -1.1586  0.5489
  393TIP3   OH222593   1.816   3.001  11.136  0.1932  0.4425  0.1547
  393TIP3    H122594   1.731   3.001  11.093  1.0196 -1.3129 -1.6695
  393TIP3    H222595   1.879   3.005  11.063  1.6615 -0.7113  1.3056
  394TIP3   OH222596   3.557   3.808   5.775  0.4791  0.3255 -0.1384
  394TIP3    H122597   3.596   3.890   5.804  0.8627  1.1036 -2.6299
  394TIP3    H222598   3.631   3.759   5.737 -0.3585  0.5161 -2.1453
  395TIP3   OH222599   5.879   5.981  11.918  0.0661 -0.2235 -0.1661
  395TIP3    H122600   5.892   5.988  12.012  0.4464 -0.2378 -0.2173
  395TIP3    H222601   5.799   6.030  11.901  1.3487  1.9868 -0.1862
  396TIP3   OH222602   5.668   2.338  12.195  0.0912  0.2528  0.5343
  396TIP3    H122603   5.615   2.320  12.118  0.3524  3.3901 -0.5358
  396TIP3    H222604   5.610   2.387  12.253  0.4420 -0.4746  1.5246
  397TIP3   OH222605   4.491   0.768  13.671  0.4312 -0.5712 -0.0487
  397TIP3    H122606   4.579   0.730  13.672 -0.1648 -2.0756  1.9355
  397TIP3    H222607   4.477   0.795  13.580  2.1180 -2.2340 -0.8588
  398TIP3   OH222608   2.741   3.981  16.077 -0.1097 -0.0343 -0.2250
  398TIP3    H122609   2.753   4.053  16.015  0.1881  2.3215  2.3685
  398TIP3    H222610   2.826   3.936  16.077 -0.3300 -0.5213 -1.9622
  399TIP3   OH222611   3.330   2.661  14.664 -0.8771  0.5294  0.1654
  399TIP3    H122612   3.277   2.608  14.723 -0.9499 -0.0279 -0.3846
  399TIP3    H222613   3.265   2.710  14.612 -0.8464  0.2439 -0.1478
  400TIP3   OH222614   5.149   4.977  16.580  0.4956  0.1710 -0.3980
  400TIP3    H122615   5.083   4.918  16.617  0.1674 -0.0728 -1.3528
  400TIP3    H222616   5.101   5.035  16.522  1.1132  0.0106 -1.0834
  401TIP3   OH222617   5.933   1.752  12.059  0.5492  0.1179 -0.3523
  401TIP3    H122618   5.931   1.747  11.963 -0.6178  0.6708 -0.3740
  401TIP3    H222619   5.860   1.697  12.088 -0.2516  1.3878  0.1267
  402TIP3   OH222620   0.815   1.463  13.287 -0.2157  0.9632  0.8488
  402TIP3    H122621   0.774   1.524  13.225 -0.5122  0.7211  0.8031
  402TIP3    H222622   0.843   1.518  13.360 -0.0091  1.2282  0.5742
  403TIP3   OH222623   3.827   2.170   6.382  0.3302  0.3116  0.4724
  403TIP3    H122624   3.832   2.126   6.467 -0.0003  0.0057  0.3334
  403TIP3    H222625   3.733   2.179   6.364  0.3538 -1.6674 -0.9032
  404TIP3   OH222626   1.245   2.435  14.987  0.1089  0.2617 -0.6739
  404TIP3    H122627   1.215   2.462  15.073 -1.2180  0.9933 -1.3285
  404TIP3    H222628   1.261   2.342  14.995 -0.0301  0.3171  0.3572
  405TIP3   OH222629   2.039   1.241   3.141  0.6440  0.6424  0.0802
  405TIP3    H122630   2.118   1.231   3.194  0.6440  2.1626  0.4261
  405TIP3    H222631   2.033   1.336   3.126 -1.3931  0.6023  0.4940
  406TIP3   OH222632   5.634   1.467   0.760  0.5736 -0.2099 -0.1731
  406TIP3    H122633   5.594   1.409   0.824 -0.0746  0.1045 -0.2783
  406TIP3    H222634   5.723   1.481   0.791  0.5566 -0.8126  0.1467
  407TIP3   OH222635   0.816   4.387   5.497 -0.0819 -0.0024 -0.0643
  407TIP3    H122636   0.899   4.381   5.544 -1.2281  1.4244  2.3355
  407TIP3    H222637   0.806   4.301   5.456  1.7419 -0.8117  1.0324
  408TIP3   OH222638   4.169   2.115  14.417 -0.2646  0.7269 -0.4454
  408TIP3    H122639   4.098   2.166  14.380  0.8341  2.2775 -0.5143
  408TIP3    H222640   4.244   2.131  14.359  0.0494 -1.2783 -0.6905
  409TIP3   OH222641   0.079   0.358  11.425 -0.6088 -0.4735  0.6235
  409TIP3    H122642   0.167   0.331  11.398 -0.0913  1.4003  0.2740
  409TIP3    H222643   0.020   0.312  11.365  0.2286 -0.5639 -0.1483
  410TIP3   OH222644   3.086   5.158   3.034  0.5243  0.4603 -0.5190
  410TIP3    H122645   3.161   5.100   3.020  0.9265  1.1409 -1.2343
  410TIP3    H222646   3.124   5.236   3.075 -0.0843  0.0392  0.8999
  411TIP3   OH222647   3.132   4.323   1.836  0.5857 -0.2334  0.2342
  411TIP3    H122648   3.102   4.261   1.903  3.2202 -0.6489  1.1213
  411TIP3    H222649   3.172   4.268   1.768  0.8836  0.3738 -0.0916
  412TIP3   OH222650   1.671   5.048   3.124  0.0976 -0.1583 -0.3227
  412TIP3    H122651   1.603   4.981   3.130 -0.2995  0.2219 -0.5322
  412TIP3    H222652   1.651   5.110   3.194 -0.4487  0.5611 -1.0993
  413TIP3   OH222653   4.061   3.517  12.718  0.7826 -0.3866 -0.3491
  413TIP3    H122654   4.118   3.532  12.643 -0.3195  1.2545 -0.9191
  413TIP3    H222655   4.011   3.599  12.727 -0.0247 -1.0104  1.3829
  414TIP3   OH222656   3.246   5.456  10.993 -0.2976  0.7328 -0.2632
  414TIP3    H122657   3.240   5.365  10.963 -1.5581 -0.5541  3.2557
  414TIP3    H222658   3.159   5.492  10.976  0.0319  1.1241 -1.1549
  415TIP3   OH222659   5.654   0.237   0.233 -0.1978 -0.4417  0.0122
  415TIP3    H122660   5.679   0.284   0.313 -1.1409 -0.6298  0.4299
  415TIP3    H222661   5.686   0.292   0.162  1.8363 -0.9178  0.5089
  416TIP3   OH222662   4.831   1.982  14.348 -0.2803  0.2068  0.2234
  416TIP3    H122663   4.769   2.006  14.417 -0.4433 -0.4174  0.2987
  416TIP3    H222664   4.850   1.890  14.364 -0.9218 -0.1697 -1.0269
  417TIP3   OH222665   5.550   3.072  13.419  0.2859  0.3661 -0.2646
  417TIP3    H122666   5.628   3.039  13.375  0.3760  1.1354 -0.7082
  417TIP3    H222667   5.506   3.126  13.353 -1.1651 -0.8444 -0.3473
  418TIP3   OH222668   6.126   4.878   5.177  0.1560  0.0125 -0.8856
  418TIP3    H122669   6.195   4.812   5.183 -0.6328 -0.7205  1.3815
  418TIP3    H222670   6.126   4.905   5.086  4.1068  0.7908 -0.8589
  419TIP3   OH222671   1.964   3.733  10.968  0.4609 -0.2965 -0.4691
  419TIP3    H122672   1.882   3.716  10.921 -0.0606  0.8140  0.0161
  419TIP3    H222673   2.027   3.673  10.928  0.6543  2.0831 -4.2143
  420TIP3   OH222674   4.576   6.060  12.876  0.1214  0.0117 -0.1235
  420TIP3    H122675   4.657   6.107  12.853 -0.1271 -0.2387 -1.5729
  420TIP3    H222676   4.605   5.988  12.932  1.1083 -0.8757 -1.7033
  421TIP3   OH222677   0.032   0.863   2.577 -0.1312  0.0793 -0.0710
  421TIP3    H122678   0.065   0.798   2.515 -0.1057 -0.6502  0.6910
  421TIP3    H222679   0.094   0.935   2.573 -0.0370 -0.0362 -0.7634
  422TIP3   OH222680   5.916   5.584   6.098 -0.9211  0.2792  0.0113
  422TIP3    H122681   6.004   5.588   6.061 -1.1221 -2.4028 -0.9758
  422TIP3    H222682   5.929   5.594   6.192  0.5049 -0.5376 -0.0731
  423TIP3   OH222683   2.369   2.878  12.008 -0.3482  0.2913 -0.3118
  423TIP3    H122684   2.305   2.856  11.940  0.1548 -1.5541 -0.2498
  423TIP3    H222685   2.326   2.854  12.090 -0.8263  2.2063  0.0352
  424TIP3   OH222686   6.289   0.826   4.864 -0.2828  0.4517  0.0349
  424TIP3    H122687   6.200   0.830   4.899 -0.2511  2.0690 -0.0201
  424TIP3    H222688   6.331   0.907   4.894  1.4001 -0.5821  0.6342
  425TIP3   OH222689   5.860   5.905  16.115  0.0387 -0.2743  0.0407
  425TIP3    H122690   5.884   5.816  16.139 -0.1554 -0.0677  1.0500
  425TIP3    H222691   5.836   5.947  16.198  0.2878  0.7652 -0.3883
  426TIP3   OH222692   0.599   1.094   2.798  0.4031  0.2020 -0.2247
  426TIP3    H122693   0.587   1.146   2.877 -0.9535  2.5196 -1.8142
  426TIP3    H222694   0.510   1.084   2.763  1.0619  0.1633 -1.9729
  427TIP3   OH222695   1.907   5.392  13.754 -0.1791 -0.1827  0.0820
  427TIP3    H122696   1.935   5.346  13.833 -2.7635 -0.8479  0.6972
  427TIP3    H222697   1.905   5.325  13.686  0.1407 -0.0498 -0.0572
  428TIP3   OH222698   5.912   4.868   1.816 -0.5497 -0.1553 -0.0042
  428TIP3    H122699   5.831   4.912   1.843 -0.6506 -0.6861  0.5980
  428TIP3    H222700   5.882   4.802   1.752 -0.2625  1.3754 -1.7974
  429TIP3   OH222701   5.323   5.637   5.056  0.1663 -0.1890 -0.2622
  429TIP3    H122702   5.277   5.708   5.100  1.2926  0.5669 -0.2762
  429TIP3    H222703   5.296   5.558   5.104  0.8084  0.5342  1.3622
  430TIP3   OH222704   2.468   2.124   5.283  0.1287  0.3245 -0.1460
  430TIP3    H122705   2.404   2.130   5.354 -0.2666 -0.9509 -0.3720
  430TIP3    H222706   2.485   2.215   5.258 -2.3818  0.6947 -0.7550
  431TIP3   OH222707   4.107   5.992   2.328  0.3723  0.0306 -0.0006
  431TIP3    H122708   4.125   6.085   2.315  0.4681  0.4249  2.3835
  431TIP3    H222709   4.187   5.957   2.367 -0.5596 -0.3673  1.6997
  432TIP3   OH222710   6.584   1.263  16.149 -0.2323 -0.2465  0.2572
  432TIP3    H122711   6.569   1.216  16.067 -0.5422  0.9542 -0.4006
  432TIP3    H222712   6.616   1.349  16.122  0.3536 -0.0781  1.4282
  433TIP3   OH222713   3.443   0.281   1.464 -0.0626 -0.4237  0.2617
  433TIP3    H122714   3.357   0.244   1.443  0.3314 -1.1505 -0.1242
  433TIP3    H222715   3.501   0.248   1.395  0.8603 -1.2328  1.3837
  434TIP3   OH222716   1.819   2.512   5.335 -0.2301  0.2165 -0.3217
  434TIP3    H122717   1.893   2.564   5.305  0.4923  0.4858  1.7618
  434TIP3    H222718   1.792   2.462   5.258  1.6335  0.6535 -1.3205
  435TIP3   OH222719   3.905   2.376   4.809 -0.4371  0.3300  0.0473
  435TIP3    H122720   3.880   2.468   4.801 -0.7462  0.3288  0.9324
  435TIP3    H222721   3.901   2.343   4.719 -1.0993  0.9763 -0.1733
  436TIP3   OH222722   3.796   3.682   1.674 -0.5011 -0.4401  0.4754
  436TIP3    H122723   3.783   3.764   1.627 -0.5764 -0.7863 -0.1283
  436TIP3    H222724   3.762   3.698   1.761 -0.7437  0.0913  0.2880
  437TIP3   OH222725   3.938   2.605  16.811 -0.0286 -0.1942  0.8334
  437TIP3    H122726   3.892   2.598  16.728 -0.8789 -0.7259  1.3225
  437TIP3    H222727   3.976   2.693  16.811 -0.8737  0.1873  0.3097
  438TIP3   OH222728   0.751   1.861  14.123  0.4998 -0.0099 -0.1387
  438TIP3    H122729   0.712   1.896  14.043  0.5545  1.0484  0.2847
  438TIP3    H222730   0.748   1.933  14.185  1.4765 -0.4682  0.4695
  439TIP3   OH222731   2.340   2.444  16.301 -0.2496 -0.3119  0.8307
  439TIP3    H122732   2.393   2.365  16.291 -0.2045 -0.1267 -0.5764
  439TIP3    H222733   2.402   2.516  16.289 -0.4709 -0.0676  1.1433
  440TIP3   OH222734   3.959   4.110   5.019  0.3920 -0.7675  0.2537
  440TIP3    H122735   3.976   4.180   5.081  1.8255 -0.4138 -0.4982
  440TIP3    H222736   3.978   4.030   5.067  0.3518 -0.5515  0.6274
  441TIP3   OH222737   4.781   0.947   0.177 -0.0133  0.7207 -0.0716
  441TIP3    H122738   4.861   0.999   0.177  1.2878 -1.1406  1.3339
  441TIP3    H222739   4.785   0.898   0.095 -0.4334  1.5990 -0.6356
  442TIP3   OH222740   0.878   2.331  12.220 -0.5101 -0.1691  0.8580
  442TIP3    H122741   0.933   2.390  12.272 -0.5380  0.0823  0.6078
  442TIP3    H222742   0.862   2.256  12.277  1.8765 -1.2732  0.1917
  443TIP3   OH222743   5.093   1.747  14.727  0.2073 -0.4297  0.5293
  443TIP3    H122744   5.042   1.703  14.795  0.6608 -0.7191  0.6860
  443TIP3    H222745   5.048   1.724  14.645 -1.3171  1.2524  0.8247
  444TIP3   OH222746   5.129   4.168   5.340  0.4394 -0.2922  0.1017
  444TIP3    H122747   5.160   4.119   5.264 -0.6686  0.0040 -0.5557
  444TIP3    H222748   5.209   4.188   5.389  1.0509 -1.5834 -0.3025
  445TIP3   OH222749   1.004   5.508   4.129 -0.1083  0.4206 -0.2322
  445TIP3    H122750   1.077   5.482   4.184  1.0005 -0.2649 -1.9251
  445TIP3    H222751   0.967   5.426   4.097 -0.8767  0.7931 -0.3302
  446TIP3   OH222752   1.202   0.760  17.124 -0.2198  0.0480  0.2563
  446TIP3    H122753   1.138   0.690  17.134 -0.5685  0.4791  1.1567
  446TIP3    H222754   1.151   0.834  17.089  0.2028 -0.2257 -0.9724
  447TIP3   OH222755   6.242   6.328   5.351 -0.0639  0.1879  0.1063
  447TIP3    H122756   6.182   6.384   5.400  0.3778  0.4751  0.3258
  447TIP3    H222757   6.188   6.254   5.322 -0.2130 -0.2847  1.5181
  448TIP3   OH222758   5.990   6.146   4.594  0.2467 -0.5121  0.4992
  448TIP3    H122759   5.903   6.184   4.606  0.1593 -0.1482 -1.0794
  448TIP3    H222760   6.028   6.145   4.682  0.4073  3.5918  0.6704
  449TIP3   OH222761   0.828   2.757  17.308 -0.1040 -0.5108 -0.0002
  449TIP3    H122762   0.798   2.706  17.233 -0.9884 -0.7044  0.4711
  449TIP3    H222763   0.846   2.844  17.272 -1.0269 -0.4509 -0.3518
  450TIP3   OH222764   2.962   1.091  14.602 -0.2197 -0.6865  0.3904
  450TIP3    H122765   3.007   1.064  14.682  0.7496 -0.9181 -0.2183
  450TIP3    H222766   2.996   1.033  14.534  1.0203  1.2549 -0.7271
  451TIP3   OH222767   4.002   6.333   3.975  0.6920 -0.0849 -0.0908
  451TIP3    H122768   4.080   6.279   3.987  0.7198 -0.1373 -0.4843
  451TIP3    H222769   4.028   6.398   3.910 -0.0165 -0.9710 -1.2998
  452TIP3   OH222770   4.849   0.183   0.171  0.0822  0.2433 -0.3510
  452TIP3    H122771   4.928   0.228   0.199  0.4715 -0.3628 -0.4455
  452TIP3    H222772   4.822   0.132   0.247  1.5848 -2.0242 -1.2188
  453TIP3   OH222773   1.876   1.465  16.540  0.3408 -0.5747  0.2468
  453TIP3    H122774   1.908   1.428  16.623  0.0774  0.1925  0.7017
  453TIP3    H222775   1.865   1.558  16.558  1.6895 -0.1229 -1.0945
  454TIP3   OH222776   5.794   4.172   0.896 -0.0626  0.0972 -0.1652
  454TIP3    H122777   5.855   4.128   0.836  0.8164 -0.3695  1.0230
  454TIP3    H222778   5.803   4.265   0.875  1.8940  0.1537  0.6753
  455TIP3   OH222779   2.834   4.734   5.634  0.0242  0.0172  0.3250
  455TIP3    H122780   2.861   4.682   5.709 -0.0836  1.9663  1.8074
  455TIP3    H222781   2.915   4.749   5.585  0.2530 -0.5800  0.5113
  456TIP3   OH222782   1.189   1.958  12.196 -0.7186  0.2075  0.0295
  456TIP3    H122783   1.219   1.933  12.283  1.6356  0.6395 -0.5801
  456TIP3    H222784   1.166   2.050  12.204 -0.0574  0.3698  0.1071
  457TIP3   OH222785   2.749   5.735   0.210 -0.2067  0.1539  0.1689
  457TIP3    H122786   2.841   5.747   0.186 -0.1332  0.8454  0.7491
  457TIP3    H222787   2.741   5.641   0.227  0.3289  0.0441 -0.1487
  458TIP3   OH222788   4.045   4.366   3.266  0.0857 -0.0449 -0.0535
  458TIP3    H122789   3.968   4.423   3.268  0.3134  0.3007 -0.9029
  458TIP3    H222790   4.022   4.293   3.323 -2.4995 -1.9908 -3.2113
  459TIP3   OH222791   3.838   6.192  16.848  0.2898  0.3580  0.0910
  459TIP3    H122792   3.830   6.233  16.935 -0.1647  1.5558 -0.4903
  459TIP3    H222793   3.774   6.239  16.794  1.0374  0.0767 -1.0641
  460TIP3   OH222794   2.451   1.347   5.655 -0.2782  0.4788  0.1748
  460TIP3    H122795   2.422   1.314   5.740 -0.4064  0.8564  0.2825
  460TIP3    H222796   2.391   1.307   5.592 -0.0261  0.0040  0.2384
  461TIP3   OH222797   0.754   3.165  13.885 -0.2566  0.1753  0.4153
  461TIP3    H122798   0.747   3.242  13.828 -0.5296  1.0710  1.6204
  461TIP3    H222799   0.683   3.176  13.948 -0.6778 -1.3906  0.2484
  462TIP3   OH222800   1.651   3.606  17.128 -0.2425 -0.5271  0.6145
  462TIP3    H122801   1.711   3.532  17.116  0.1496  0.2302 -3.3149
  462TIP3    H222802   1.564   3.567  17.123 -0.0365 -0.9084 -0.1969
  463TIP3   OH222803   5.434   1.454  12.399 -0.1140 -0.4445  0.0159
  463TIP3    H122804   5.366   1.421  12.458  0.9125  0.0758  1.5831
  463TIP3    H222805   5.488   1.378  12.379 -0.8504 -0.7579 -0.8194
  464TIP3   OH222806   5.764   3.572   0.491  0.1500  0.0612 -0.1874
  464TIP3    H122807   5.758   3.505   0.423  0.0802 -0.6170  0.4708
  464TIP3    H222808   5.697   3.636   0.467  1.8730  1.2333 -2.2142
  465TIP3   OH222809   1.360   0.447  15.130 -0.1690 -0.0410  0.2493
  465TIP3    H122810   1.375   0.476  15.220 -1.4275 -0.4698  0.6164
  465TIP3    H222811   1.436   0.391  15.111  0.7247  1.0118  0.5969
  466TIP3   OH222812   3.553   2.382  15.742  0.2398 -0.5769 -0.0747
  466TIP3    H122813   3.590   2.466  15.713 -0.9772  0.1695  0.4396
  466TIP3    H222814   3.517   2.343  15.662 -1.3929  0.5782  0.0393
  467TIP3   OH222815   6.669   0.920   5.227  0.6900 -0.0315 -0.5894
  467TIP3    H122816   6.600   0.870   5.271  1.0278 -1.1768 -1.3260
  467TIP3    H222817   6.708   0.974   5.296  1.2413 -1.8216  0.5567
  468TIP3   OH222818   0.961   1.224   0.374 -0.4123  0.4717 -0.3098
  468TIP3    H122819   0.880   1.174   0.385 -0.0609 -0.0039  0.1851
  468TIP3    H222820   1.010   1.208   0.455  0.4019  0.3261 -0.8202
  469TIP3   OH222821   3.426   3.745  15.163 -0.4194  0.5406  0.3403
  469TIP3    H122822   3.456   3.687  15.093 -4.3271  0.3570 -1.4456
  469TIP3    H222823   3.505   3.765  15.213  1.8343 -2.9324 -1.4122
  470TIP3   OH222824   0.255   0.028  15.434 -0.3008  0.1107  0.7896
  470TIP3    H122825   0.222   0.118  15.435 -0.2806  0.1179  0.8180
  470TIP3    H222826   0.300   0.018  15.517  0.5485  0.3978  0.3777
  471TIP3   OH222827   1.668   5.486  16.645 -0.0760  0.7391 -0.1917
  471TIP3    H122828   1.692   5.398  16.674 -1.5238 -0.2170 -1.6766
  471TIP3    H222829   1.725   5.503  16.570 -0.0496  0.9016 -0.1350
  472TIP3   OH222830   4.060   6.007   3.235 -0.1979 -0.3355 -0.3516
  472TIP3    H122831   4.076   5.915   3.214 -2.6772 -1.3079  1.4799
  472TIP3    H222832   4.014   6.042   3.158  0.0301 -0.8406 -0.7229
  473TIP3   OH222833   0.759   0.941   4.832  0.1117  0.3720 -0.0112
  473TIP3    H122834   0.680   0.927   4.779  0.9371 -0.6322 -1.0008
  473TIP3    H222835   0.728   0.932   4.922 -0.7989 -0.6335 -0.4027
  474TIP3   OH222836   6.382   1.242  15.199  0.0720 -0.2569  0.1128
  474TIP3    H122837   6.374   1.161  15.149  1.5680  0.3438 -1.1976
  474TIP3    H222838   6.346   1.309  15.141 -0.7460  0.0998  1.0053
  475TIP3   OH222839   2.643   0.662   2.364  0.6493 -0.1071  0.0329
  475TIP3    H122840   2.674   0.710   2.287 -0.7362  0.0435 -0.4639
  475TIP3    H222841   2.640   0.728   2.433 -0.8279  0.4559 -0.5371
  476TIP3   OH222842   2.041   4.741   5.970  0.5346 -0.1988 -0.0037
  476TIP3    H122843   2.010   4.819   5.925  0.3816 -0.0677  0.3223
  476TIP3    H222844   2.113   4.772   6.026  1.6687 -0.5959 -1.1827
  477TIP3   OH222845   4.175   3.852   2.399 -0.0688 -0.2724  0.3829
  477TIP3    H122846   4.091   3.882   2.366 -0.2512  0.1498  1.2069
  477TIP3    H222847   4.217   3.931   2.432  0.6684 -0.4765 -0.0363
  478TIP3   OH222848   2.256   3.418  13.965 -0.1820  0.3182  0.1794
  478TIP3    H122849   2.288   3.428  14.055  1.1014 -2.0077  0.0576
  478TIP3    H222850   2.182   3.359  13.972 -1.1644  1.4598 -0.1614
  479TIP3   OH222851   2.524   0.412  15.381 -0.1870 -0.0236  0.4575
  479TIP3    H122852   2.607   0.365  15.385 -0.1348 -0.1032 -1.0695
  479TIP3    H222853   2.458   0.347  15.405  0.1726  0.0687  1.7803
  480TIP3   OH222854   1.362   5.414  14.819  0.0095  0.2766  0.2654
  480TIP3    H122855   1.429   5.399  14.885  1.0420  0.5728 -0.6850
  480TIP3    H222856   1.372   5.342  14.757 -1.9968 -0.8983  1.2082
  481TIP3   OH222857   3.062   6.024   5.620  0.0084  0.2344 -0.1962
  481TIP3    H122858   3.147   6.028   5.577  0.8310 -1.0861  1.2100
  481TIP3    H222859   3.023   5.942   5.589  0.1900 -0.2367  0.7877
  482TIP3   OH222860   3.200   0.202  11.965  0.0970 -0.2913 -0.5051
  482TIP3    H122861   3.161   0.179  12.049  1.3553 -0.9850 -0.0844
  482TIP3    H222862   3.294   0.209  11.983  0.2977  0.3795 -1.6800
  483TIP3   OH222863   5.901   4.894  15.905  0.1241  0.2156 -0.7634
  483TIP3    H122864   5.845   4.969  15.886 -1.1396 -0.0044  1.6784
  483TIP3    H222865   5.858   4.820  15.862 -0.2829  0.4019 -0.6817
  484TIP3   OH222866   0.361   2.827   1.682 -0.1312 -0.0051  0.7853
  484TIP3    H122867   0.405   2.902   1.721  0.5667 -0.1510  0.2865
  484TIP3    H222868   0.301   2.865   1.617  2.0549  0.0563 -1.3222
  485TIP3   OH222869   4.672   3.308  14.348  0.8291  0.8240  0.4109
  485TIP3    H122870   4.693   3.312  14.255  1.7228 -0.2667  0.5416
  485TIP3    H222871   4.679   3.399  14.378 -0.8497  1.4212 -0.8404
  486TIP3   OH222872   3.973   5.417   3.795  0.3343  0.1092  0.6731
  486TIP3    H122873   3.891   5.454   3.763 -0.8261 -1.5626  1.5606
  486TIP3    H222874   3.996   5.473   3.870 -0.1342  0.4439  0.5732
  487TIP3   OH222875   3.232   5.523   1.594 -0.2261 -0.1109  0.0939
  487TIP3    H122876   3.185   5.600   1.625  1.0162  1.2554 -1.2828
  487TIP3    H222877   3.164   5.466   1.559 -1.0574  0.8973  0.0270
  488TIP3   OH222878   0.603   2.587  15.602 -0.3048 -0.7198 -0.0303
  488TIP3    H122879   0.528   2.627  15.557  1.4271  2.2527 -0.4800
  488TIP3    H222880   0.568   2.562  15.688 -1.6964  1.1880  0.0196
  489TIP3   OH222881   2.105   5.306  12.634  0.0585  0.3335  0.4443
  489TIP3    H122882   2.122   5.309  12.728 -0.5957  1.7363  0.5351
  489TIP3    H222883   2.117   5.214  12.611 -2.2996 -0.5398  2.3573
  490TIP3   OH222884   0.595   4.426  15.259 -0.2797 -0.2088 -0.2106
  490TIP3    H122885   0.680   4.388  15.237  0.6565  1.6266  0.0031
  490TIP3    H222886   0.609   4.521  15.251 -1.8785  0.1990  1.3219
  491TIP3   OH222887   3.689   3.504   4.413  0.0756  0.4105  0.3683
  491TIP3    H122888   3.767   3.531   4.461 -0.5305 -0.4317  1.9368
  491TIP3    H222889   3.657   3.427   4.462  0.2317 -1.4622 -2.2819
  492TIP3   OH222890   5.390   4.510  11.607 -0.3034  0.1275  0.8194
  492TIP3    H122891   5.401   4.421  11.642 -0.1617 -0.1228  0.1573
  492TIP3    H222892   5.371   4.496  11.514  0.6417  0.8229  0.5089
  493TIP3   OH222893   0.932   6.431  15.530 -0.4453 -0.6805  0.0319
  493TIP3    H122894   0.867   6.484  15.484 -0.8106  0.2765  1.5788
  493TIP3    H222895   1.016   6.460  15.495 -0.6924  0.3791  0.2679
  494TIP3   OH222896   4.367   3.333  10.821  0.0984  0.3280 -0.5609
  494TIP3    H122897   4.408   3.391  10.758  0.5920 -0.0429 -0.5889
  494TIP3    H222898   4.274   3.358  10.820  0.0397  0.1277 -1.6541
  495TIP3   OH222899   4.638   3.603  13.019  0.3623 -0.7093  0.0897
  495TIP3    H122900   4.635   3.646  13.105  2.0094 -0.4725  0.0771
  495TIP3    H222901   4.559   3.632  12.975 -1.0534 -1.6455  1.8780
  496TIP3   OH222902   1.429   3.599  11.632  0.1571  0.1660 -0.5915
  496TIP3    H122903   1.372   3.634  11.564 -0.3551 -1.1364 -0.8566
  496TIP3    H222904   1.385   3.520  11.662  1.6224 -0.6571 -0.5272
  497TIP3   OH222905   5.134   1.562   3.367  0.1410  0.0127  0.4640
  497TIP3    H122906   5.069   1.629   3.345 -0.0362 -0.2146  0.2940
  497TIP3    H222907   5.218   1.603   3.346  0.1255  0.6298  1.4809
  498TIP3   OH222908   5.741   1.390   4.962  0.2641 -0.4997 -0.4166
  498TIP3    H122909   5.750   1.425   4.874 -0.2104  0.3040 -0.1495
  498TIP3    H222910   5.656   1.422   4.993  0.1999 -1.1778  0.1560
  499TIP3   OH222911   4.904   4.348   3.365 -0.1345 -0.2021  0.8763
  499TIP3    H122912   4.818   4.360   3.406 -0.7191  1.4766 -0.7025
  499TIP3    H222913   4.908   4.415   3.297  0.7462 -2.8006 -1.8497
  500TIP3   OH222914   2.561   6.365  14.519 -0.4774  0.0274  0.1682
  500TIP3    H122915   2.582   6.278  14.487 -0.3578  0.8852 -2.3105
  500TIP3    H222916   2.505   6.350  14.595 -1.5194 -2.2023 -0.9568
  501TIP3   OH222917   2.310   6.225   5.648  0.2963 -0.3210  0.4186
  501TIP3    H122918   2.330   6.256   5.560  2.2199 -0.3416  0.8127
  501TIP3    H222919   2.388   6.246   5.699 -1.2306  0.8086  2.4383
  502TIP3   OH222920   1.038   5.892   4.549 -0.6869 -0.1379 -0.5450
  502TIP3    H122921   1.121   5.916   4.591 -0.3779  1.1318 -1.8106
  502TIP3    H222922   0.972   5.939   4.600 -0.3294  1.2494 -1.2982
  503TIP3   OH222923   0.539   3.456  12.178 -0.2546 -0.2672 -0.0667
  503TIP3    H122924   0.565   3.545  12.154 -1.3464 -0.3626 -1.7798
  503TIP3    H222925   0.578   3.401  12.111 -1.8049 -0.7679 -0.6115
  504TIP3   OH222926   2.787   3.668  13.912 -0.6440 -0.3776 -0.4921
  504TIP3    H122927   2.719   3.676  13.845  1.2194 -0.1346 -2.4744
  504TIP3    H222928   2.859   3.721  13.878  0.6791 -0.9343  1.3395
  505TIP3   OH222929   0.161   2.476  14.894  0.1122  0.3684 -0.3014
  505TIP3    H122930   0.205   2.559  14.876 -0.0499  0.0797 -2.3112
  505TIP3    H222931   0.097   2.496  14.961  0.2552  1.8169 -0.5733
  506TIP3   OH222932   3.131   6.108  10.856 -0.6865  0.3287  1.3334
  506TIP3    H122933   3.054   6.052  10.845 -0.4043  0.3329 -1.4118
  506TIP3    H222934   3.152   6.138  10.767  2.3881  0.4497  1.9849
  507TIP3   OH222935   5.184   4.766   2.820 -0.0075  0.0302  0.0016
  507TIP3    H122936   5.122   4.696   2.798  0.9791 -0.4183 -1.5823
  507TIP3    H222937   5.255   4.755   2.756  1.1578  1.2226  1.0321
  508TIP3   OH222938   1.487   0.553   2.470  0.4726  0.1817  0.3734
  508TIP3    H122939   1.578   0.541   2.443  0.5652 -0.7114  1.0345
  508TIP3    H222940   1.469   0.480   2.530 -0.2856  1.0561  1.2601
  509TIP3   OH222941   4.815   6.635   3.805  0.4974 -0.0151  0.4025
  509TIP3    H122942   4.817   6.604   3.715  0.1678 -0.4662  0.5420
  509TIP3    H222943   4.846   6.725   3.801 -1.4161  0.6562 -0.4554
  510TIP3   OH222944   6.574   5.887  11.725 -0.1430  0.4823  0.3667
  510TIP3    H122945   6.645   5.934  11.769  1.1158 -0.8595 -0.1269
  510TIP3    H222946   6.552   5.816  11.786 -1.3399  1.0950  0.6746
  511TIP3   OH222947   6.052   0.854   5.008 -0.2173 -0.2000  0.3584
  511TIP3    H122948   6.031   0.947   5.004  0.1549 -0.0381  1.6632
  511TIP3    H222949   6.074   0.838   5.100 -1.7780 -1.9087  0.4905
  512TIP3   OH222950   5.089   1.217   4.642  0.4781  0.0278  0.6330
  512TIP3    H122951   5.046   1.200   4.559  0.9991 -0.4551  0.4545
  512TIP3    H222952   5.099   1.313   4.645  0.1295  0.0762  0.3150
  513TIP3   OH222953   5.829   2.096  17.161  0.2358  0.2382 -0.6714
  513TIP3    H122954   5.855   2.159  17.228  3.5592 -0.7542 -0.8426
  513TIP3    H222955   5.834   2.145  17.079 -0.2127  0.5308 -0.5239
  514TIP3   OH222956   1.367   2.455   2.640 -0.6428  0.2886 -0.2558
  514TIP3    H122957   1.418   2.533   2.617 -1.0322  0.3382 -0.9866
  514TIP3    H222958   1.332   2.424   2.556 -1.6446  0.1372  0.2055
  515TIP3   OH222959   1.317   3.800   1.129  0.2197  0.1224  0.1709
  515TIP3    H122960   1.386   3.852   1.171 -1.5017  3.0503 -0.3160
  515TIP3    H222961   1.337   3.806   1.035 -0.3008  0.4239  0.0761
  516TIP3   OH222962   0.143   6.237   2.973 -0.6404  0.3191  0.3645
  516TIP3    H122963   0.150   6.189   3.055 -1.5628  1.0944  0.9126
  516TIP3    H222964   0.049   6.238   2.953 -0.6036  1.4808  0.1389
  517TIP3   OH222965   0.402   1.103   6.444  0.2686  0.0256 -0.0776
  517TIP3    H122966   0.408   1.015   6.481  0.2832 -0.7702 -1.8308
  517TIP3    H222967   0.487   1.117   6.402  0.3789  1.0276  0.4582
  518TIP3   OH222968   4.348   3.584  12.037  0.3927  0.2657 -0.1996
  518TIP3    H122969   4.257   3.559  12.051  0.3887 -1.1274 -2.2614
  518TIP3    H222970   4.349   3.679  12.050 -0.8276  0.0614  2.0743
  519TIP3   OH222971   0.144   3.751  12.126 -0.0937  0.5997  0.0653
  519TIP3    H122972   0.218   3.730  12.069 -0.4508  0.7375 -0.4581
  519TIP3    H222973   0.124   3.670  12.172 -0.3754  0.2404 -0.6755
  520TIP3   OH222974   1.419   4.272   3.799  0.1886  0.2010 -0.2330
  520TIP3    H122975   1.449   4.256   3.888  1.8595 -2.3652 -1.1380
  520TIP3    H222976   1.351   4.206   3.784  1.5014 -0.9408 -1.5098
  521TIP3   OH222977   4.270   2.541   1.540  0.4301  0.0749  0.2387
  521TIP3    H122978   4.229   2.460   1.572  3.2011 -0.6796  2.3172
  521TIP3    H222979   4.301   2.519   1.452  0.1398 -0.7529  0.3318
  522TIP3   OH222980   1.752   5.635   2.368 -0.0840 -0.4290 -0.4068
  522TIP3    H122981   1.680   5.694   2.389  1.0968  0.4171  1.5281
  522TIP3    H222982   1.713   5.570   2.309 -2.0189  0.8605 -0.6583
  523TIP3   OH222983   5.213   2.847   3.996 -0.6749  0.4599  0.2088
  523TIP3    H122984   5.249   2.857   3.908 -0.4086  0.5916  0.3306
  523TIP3    H222985   5.280   2.885   4.053 -0.3689 -0.5663  0.5555
  524TIP3   OH222986   1.301   5.016  14.515  0.0893  0.3638 -0.0054
  524TIP3    H122987   1.338   4.940  14.471 -1.3816  0.2388 -1.1138
  524TIP3    H222988   1.327   5.090  14.460 -0.5067  0.3670 -0.3012
  525TIP3   OH222989   1.740   5.530   5.126  0.4075 -0.1730 -0.5187
  525TIP3    H122990   1.767   5.475   5.200  1.0198 -0.0034 -0.6071
  525TIP3    H222991   1.801   5.507   5.057 -0.1777 -0.3452 -0.9870
  526TIP3   OH222992   0.885   3.219  15.252 -0.8385 -0.0574  0.4828
  526TIP3    H122993   0.871   3.154  15.321 -1.7405  0.4215  0.7765
  526TIP3    H222994   0.809   3.277  15.260 -0.3707  0.6505 -0.1931
  527TIP3   OH222995   0.605   1.768   0.201 -0.3405 -0.2724 -0.1418
  527TIP3    H122996   0.671   1.719   0.151 -1.1169 -1.1425 -0.3359
  527TIP3    H222997   0.614   1.858   0.170  1.1092 -0.2769  0.2211
  528TIP3   OH222998   6.189   4.831   5.519  0.2281  0.1219 -0.0743
  528TIP3    H122999   6.193   4.808   5.427 -0.2372 -0.5838  0.0759
  528TIP3    H223000   6.238   4.761   5.563 -0.5183 -0.1631  0.3163
  529TIP3   OH223001   3.714   1.299   6.644  0.1798  0.6446 -0.5171
  529TIP3    H123002   3.698   1.294   6.739  1.2788 -1.7504 -0.3743
  529TIP3    H223003   3.680   1.216   6.610 -0.2762  1.5058 -2.2630
  530TIP3   OH223004   2.618   0.559   1.089  0.0419  0.3088  0.1233
  530TIP3    H123005   2.640   0.628   1.027  1.0804 -1.1343 -1.2160
  530TIP3    H223006   2.656   0.587   1.172 -0.7049  1.9236 -0.0512
  531TIP3   OH223007   3.051   1.314   0.545  0.3722 -0.2417 -0.3409
  531TIP3    H123008   3.079   1.388   0.491 -2.1447 -1.4442 -3.6301
  531TIP3    H223009   3.117   1.247   0.530 -0.1439 -0.4540 -1.7906
  532TIP3   OH223010   2.319   6.000   4.454 -0.8401  0.1864  0.1104
  532TIP3    H123011   2.252   5.964   4.396 -0.0630 -0.2285 -0.5489
  532TIP3    H223012   2.392   6.022   4.396  0.2847 -1.0037  1.0267
  533TIP3   OH223013   0.254   5.597   5.343  0.5922  0.0452  0.0930
  533TIP3    H123014   0.174   5.556   5.308  0.6829 -0.7719  0.8028
  533TIP3    H223015   0.231   5.689   5.353  0.5380  0.3090 -2.0104
  534TIP3   OH223016   4.154   3.856   0.939  0.4261 -0.1597  0.0408
  534TIP3    H123017   4.222   3.915   0.970 -0.7644  0.9074  0.6870
  534TIP3    H223018   4.195   3.769   0.942  1.3328  0.2908  1.6962
  535TIP3   OH223019   4.870   4.647  15.819 -0.1369 -0.3917  0.1834
  535TIP3    H123020   4.849   4.647  15.912 -0.4208 -0.9142  0.1250
  535TIP3    H223021   4.952   4.695  15.813 -0.4922  0.2741  0.6109
  536TIP3   OH223022   2.587   0.887  13.737 -0.0657  0.9524 -0.0414
  536TIP3    H123023   2.621   0.818  13.794  1.1992  0.8759 -0.8464
  536TIP3    H223024   2.525   0.842  13.680  1.4989  0.1931 -1.2546
  537TIP3   OH223025   2.210   4.001  11.756  0.4892  0.0689  0.5525
  537TIP3    H123026   2.292   3.990  11.709 -0.4511 -1.1511 -0.8867
  537TIP3    H223027   2.224   4.078  11.812  2.3087  0.3727 -0.2689
  538TIP3   OH223028   6.610   1.057  14.005 -0.6071  0.4946 -0.1766
  538TIP3    H123029   6.539   1.106  14.048 -2.4055 -2.1477  0.1196
  538TIP3    H223030   6.641   0.996  14.072 -0.6582 -0.9206 -1.3817
  539TIP3   OH223031   3.769   5.715  14.032 -0.6319 -0.0495 -0.1712
  539TIP3    H123032   3.779   5.782  14.099  0.7551 -1.3508  0.9787
  539TIP3    H223033   3.801   5.635  14.073  0.1241 -0.9192 -2.3299
  540TIP3   OH223034   3.559   1.882  16.859 -0.2889  0.2506 -0.1002
  540TIP3    H123035   3.526   1.792  16.862 -0.7114  0.3737 -0.8085
  540TIP3    H223036   3.502   1.926  16.796 -1.3647  1.5387  1.6901
  541TIP3   OH223037   5.117   0.547   5.536 -0.2405 -0.0542  0.0504
  541TIP3    H123038   5.103   0.533   5.442  0.1075 -0.4634  0.0586
  541TIP3    H223039   5.159   0.467   5.566 -0.2198  0.1350  0.5307
  542TIP3   OH223040   0.969   0.526  12.660  0.5869 -0.2385  0.0603
  542TIP3    H123041   0.890   0.491  12.617 -0.6472 -1.1253  2.8529
  542TIP3    H223042   1.041   0.479  12.619 -0.4129 -0.4958 -1.5346
  543TIP3   OH223043   2.319   5.450  17.267  0.3054  0.2008  0.1442
  543TIP3    H123044   2.294   5.530  17.314 -2.0242 -0.0335 -0.5603
  543TIP3    H223045   2.256   5.385  17.298 -0.2668 -0.3609 -2.0774
  544TIP3   OH223046   0.341   6.347  11.326  0.0774  0.2684 -0.2629
  544TIP3    H123047   0.316   6.317  11.238 -0.9258 -0.1658  0.1494
  544TIP3    H223048   0.423   6.302  11.344  0.1535  0.1514 -0.8650
  545TIP3   OH223049   2.288   1.314   4.178 -0.1616  0.3049 -0.5818
  545TIP3    H123050   2.311   1.297   4.087  1.9239  0.0366 -0.0469
  545TIP3    H223051   2.365   1.289   4.228 -2.0737 -1.9248  1.5383
  546TIP3   OH223052   1.179   3.370  11.068  0.0690  0.6594  0.3062
  546TIP3    H123053   1.117   3.401  11.135 -0.1184  0.0380  0.4219
  546TIP3    H223054   1.188   3.445  11.009  0.6924  1.4355  1.3437
  547TIP3   OH223055   1.639   3.038   3.386  0.9571 -0.0389  0.0231
  547TIP3    H123056   1.652   3.132   3.388 -1.6662  0.3949  0.2177
  547TIP3    H223057   1.588   3.019   3.465  1.8027 -1.7038  0.2129
  548TIP3   OH223058   2.987   0.959  14.870  0.8917 -0.4931  0.0869
  548TIP3    H123059   2.914   0.925  14.922 -0.3885 -0.2044 -1.4455
  548TIP3    H223060   3.008   0.889  14.808  1.5056 -0.3307  0.0987
  549TIP3   OH223061   2.868   0.534   4.255  0.2982 -0.2690 -0.0444
  549TIP3    H123062   2.817   0.464   4.297 -1.7179  1.2920  0.2920
  549TIP3    H223063   2.871   0.509   4.163 -0.5616 -0.7188  0.0338
  550TIP3   OH223064   6.221   4.079   0.497 -0.5885 -0.4787 -0.4399
  550TIP3    H123065   6.130   4.062   0.471 -1.2941  0.1652  1.4216
  550TIP3    H223066   6.255   3.993   0.521 -2.2672 -0.3129  3.2925
  551TIP3   OH223067   3.064   6.469  12.371 -0.1869 -0.1683 -0.3475
  551TIP3    H123068   3.056   6.399  12.306  2.3564 -1.6666  0.7601
  551TIP3    H223069   3.045   6.426  12.455 -0.4396  0.9633  0.1965
  552TIP3   OH223070   1.120   1.796  16.243 -0.0820  0.2511  0.5540
  552TIP3    H123071   1.195   1.827  16.294 -1.1781  0.7333  1.9166
  552TIP3    H223072   1.077   1.732  16.299 -1.5382  1.0808  0.4441
  553TIP3   OH223073   3.908   2.503   2.147 -0.1686 -0.2635 -0.0990
  553TIP3    H123074   3.832   2.451   2.173 -1.3899  1.9384  1.1120
  553TIP3    H223075   3.984   2.451   2.172 -1.3160 -0.9634  2.1806
  554TIP3   OH223076   2.988   6.248  12.534  0.1694 -0.1635 -0.7198
  554TIP3    H123077   2.901   6.286  12.531 -0.0774 -0.7129 -0.5481
  554TIP3    H223078   3.025   6.278  12.617  0.6103  1.0645 -1.3314
  555TIP3   OH223079   2.751   5.782   1.303 -0.3539  0.2882  0.2845
  555TIP3    H123080   2.843   5.802   1.283 -0.1399 -0.3107  0.6561
  555TIP3    H223081   2.706   5.787   1.218 -0.0254  0.8189  0.1377
  556TIP3   OH223082   1.751   6.541  15.000  0.7024  0.0021  0.4882
  556TIP3    H123083   1.772   6.634  14.998 -2.3544  0.8048  0.1339
  556TIP3    H223084   1.718   6.525  15.089  1.9618 -0.9792  0.8089
  557TIP3   OH223085   2.437   0.967   5.950  0.0440 -0.5899 -0.1890
  557TIP3    H123086   2.515   0.930   5.908 -0.2855 -1.9998  0.4062
  557TIP3    H223087   2.401   0.896   6.002 -1.1042  0.3327  0.3276
  558TIP3   OH223088   4.786   5.558   5.479 -0.2636 -0.2365 -0.0759
  558TIP3    H123089   4.732   5.511   5.543 -0.1177  0.2930  0.4474
  558TIP3    H223090   4.849   5.492   5.448 -1.1275 -0.8329 -0.6166
  559TIP3   OH223091   3.369   2.798   5.759  0.2295 -0.2469  0.1418
  559TIP3    H123092   3.450   2.810   5.709  0.6844 -2.1900  0.3155
  559TIP3    H223093   3.380   2.853   5.836 -0.5646  2.9500 -1.8604
  560TIP3   OH223094   4.131   5.527   3.591 -0.1746  0.4379 -0.2692
  560TIP3    H123095   4.120   5.437   3.624  1.5431  0.6614  1.0507
  560TIP3    H223096   4.086   5.582   3.655 -2.5339  0.4846 -1.8620
  561TIP3   OH223097   5.273   3.565  11.663 -0.5056 -0.0008 -0.4367
  561TIP3    H123098   5.258   3.626  11.590  1.0684  0.0354 -0.7799
  561TIP3    H223099   5.186   3.547  11.698 -1.1256  1.4477 -1.1383
  562TIP3   OH223100   3.316   2.484  11.637 -0.4395  0.3849 -0.3369
  562TIP3    H123101   3.323   2.461  11.730 -0.1505 -1.6427 -0.8164
  562TIP3    H223102   3.346   2.575  11.632  0.4883  0.2060  1.4043
  563TIP3   OH223103   6.713   3.036  13.082 -0.4083  0.1020  0.7214
  563TIP3    H123104   6.641   3.074  13.031  1.0695  2.3440  0.1987
  563TIP3    H223105   6.773   3.108  13.097  3.2140 -2.1929 -1.3151
  564TIP3   OH223106   4.447   2.302  15.999  0.4636 -0.3236 -0.3446
  564TIP3    H123107   4.519   2.240  16.006  2.6051  2.1564  1.6082
  564TIP3    H223108   4.483   2.375  15.948  0.2548  1.9200  2.4236
  565TIP3   OH223109   6.284   3.490   1.717 -0.2054  0.1562  0.2882
  565TIP3    H123110   6.362   3.493   1.661 -0.6236 -0.6007 -0.3550
  565TIP3    H223111   6.212   3.513   1.659 -0.7973 -1.7611  0.2006
  566TIP3   OH223112   0.178   5.066  13.117  0.0944  0.4387  0.0835
  566TIP3    H123113   0.202   5.150  13.157  0.8190  0.1200  0.3480
  566TIP3    H223114   0.143   5.014  13.190 -0.0716  0.4090 -0.0176
  567TIP3   OH223115   6.498   3.727   2.692  0.5797  0.2376 -0.1754
  567TIP3    H123116   6.537   3.684   2.769 -0.4863 -2.1372 -0.8649
  567TIP3    H223117   6.573   3.757   2.641  1.5263 -1.9980 -0.2484
  568TIP3   OH223118   1.302   3.143   5.431 -0.0776  0.3291 -0.0582
  568TIP3    H123119   1.374   3.158   5.371 -0.1709 -1.0119 -0.5558
  568TIP3    H223120   1.248   3.221   5.425  0.4332  0.6185 -0.9855
  569TIP3   OH223121   3.111   5.417   0.218  0.2540 -0.2734 -0.5100
  569TIP3    H123122   3.107   5.434   0.312  1.4800  1.2602 -0.7040
  569TIP3    H223123   3.051   5.342   0.205 -2.5621  1.5284  0.9800
  570TIP3   OH223124   5.013   2.179   0.620 -0.0326  0.3049 -0.3346
  570TIP3    H123125   5.075   2.110   0.598  0.8282  0.8332  0.3622
  570TIP3    H223126   4.975   2.152   0.704 -2.1929 -0.9609 -1.6254
  571TIP3   OH223127   6.190   5.502  14.338 -0.2165  0.4256  0.7427
  571TIP3    H123128   6.101   5.534  14.320 -0.7485 -1.1747  0.3701
  571TIP3    H223129   6.183   5.407  14.333  1.6636  0.2775  0.0442
  572TIP3   OH223130   4.170   5.206   0.564  0.5275 -0.3567 -0.1796
  572TIP3    H123131   4.191   5.243   0.650  2.1580  1.0103 -1.1013
  572TIP3    H223132   4.215   5.121   0.563  0.2151 -0.5340  0.4410
  573TIP3   OH223133   1.263   5.164   2.719 -0.2653  0.0841  0.2355
  573TIP3    H123134   1.245   5.233   2.654 -2.0270  1.3233  1.8949
  573TIP3    H223135   1.348   5.129   2.694  0.9176  3.1374 -0.5122
  574TIP3   OH223136   0.775   5.784  12.137  0.2727  0.8283 -0.4156
  574TIP3    H123137   0.744   5.782  12.228 -0.8976  0.8935 -0.7928
  574TIP3    H223138   0.806   5.695  12.120 -2.4780 -0.1336 -0.9017
  575TIP3   OH223139   0.587   3.694   3.310  0.0025  0.2290  0.1692
  575TIP3    H123140   0.641   3.699   3.231 -3.3219  2.1588 -2.2378
  575TIP3    H223141   0.630   3.752   3.372  1.7091  0.1536 -0.8779
  576TIP3   OH223142   4.621   2.868   1.291 -0.3538 -0.5924  0.4663
  576TIP3    H123143   4.640   2.961   1.293  0.1694 -0.6829  0.0504
  576TIP3    H223144   4.532   2.862   1.256 -1.5887 -0.1181  3.2053
  577TIP3   OH223145   4.219   5.942  15.177  0.4842 -0.1590 -0.8253
  577TIP3    H123146   4.280   5.920  15.248 -0.1460 -2.0961 -0.8288
  577TIP3    H223147   4.144   5.982  15.221  0.6074 -0.2564 -0.5243
  578TIP3   OH223148   1.665   0.764  15.171 -0.1702  0.0834 -0.3734
  578TIP3    H123149   1.753   0.803  15.169  0.7509 -1.6490  1.8333
  578TIP3    H223150   1.672   0.684  15.119  0.1652 -1.0372  1.3096
  579TIP3   OH223151   1.816   5.732  16.723 -0.1229  0.3884 -0.3373
  579TIP3    H123152   1.752   5.684  16.672 -0.9683  0.1038  0.9315
  579TIP3    H223153   1.855   5.667  16.781 -0.5372  1.0101  0.6734
  580TIP3   OH223154   3.123   0.084  14.300  0.0687  0.3776  0.1558
  580TIP3    H123155   3.065   0.059  14.372  0.6248 -1.1934  0.1151
  580TIP3    H223156   3.065   0.093  14.225 -0.0878 -2.8309 -0.2843
  581TIP3   OH223157   1.216   3.976   2.443  0.3403 -0.4896  0.0221
  581TIP3    H123158   1.277   3.913   2.405 -0.1615 -0.4674 -0.8311
  581TIP3    H223159   1.193   4.034   2.371 -1.4030 -1.0563  0.0810
  582TIP3   OH223160   0.934   6.556   4.630 -0.7940  0.1023 -0.3135
  582TIP3    H123161   0.842   6.532   4.630 -0.2391 -2.2212 -0.3582
  582TIP3    H223162   0.957   6.562   4.537 -1.0299  1.4328 -0.3146
  583TIP3   OH223163   3.875   1.712  11.360  0.6162 -0.1206 -0.4176
  583TIP3    H123164   3.818   1.785  11.385  1.6581  0.3220  0.7812
  583TIP3    H223165   3.869   1.650  11.433  0.6104 -0.7141 -0.9112
  584TIP3   OH223166   3.408   2.167  11.645 -0.0499 -0.0221  0.0296
  584TIP3    H123167   3.458   2.152  11.565 -2.6037 -0.3391 -1.6375
  584TIP3    H223168   3.393   2.262  11.646  0.4941  0.0662  0.5005
  585TIP3   OH223169   3.830   1.680   0.229 -0.0136 -0.1066 -0.1976
  585TIP3    H123170   3.883   1.747   0.187  0.5075 -0.6698 -0.4516
  585TIP3    H223171   3.810   1.716   0.316  1.3007 -0.1331  0.1371
  586TIP3   OH223172   3.563   2.266  13.403 -0.6155 -0.3606 -0.0818
  586TIP3    H123173   3.613   2.280  13.322  0.3500  0.2632  0.5969
  586TIP3    H223174   3.589   2.179  13.433 -1.4085 -0.8336 -0.7216
  587TIP3   OH223175   0.995   4.472  14.823  0.0841  0.1043 -0.1950
  587TIP3    H123176   1.041   4.429  14.751 -2.7314 -0.3236 -1.8840
  587TIP3    H223177   0.949   4.546  14.782 -2.5625 -0.8620  0.8301
  588TIP3   OH223178   0.539   3.390   0.870  0.5381  0.4659 -1.0838
  588TIP3    H123179   0.632   3.412   0.868  0.1620  2.1651 -1.1242
  588TIP3    H223180   0.494   3.474   0.881 -0.9605 -0.4241 -0.0585
  589TIP3   OH223181   3.324   6.713   1.503 -0.3845  0.2890  0.2675
  589TIP3    H123182   3.415   6.684   1.512 -0.3887  0.6030  1.6028
  589TIP3    H223183   3.273   6.640   1.537 -0.6903 -0.1755 -1.1384
  590TIP3   OH223184   5.688   4.940   2.228  0.1496 -0.3052 -0.3577
  590TIP3    H123185   5.680   4.855   2.271  0.2445  0.2207  0.7589
  590TIP3    H223186   5.782   4.958   2.228  0.0904  0.0242 -0.1118
  591TIP3   OH223187   3.850   5.245   1.922  0.1775  0.0787 -0.1093
  591TIP3    H123188   3.765   5.202   1.935 -0.3218  1.2926  0.9080
  591TIP3    H223189   3.857   5.306   1.995  3.0354 -1.6209  1.2130
  592TIP3   OH223190   6.340   1.019   5.506  0.0920 -0.0532  0.0747
  592TIP3    H123191   6.361   0.942   5.453 -0.3274  0.2408 -0.5217
  592TIP3    H223192   6.360   0.992   5.596 -0.5577 -1.0349 -0.0669
  593TIP3   OH223193   5.427   2.952  11.742  0.8665  0.2286 -0.0259
  593TIP3    H123194   5.372   3.008  11.797 -2.1403 -2.4599 -0.0445
  593TIP3    H223195   5.420   2.992  11.655  1.4608  1.6019  0.5209
  594TIP3   OH223196   3.884   3.361   5.252 -0.0101 -0.2284  0.1451
  594TIP3    H123197   3.892   3.345   5.158 -1.3431  1.5993 -0.3272
  594TIP3    H223198   3.965   3.405   5.276  1.2809 -2.5678  0.3524
  595TIP3   OH223199   6.127   6.317   0.030  0.1484 -0.0394 -0.5438
  595TIP3    H123200   6.148   6.410   0.017 -0.8642  0.4572  1.0779
  595TIP3    H223201   6.126   6.306   0.125  1.8631 -2.1288 -0.6879
  596TIP3   OH223202   4.334   3.998  11.907  0.7996 -0.2833  0.3332
  596TIP3    H123203   4.305   4.088  11.921 -0.8204 -0.5935 -0.8737
  596TIP3    H223204   4.288   3.969  11.829  1.7255 -1.9980  0.3752
  597TIP3   OH223205   5.130   0.219   2.118  0.2858 -0.0062 -0.8627
  597TIP3    H123206   5.137   0.124   2.132 -0.5019 -0.1137 -1.1454
  597TIP3    H223207   5.051   0.244   2.165  1.3584  0.8108  0.6135
  598TIP3   OH223208   5.340   3.689   3.958 -0.0216  0.1217  0.0495
  598TIP3    H123209   5.334   3.780   3.927  0.6813  0.1238 -0.0809
  598TIP3    H223210   5.425   3.684   4.001  0.7711 -0.9657 -1.5560
  599TIP3   OH223211   1.530   0.165   2.387 -0.6537 -0.6046 -0.4176
  599TIP3    H123212   1.453   0.205   2.347  0.2532  0.5951 -1.0463
  599TIP3    H223213   1.540   0.210   2.471 -1.2694 -1.5500  0.1745
  600TIP3   OH223214   5.881   0.468  15.791  0.2476 -0.2042  0.0587
  600TIP3    H123215   5.891   0.561  15.768  1.2289 -0.2696  0.1748
  600TIP3    H223216   5.957   0.426  15.752 -1.4897 -1.4232 -2.2493
  601TIP3   OH223217   0.479   4.493   1.896  0.4225  0.3578 -0.0372
  601TIP3    H123218   0.472   4.587   1.879 -0.3038  0.2760 -0.2400
  601TIP3    H223219   0.540   4.486   1.969 -0.3408  1.0649  0.6932
  602TIP3   OH223220   0.010   1.391   3.466 -0.2985 -0.9680  0.4194
  602TIP3    H123221   0.068   1.455   3.507 -0.5210  0.3192 -1.1782
  602TIP3    H223222   0.040   1.386   3.375 -3.4581  0.8408 -0.8943
  603TIP3   OH223223   0.534   6.535  15.591 -0.0112 -0.2804  0.2118
  603TIP3    H123224   0.617   6.564  15.555 -0.0119  1.4441  1.5006
  603TIP3    H223225   0.491   6.615  15.620 -1.8779 -1.1997  0.1124
  604TIP3   OH223226   3.695   3.128   2.188  0.4152 -0.2349  0.2010
  604TIP3    H123227   3.661   3.077   2.262  0.2636 -1.0626 -0.4201
  604TIP3    H223228   3.762   3.184   2.226 -0.2612 -0.0283  1.1136
  605TIP3   OH223229   3.904   3.469   5.786 -0.4042 -0.9311 -0.1981
  605TIP3    H123230   3.990   3.501   5.812 -0.1916 -1.6495  0.0060
  605TIP3    H223231   3.922   3.399   5.723 -0.8534 -0.7330 -0.5577
  606TIP3   OH223232   5.093   3.031   3.446  0.0665 -0.0016  0.0220
  606TIP3    H123233   5.011   3.013   3.400  0.6607  1.6455 -1.8308
  606TIP3    H223234   5.132   2.945   3.460 -2.0484 -0.8484  1.1961
  607TIP3   OH223235   5.434   0.519   2.278 -0.2173  0.2335 -0.0436
  607TIP3    H123236   5.389   0.604   2.272 -1.4271 -0.3486  0.3998
  607TIP3    H223237   5.527   0.541   2.275 -0.4900  1.6426  0.7801
  608TIP3   OH223238   4.863   2.405   3.752  0.6195  0.2591 -0.0864
  608TIP3    H123239   4.878   2.500   3.759 -0.0497  0.4125 -0.6283
  608TIP3    H223240   4.885   2.371   3.839  1.2569  0.8551 -0.0060
  609TIP3   OH223241   5.536   1.423   2.422 -0.5408  0.1067  0.1010
  609TIP3    H123242   5.562   1.446   2.333 -0.0667 -0.2669  0.1336
  609TIP3    H223243   5.518   1.506   2.464  0.8360  0.4217  0.1285
  610TIP3   OH223244   3.344   3.926  15.375 -0.2193  0.6248  0.2152
  610TIP3    H123245   3.259   3.964  15.394  0.5203  2.7595 -0.4583
  610TIP3    H223246   3.335   3.888  15.288 -0.9595 -0.8087  0.8830
  611TIP3   OH223247   5.374   0.802  13.388  0.0162 -0.4707 -0.3438
  611TIP3    H123248   5.302   0.847  13.344 -0.0020 -1.4161 -1.3153
  611TIP3    H223249   5.333   0.761  13.464 -0.3679 -0.5232 -0.5741
  612TIP3   OH223250   6.244   3.612   2.599  0.7193  0.0605 -0.1118
  612TIP3    H123251   6.321   3.656   2.636  0.5900  0.0673  0.1521
  612TIP3    H223252   6.249   3.631   2.505  0.1706  1.4461  0.1084
  613TIP3   OH223253   1.262   6.354   2.431  0.4096  0.1764  0.4231
  613TIP3    H123254   1.203   6.283   2.455 -0.5480  0.6441 -0.4515
  613TIP3    H223255   1.346   6.311   2.415 -0.1544 -0.7761 -0.0966
  614TIP3   OH223256   5.088   5.253   4.913 -0.8711 -0.0719 -0.7092
  614TIP3    H123257   5.041   5.177   4.949 -1.5689  1.1000  0.9675
  614TIP3    H223258   5.021   5.301   4.864 -1.3221  1.1675  1.0070
  615TIP3   OH223259   0.250   4.966  16.395 -0.1616  0.1057  0.4513
  615TIP3    H123260   0.264   4.872  16.409 -0.0409 -0.2592 -1.7104
  615TIP3    H223261   0.329   4.995  16.349 -0.2396  1.2620  1.0214
  616TIP3   OH223262   6.347   3.300   1.936  0.0915  0.4930  0.4123
  616TIP3    H123263   6.441   3.318   1.942  0.5994 -0.4002 -2.7676
  616TIP3    H223264   6.313   3.374   1.885 -0.7605  0.3179  0.7228
  617TIP3   OH223265   5.422   2.250   0.915  0.1732  0.0811 -0.4996
  617TIP3    H123266   5.517   2.264   0.912  0.0402  1.3205  0.2316
  617TIP3    H223267   5.411   2.176   0.976  0.6793 -0.3217 -0.8856
  618TIP3   OH223268   5.121   3.785   0.719  0.3208  0.3264 -0.0433
  618TIP3    H123269   5.030   3.810   0.730  0.1704  1.0634 -2.4246
  618TIP3    H223270   5.170   3.866   0.729  0.2730  0.8048 -2.9033
  619TIP3   OH223271   5.035   4.556   0.297 -0.4232  0.2078 -0.4141
  619TIP3    H123272   4.984   4.517   0.227  0.0509 -0.6551 -0.2977
  619TIP3    H223273   5.123   4.565   0.261 -0.5652  1.4079 -0.5158
  620TIP3   OH223274   2.628   5.203  14.850  0.2669  0.4110  0.2363
  620TIP3    H123275   2.610   5.112  14.827 -0.1690  0.7671 -0.8910
  620TIP3    H223276   2.707   5.224  14.799  0.9446  0.3850  1.2460
  621TIP3   OH223277   6.089   5.405   2.217 -0.6087  1.2747 -0.4016
  621TIP3    H123278   6.146   5.384   2.142 -2.1095 -1.6819 -0.8471
  621TIP3    H223279   6.147   5.399   2.293 -0.3840 -3.2840 -0.6610
  622TIP3   OH223280   2.411   6.608   0.705 -0.1808  0.1899  0.4547
  622TIP3    H123281   2.482   6.544   0.703  0.3261  0.7361  0.7039
  622TIP3    H223282   2.339   6.562   0.749 -0.2700 -0.6451 -0.5380
  623TIP3   OH223283   1.690   6.314  13.975 -0.0220  0.4259 -0.5629
  623TIP3    H123284   1.723   6.259  13.903 -0.5656 -0.0860 -0.4236
  623TIP3    H223285   1.751   6.388  13.977 -1.1121  1.4857 -2.8454
  624TIP3   OH223286   0.733   3.065   3.434  0.2242 -0.2135 -0.3976
  624TIP3    H123287   0.773   3.125   3.371 -0.6063  0.8010  0.0070
  624TIP3    H223288   0.719   3.119   3.512  2.1212 -1.6779  1.0476
  625TIP3   OH223289   3.775   0.516   5.978 -0.3681  0.9186 -0.2917
  625TIP3    H123290   3.802   0.519   5.886  1.9799 -1.9527  0.1548
  625TIP3    H223291   3.855   0.538   6.027 -0.3760 -1.5755  1.0293
  626TIP3   OH223292   4.798   0.731   1.111  0.1266 -0.3614  0.4249
  626TIP3    H123293   4.821   0.793   1.042 -1.4332 -1.2855 -0.9791
  626TIP3    H223294   4.784   0.786   1.189  1.6800  0.7162 -0.0078
  627TIP3   OH223295   2.007   1.729  14.672  0.5728 -0.1760  0.0385
  627TIP3    H123296   2.068   1.697  14.605 -0.2078 -1.1494 -0.2382
  627TIP3    H223297   1.931   1.671  14.664  0.2310  0.0542  1.3839
  628TIP3   OH223298   3.663   0.102  15.606 -0.8530 -0.0887 -0.1241
  628TIP3    H123299   3.588   0.097  15.547  0.1094  0.9264 -1.5226
  628TIP3    H223300   3.739   0.096  15.547  0.1513  1.3084  0.9781
  629TIP3   OH223301   3.945   3.992   3.929  0.1078 -0.4474  0.1386
  629TIP3    H123302   4.012   3.964   3.866  0.5474  0.8692 -0.0245
  629TIP3    H223303   3.932   3.916   3.985  0.7597 -1.1786 -0.6585
  630TIP3   OH223304   5.146   2.241   1.414 -0.1146  0.0657  0.3357
  630TIP3    H123305   5.195   2.169   1.453 -0.0658  0.6787  1.4628
  630TIP3    H223306   5.186   2.255   1.329  1.2507  0.1205  0.9611
  631TIP3   OH223307   3.079   0.512  13.513 -0.0999 -0.1881  0.9372
  631TIP3    H123308   3.031   0.508  13.596 -0.3913 -1.7081  0.7184
  631TIP3    H223309   3.145   0.443  13.521  0.0869 -0.1164  0.0294
  632TIP3   OH223310   3.394   0.529   4.336 -0.0035  0.2279 -0.1849
  632TIP3    H123311   3.419   0.480   4.414 -0.0091 -2.2004 -1.6008
  632TIP3    H223312   3.436   0.482   4.264  0.4818  2.7064 -1.6361
  633TIP3   OH223313   0.750   5.140   5.463 -0.1690  0.2889 -0.8360
  633TIP3    H123314   0.802   5.120   5.385 -1.6461 -0.0579 -1.7617
  633TIP3    H223315   0.709   5.224   5.443  0.6963  0.9922  0.2543
  634TIP3   OH223316   4.919   0.552  15.795 -0.2613 -0.4225 -0.3195
  634TIP3    H123317   4.999   0.602  15.778  1.0473 -1.7455  1.5448
  634TIP3    H223318   4.883   0.590  15.875 -0.3521 -1.1440 -0.0089
  635TIP3   OH223319   2.875   0.223   2.563 -0.6106  0.5123  0.1227
  635TIP3    H123320   2.930   0.178   2.499 -0.9153  1.1233 -0.5732
  635TIP3    H223321   2.918   0.307   2.576 -0.8957  0.6380  0.2538
  636TIP3   OH223322   0.084   6.190   5.598 -0.2968  0.4309 -0.2659
  636TIP3    H123323   0.165   6.226   5.563 -0.1085 -0.5998 -0.9143
  636TIP3    H223324   0.038   6.155   5.521 -0.6715 -0.3255  0.2926
  637TIP3   OH223325   2.610   5.856   4.527 -0.2812 -0.3431 -0.0137
  637TIP3    H123326   2.555   5.857   4.605  1.4392  1.0175  1.2598
  637TIP3    H223327   2.677   5.790   4.546  1.4810  1.5542  0.7246
  638TIP3   OH223328   4.394   6.063   3.775 -0.2831 -0.4551 -1.0641
  638TIP3    H123329   4.374   6.059   3.869 -0.6934 -1.4253 -1.1746
  638TIP3    H223330   4.479   6.106   3.771 -0.5850  0.2603 -0.3032
  639TIP3   OH223331   2.886   1.545  14.410  0.2956 -0.0091 -0.5475
  639TIP3    H123332   2.896   1.622  14.465  1.2257  0.0606 -0.8087
  639TIP3    H223333   2.957   1.487  14.436  1.7223  0.6551 -2.6968
  640TIP3   OH223334   5.076   6.029   5.033  0.1668  0.1503  0.5393
  640TIP3    H123335   5.074   5.949   4.981 -1.2004  0.6552 -0.2336
  640TIP3    H223336   5.006   6.019   5.097  0.4742  0.4303  0.9293
  641TIP3   OH223337   3.155   5.598   6.180 -0.3891 -0.0555 -0.7781
  641TIP3    H123338   3.063   5.575   6.189 -0.5287  0.9337  0.4809
  641TIP3    H223339   3.194   5.577   6.265  0.0869  1.4828 -0.5827
  642TIP3   OH223340   6.742   2.874  15.168  0.7063 -0.1440 -0.5492
  642TIP3    H123341   6.790   2.957  15.159  0.3036  0.0852 -0.6015
  642TIP3    H223342   6.809   2.810  15.193  0.9089  0.3291  0.1418
  643TIP3   OH223343   4.595   2.363   4.123  0.3280 -0.0091  0.1553
  643TIP3    H123344   4.574   2.347   4.215 -1.1897  1.5686  0.1357
  643TIP3    H223345   4.511   2.363   4.078  1.0382 -0.6965 -1.2525
  644TIP3   OH223346   2.160   1.836  13.535  0.5299 -0.3606 -0.1962
  644TIP3    H123347   2.235   1.801  13.486  1.9348  2.5873 -0.3555
  644TIP3    H223348   2.127   1.761  13.584  4.1771 -1.6819  0.5827
  645TIP3   OH223349   6.635   0.356  15.271  0.8966  0.6870  0.6917
  645TIP3    H123350   6.565   0.397  15.218  0.4883 -1.6530 -0.7379
  645TIP3    H223351   6.703   0.423  15.276  1.3223  0.8826 -3.6025
  646TIP3   OH223352   3.014   5.513  10.878 -0.2489  0.8443 -0.6551
  646TIP3    H123353   2.967   5.594  10.857 -1.5621  0.4009  0.4413
  646TIP3    H223354   2.945   5.447  10.886  0.6969 -0.1253 -0.3642
  647TIP3   OH223355   0.621   6.188  15.243  0.2167  0.2656 -0.2251
  647TIP3    H123356   0.616   6.253  15.173  1.9763  1.2419  0.4899
  647TIP3    H223357   0.547   6.209  15.301 -1.3112 -0.6092 -1.7518
  648TIP3   OH223358   5.349   2.763   2.243  0.4032  0.1501  0.2817
  648TIP3    H123359   5.423   2.803   2.197  0.1573  0.9349  0.5627
  648TIP3    H223360   5.281   2.756   2.176  0.4224  0.2509  0.2522
  649TIP3   OH223361   5.801   1.597  17.182 -0.3935  0.4898  0.3206
  649TIP3    H123362   5.730   1.560  17.130 -0.5439 -0.8589  1.4155
  649TIP3    H223363   5.848   1.653  17.122  0.0693 -1.7891 -1.5919
  650TIP3   OH223364   6.314   0.740   3.921 -0.6449 -0.3840  0.3861
  650TIP3    H123365   6.230   0.728   3.965 -0.3304  0.2113  1.1577
  650TIP3    H223366   6.375   0.682   3.967 -0.6669 -0.9888 -0.3155
  651TIP3   OH223367   4.990   1.678   2.540  0.0730 -0.2657  0.2569
  651TIP3    H123368   4.919   1.735   2.512 -0.1571 -0.1220  1.1143
  651TIP3    H223369   4.951   1.591   2.545 -0.3954  0.0198  1.9799
  652TIP3   OH223370   3.170   4.590   6.319 -0.4482  0.5791 -0.3822
  652TIP3    H123371   3.264   4.586   6.333 -0.7335  0.1527  1.7935
  652TIP3    H223372   3.160   4.624   6.230  1.7205  2.1425 -0.1033
  653TIP3   OH223373   0.974   1.622   2.447 -0.4178 -0.2821  0.3726
  653TIP3    H123374   0.879   1.626   2.437 -0.2728  1.4323 -0.6034
  653TIP3    H223375   0.989   1.625   2.541 -1.3056 -0.3509  0.5231
  654TIP3   OH223376   1.324   5.720  11.038  0.1642  0.0115 -0.1221
  654TIP3    H123377   1.247   5.755  10.993  0.8292  0.6478 -0.7903
  654TIP3    H223378   1.302   5.627  11.053 -1.0099  0.3408  0.3450
  655TIP3   OH223379   2.982   1.367  14.108  0.0591 -0.3351  0.0387
  655TIP3    H123380   2.910   1.333  14.055 -0.4383  0.1327  0.3881
  655TIP3    H223381   2.959   1.459  14.122  1.9461  0.5135 -1.8777
  656TIP3   OH223382   0.615   0.631   4.794  0.0556  0.1461 -0.4276
  656TIP3    H123383   0.614   0.726   4.809 -0.5619  0.0753  0.0082
  656TIP3    H223384   0.535   0.599   4.836  0.6133 -0.6657  0.0464
  657TIP3   OH223385   1.357   3.746   5.117  0.1851  0.6795  0.1632
  657TIP3    H123386   1.328   3.685   5.050 -1.9603  0.3559  1.3009
  657TIP3    H223387   1.387   3.823   5.068  0.7193 -0.3418 -1.1923
  658TIP3   OH223388   4.937   3.126   5.838  0.2803 -0.4386  0.2170
  658TIP3    H123389   4.985   3.204   5.866  0.7412  0.2205 -2.1272
  658TIP3    H223390   5.001   3.075   5.788 -0.6181 -1.1972 -0.1932
  659TIP3   OH223391   4.370   6.750   0.025 -0.1655 -0.4959  0.4719
  659TIP3    H123392   4.441   6.706   0.071 -1.5955 -0.6121  2.7188
  659TIP3    H223393   4.331   6.808   0.090 -2.3412 -0.6875 -0.5667
  660TIP3   OH223394   4.817   3.569  14.243 -0.0561  0.1801 -0.1288
  660TIP3    H123395   4.727   3.600  14.227  0.2437  1.7657  1.0381
  660TIP3    H223396   4.869   3.610  14.173  0.5065  3.3725  1.9685
  661TIP3   OH223397   2.151   2.839   6.349  0.3521  0.0252 -0.1304
  661TIP3    H123398   2.093   2.907   6.315  1.1873  0.2413 -1.1590
  661TIP3    H223399   2.157   2.775   6.279 -0.2843 -1.0426  0.7688
  662TIP3   OH223400   6.155   2.752  14.470  0.1235 -0.1810  0.2109
  662TIP3    H123401   6.250   2.756  14.485  0.1736 -0.3500 -0.0547
  662TIP3    H223402   6.126   2.680  14.526  0.2820 -0.6828 -0.3341
  663TIP3   OH223403   1.574   1.401  14.524 -0.1319  0.0394 -0.3718
  663TIP3    H123404   1.559   1.494  14.504  2.1120  0.0248 -2.6574
  663TIP3    H223405   1.572   1.397  14.620  0.6659  2.6764 -0.1430
  664TIP3   OH223406   2.592   2.778   3.097 -1.1826 -0.3963  0.1738
  664TIP3    H123407   2.512   2.787   3.045 -1.5237 -0.3742  0.6917
  664TIP3    H223408   2.562   2.784   3.187 -0.5208  0.1913  0.3641
  665TIP3   OH223409   3.539   6.402   3.018 -0.2022  0.1620  0.2600
  665TIP3    H123410   3.506   6.460   2.950  1.4611 -0.6517 -1.3220
  665TIP3    H223411   3.478   6.328   3.019 -0.4336  0.3481 -0.1169
  666TIP3   OH223412   1.744   1.628  13.240  0.5214  0.1469 -0.3076
  666TIP3    H123413   1.788   1.549  13.272 -0.9571 -0.3762  0.5080
  666TIP3    H223414   1.652   1.605  13.235  0.2393  1.3731 -1.5128
  667TIP3   OH223415   2.999   3.657   4.091 -0.4016  0.1660 -0.1984
  667TIP3    H123416   3.054   3.663   4.013 -2.2095 -0.0256 -1.5546
  667TIP3    H223417   2.910   3.647   4.057 -1.4461  1.5663  1.8689
  668TIP3   OH223418   3.135   0.404   2.862 -0.8754 -0.3592  0.1882
  668TIP3    H123419   3.164   0.494   2.870 -2.0518  0.1628 -1.0081
  668TIP3    H223420   3.040   0.410   2.851 -1.0281 -1.7710  0.4914
  669TIP3   OH223421   1.317   5.162  12.896 -0.0817 -0.3153 -0.4258
  669TIP3    H123422   1.228   5.145  12.927  0.3730 -2.0923  0.0394
  669TIP3    H223423   1.373   5.139  12.970  0.7540  2.3590 -0.1084
  670TIP3   OH223424   1.085   4.624  12.834  0.4100 -0.2583  0.0135
  670TIP3    H123425   1.101   4.541  12.789 -2.3264 -1.7400  1.5304
  670TIP3    H223426   1.001   4.613  12.877  1.5340  2.0328  3.2312
  671TIP3   OH223427   4.702   3.389  11.339 -0.1588  0.5432  0.2586
  671TIP3    H123428   4.675   3.435  11.260  0.9837 -0.9979 -1.0890
  671TIP3    H223429   4.633   3.325  11.355 -1.5100  2.2885  1.8610
  672TIP3   OH223430   5.759   6.696  11.714  0.4432  0.1103  0.1006
  672TIP3    H123431   5.740   6.772  11.769 -0.0161 -0.3114  0.5493
  672TIP3    H223432   5.853   6.700  11.697  0.5507  0.3800  0.7308
  673TIP3   OH223433   5.928   4.141  11.099 -0.3037  0.1427 -0.3695
  673TIP3    H123434   6.014   4.100  11.098  0.4927  1.7457 -0.4137
  673TIP3    H223435   5.946   4.235  11.099 -2.0493  0.5145  0.0008
  674TIP3   OH223436   5.558   0.541   0.092  0.4631  0.4652 -0.8239
  674TIP3    H123437   5.632   0.490   0.058  0.9981  1.9117 -1.9569
  674TIP3    H223438   5.598   0.622   0.122 -0.7309  1.6547 -2.3133
  675TIP3   OH223439   3.281   3.225   2.050  0.3169 -0.0312 -0.3957
  675TIP3    H123440   3.213   3.220   1.984  0.9793  1.8077 -1.2809
  675TIP3    H223441   3.237   3.202   2.132 -1.3264  0.9549 -0.9629
  676TIP3   OH223442   3.244   0.448  15.902 -0.2874  0.4217 -0.1926
  676TIP3    H123443   3.262   0.475  15.812 -1.2211  1.6195 -0.0569
  676TIP3    H223444   3.297   0.508  15.955  1.1861 -1.0539  0.0543
  677TIP3   OH223445   5.545   5.467   0.975  0.5754 -0.0070  0.1792
  677TIP3    H123446   5.475   5.413   1.012 -0.3360 -0.6473 -2.2767
  677TIP3    H223447   5.529   5.465   0.880  1.9173  2.6510 -0.1987
  678TIP3   OH223448   0.085   3.283  10.535 -0.0721  0.4922 -0.1400
  678TIP3    H123449   0.106   3.339  10.610 -0.0261  0.8001 -0.3795
  678TIP3    H223450   0.164   3.285  10.481  0.5952 -1.2366  0.7120
  679TIP3   OH223451   0.905   3.971  13.654 -0.1288  0.2915 -0.5749
  679TIP3    H123452   0.911   3.943  13.562  0.9913 -1.1921 -0.0824
  679TIP3    H223453   0.992   3.956  13.690 -0.4280  1.2802  0.6363
  680TIP3   OH223454   1.455   2.695   3.365 -0.1514 -0.3907  0.0975
  680TIP3    H123455   1.480   2.786   3.350  0.1502 -0.4585  0.1985
  680TIP3    H223456   1.450   2.657   3.277  0.7906 -0.5653  0.1179
  681TIP3   OH223457   6.253   1.120   3.612 -0.1040  0.1362  0.6342
  681TIP3    H123458   6.291   1.033   3.618  1.4361  0.8345  1.5331
  681TIP3    H223459   6.166   1.106   3.574  0.3515 -1.7054  0.1941
  682TIP3   OH223460   2.379   2.951   0.098  0.2793 -0.7670  0.3851
  682TIP3    H123461   2.468   2.987   0.099 -0.6409  1.6820  1.1107
  682TIP3    H223462   2.349   2.963   0.008 -0.0324  0.3652  0.6311
  683TIP3   OH223463   4.509   1.678  14.613 -0.0920  0.3472 -0.1495
  683TIP3    H123464   4.548   1.662  14.698  0.6788 -1.2214 -0.7583
  683TIP3    H223465   4.415   1.672  14.628  0.0436 -0.0775  0.5511
  684TIP3   OH223466   0.096   1.947   1.568 -0.7792  0.0691  0.3593
  684TIP3    H123467   0.141   2.031   1.575 -1.2350  0.4366 -0.8657
  684TIP3    H223468   0.165   1.882   1.577 -0.3698  0.5788  0.9495
  685TIP3   OH223469   5.529   5.529  12.598 -0.0066  0.1356 -0.2922
  685TIP3    H123470   5.613   5.547  12.641  0.1042  0.4241 -0.6263
  685TIP3    H223471   5.547   5.539  12.504 -0.4001  0.1429 -0.3688
  686TIP3   OH223472   1.703   6.120   2.261 -0.0033  0.2016 -0.4433
  686TIP3    H123473   1.733   6.201   2.220  0.3704  0.4495  0.3089
  686TIP3    H223474   1.647   6.079   2.195 -0.4699  1.2389 -0.7066
  687TIP3   OH223475   0.980   2.313  14.164  0.0201 -0.1019  0.1209
  687TIP3    H123476   0.923   2.389  14.157 -0.6564 -0.5668  0.3670
  687TIP3    H223477   0.982   2.276  14.076 -0.5338 -0.4046  0.2275
  688TIP3   OH223478   5.369   6.018  11.459 -0.4087 -0.1439  0.1370
  688TIP3    H123479   5.427   5.998  11.532 -1.9219  0.2877  1.5046
  688TIP3    H223480   5.394   5.955  11.391  0.6760 -0.9018  1.1997
  689TIP3   OH223481   1.057   1.231   0.115  0.2541 -0.3438  0.1654
  689TIP3    H123482   1.036   1.159   0.055 -2.0165  0.1944  0.2112
  689TIP3    H223483   1.014   1.207   0.197 -0.5051  0.9918  0.1951
  690TIP3   OH223484   0.559   3.765  14.340 -0.1581 -0.1082  0.7269
  690TIP3    H123485   0.500   3.739  14.270  1.6251  0.3204 -1.0194
  690TIP3    H223486   0.515   3.838  14.383 -1.4401 -0.6070  0.3070
  691TIP3   OH223487   4.012   2.925  11.558 -0.1689 -0.5518  0.1575
  691TIP3    H123488   4.044   2.982  11.629 -1.7082  0.1183  0.3461
  691TIP3    H223489   4.035   2.836  11.587  0.4860 -0.1808  0.8180
  692TIP3   OH223490   2.139   5.649   4.453  0.2721 -0.2047 -0.1810
  692TIP3    H123491   2.210   5.634   4.515 -0.1416  1.2032  0.6972
  692TIP3    H223492   2.161   5.732   4.411 -1.2236  0.7107  0.7303
  693TIP3   OH223493   1.478   4.787  15.665  0.3634 -0.4138  0.2019
  693TIP3    H123494   1.537   4.719  15.632 -0.0651 -0.9847  0.5978
  693TIP3    H223495   1.442   4.828  15.586  1.0590 -0.2525 -0.0418
  694TIP3   OH223496   6.457   6.664  13.239  0.7943  0.6278 -0.3159
  694TIP3    H123497   6.520   6.610  13.191  0.9224 -1.5182  2.0804
  694TIP3    H223498   6.376   6.658  13.188  0.7173 -2.1286 -0.0062
  695TIP3   OH223499   0.831   3.835   4.513  0.1374  0.0598 -0.1219
  695TIP3    H123500   0.765   3.789   4.566 -0.1658  0.4844 -0.1280
  695TIP3    H223501   0.890   3.875   4.578  0.3841 -0.3054 -0.1164
  696TIP3   OH223502   1.556   3.451   0.641 -0.3023 -0.1029 -0.0325
  696TIP3    H123503   1.483   3.443   0.703  0.5667  1.0499  1.1823
  696TIP3    H223504   1.621   3.388   0.673 -0.4825 -0.6827 -0.7584
  697TIP3   OH223505   1.064   3.311  13.011 -0.3433  0.0685 -0.0595
  697TIP3    H123506   1.001   3.272  13.071 -1.0562  0.4252 -0.5581
  697TIP3    H223507   1.146   3.312  13.060  0.4006 -4.2597 -0.7937
  698TIP3   OH223508   1.174   4.085   1.131  0.4824  0.2006  0.0729
  698TIP3    H123509   1.182   4.006   1.185  3.1304  0.8150  0.7355
  698TIP3    H223510   1.230   4.067   1.055 -2.2469 -0.1704 -1.9703
  699TIP3   OH223511   3.273   2.233   2.927 -0.2649 -0.5883  0.3472
  699TIP3    H123512   3.364   2.262   2.920 -0.2110 -1.0986 -1.7583
  699TIP3    H223513   3.245   2.261   3.014  1.5054  0.7129  0.5431
  700TIP3   OH223514   2.382   1.858   4.359  0.0042  0.6924 -0.0396
  700TIP3    H123515   2.353   1.934   4.408  0.4104  0.9121 -0.1309
  700TIP3    H223516   2.426   1.895   4.282 -0.7992  0.3525 -0.6719
  701TIP3   OH223517   4.870   4.765  15.549  0.5649  0.0526 -0.5483
  701TIP3    H123518   4.837   4.690  15.598  0.5279 -0.0062 -0.6635
  701TIP3    H223519   4.792   4.819  15.534  1.0782  2.0296  2.8023
  702TIP3   OH223520   2.373   4.393  16.220  0.3360 -0.1892  0.0371
  702TIP3    H123521   2.402   4.324  16.280  1.4751 -0.2481 -0.5641
  702TIP3    H223522   2.302   4.353  16.170 -0.0456 -0.4161  0.7338
  703TIP3   OH223523   6.235   1.696   2.749 -0.5671  0.6381  0.0174
  703TIP3    H123524   6.160   1.679   2.807  0.5771 -2.7879  0.7002
  703TIP3    H223525   6.227   1.630   2.680  1.7036  0.2903  0.0276
  704TIP3   OH223526   1.036   5.698   0.597  0.1452 -0.1118 -0.3790
  704TIP3    H123527   0.967   5.679   0.533 -0.4930 -0.1665  0.3034
  704TIP3    H223528   1.101   5.629   0.584  0.3790  0.2925 -1.4461
  705TIP3   OH223529   1.828   4.263   0.016 -0.4991  0.4799 -0.1548
  705TIP3    H123530   1.793   4.175   0.030 -0.7583  0.9169  2.5099
  705TIP3    H223531   1.921   4.255   0.038 -1.2737  1.5856  4.4174
  706TIP3   OH223532   4.291   3.158   1.900 -0.1853 -0.1669 -0.0100
  706TIP3    H123533   4.228   3.145   1.971 -0.4393 -0.5015 -0.2885
  706TIP3    H223534   4.348   3.081   1.904 -0.3416 -0.2997 -0.3073
  707TIP3   OH223535   4.361   2.447   5.906 -0.0073  0.4778 -0.1444
  707TIP3    H123536   4.314   2.530   5.900 -1.2079 -0.0545  1.2298
  707TIP3    H223537   4.296   2.385   5.939  1.4925 -0.4391  1.2760
  708TIP3   OH223538   1.115   2.289  13.852 -0.2227 -0.1862  0.6416
  708TIP3    H123539   1.189   2.232  13.835  0.2557  0.9943 -1.5681
  708TIP3    H223540   1.040   2.246  13.811 -0.1753  0.0225  0.3348
  709TIP3   OH223541   2.296   6.464  15.308 -0.4008  0.4807  0.0124
  709TIP3    H123542   2.292   6.557  15.284 -2.7453  0.0375 -1.8125
  709TIP3    H223543   2.208   6.444  15.340  0.3390 -0.9244  1.2868
  710TIP3   OH223544   6.264   1.667  13.574 -0.4517  0.4033 -0.0735
  710TIP3    H123545   6.341   1.610  13.581 -0.2045  0.8185  0.7617
  710TIP3    H223546   6.192   1.615  13.610 -0.2450  0.5778  0.6016
  711TIP3   OH223547   1.605   4.411   4.257 -0.1070  0.1231 -0.9925
  711TIP3    H123548   1.571   4.499   4.271  0.4815  0.3141 -0.7172
  711TIP3    H223549   1.652   4.417   4.173  0.8355  0.3555 -0.4585
  712TIP3   OH223550   6.128   6.025   1.784 -0.0176 -0.0048  0.7203
  712TIP3    H123551   6.126   6.108   1.830  1.0281  0.2821  0.2821
  712TIP3    H223552   6.213   5.987   1.806 -1.0245 -1.6435  2.0686
  713TIP3   OH223553   2.174   3.397  16.104  0.2996 -0.0780 -0.1512
  713TIP3    H123554   2.171   3.301  16.094  0.5941 -0.1111  0.0516
  713TIP3    H223555   2.107   3.416  16.170  1.3732 -0.3359  1.0809
  714TIP3   OH223556   2.847   1.247  16.588  0.8092  0.6331 -0.0487
  714TIP3    H123557   2.820   1.204  16.668 -2.1536  1.2234 -0.6227
  714TIP3    H223558   2.799   1.202  16.519  1.9796  1.2484 -1.3187
  715TIP3   OH223559   3.830   4.113   2.000 -0.2924 -0.6050 -0.1283
  715TIP3    H123560   3.886   4.071   2.064 -0.9756 -0.0039  0.8880
  715TIP3    H223561   3.885   4.182   1.961 -0.8516  1.3492  2.3026
  716TIP3   OH223562   2.663   2.923   5.334  0.3083 -0.2944  0.1940
  716TIP3    H123563   2.618   2.878   5.262 -1.5484  1.6344  0.0505
  716TIP3    H223564   2.721   2.986   5.291 -1.7863  1.8117  0.2405
  717TIP3   OH223565   5.072   5.527  15.492 -0.1607 -0.2288  0.3644
  717TIP3    H123566   5.081   5.450  15.549 -2.8795  1.0338  2.7427
  717TIP3    H223567   5.116   5.597  15.540 -1.2504  0.5642  0.2328
  718TIP3   OH223568   2.219   3.724  11.354 -0.0626  0.3357  0.0004
  718TIP3    H123569   2.314   3.733  11.358  0.0493 -0.6327 -0.1981
  718TIP3    H223570   2.188   3.759  11.437  0.5220  0.0112  0.3562
  719TIP3   OH223571   0.266   5.490  14.968 -0.1227 -0.3959 -0.0455
  719TIP3    H123572   0.337   5.551  14.944  0.1491 -0.6149  0.1923
  719TIP3    H223573   0.214   5.482  14.889 -1.1290  1.4355  0.3582
  720TIP3   OH223574   3.974   3.880  15.249 -0.3729  0.1834 -0.1688
  720TIP3    H123575   3.967   3.812  15.182  0.0668  0.2334 -0.2680
  720TIP3    H223576   4.025   3.840  15.319 -0.0926  0.4152 -0.2371
  721TIP3   OH223577   5.545   1.670  17.320 -0.1250 -0.0119  0.2344
  721TIP3    H123578   5.520   1.610  17.390  0.5398  0.9484  1.3162
  721TIP3    H223579   5.635   1.647  17.299 -0.3769 -0.4078 -0.4298
  722TIP3   OH223580   4.269   2.841  10.883 -0.0419 -0.1949  0.1421
  722TIP3    H123581   4.343   2.794  10.920 -1.4687 -1.1507  1.9695
  722TIP3    H223582   4.230   2.779  10.820  0.4483  0.1627 -0.5308
  723TIP3   OH223583   3.518   6.493   3.405  0.1479  0.2729  0.1653
  723TIP3    H123584   3.449   6.484   3.339  1.0590  2.5426 -1.2243
  723TIP3    H223585   3.487   6.565   3.461  0.5931  0.1438  0.5835
  724TIP3   OH223586   2.307   2.856  16.311 -0.0295 -0.3425 -0.0285
  724TIP3    H123587   2.348   2.874  16.226  0.7044  0.9552  0.5718
  724TIP3    H223588   2.349   2.776  16.341  1.7160  0.6540  0.3143
  725TIP3   OH223589   5.369   2.776   1.487 -0.0114  0.3230  0.0402
  725TIP3    H123590   5.417   2.840   1.540 -0.5605  1.4228 -0.7526
  725TIP3    H223591   5.280   2.811   1.482 -0.1759 -0.1944 -0.8978
  726TIP3   OH223592   0.080   1.797   1.892 -0.0766  0.4013  0.5786
  726TIP3    H123593   0.039   1.757   1.816 -1.7779  1.5816  0.8283
  726TIP3    H223594   0.016   1.789   1.962 -0.2560  2.9339  0.7997
  727TIP3   OH223595   2.505   3.803  14.165 -0.2776 -0.2141 -0.4423
  727TIP3    H123596   2.501   3.896  14.142 -2.5253 -0.0801  0.3025
  727TIP3    H223597   2.489   3.758  14.082  2.1294 -0.0444 -1.0822
  728TIP3   OH223598   1.228   0.524   2.360 -0.1347  0.2772  0.2958
  728TIP3    H123599   1.244   0.447   2.305  1.7879  0.2557  0.8039
  728TIP3    H223600   1.316   0.558   2.379 -0.8896  1.8029  1.1984
  729TIP3   OH223601   0.762   4.109  12.226 -0.2408 -0.3664 -0.0044
  729TIP3    H123602   0.701   4.039  12.251 -0.6721  0.5639  1.6428
  729TIP3    H223603   0.753   4.175  12.294 -0.8973  1.9911 -2.2266
  730TIP3   OH223604   1.053   0.549  12.922 -0.0902  0.7645 -0.2553
  730TIP3    H123605   0.995   0.483  12.960 -0.2563  0.3107 -1.2750
  730TIP3    H223606   1.032   0.549  12.829  1.5658  0.5694 -0.6524
  731TIP3   OH223607   2.810   2.418   2.580 -0.4929 -0.7198  0.2542
  731TIP3    H123608   2.851   2.359   2.644  1.1871 -0.4101 -0.4791
  731TIP3    H223609   2.804   2.502   2.626 -4.1030 -1.6186  1.7743
  732TIP3   OH223610   3.125   2.954   0.240  0.3951  0.3302 -0.9328
  732TIP3    H123611   3.102   2.862   0.253  1.5332  0.0238 -1.0027
  732TIP3    H223612   3.110   2.970   0.147  1.4672 -0.1693 -1.2063
  733TIP3   OH223613   0.547   2.899   2.048  0.3923 -0.2573  0.3395
  733TIP3    H123614   0.584   2.945   1.973 -2.0919  1.6560  0.1737
  733TIP3    H223615   0.618   2.897   2.112  1.2245  2.0435 -0.4240
  734TIP3   OH223616   0.586   1.086  16.917 -0.6384  0.0928  0.4654
  734TIP3    H123617   0.535   1.163  16.894 -2.0079 -0.4420  1.5424
  734TIP3    H223618   0.601   1.041  16.834 -2.9360 -0.3050  0.1962
  735TIP3   OH223619   4.629   6.031   3.453 -0.0632 -0.0445  0.0653
  735TIP3    H123620   4.699   6.063   3.397 -0.0126  0.0218  0.1647
  735TIP3    H223621   4.550   6.076   3.421 -0.1269 -0.3998 -0.2831
  736TIP3   OH223622   5.159   1.760   4.941  0.0113  0.0702  0.1344
  736TIP3    H123623   5.174   1.700   5.014 -0.6063 -0.5268 -0.2111
  736TIP3    H223624   5.087   1.719   4.892  0.6873  0.2464 -1.0331
  737TIP3   OH223625   3.495   3.783   5.063  0.3481 -0.2831  0.6988
  737TIP3    H123626   3.549   3.842   5.115 -0.0178  0.4674  0.2323
  737TIP3    H223627   3.527   3.695   5.085  0.5663  0.0526  1.7711
  738TIP3   OH223628   3.740   1.792  15.313  0.2356 -0.1206 -0.2075
  738TIP3    H123629   3.796   1.755  15.381  1.0518  0.6737 -0.4298
  738TIP3    H223630   3.752   1.887  15.320  0.3747 -0.0175 -1.4794
  739TIP3   OH223631   3.622   0.932  15.323 -0.5177  0.4529  0.4170
  739TIP3    H123632   3.590   0.855  15.275 -0.9504 -1.4634  3.5194
  739TIP3    H223633   3.716   0.919  15.330 -0.4301  0.8219  0.0191
  740TIP3   OH223634   3.798   3.543  12.258 -0.3423  0.1032  0.4988
  740TIP3    H123635   3.703   3.550  12.274 -0.1530 -0.1699  1.8399
  740TIP3    H223636   3.829   3.480  12.323  0.5259 -1.0677 -0.9761
  741TIP3   OH223637   6.092   6.518   1.661 -0.0205  0.0337 -0.0508
  741TIP3    H123638   6.087   6.559   1.575  0.1879 -0.3096 -0.2320
  741TIP3    H223639   6.146   6.440   1.647 -1.4336 -0.9915  0.0125
  742TIP3   OH223640   3.126   3.678  12.115 -0.1598  0.1154  0.6753
  742TIP3    H123641   3.163   3.622  12.047  1.3451  1.9274 -0.1014
  742TIP3    H223642   3.136   3.628  12.196  3.0058 -0.0455  0.3325
  743TIP3   OH223643   0.985   3.757   2.693 -0.3880  0.1518  0.0801
  743TIP3    H123644   1.080   3.765   2.678 -0.3122 -1.1832 -0.2759
  743TIP3    H223645   0.971   3.663   2.707 -1.7953  0.2103 -0.7975
  744TIP3   OH223646   1.665   2.967   1.548 -0.0507  0.1221 -0.2551
  744TIP3    H123647   1.759   2.959   1.565 -0.1898  0.0373  0.5398
  744TIP3    H223648   1.628   2.887   1.586 -0.4572  0.2311 -0.4270
  745TIP3   OH223649   4.744   1.069   4.168 -0.3900  0.4904 -0.8919
  745TIP3    H123650   4.661   1.107   4.140 -0.8385 -0.5661 -1.0374
  745TIP3    H223651   4.800   1.072   4.090 -0.7333  0.0192 -1.1603
  746TIP3   OH223652   5.073   2.146   5.945  0.8644  0.9652  0.2789
  746TIP3    H123653   5.029   2.120   6.026 -1.0605  2.2275 -0.2940
  746TIP3    H223654   5.052   2.077   5.883 -0.2839  1.5125  0.0359
  747TIP3   OH223655   2.399   6.547  17.167  0.3639  0.5072  0.2154
  747TIP3    H123656   2.420   6.605  17.094  0.1360 -0.4309 -0.6130
  747TIP3    H223657   2.349   6.602  17.228 -0.5547  0.9702 -0.9188
  748TIP3   OH223658   5.913   5.975  15.752 -0.4173  0.5644 -0.6916
  748TIP3    H123659   5.880   5.887  15.770 -1.5296  1.2865  1.0453
  748TIP3    H223660   5.935   6.010  15.838  1.2568  1.5405 -1.4746
  749TIP3   OH223661   0.308   5.703   4.157 -0.0176  0.1906 -0.1161
  749TIP3    H123662   0.374   5.690   4.089 -0.4278 -0.1317 -0.4555
  749TIP3    H223663   0.359   5.728   4.235  0.6108 -1.0924 -0.0789
  750TIP3   OH223664   1.174   3.148   3.969  0.2500  0.2030 -0.3185
  750TIP3    H123665   1.203   3.057   3.956 -0.0474  0.1179 -0.3844
  750TIP3    H223666   1.168   3.158   4.064 -1.1358 -0.2979 -0.3311
  751TIP3   OH223667   2.381   0.776   6.132 -0.3254  0.1552  0.0785
  751TIP3    H123668   2.377   0.682   6.153  1.0695 -0.4168 -1.9131
  751TIP3    H223669   2.459   0.807   6.178 -0.0885  0.0460 -0.2462
  752TIP3   OH223670   5.900   3.738   5.265 -0.4904 -0.1761  0.1776
  752TIP3    H123671   5.850   3.743   5.346 -0.8194  0.9660 -0.0853
  752TIP3    H223672   5.837   3.756   5.196 -0.0016 -0.1017 -0.2567
  753TIP3   OH223673   4.591   6.486   1.161  0.0718  0.6167 -0.2201
  753TIP3    H123674   4.673   6.460   1.203  0.0576 -1.1662 -1.1582
  753TIP3    H223675   4.588   6.433   1.081 -0.0418  3.6463 -2.3608
  754TIP3   OH223676   6.363   5.173   5.380  0.1832 -0.0534 -0.2853
  754TIP3    H123677   6.271   5.192   5.393  0.3931 -0.2885  2.0250
  754TIP3    H223678   6.368   5.077   5.381  0.5808 -0.0386  1.0398
  755TIP3   OH223679   4.611   4.058  14.661 -0.0122  0.0790  0.2120
  755TIP3    H123680   4.593   4.037  14.752 -0.2191 -0.4946  0.0457
  755TIP3    H223681   4.569   3.987  14.611  0.7517 -0.0391 -0.2887
  756TIP3   OH223682   1.209   0.965   5.924  0.6122 -0.3990  0.0879
  756TIP3    H123683   1.230   1.032   5.989  0.8128 -0.0650 -0.3169
  756TIP3    H223684   1.153   1.010   5.861  1.0508 -0.5115 -0.3883
  757TIP3   OH223685   2.979   3.851  16.643  0.1194  0.1980 -0.0705
  757TIP3    H123686   3.025   3.904  16.708 -1.3414 -0.5619  1.6616
  757TIP3    H223687   3.036   3.775  16.630 -0.0113 -0.0996  1.0439
  758TIP3   OH223688   0.408   2.514   0.430  0.0202  0.3438 -0.2325
  758TIP3    H123689   0.454   2.434   0.404 -0.9187  0.0571 -1.0845
  758TIP3    H223690   0.334   2.520   0.370 -0.2049  1.6014  0.1326
  759TIP3   OH223691   0.206   3.680  11.134 -0.5305 -0.4380 -0.2621
  759TIP3    H123692   0.123   3.697  11.178 -0.2546 -0.6347  0.3558
  759TIP3    H223693   0.196   3.591  11.098 -0.6960 -0.3438 -0.4490
  760TIP3   OH223694   5.581   6.420  15.754 -0.2855 -0.1189  0.0401
  760TIP3    H123695   5.539   6.334  15.761  1.7129 -1.1761 -0.3547
  760TIP3    H223696   5.602   6.444  15.845  4.1204 -2.7368 -0.0107
  761TIP3   OH223697   4.560   1.517   1.099  0.0925  0.5567  0.7381
  761TIP3    H123698   4.585   1.609   1.102 -1.2710  1.0101 -0.3715
  761TIP3    H223699   4.616   1.479   1.031  0.1681  0.7466  0.6950
  762TIP3   OH223700   2.132   2.654   3.870 -0.4553  0.1000  0.9254
  762TIP3    H123701   2.195   2.725   3.880  0.0406 -0.2072  0.0487
  762TIP3    H223702   2.058   2.693   3.824 -0.0583 -0.0122  0.1790
  763TIP3   OH223703   3.505   1.640  11.324 -0.0198 -0.0397  0.0726
  763TIP3    H123704   3.473   1.704  11.261 -0.6421 -0.6730 -0.2738
  763TIP3    H223705   3.558   1.579  11.272 -0.0819 -0.2523  0.2549
  764TIP3   OH223706   2.832   5.931   5.069 -0.0274  0.2705  0.3062
  764TIP3    H123707   2.831   6.020   5.033 -1.9325  0.1327 -0.1258
  764TIP3    H223708   2.849   5.875   4.993 -0.7147  0.1763  0.2125
  765TIP3   OH223709   5.208   1.134  11.409 -0.1801  0.1358 -0.0305
  765TIP3    H123710   5.123   1.177  11.423 -0.2772 -0.3362  0.9266
  765TIP3    H223711   5.272   1.198  11.441 -0.3189 -0.3574  1.2933
  766TIP3   OH223712   2.518   1.445   4.687  0.7865 -0.4652  0.3473
  766TIP3    H123713   2.448   1.385   4.660  0.2883 -1.0363  2.6815
  766TIP3    H223714   2.582   1.440   4.617 -1.1621 -0.4744 -1.5429
  767TIP3   OH223715   3.523   3.396  13.897  0.1822 -0.3143 -0.2052
  767TIP3    H123716   3.488   3.326  13.843 -1.7738  1.9087 -2.0050
  767TIP3    H223717   3.476   3.388  13.980 -1.3151 -0.1512 -1.0057
  768TIP3   OH223718   1.061   4.136   5.141  0.2184  1.1405  0.2351
  768TIP3    H123719   1.151   4.148   5.112  0.3577  0.8179  0.5432
  768TIP3    H223720   1.067   4.113   5.234 -0.1718  0.9630  0.2208
  769TIP3   OH223721   0.507   2.927   5.554  0.5427  0.4016 -0.3507
  769TIP3    H123722   0.587   2.926   5.501  1.5448 -0.2635  1.1072
  769TIP3    H223723   0.495   2.836   5.581 -1.5651  0.2077 -1.7247
  770TIP3   OH223724   1.786   1.615  12.963  0.0243 -0.9411 -0.2865
  770TIP3    H123725   1.749   1.539  12.916  0.1752 -1.3332  0.2210
  770TIP3    H223726   1.763   1.600  13.054 -1.5390  0.5576 -0.3871
  771TIP3   OH223727   4.435   3.525   5.399 -0.0499 -0.2466  0.1860
  771TIP3    H123728   4.445   3.452   5.338  0.2679  0.0325 -0.0999
  771TIP3    H223729   4.341   3.531   5.414 -0.0366 -1.0473  0.6206
  772TIP3   OH223730   4.349   6.678   2.592  0.4154  0.0559  0.1210
  772TIP3    H123731   4.306   6.608   2.543 -0.7095  0.8699 -0.1052
  772TIP3    H223732   4.434   6.689   2.550 -0.4557  0.6208 -1.5790
  773TIP3   OH223733   4.597   0.551  14.572  0.3667  0.3319  0.4159
  773TIP3    H123734   4.644   0.475  14.537  0.0053 -0.2519  1.1521
  773TIP3    H223735   4.621   0.623  14.514  2.6091  0.1962  1.0842
  774TIP3   OH223736   0.794   3.522  16.068  0.0395  0.6414 -0.5489
  774TIP3    H123737   0.765   3.528  15.977  1.3327  1.0993 -0.9464
  774TIP3    H223738   0.757   3.601  16.109 -1.1046  0.1005 -0.4823
  775TIP3   OH223739   3.321   3.140  11.176  0.6586 -0.4286  0.1664
  775TIP3    H123740   3.292   3.075  11.112  0.2933 -0.1500  0.0425
  775TIP3    H223741   3.362   3.208  11.123 -3.2156  1.8327 -0.2940
  776TIP3   OH223742   2.983   3.830  15.122  0.1502  0.2234 -0.0460
  776TIP3    H123743   2.894   3.802  15.145  0.5357 -1.0591 -0.0735
  776TIP3    H223744   3.029   3.835  15.206  0.2812  0.0805 -0.1090
  777TIP3   OH223745   5.482   6.046   3.733 -1.0259  0.1151  0.1316
  777TIP3    H123746   5.488   6.142   3.735  0.3631  0.0524  0.0057
  777TIP3    H223747   5.492   6.019   3.824 -1.2402  0.0775  0.1448
  778TIP3   OH223748   4.254   2.668  16.325 -0.0278 -0.5087 -0.1293
  778TIP3    H123749   4.269   2.749  16.372  1.8449 -0.2510 -1.1046
  778TIP3    H223750   4.158   2.657  16.326 -0.4616  2.3687 -1.0587
  779TIP3   OH223751   4.637   1.535   5.066 -0.0389 -0.3371  0.1161
  779TIP3    H123752   4.728   1.505   5.071 -0.5820 -2.6466 -1.8505
  779TIP3    H223753   4.629   1.574   4.979 -0.8748  0.0817  0.3722
  780TIP3   OH223754   3.072   5.700  15.989 -0.5093 -0.1518  0.6563
  780TIP3    H123755   3.156   5.656  15.978 -0.3001 -0.3736  2.6445
  780TIP3    H223756   3.031   5.697  15.903  1.5254  0.0084 -0.3760
  781TIP3   OH223757   5.249   0.516  14.000 -0.7997  1.1505 -0.1385
  781TIP3    H123758   5.154   0.503  13.994 -0.7036  0.3399  0.0022
  781TIP3    H223759   5.284   0.431  14.025  0.0314  1.2663 -0.8364
  782TIP3   OH223760   2.911   4.556  15.363 -0.1943  0.5449  0.3150
  782TIP3    H123761   2.892   4.468  15.329  2.4438  0.0471 -0.1564
  782TIP3    H223762   2.886   4.552  15.455 -2.1081  0.0369 -0.1789
  783TIP3   OH223763   3.282   2.728  14.224  0.2762  0.1390  0.3103
  783TIP3    H123764   3.228   2.797  14.185 -0.0870 -0.2258  0.1603
  783TIP3    H223765   3.352   2.715  14.161 -0.9184 -1.2292 -0.8140
  784TIP3   OH223766   0.323   4.823   1.772 -0.4115  0.3627  0.0023
  784TIP3    H123767   0.309   4.804   1.679 -1.3129  0.8434  0.0315
  784TIP3    H223768   0.291   4.912   1.783  0.8973  0.7816  0.5112
  785TIP3   OH223769   4.794   1.882   5.007  0.8686  0.4704  0.3878
  785TIP3    H123770   4.713   1.897   5.056 -0.5957  2.3284 -2.2707
  785TIP3    H223771   4.861   1.871   5.073 -1.3665 -0.0296  2.7403
  786TIP3   OH223772   5.408   3.153  10.828  0.2867 -0.0040  0.0858
  786TIP3    H123773   5.418   3.248  10.830  0.3886  0.1188 -2.5352
  786TIP3    H223774   5.315   3.138  10.845  0.2667  0.5456  0.4879
  787TIP3   OH223775   0.980   0.090   4.709 -0.6459  0.5009  0.4958
  787TIP3    H123776   1.040   0.029   4.666  1.5784 -0.3554  4.3142
  787TIP3    H223777   0.910   0.034   4.743 -1.8562  1.0264 -1.0283
  788TIP3   OH223778   2.689   4.030  14.753 -0.7544  0.4023  0.3174
  788TIP3    H123779   2.626   4.059  14.687 -0.3011  2.1711  0.5954
  788TIP3    H223780   2.695   4.104  14.814 -0.0216 -0.5891  1.4849
  789TIP3   OH223781   2.400   1.609  16.631  0.8193 -0.4498  0.4094
  789TIP3    H123782   2.429   1.523  16.602  0.3165 -1.4323  2.6693
  789TIP3    H223783   2.315   1.622  16.588  0.4905 -1.4791  0.7328
  790TIP3   OH223784   2.182   6.514   2.194 -0.4162 -0.0251 -0.8197
  790TIP3    H123785   2.203   6.596   2.237  5.0805 -0.6703 -1.6151
  790TIP3    H223786   2.091   6.525   2.164 -0.8266  4.6115  1.3202
  791TIP3   OH223787   3.973   1.093  16.130 -0.1541 -0.0538  0.0895
  791TIP3    H123788   4.039   1.152  16.094 -0.0987 -0.4935 -0.5514
  791TIP3    H223789   3.905   1.151  16.164  0.1746  0.3867  0.0018
  792TIP3   OH223790   5.745   2.162  10.736  0.6594 -0.3627 -0.5077
  792TIP3    H123791   5.840   2.160  10.739  0.7494  2.0136  0.3166
  792TIP3    H223792   5.722   2.254  10.748 -1.7281 -0.7278 -1.6087
  793TIP3   OH223793   1.916   0.415  15.546  0.5667  0.2401  0.0802
  793TIP3    H123794   1.932   0.434  15.638  0.7221  0.7151 -0.0463
  793TIP3    H223795   1.972   0.475  15.497  1.6092 -1.0169 -0.3182
  794TIP3   OH223796   5.294   2.148  15.217 -0.4679  0.2966 -0.7056
  794TIP3    H123797   5.266   2.078  15.276  0.0076  0.8358  0.1856
  794TIP3    H223798   5.224   2.214  15.223 -1.3263 -0.4121 -2.1710
  795TIP3   OH223799   5.663   0.824   2.716  0.0594 -0.6151 -0.7243
  795TIP3    H123800   5.638   0.732   2.711  2.1799 -1.3701  1.2276
  795TIP3    H223801   5.708   0.841   2.633 -0.9569 -1.1017 -1.3962
  796TIP3   OH223802   0.498   3.062  10.866  0.0252  0.5056  0.5226
  796TIP3    H123803   0.451   2.979  10.855 -0.7649  0.6626  2.3904
  796TIP3    H223804   0.496   3.102  10.779 -0.0992 -1.1479 -0.2775
  797TIP3   OH223805   1.296   5.708  16.383 -0.2391  0.2408 -0.0478
  797TIP3    H123806   1.247   5.669  16.311 -1.3809  2.1992 -0.3951
  797TIP3    H223807   1.375   5.744  16.342  0.0574 -0.2917  0.0317
  798TIP3   OH223808   6.674   3.343   3.775  0.6775 -0.5689  0.0438
  798TIP3    H123809   6.640   3.424   3.737  3.3850  0.3807 -0.5572
  798TIP3    H223810   6.622   3.331   3.855 -0.6571  1.0319 -0.5147
  799TIP3   OH223811   3.098   1.967  12.552 -0.1757  0.0052  0.4550
  799TIP3    H123812   3.193   1.963  12.556 -0.1568 -0.0759 -0.0144
  799TIP3    H223813   3.072   2.010  12.634  0.0825 -2.5376  1.9767
  800TIP3   OH223814   3.658   6.166  11.383  0.2810  0.0691  0.4355
  800TIP3    H123815   3.615   6.095  11.336 -0.1946  0.5879  0.0795
  800TIP3    H223816   3.683   6.229  11.316  0.8413  0.1692  0.7320
  801TIP3   OH223817   2.795   4.401  14.078 -0.3933 -0.1505 -0.4160
  801TIP3    H123818   2.732   4.393  14.150 -0.6915 -0.4755 -0.7105
  801TIP3    H223819   2.879   4.378  14.117  0.1064  3.1023  0.7567
  802TIP3   OH223820   5.650   1.656   1.939 -0.6908 -0.1602  0.1645
  802TIP3    H123821   5.674   1.663   1.847 -3.8595  0.3581 -0.7198
  802TIP3    H223822   5.714   1.710   1.985 -0.2535  1.2224 -1.9604
  803TIP3   OH223823   5.916   6.561   3.362 -0.0808  0.0376  0.4933
  803TIP3    H123824   5.893   6.533   3.273 -1.0945 -0.1346  0.7989
  803TIP3    H223825   5.888   6.488   3.418  1.9199 -0.5342  0.8422
  804TIP3   OH223826   4.545   1.316  13.847 -0.4099 -0.5652  0.3384
  804TIP3    H123827   4.504   1.403  13.845  1.4170  0.3403 -0.3798
  804TIP3    H223828   4.568   1.303  13.938  1.7751  1.0082  0.0965
  805TIP3   OH223829   2.182   5.517   5.563  0.1615  0.0143  0.4733
  805TIP3    H123830   2.226   5.432   5.565  0.1922 -0.0475 -1.3991
  805TIP3    H223831   2.238   5.574   5.614  0.5641 -0.8974  1.0805
  806TIP3   OH223832   2.601   0.664   4.835  0.4164  0.0075 -0.2849
  806TIP3    H123833   2.652   0.745   4.832  0.5072  0.1755  2.9081
  806TIP3    H223834   2.510   0.693   4.842  0.2905 -0.2201 -0.9049
  807TIP3   OH223835   0.922   0.368  11.991  0.1973  0.2683  1.0481
  807TIP3    H123836   0.906   0.406  11.904  0.8978  1.1143  1.2747
  807TIP3    H223837   0.839   0.380  12.037 -0.4861 -1.0412  0.2055
  808TIP3   OH223838   1.369   2.203  16.013 -0.3407 -0.3775  0.4008
  808TIP3    H123839   1.361   2.172  15.922 -2.9725  0.4573  0.2719
  808TIP3    H223840   1.330   2.132  16.065 -1.2176  0.2438  0.6093
  809TIP3   OH223841   4.509   5.372   5.901  0.3616  0.5260  0.7806
  809TIP3    H123842   4.509   5.409   5.813  0.7101  0.6671  0.8390
  809TIP3    H223843   4.444   5.302   5.898  1.4063 -0.4295  0.0092
  810TIP3   OH223844   3.287   6.651  12.385 -0.2885  0.0258 -0.1268
  810TIP3    H123845   3.215   6.592  12.407 -0.2945  0.0515 -0.0745
  810TIP3    H223846   3.318   6.683  12.470 -1.0039  0.9539 -0.1952
  811TIP3   OH223847   1.147   2.967  11.884 -0.6198  0.1726  0.1688
  811TIP3    H123848   1.075   3.024  11.857 -1.3711  0.3276  2.3346
  811TIP3    H223849   1.222   3.025  11.891 -1.1218  0.7084  1.2740
  812TIP3   OH223850   5.430   5.044  12.966 -0.4420 -0.0895 -0.6232
  812TIP3    H123851   5.514   5.085  12.943  0.5708 -1.6487  0.1034
  812TIP3    H223852   5.455   4.960  13.005 -2.4080 -1.1390 -1.5089
  813TIP3   OH223853   3.340   0.902   5.654 -0.3367  0.1416 -0.4010
  813TIP3    H123854   3.376   0.855   5.579  0.9499  1.1305 -0.4404
  813TIP3    H223855   3.262   0.945   5.620 -1.3335 -1.6133 -0.4544
  814TIP3   OH223856   2.522   4.829   1.984  0.2854 -0.1096 -0.2291
  814TIP3    H123857   2.594   4.768   1.968 -1.7273 -2.2850 -1.5975
  814TIP3    H223858   2.520   4.884   1.906  0.9467  0.5163  0.1831
  815TIP3   OH223859   3.493   5.799   4.502  0.4588  0.4504  0.5258
  815TIP3    H123860   3.560   5.796   4.434  0.0117  0.1687  0.0941
  815TIP3    H223861   3.433   5.868   4.474 -0.7349 -0.8754 -0.3363
  816TIP3   OH223862   6.473   1.867  14.790  0.4913 -0.1820  0.1599
  816TIP3    H123863   6.537   1.859  14.861  1.6552 -0.7582 -0.9337
  816TIP3    H223864   6.525   1.871  14.710 -0.8315 -0.6620 -0.7614
  817TIP3   OH223865   5.534   1.524  11.286  0.6630  0.2291  0.1594
  817TIP3    H123866   5.590   1.449  11.267  0.3154  0.2901 -1.2798
  817TIP3    H223867   5.593   1.599  11.285  0.8748  0.0725  0.7297
  818TIP3   OH223868   0.871   1.676  14.737 -0.1401  0.0438 -0.2557
  818TIP3    H123869   0.837   1.723  14.813  1.2917 -0.8833  1.0248
  818TIP3    H223870   0.966   1.675  14.750  0.1470 -0.1161 -2.0902
  819TIP3   OH223871   0.481   2.288  17.009  0.5154 -0.3283 -0.2136
  819TIP3    H123872   0.551   2.349  17.033 -1.4708  1.5137  1.3152
  819TIP3    H223873   0.447   2.321  16.926 -0.7411  0.9045  0.7500
  820TIP3   OH223874   4.602   4.301   0.826  0.7373  0.5383  0.4321
  820TIP3    H123875   4.680   4.280   0.877 -0.0762  3.2490  3.0884
  820TIP3    H223876   4.631   4.303   0.735  3.1214 -0.9930  1.0889
  821TIP3   OH223877   2.739   1.451   4.322  0.0026  0.6228  0.4465
  821TIP3    H123878   2.728   1.510   4.248  1.3092 -1.0095 -1.1474
  821TIP3    H223879   2.652   1.415   4.339 -0.2716  0.8597 -0.4378
  822TIP3   OH223880   3.416   3.834   1.856  0.0208  0.3718 -0.5697
  822TIP3    H123881   3.495   3.888   1.846  1.2848 -1.2901  0.0016
  822TIP3    H223882   3.438   3.774   1.927 -1.2231 -1.1016 -1.3973
  823TIP3   OH223883   1.408   5.147  12.445 -0.4096  0.7087  0.1830
  823TIP3    H123884   1.414   5.205  12.520  0.1333 -0.6548  1.2382
  823TIP3    H223885   1.500   5.127  12.423 -0.5701  0.8124 -0.6281
  824TIP3   OH223886   4.684   3.130  13.027 -0.1227 -0.5777  0.4591
  824TIP3    H123887   4.674   3.058  12.964  0.0219 -2.8718  2.8737
  824TIP3    H223888   4.778   3.144  13.034 -0.1854  2.3411 -2.4771
  825TIP3   OH223889   5.494   3.517   3.108  0.5358 -0.2721 -0.1465
  825TIP3    H123890   5.406   3.545   3.081  0.5835 -0.5874 -0.6309
  825TIP3    H223891   5.532   3.478   3.030  0.6396 -1.2937  0.3952
  826TIP3   OH223892   1.902   4.898  14.479  0.6722  0.1841 -0.2672
  826TIP3    H123893   1.868   4.841  14.410 -0.5077  0.6611 -0.1008
  826TIP3    H223894   1.975   4.848  14.518 -0.3988 -1.2747 -0.0546
  827TIP3   OH223895   5.939   5.721   6.345  0.4054 -0.2524  0.5613
  827TIP3    H123896   6.005   5.661   6.381  1.1776  1.4867  2.2672
  827TIP3    H223897   5.924   5.784   6.415 -1.9990  0.3015 -0.3518
  828TIP3   OH223898   2.214   6.714   1.846 -0.0218 -0.1702  0.1924
  828TIP3    H123899   2.121   6.713   1.825 -0.5996  1.8812  2.2640
  828TIP3    H223900   2.234   6.623   1.867 -1.7830 -0.5071  0.5902
  829TIP3   OH223901   4.654   1.638   0.033 -0.3209 -0.4627  0.4182
  829TIP3    H123902   4.563   1.625   0.061 -0.6597  0.7492 -0.0302
  829TIP3    H223903   4.647   1.654  -0.062  0.5517 -2.1018  0.0359
  830TIP3   OH223904   1.498   5.516   4.445  0.3295 -0.0310  0.8750
  830TIP3    H123905   1.514   5.576   4.518 -0.2246  1.0337  0.1465
  830TIP3    H223906   1.583   5.475   4.429  0.7088  0.5285  1.4124
  831TIP3   OH223907   4.815   5.120   1.630  0.5082 -0.0230 -0.5637
  831TIP3    H123908   4.844   5.210   1.646  2.3148 -0.4196 -1.4052
  831TIP3    H223909   4.869   5.066   1.687 -1.4012 -0.5546  0.8604
  832TIP3   OH223910   3.092   2.760  15.514  0.3661 -0.2012  0.1576
  832TIP3    H123911   3.015   2.811  15.539  0.6160 -0.3940  1.3605
  832TIP3    H223912   3.112   2.790  15.425 -1.6065 -0.7725 -0.5480
  833TIP3   OH223913   1.659   0.126  15.740  0.9192  0.2736  0.3798
  833TIP3    H123914   1.647   0.210  15.696  1.1480 -0.1598 -0.5280
  833TIP3    H223915   1.572   0.103  15.772  0.4099 -0.1610 -1.2434
  834TIP3   OH223916   4.208   1.000  14.535 -0.1357  0.4642  0.1475
  834TIP3    H123917   4.162   1.033  14.458  0.5128  0.1533 -0.3792
  834TIP3    H223918   4.184   0.907  14.540 -0.0071  0.4332  0.1969
  835TIP3   OH223919   1.910   3.677   0.664  0.0164  0.1984  0.2471
  835TIP3    H123920   1.996   3.674   0.622  0.0255  1.2610  0.1646
  835TIP3    H223921   1.848   3.686   0.592  0.1196  3.4503  0.4294
  836TIP3   OH223922   0.918   1.638   2.038 -0.0330 -0.1082 -0.1109
  836TIP3    H123923   0.926   1.556   2.087 -1.0889  1.0480  2.1266
  836TIP3    H223924   0.905   1.705   2.105 -0.0671  1.7942 -1.9207
  837TIP3   OH223925   2.835   5.429  12.207  0.0763  0.3650  0.5139
  837TIP3    H123926   2.857   5.460  12.119 -0.6417  0.6623  0.4320
  837TIP3    H223927   2.909   5.456  12.261  1.2809 -1.1874 -0.2633
  838TIP3   OH223928   1.167   0.362  13.171 -0.4496 -0.4610 -0.0407
  838TIP3    H123929   1.174   0.404  13.085 -0.2126 -0.5211 -0.0518
  838TIP3    H223930   1.142   0.433  13.230 -0.6066 -0.4178 -0.1572
  839TIP3   OH223931   0.920   5.927   3.812  0.3220 -0.6055  0.1256
  839TIP3    H123932   1.000   5.897   3.855 -0.9288 -0.4790  2.7396
  839TIP3    H223933   0.942   6.013   3.777  1.6292 -1.0442 -0.1812
  840TIP3   OH223934   2.177   1.847   1.915  0.0580  0.9371  0.0757
  840TIP3    H123935   2.268   1.850   1.884 -0.1934 -1.2212 -1.0304
  840TIP3    H223936   2.125   1.845   1.835 -0.8313 -0.2054  0.6602
  841TIP3   OH223937   0.266   6.296   5.954  0.0636  0.7498 -0.2553
  841TIP3    H123938   0.180   6.255   5.956  1.3440 -2.2293 -0.5807
  841TIP3    H223939   0.275   6.338   6.040 -1.4045  0.4660  0.0589
  842TIP3   OH223940   1.367   1.582  14.767  0.0755 -0.3771 -0.3899
  842TIP3    H123941   1.395   1.521  14.835 -0.2436 -1.0712 -0.8685
  842TIP3    H223942   1.429   1.655  14.773  1.6965 -1.6265 -1.0829
  843TIP3   OH223943   2.599   4.672  16.490 -0.3449  0.6008 -0.1553
  843TIP3    H123944   2.544   4.609  16.442  0.5976 -0.2126 -0.2022
  843TIP3    H223945   2.536   4.731  16.531 -1.2730 -0.4611  0.0157
  844TIP3   OH223946   6.655   6.755   1.582  0.1639  0.2261  0.2038
  844TIP3    H123947   6.669   6.808   1.504 -0.8525  0.6297  0.2790
  844TIP3    H223948   6.731   6.771   1.637 -0.2182  1.7677  0.3131
  845TIP3   OH223949   0.138   3.488   2.502  0.0786  0.0765 -0.0287
  845TIP3    H123950   0.120   3.501   2.409 -0.1673 -0.5524 -0.0756
  845TIP3    H223951   0.052   3.488   2.544  0.2817  2.1988  0.4688
  846TIP3   OH223952   6.121   5.492  10.900  0.4136 -0.4426  0.3156
  846TIP3    H123953   6.059   5.491  10.827 -0.1161 -1.7746  0.7618
  846TIP3    H223954   6.204   5.518  10.860 -0.4766  1.9027 -0.2074
  847TIP3   OH223955   3.060   3.140   2.196  0.1890 -0.2210  0.0265
  847TIP3    H123956   2.978   3.102   2.164 -0.6243  0.2915  1.4247
  847TIP3    H223957   3.033   3.218   2.245  1.5226  0.0083  0.4371
  848TIP3   OH223958   1.115   5.832   3.160  0.2879 -0.2257 -0.4540
  848TIP3    H123959   1.189   5.801   3.211 -1.0933 -1.0484  1.1322
  848TIP3    H223960   1.086   5.756   3.109  0.8213  0.2335 -1.4851
  849TIP3   OH223961   3.866   3.181   3.710  0.1238 -0.0922 -0.0269
  849TIP3    H123962   3.851   3.262   3.662 -0.5800  0.5307  1.1975
  849TIP3    H223963   3.944   3.197   3.763  0.2096 -0.3575 -0.0684
  850TIP3   OH223964   3.460   4.617   6.362 -0.1992  0.0565  0.1848
  850TIP3    H123965   3.543   4.661   6.379  0.0409 -0.9632  1.9412
  850TIP3    H223966   3.461   4.598   6.268  0.7901  1.5011 -0.1324
  851TIP3   OH223967   4.880   6.183   4.438  0.2409 -0.9469 -0.4104
  851TIP3    H123968   4.819   6.185   4.364  0.2418 -1.5205 -0.4367
  851TIP3    H223969   4.844   6.245   4.501 -0.6327 -1.5976 -0.2431
  852TIP3   OH223970   2.989   6.418  16.951 -0.4190  0.6185  0.0814
  852TIP3    H123971   3.003   6.477  17.025 -1.3354  1.5092 -0.4396
  852TIP3    H223972   3.032   6.461  16.877 -1.3070  0.7791 -0.3576
  853TIP3   OH223973   0.585   0.246  15.511 -0.2899  0.3332 -0.8281
  853TIP3    H123974   0.627   0.249  15.597  2.5926 -0.4948 -2.1121
  853TIP3    H223975   0.593   0.335  15.477 -2.2464  0.8953  0.0424
  854TIP3   OH223976   1.074   4.643   4.786 -0.6274 -0.1080 -0.6830
  854TIP3    H123977   1.111   4.727   4.758 -0.0501 -1.0506 -2.9525
  854TIP3    H223978   0.989   4.638   4.743 -0.8914 -0.4963 -0.1349
  855TIP3   OH223979   2.686   5.382  11.278 -0.7143  0.1311 -0.2993
  855TIP3    H123980   2.704   5.442  11.205 -2.4773  1.6326  0.3840
  855TIP3    H223981   2.744   5.308  11.264  3.2165  2.8489 -0.0798
  856TIP3   OH223982   3.555   1.630   0.203 -0.2257  0.0687 -0.3248
  856TIP3    H123983   3.571   1.567   0.273 -1.0572  1.0460  0.7728
  856TIP3    H223984   3.635   1.681   0.197 -0.5450  0.7100  0.6975
  857TIP3   OH223985   3.507   2.996   0.630  0.2797  0.6832  0.2391
  857TIP3    H123986   3.426   3.042   0.651  0.7468  1.5682  0.1649
  857TIP3    H223987   3.544   3.046   0.557  0.0823 -0.6749 -0.8392
  858TIP3   OH223988   5.348   1.220  15.106 -0.0381 -0.2367  0.2194
  858TIP3    H123989   5.315   1.263  15.027 -3.4578 -1.0969  1.0157
  858TIP3    H223990   5.369   1.293  15.165 -0.8806  0.4026 -0.2466
  859TIP3   OH223991   1.218   1.580   5.137 -0.0463  0.3901 -1.0285
  859TIP3    H123992   1.219   1.487   5.157 -0.8656  0.4419 -0.7243
  859TIP3    H223993   1.141   1.592   5.081 -1.5225  1.2920  1.0484
  860TIP3   OH223994   0.234   6.274   3.697  0.0395  0.4643 -0.0267
  860TIP3    H123995   0.153   6.325   3.698  0.5085  1.2204  0.4375
  860TIP3    H223996   0.218   6.205   3.632 -1.5384 -0.3555  1.1303
  861TIP3   OH223997   3.563   5.367  15.781 -0.3651 -0.5080  0.8941
  861TIP3    H123998   3.629   5.309  15.819 -1.3596 -1.5886  1.0074
  861TIP3    H223999   3.491   5.309  15.756 -2.1603  0.8517  2.6205
  862TIP3   OH224000   0.383   0.005  15.687 -0.1420  0.2264  0.2539
  862TIP3    H124001   0.440   0.029  15.760  0.1630 -0.8194  0.3765
  862TIP3    H224002   0.304  -0.031  15.728 -0.7567  1.3240  0.0792
  863TIP3   OH224003   6.751   5.134   3.616  0.2571 -0.1287  0.0905
  863TIP3    H124004   6.717   5.123   3.528 -0.5863 -0.7550  0.4824
  863TIP3    H224005   6.794   5.220   3.615 -1.7486  0.9266 -0.3153
  864TIP3   OH224006   3.649   0.160  11.487  0.4575  0.1465 -0.1004
  864TIP3    H124007   3.629   0.254  11.484 -0.0787  0.0122 -0.8478
  864TIP3    H224008   3.672   0.137  11.397 -1.4549 -0.8664 -0.3889
  865TIP3   OH224009   5.035   0.015   1.546  0.4180 -0.0474  0.4960
  865TIP3    H124010   4.956   0.065   1.527  0.9432  1.0791  1.1782
  865TIP3    H224011   5.087   0.073   1.602  0.8994 -1.4866  1.6081
  866TIP3   OH224012   6.437   0.647  13.257 -0.4081 -0.1268 -0.2322
  866TIP3    H124013   6.404   0.584  13.194  0.8428 -1.1182  0.0490
  866TIP3    H224014   6.362   0.669  13.311 -0.6479 -2.3589  0.4577
  867TIP3   OH224015   0.562   0.553   5.242 -0.0059  0.3025 -0.1283
  867TIP3    H124016   0.489   0.497   5.270  0.6560 -0.9976 -0.8979
  867TIP3    H224017   0.592   0.514   5.160  1.2367  1.1034 -0.0802
  868TIP3   OH224018   1.508   0.725  14.223 -0.0561 -0.2026 -0.4081
  868TIP3    H124019   1.547   0.807  14.193 -0.1408 -0.3931 -1.0547
  868TIP3    H224020   1.573   0.687  14.282 -0.2566  0.6011  0.3474
  869TIP3   OH224021   3.638   3.819  10.708 -0.2706  0.4403 -0.1829
  869TIP3    H124022   3.669   3.878  10.640 -0.6592  0.5175 -0.2974
  869TIP3    H224023   3.644   3.732  10.668  1.8457  0.1933  0.5414
  870TIP3   OH224024   6.289   5.393  12.867 -0.0576 -0.1176 -0.0109
  870TIP3    H124025   6.384   5.391  12.877 -0.0881  0.4804  0.4645
  870TIP3    H224026   6.257   5.332  12.934 -0.0103 -0.3898 -0.2328
  871TIP3   OH224027   1.028   6.619   3.630  0.0151  0.3169 -0.5366
  871TIP3    H124028   0.970   6.641   3.703 -0.0052 -1.8539  0.1451
  871TIP3    H224029   0.980   6.555   3.579  0.9942  0.0355 -1.1366
  872TIP3   OH224030   0.183   4.832  13.717 -0.1663  0.1642 -0.3843
  872TIP3    H124031   0.259   4.813  13.773  1.2151  1.1365 -1.8398
  872TIP3    H224032   0.140   4.747  13.706  0.5535 -0.3732  0.6713
  873TIP3   OH224033   5.663   1.406   3.391 -0.2927  0.6991  0.5489
  873TIP3    H124034   5.620   1.430   3.309  0.1505  2.8759  0.8914
  873TIP3    H224035   5.645   1.313   3.401 -2.3707  0.8870 -0.8060
  874TIP3   OH224036   5.858   1.121   0.828  0.0790  0.2745  1.2188
  874TIP3    H124037   5.775   1.127   0.782  0.9307  0.5907 -0.3611
  874TIP3    H224038   5.914   1.187   0.785  1.6401 -1.0526  1.1015
  875TIP3   OH224039   5.582   0.774   0.555 -0.1959 -0.0828  0.1942
  875TIP3    H124040   5.596   0.723   0.635 -1.0718 -0.9124 -0.1653
  875TIP3    H224041   5.670   0.787   0.519  0.1101 -0.6194  0.7362
  876TIP3   OH224042   2.341   2.502  14.762 -0.0706  0.8026  0.0729
  876TIP3    H124043   2.344   2.466  14.851 -0.1913  2.9706  1.0173
  876TIP3    H224044   2.260   2.553  14.760 -1.1946 -0.8857 -2.0359
  877TIP3   OH224045   1.435   4.884  13.142 -0.1796  0.0317  0.1992
  877TIP3    H124046   1.462   4.792  13.142 -1.9194 -0.7297  4.6910
  877TIP3    H224047   1.359   4.887  13.084 -0.7481 -1.6670  0.7947
  878TIP3   OH224048   2.890   5.625  16.934 -0.0736  0.0972  0.2155
  878TIP3    H124049   2.930   5.711  16.917  0.3283 -0.1497 -0.0997
  878TIP3    H224050   2.963   5.564  16.932 -0.0589 -0.0245  2.4056
  879TIP3   OH224051   5.568   4.168  16.330 -0.2522  0.4607  0.1215
  879TIP3    H124052   5.567   4.132  16.419 -0.8853  1.1291  0.4023
  879TIP3    H224053   5.513   4.246  16.336 -0.4498  0.4109 -0.9090
  880TIP3   OH224054   3.787   3.484   2.725  0.2297 -0.6659  0.0825
  880TIP3    H124055   3.808   3.418   2.659 -1.3879 -0.6862 -0.4610
  880TIP3    H224056   3.871   3.523   2.748  0.6981  1.2520 -4.0102
  881TIP3   OH224057   0.340   4.894   3.869 -0.1634 -0.1671 -0.0629
  881TIP3    H124058   0.379   4.871   3.954 -1.0175 -1.5686 -0.0173
  881TIP3    H224059   0.275   4.960   3.890  0.0787 -0.0355  0.2869
  882TIP3   OH224060   6.628   2.572   3.109 -0.3129 -0.6573  0.2481
  882TIP3    H124061   6.650   2.665   3.115 -0.2774 -0.6958  0.7127
  882TIP3    H224062   6.534   2.569   3.130 -0.4518 -0.6598 -0.3475
  883TIP3   OH224063   0.025   3.045   6.081  0.6459 -0.5744  0.1817
  883TIP3    H124064   0.086   3.010   6.147  1.5325  1.8444  0.7574
  883TIP3    H224065   0.081   3.087   6.016 -0.3348 -0.4809 -0.6301
  884TIP3   OH224066   3.731   3.499   6.970  0.5386 -0.0387 -0.8488
  884TIP3    H124067   3.666   3.515   6.902  1.6287 -0.2083 -1.9709
  884TIP3    H224068   3.814   3.497   6.923  1.2335 -1.0266  0.3779
  885TIP3   OH224069   4.924   5.338  16.615 -0.3319 -0.9040  0.0425
  885TIP3    H124070   4.955   5.393  16.544 -0.9886  0.7744  1.0011
  885TIP3    H224071   5.003   5.308  16.659  0.0273  0.5374  0.4158
  886TIP3   OH224072   0.495   0.202  14.413  0.4491 -0.6782 -0.1131
  886TIP3    H124073   0.479   0.108  14.404  0.0353 -0.7851  1.3713
  886TIP3    H224074   0.417   0.236  14.457  1.3808  0.0021  1.1025
  887TIP3   OH224075   1.657   4.820  16.009 -0.3671 -0.2324 -0.7635
  887TIP3    H124076   1.592   4.889  16.022  0.7506  0.8669 -0.8610
  887TIP3    H224077   1.614   4.757  15.951 -0.5789  1.5910 -2.6822
  888TIP3   OH224078   0.143   6.599   1.848 -0.2842 -0.2610 -0.0299
  888TIP3    H124079   0.053   6.579   1.874 -0.4510  0.1832 -0.2739
  888TIP3    H224080   0.178   6.514   1.820 -0.3593 -0.5980  0.8453
  889TIP3   OH224081   1.357   4.293   1.377  0.2903  0.7062 -0.0437
  889TIP3    H124082   1.410   4.304   1.456  0.4100 -0.2686  0.0244
  889TIP3    H224083   1.391   4.359   1.316  1.2922  0.3752  0.1503
  890TIP3   OH224084   6.367   2.986  14.012  0.5264  0.0819 -0.1144
  890TIP3    H124085   6.396   2.895  14.008 -0.3764 -0.3086  1.2179
  890TIP3    H224086   6.274   2.980  14.033  0.4013  1.3190 -0.2464
  891TIP3   OH224087   5.692   6.604  14.509  1.2006  0.0828 -0.0048
  891TIP3    H124088   5.637   6.535  14.473  1.6615 -0.9745  1.2337
  891TIP3    H224089   5.710   6.662  14.435 -1.5142  0.4716 -0.4691
  892TIP3   OH224090   5.391   4.119  12.468  0.5524  0.5615  0.1413
  892TIP3    H124091   5.450   4.120  12.543  1.6914  0.4151 -0.7292
  892TIP3    H224092   5.370   4.027  12.455  2.2529  0.2945 -1.1219
  893TIP3   OH224093   2.320   1.575   1.749 -0.3629 -0.3739 -0.0326
  893TIP3    H124094   2.356   1.662   1.764 -0.0899 -0.6301  0.8287
  893TIP3    H224095   2.383   1.532   1.692 -0.7282  0.1332 -0.8568
  894TIP3   OH224096   5.619   4.586  12.332 -0.1620  0.4653  0.5111
  894TIP3    H124097   5.539   4.617  12.375 -0.1578  1.4750 -0.1870
  894TIP3    H224098   5.682   4.657  12.345  0.9190 -0.6697  1.7971
  895TIP3   OH224099   0.813   6.100  15.835  0.6671  0.1507 -0.0118
  895TIP3    H124100   0.746   6.061  15.778  1.1634 -1.6361  0.5594
  895TIP3    H224101   0.789   6.192  15.841 -1.3524 -0.3039 -0.3625
  896TIP3   OH224102   5.471   2.706   2.629 -0.3527  0.4106  0.5787
  896TIP3    H124103   5.396   2.664   2.587 -0.5084  0.6245  0.6415
  896TIP3    H224104   5.444   2.718   2.720 -0.2608  0.5280  0.5909
  897TIP3   OH224105   4.573   2.430   3.298 -0.2029  0.1458  0.8023
  897TIP3    H124106   4.640   2.406   3.363 -1.4740  0.4272  2.2866
  897TIP3    H224107   4.598   2.517   3.269  0.9935 -0.4254  0.0690
  898TIP3   OH224108   0.312   2.557   4.007 -0.0013 -0.1269 -0.9990
  898TIP3    H124109   0.334   2.528   3.919  1.7690  0.3057 -0.7392
  898TIP3    H224110   0.378   2.515   4.063 -2.0114 -1.6949  0.3705
  899TIP3   OH224111   6.285   6.462   5.106 -0.1723  0.0838  0.5765
  899TIP3    H124112   6.366   6.474   5.058  0.6940  0.9144  2.1738
  899TIP3    H224113   6.289   6.373   5.139  0.6512  0.4951  1.6190
  900TIP3   OH224114   0.712   3.368   4.759  0.4818  0.1331 -0.0695
  900TIP3    H124115   0.793   3.316   4.764  0.9286  0.5554 -1.9180
  900TIP3    H224116   0.654   3.328   4.823  0.9151 -2.5140 -1.1678
  901TIP3   OH224117   0.592   2.403  11.566  0.0002 -0.0158 -0.8006
  901TIP3    H124118   0.580   2.355  11.484 -1.4575 -0.2667 -0.4770
  901TIP3    H224119   0.656   2.351  11.615 -0.1914 -0.6451 -1.2089
  902TIP3   OH224120   6.382   1.402   1.846  0.3761 -0.0014  0.0460
  902TIP3    H124121   6.334   1.321   1.867 -0.0545  0.2787  0.1518
  902TIP3    H224122   6.431   1.381   1.767  0.2316 -0.3553  0.0469
  903TIP3   OH224123   6.458   6.429   2.841  0.4718  0.6238  0.3655
  903TIP3    H124124   6.511   6.456   2.767  0.0760 -0.1575 -0.2188
  903TIP3    H224125   6.476   6.494   2.909 -0.3597  2.2905 -0.9241
  904TIP3   OH224126   2.842   2.200   5.766  0.1388  0.3289  0.2562
  904TIP3    H124127   2.884   2.129   5.719 -0.8459  1.1677 -2.0580
  904TIP3    H224128   2.913   2.262   5.784  0.3163  0.8200 -1.8295
  905TIP3   OH224129   4.537   0.216   3.956  0.2472  0.5436 -0.1957
  905TIP3    H124130   4.535   0.123   3.933  2.3166 -0.0066  1.4777
  905TIP3    H224131   4.528   0.261   3.872  1.3852 -1.2271 -1.3643
  906TIP3   OH224132   4.856   6.323   1.785  0.4297 -0.4389  0.0246
  906TIP3    H124133   4.824   6.236   1.811  0.0323  0.0100  1.0862
  906TIP3    H224134   4.846   6.325   1.690 -2.9843 -0.2564  0.2833
  907TIP3   OH224135   2.090   2.399   2.350  0.4406 -0.2507  0.2127
  907TIP3    H124136   2.054   2.369   2.433 -2.6650 -0.6682 -1.1613
  907TIP3    H224137   2.061   2.335   2.286  0.8230  1.2265 -1.5434
  908TIP3   OH224138   3.411   6.712   5.074  0.5503  0.2732 -0.2533
  908TIP3    H124139   3.378   6.628   5.042  2.1638 -0.8422  0.8431
  908TIP3    H224140   3.334   6.767   5.081 -0.2563 -0.3121 -3.2486
  909TIP3   OH224141   2.844   3.873   2.705 -0.0327  0.0928  0.6142
  909TIP3    H124142   2.808   3.806   2.763  0.0400  1.4408  2.3154
  909TIP3    H224143   2.916   3.912   2.756  0.3661  1.0034 -0.6049
  910TIP3   OH224144   0.681   0.720   5.488 -0.2042 -0.1813 -0.3695
  910TIP3    H124145   0.737   0.767   5.427 -0.4835  0.2166 -0.3233
  910TIP3    H224146   0.591   0.742   5.461 -0.3814 -1.5381 -1.0247
  911TIP3   OH224147   6.152   0.990   3.979 -0.6726  0.1286  0.0284
  911TIP3    H124148   6.192   0.919   4.030 -2.7732 -0.7379  0.5719
  911TIP3    H224149   6.123   0.949   3.898  0.4410  0.9855 -0.8466
  912TIP3   OH224150   0.266   6.600  12.122  0.0783 -0.4038  0.0573
  912TIP3    H124151   0.279   6.550  12.041 -0.8984  2.7729 -2.2447
  912TIP3    H224152   0.171   6.605  12.132  0.1804 -0.0842  0.9658
  913TIP3   OH224153   4.289   2.217   2.035 -0.2498 -0.1084  0.3678
  913TIP3    H124154   4.376   2.249   2.010  0.3859 -2.0107 -0.0378
  913TIP3    H224155   4.305   2.154   2.105 -1.0381 -2.0051 -1.0549
  914TIP3   OH224156   0.605   6.616   2.804 -0.0931 -0.2027 -0.4189
  914TIP3    H124157   0.568   6.610   2.716 -0.6505 -1.6412 -0.1194
  914TIP3    H224158   0.568   6.697   2.840 -2.2731 -1.1023 -0.4736
  915TIP3   OH224159   6.547   5.975  16.003  0.4356  0.4546  0.1859
  915TIP3    H124160   6.521   5.897  16.052 -0.1772 -0.4253 -1.4530
  915TIP3    H224161   6.508   5.962  15.916  1.6734  1.8218 -0.6114
  916TIP3   OH224162   6.214   4.869   5.858 -0.1807  0.1165  0.8304
  916TIP3    H124163   6.144   4.849   5.920 -0.8299  1.8976  0.7435
  916TIP3    H224164   6.228   4.788   5.809 -2.4671 -0.1663  0.5800
  917TIP3   OH224165   4.174   1.262  16.052  0.1370 -0.7276 -0.5188
  917TIP3    H124166   4.145   1.354  16.054  1.3118 -0.3456 -0.5712
  917TIP3    H224167   4.203   1.248  15.963  2.4666 -0.3220  0.1140
  918TIP3   OH224168   5.099   2.288   4.788  0.7135 -0.1440  0.0221
  918TIP3    H124169   5.024   2.240   4.820  0.8379 -0.1154  0.3617
  918TIP3    H224170   5.147   2.314   4.867  1.8420 -1.3697 -0.2104
  919TIP3   OH224171   1.453   5.687   2.101  0.3969  0.4878  0.1867
  919TIP3    H124172   1.472   5.704   2.193  0.1948  0.5790  0.2137
  919TIP3    H224173   1.531   5.717   2.054  1.7246 -2.1531  0.5313
  920TIP3   OH224174   3.708   2.119  16.231  0.6933  0.5102 -0.0850
  920TIP3    H124175   3.633   2.060  16.237  0.9448  0.2380  0.4867
  920TIP3    H224176   3.672   2.206  16.249 -0.0091  0.8275 -2.6284
  921TIP3   OH224177   5.061   0.898   3.519 -0.6185 -0.1920 -0.0772
  921TIP3    H124178   5.015   0.954   3.457 -1.3596 -1.0236 -0.2995
  921TIP3    H224179   5.077   0.817   3.471  1.0662  0.0573  0.0092
  922TIP3   OH224180   6.613   1.415   2.167 -0.1230 -0.4242  0.2477
  922TIP3    H124181   6.664   1.335   2.161 -0.9433 -1.0949  1.6846
  922TIP3    H224182   6.613   1.438   2.260 -0.7758  0.6541  0.0095
  923TIP3   OH224183   1.735   4.376  17.060 -0.2304  0.6471 -0.6255
  923TIP3    H124184   1.805   4.322  17.096 -0.5536 -0.1384 -1.1442
  923TIP3    H224185   1.754   4.464  17.091  1.2828  0.5503 -1.1728
  924TIP3   OH224186   0.363   5.155   1.464  0.3463  0.7843 -0.3851
  924TIP3    H124187   0.304   5.133   1.393 -0.3736 -0.5662  0.5887
  924TIP3    H224188   0.423   5.080   1.470  0.2751  0.7893  0.5343
  925TIP3   OH224189   2.228   5.288   4.042 -0.5530  0.0270  0.0424
  925TIP3    H124190   2.185   5.358   4.092 -1.2902  1.3879 -2.3587
  925TIP3    H224191   2.156   5.242   3.999  0.1226 -0.2882 -0.7749
  926TIP3   OH224192   6.176   3.771   1.142  0.0146 -0.1174 -0.3336
  926TIP3    H124193   6.161   3.781   1.048 -1.7840  0.1430 -0.0428
  926TIP3    H224194   6.269   3.748   1.149 -0.1957 -1.8406 -2.2955
  927TIP3   OH224195   4.314   4.969   4.997  0.3537  0.0097 -0.0406
  927TIP3    H124196   4.239   4.989   5.053 -0.6199 -1.5235 -0.7465
  927TIP3    H224197   4.353   4.890   5.036  0.9511  0.1663 -0.3044
  928TIP3   OH224198   6.371   2.330   5.069 -0.7753  0.3581 -0.6732
  928TIP3    H124199   6.361   2.345   4.975  0.4377  1.0380 -0.7100
  928TIP3    H224200   6.412   2.410   5.102  1.6611 -1.0262 -0.1026
  929TIP3   OH224201   4.871   1.339   4.865  0.2006 -0.4493 -0.0441
  929TIP3    H124202   4.911   1.280   4.928  0.9684  0.0283 -0.0797
  929TIP3    H224203   4.903   1.426   4.889  0.0376 -0.1905 -0.7333
  930TIP3   OH224204   4.931   4.999   4.338  0.6139 -0.2005 -0.0624
  930TIP3    H124205   4.927   5.000   4.434 -0.7805  0.2301 -0.0955
  930TIP3    H224206   4.925   5.092   4.313  1.4664 -0.2757 -0.5568
  931TIP3   OH224207   4.157   5.557  14.280  0.1806  0.0795  0.6276
  931TIP3    H124208   4.157   5.569  14.185  0.9450  0.1732  0.6294
  931TIP3    H224209   4.133   5.465  14.293 -5.0425  1.1564  0.5838
  932TIP3   OH224210   6.091   3.554  14.797 -0.9599 -0.1298 -0.5191
  932TIP3    H124211   6.052   3.492  14.859  0.1518 -0.6280 -0.2797
  932TIP3    H224212   6.094   3.506  14.714  0.1457 -0.5262 -0.2723
  933TIP3   OH224213   0.343   5.188  16.540  0.7326 -0.0576  0.2004
  933TIP3    H124214   0.287   5.239  16.481 -0.4190 -1.5789 -0.0997
  933TIP3    H224215   0.321   5.097  16.520  3.9447 -0.7858 -0.5104
  934TIP3   OH224216   6.243   6.350  13.168 -0.3194  0.2963  0.7250
  934TIP3    H124217   6.317   6.305  13.128  0.4779  1.6586  0.6381
  934TIP3    H224218   6.172   6.285  13.166  0.7225 -0.8711  0.3999
  935TIP3   OH224219   4.927   3.509   5.804 -0.4574 -0.0418 -0.2270
  935TIP3    H124220   5.015   3.489   5.773  0.9556  0.7710  2.8542
  935TIP3    H224221   4.910   3.444   5.872 -3.5129 -1.9507 -2.5414
  936TIP3   OH224222   6.662   1.055  15.052 -0.4076  0.1284 -0.0757
  936TIP3    H124223   6.645   1.029  14.962  2.0311 -0.5573 -0.3975
  936TIP3    H224224   6.689   0.975  15.096  0.9085  0.9050  0.5874
  937TIP3   OH224225   1.248   2.753   1.969 -0.3347  0.1040  0.0870
  937TIP3    H124226   1.276   2.830   1.920 -1.5430  1.2780  1.1475
  937TIP3    H224227   1.329   2.718   2.006  0.5487 -0.5431 -2.2579
  938TIP3   OH224228   4.232   3.564  12.477 -0.0189 -0.2729  0.7084
  938TIP3    H124229   4.245   3.473  12.453 -0.6109 -0.4383  0.9900
  938TIP3    H224230   4.313   3.608  12.450  0.7482 -1.0812  1.5816
  939TIP3   OH224231   4.720   4.109   2.805  0.0011 -0.0120  0.3586
  939TIP3    H124232   4.704   4.176   2.873 -0.4826 -0.4213  0.6525
  939TIP3    H224233   4.791   4.146   2.753 -1.4438  1.5764 -0.5941
  940TIP3   OH224234   1.942   1.576  12.585 -0.3801  0.0242  0.2228
  940TIP3    H124235   1.882   1.524  12.531 -1.0735  2.3711 -1.4346
  940TIP3    H224236   1.902   1.663  12.588 -0.1351  0.2081  4.2293
  941TIP3   OH224237   5.658   5.166  12.555 -0.5118 -0.0852 -0.0270
  941TIP3    H124238   5.692   5.249  12.522  0.2562 -0.9297 -1.3961
  941TIP3    H224239   5.704   5.099  12.506 -1.0767 -1.3477  1.1043
  942TIP3   OH224240   6.478   4.207   3.648 -0.0633  0.0191 -0.1810
  942TIP3    H124241   6.505   4.280   3.592  2.9310  0.2873  1.3581
  942TIP3    H224242   6.546   4.140   3.635  0.3117 -0.2118  2.4011
  943TIP3   OH224243   1.991   3.873   0.125 -0.6783 -0.1091  0.3140
  943TIP3    H124244   1.910   3.924   0.135 -0.2812  0.7282 -0.5982
  943TIP3    H224245   1.980   3.799   0.186 -1.9002  0.2651  0.5848
  944TIP3   OH224246   5.052   5.166   5.263  0.8366 -0.3048  0.3236
  944TIP3    H124247   4.991   5.212   5.321 -0.7570 -1.3011 -0.4768
  944TIP3    H224248   5.138   5.180   5.302  0.0050  0.4241  1.9988
  945TIP3   OH224249   3.390   4.106   2.023 -0.3761 -0.0892 -0.5455
  945TIP3    H124250   3.454   4.039   2.050  0.7251  0.7713 -0.9359
  945TIP3    H224251   3.405   4.117   1.929 -0.4346  0.8045 -0.4608
  946TIP3   OH224252   4.974   6.282   0.075  0.0204 -0.0683 -0.4513
  946TIP3    H124253   4.979   6.204   0.130  1.0821  1.2116  1.3679
  946TIP3    H224254   5.007   6.253  -0.010  0.3594 -1.6224  0.1721
  947TIP3   OH224255   2.966   6.151   4.251  0.3394  0.3319 -0.4122
  947TIP3    H124256   2.911   6.207   4.196  0.3310  0.4126 -0.3212
  947TIP3    H224257   2.927   6.064   4.244  0.8381  0.1660 -1.2176
  948TIP3   OH224258   3.502   2.465   0.030 -0.1654  0.8916 -0.1986
  948TIP3    H124259   3.538   2.389   0.076  0.1521  1.9968  1.4523
  948TIP3    H224260   3.579   2.519   0.010 -0.5282  1.4678 -0.0564
  949TIP3   OH224261   5.704   3.852   1.703  0.2506 -0.1870  0.5635
  949TIP3    H124262   5.650   3.930   1.706  0.3890  0.0200 -1.2065
  949TIP3    H224263   5.794   3.884   1.707  0.4484  0.0992 -2.8922
  950TIP3   OH224264   6.463   4.303   2.011 -0.2866 -0.4495 -0.1169
  950TIP3    H124265   6.376   4.292   1.971  0.5351  0.2388 -2.2226
  950TIP3    H224266   6.515   4.231   1.974  1.0098  1.2988 -1.9268
  951TIP3   OH224267   2.125   0.794  16.565  0.2300  0.3310  0.0823
  951TIP3    H124268   2.128   0.733  16.491  2.3624 -0.6811  0.9289
  951TIP3    H224269   2.056   0.759  16.622  1.5023 -1.4333  0.6171
  952TIP3   OH224270   0.257   5.158   6.109  0.4423  0.8653 -0.0558
  952TIP3    H124271   0.294   5.246   6.122 -0.1996  0.9164  1.7836
  952TIP3    H224272   0.270   5.115   6.194  1.6306 -1.1898 -1.2058
  953TIP3   OH224273   3.990   4.996  11.101 -0.2213  0.3114  0.6687
  953TIP3    H124274   4.036   5.047  11.034 -0.4582  0.4349  0.5989
  953TIP3    H224275   3.971   4.913  11.058  1.3742 -0.3681  1.2157
  954TIP3   OH224276   3.321   4.696  13.839 -0.5205  0.1208  0.2857
  954TIP3    H124277   3.243   4.701  13.894 -0.9170  0.8327 -0.3349
  954TIP3    H224278   3.317   4.774  13.784  0.0068 -0.4472 -0.5716
  955TIP3   OH224279   4.150   2.231   5.139 -0.1995  0.2121  0.3289
  955TIP3    H124280   4.059   2.251   5.117 -0.8521  0.0894  2.6385
  955TIP3    H224281   4.145   2.152   5.193  1.1218  0.9322  1.5752
  956TIP3   OH224282   2.972   0.461  17.310 -0.2158  0.0704 -0.0841
  956TIP3    H124283   2.914   0.388  17.288  0.1033  0.5607 -2.9809
  956TIP3    H224284   2.947   0.486  17.399 -3.7682 -0.3686 -0.8198
  957TIP3   OH224285   1.694   6.645   6.332 -0.1552  0.1485  0.3561
  957TIP3    H124286   1.753   6.570   6.327  0.7790  0.9248 -0.5110
  957TIP3    H224287   1.610   6.611   6.301  0.3753 -0.4135 -0.4974
  958TIP3   OH224288   3.952   1.455   6.815  0.5522 -0.5079 -0.4000
  958TIP3    H124289   4.032   1.506   6.833  0.5475 -1.1226  1.6007
  958TIP3    H224290   3.939   1.464   6.720  1.7198  1.4699 -0.4331
  959TIP3   OH224291   6.729   0.975  11.850 -0.0811 -0.2705 -0.2406
  959TIP3    H124292   6.703   1.054  11.804 -0.2266 -0.8900 -1.2555
  959TIP3    H224293   6.652   0.919  11.849 -0.1820 -0.1875  1.0411
  960TIP3   OH224294   2.457   3.311  13.561  0.1941  0.4369 -0.3010
  960TIP3    H124295   2.526   3.249  13.536 -1.6529 -2.5556  1.4597
  960TIP3    H224296   2.446   3.299  13.655 -2.0655  1.5037 -0.3573
  961TIP3   OH224297   5.053   4.659  13.956  0.4250  0.3877  0.3556
  961TIP3    H124298   5.129   4.619  13.913  0.8426  1.2049  0.3271
  961TIP3    H224299   4.993   4.680  13.884  0.4375  0.3207  0.3251
  962TIP3   OH224300   5.761   0.913  17.322 -0.1069  0.4263  0.2757
  962TIP3    H124301   5.807   0.992  17.293 -1.7209  0.5422 -2.3299
  962TIP3    H224302   5.669   0.940  17.329 -0.3492 -0.6568  1.8376
  963TIP3   OH224303   2.456   1.313  10.980 -0.5979 -0.3344  0.2978
  963TIP3    H124304   2.492   1.306  11.068 -0.1887  0.5706  0.2093
  963TIP3    H224305   2.454   1.407  10.962 -0.6555 -0.5112 -0.6713
  964TIP3   OH224306   1.925   4.179  11.045 -0.6873  0.0600  0.4243
  964TIP3    H124307   1.871   4.246  11.003 -1.4546 -0.5790  0.3702
  964TIP3    H224308   1.924   4.203  11.138 -0.7065  0.2926  0.3668
  965TIP3   OH224309   1.116   5.460   3.354 -0.1579  0.4014 -0.0489
  965TIP3    H124310   1.049   5.513   3.309  0.2914 -0.0888 -1.3429
  965TIP3    H224311   1.067   5.388   3.393 -0.2888 -0.6419 -2.0380
  966TIP3   OH224312   5.554   3.525   4.539  0.4120  0.2397  0.2202
  966TIP3    H124313   5.495   3.509   4.465  0.0800  1.7080  0.1479
  966TIP3    H224314   5.614   3.450   4.538 -0.8998 -0.8456 -0.2277
  967TIP3   OH224315   1.902   1.641  11.196 -0.0495  0.5264 -0.4262
  967TIP3    H124316   1.831   1.703  11.211 -0.4301 -0.1338  0.5329
  967TIP3    H224317   1.971   1.668  11.257 -0.1980  0.0277 -0.0404
  968TIP3   OH224318   6.648   1.364  13.036  0.3580  0.5142 -0.2386
  968TIP3    H124319   6.567   1.366  12.984  0.2401  1.7734 -0.0536
  968TIP3    H224320   6.682   1.275  13.026 -0.8473  0.0824 -0.6376
  969TIP3   OH224321   2.666   6.055  16.552  0.2947 -0.0282 -0.3377
  969TIP3    H124322   2.715   6.135  16.538  0.9227 -0.2793  0.3917
  969TIP3    H224323   2.716   6.006  16.617 -1.9601  0.6190  2.0230
  970TIP3   OH224324   1.244   5.585   4.313  0.5712  0.3626 -0.4782
  970TIP3    H124325   1.273   5.658   4.259  1.0356 -0.8434 -1.9378
  970TIP3    H224326   1.314   5.573   4.378  0.0926  1.7055  0.3208
  971TIP3   OH224327   6.141   0.731   4.182 -0.6565  0.0869 -0.1277
  971TIP3    H124328   6.182   0.670   4.244 -0.0811 -0.8254 -1.3642
  971TIP3    H224329   6.101   0.798   4.237  1.7920  0.5766  1.1890
  972TIP3   OH224330   6.342   4.277   0.852  0.3709  0.3517 -0.0187
  972TIP3    H124331   6.390   4.248   0.929 -0.2328  0.5994  0.4598
  972TIP3    H224332   6.254   4.297   0.885  0.7742  2.8561 -0.2835
  973TIP3   OH224333   5.474   5.799   4.185 -0.2033  0.1372  0.0835
  973TIP3    H124334   5.506   5.764   4.268  3.2294  0.3959 -0.9772
  973TIP3    H224335   5.513   5.743   4.118  0.5858  2.3447 -1.4378
  974TIP3   OH224336   3.426   3.720  12.651 -0.5616  0.3963 -0.3235
  974TIP3    H124337   3.333   3.699  12.647 -0.1378 -1.5482 -1.1654
  974TIP3    H224338   3.471   3.636  12.637  1.3314  1.1657  0.7110
  975TIP3   OH224339   2.695   1.070  12.845 -0.6198  0.3613  0.7077
  975TIP3    H124340   2.688   0.974  12.848 -3.9530  0.4994  0.8637
  975TIP3    H224341   2.783   1.086  12.811  0.0508 -2.7286  0.6461
  976TIP3   OH224342   6.252   5.975  15.382 -0.0679  0.4672 -0.0115
  976TIP3    H124343   6.198   5.910  15.338 -0.9158  0.8535  0.4355
  976TIP3    H224344   6.255   6.049  15.321 -0.6284  0.7150  0.2569
  977TIP3   OH224345   1.872   5.444  16.415 -0.2024 -0.0198 -0.0416
  977TIP3    H124346   1.950   5.440  16.359 -1.7401 -1.3610 -2.2516
  977TIP3    H224347   1.807   5.491  16.363 -1.6450 -1.1235  0.6792
  978TIP3   OH224348   4.266   4.501  15.241 -0.6912  0.4238  0.2843
  978TIP3    H124349   4.329   4.566  15.271 -0.7154  0.2927  0.6255
  978TIP3    H224350   4.299   4.472  15.156  1.4233 -1.8839  1.7463
  979TIP3   OH224351   5.658   4.406   3.592  0.2921 -0.3901  0.1418
  979TIP3    H124352   5.681   4.491   3.629  2.4139 -0.7586 -0.1767
  979TIP3    H224353   5.633   4.425   3.502  2.3320 -0.2184 -0.4304
  980TIP3   OH224354   6.456   2.851   5.283 -0.6189  0.4198  0.1160
  980TIP3    H124355   6.381   2.845   5.342 -0.7231  3.0554  0.3893
  980TIP3    H224356   6.433   2.920   5.222  0.6635 -0.3255 -1.2760
  981TIP3   OH224357   4.119   2.434  13.690  0.3395  0.0471  0.0338
  981TIP3    H124358   4.152   2.351  13.658  2.8102 -0.3481  3.0687
  981TIP3    H224359   4.025   2.420  13.701  0.5700 -2.0620 -0.2844
  982TIP3   OH224360   6.283   4.917   2.614  0.5213 -0.0765 -0.2043
  982TIP3    H124361   6.370   4.883   2.591 -0.0171 -1.3479 -0.4595
  982TIP3    H224362   6.258   4.973   2.541  0.2673 -1.3633 -1.1280
  983TIP3   OH224363   3.430   4.146  16.310 -0.3217  0.1854  0.2108
  983TIP3    H124364   3.404   4.226  16.264  0.3267 -0.0359 -0.5565
  983TIP3    H224365   3.507   4.170  16.360  0.4701 -0.1770 -0.7893
  984TIP3   OH224366   4.242   5.503  11.755  0.3229  0.3351 -0.4873
  984TIP3    H124367   4.254   5.488  11.849 -0.1686 -0.4195 -0.5330
  984TIP3    H224368   4.159   5.459  11.735  1.6302 -1.7122 -1.7675
  985TIP3   OH224369   2.986   0.824   0.680 -0.0114 -0.2135  0.2169
  985TIP3    H124370   2.912   0.763   0.672  0.4135 -0.7009 -0.0896
  985TIP3    H224371   2.946   0.910   0.692 -0.6246 -0.5189  0.3916
  986TIP3   OH224372   1.964   2.088   1.137  0.1546 -0.3897 -0.0726
  986TIP3    H124373   1.932   2.002   1.163  0.7025 -0.4083  0.5758
  986TIP3    H224374   1.896   2.122   1.079 -0.8873 -0.5567  1.0035
  987TIP3   OH224375   1.048   2.386   1.254  1.0080 -0.0708 -0.0973
  987TIP3    H124376   1.113   2.345   1.311  1.2980  0.8499  0.2601
  987TIP3    H224377   1.099   2.432   1.188  0.7690  1.2217  0.5784
  988TIP3   OH224378   4.405   5.524   5.692 -0.1722  0.1407  0.1076
  988TIP3    H124379   4.369   5.593   5.637 -0.9270  0.0486  0.4715
  988TIP3    H224380   4.339   5.512   5.761  0.9895  0.6229  1.3406
  989TIP3   OH224381   0.521   0.729  14.234 -0.4390  0.2887 -0.5880
  989TIP3    H124382   0.541   0.755  14.145  0.7293 -0.3720 -0.5448
  989TIP3    H224383   0.441   0.677  14.227  1.2832 -2.4208 -1.7530
  990TIP3   OH224384   2.822   1.102   3.772 -0.0305  0.0906 -0.0025
  990TIP3    H124385   2.888   1.114   3.840 -1.1406  0.4934  1.0323
  990TIP3    H224386   2.769   1.029   3.803  0.2712 -0.6369 -1.1300
  991TIP3   OH224387   0.242   3.425   3.105 -1.2079 -0.6228  0.4474
  991TIP3    H124388   0.178   3.366   3.147 -2.1800  0.0685 -0.0156
  991TIP3    H224389   0.209   3.513   3.124 -0.8218 -0.2730 -0.4618
  992TIP3   OH224390   4.077   3.350   2.903  0.0687  0.1664 -0.1336
  992TIP3    H124391   4.015   3.353   2.976 -1.1149  0.7917 -1.1325
  992TIP3    H224392   4.060   3.265   2.861 -0.9427  0.7870 -1.0601
  993TIP3   OH224393   1.174   5.477  14.556 -0.0512  0.1877  0.6276
  993TIP3    H124394   1.245   5.475  14.493 -1.0227  0.6439 -0.5045
  993TIP3    H224395   1.186   5.396  14.607 -0.5928 -1.4503 -1.6779
  994TIP3   OH224396   1.821   6.349  14.824 -0.1608 -0.0815 -0.5738
  994TIP3    H124397   1.744   6.294  14.817  1.3950 -2.5470  0.4849
  994TIP3    H224398   1.800   6.411  14.894 -0.6973 -1.6189  0.6781
  995TIP3   OH224399   5.890   2.207  11.322 -0.5373 -0.4539 -0.0788
  995TIP3    H124400   5.832   2.269  11.366  0.2139  0.4111 -0.2617
  995TIP3    H224401   5.834   2.161  11.260 -1.0045  0.4448 -0.3399
  996TIP3   OH224402   3.206   3.606  15.237  0.5626 -0.8978  0.1212
  996TIP3    H124403   3.205   3.552  15.158  0.7634  0.4954 -0.8692
  996TIP3    H224404   3.268   3.677  15.217 -1.1186  0.7803  0.6117
  997TIP3   OH224405   5.410   3.274   2.330  0.2309  0.0203 -0.1658
  997TIP3    H124406   5.481   3.292   2.268  1.3596 -1.4652  0.6502
  997TIP3    H224407   5.343   3.231   2.278  0.6319 -0.0750 -0.6099
  998TIP3   OH224408   6.029   5.451  13.462  0.3434  0.3172 -0.3368
  998TIP3    H124409   6.111   5.445  13.413  1.6059 -3.0883  1.8261
  998TIP3    H224410   5.978   5.376  13.433 -0.1079 -0.0914  1.3683
  999TIP3   OH224411   5.963   5.417  11.230 -0.1748  0.3031  0.2098
  999TIP3    H124412   5.921   5.399  11.314  1.6718 -1.4868  0.8490
  999TIP3    H224413   6.039   5.471  11.253 -0.8593  1.6658 -0.6334
 1000TIP3   OH224414   1.798   5.985   4.938  0.6428  0.2280 -0.0629
 1000TIP3    H124415   1.720   5.947   4.898  1.7683 -1.2990 -0.9139
 1000TIP3    H224416   1.819   6.060   4.883  0.4878 -0.1065 -0.5847
 1001TIP3   OH224417   3.463   3.332  12.274 -0.3688  0.1434  0.1159
 1001TIP3    H124418   3.476   3.237  12.276 -0.6890  0.0932  2.0380
 1001TIP3    H224419   3.368   3.343  12.278 -0.3997  0.5611 -1.3517
 1002TIP3   OH224420   0.838   0.674  10.870 -0.0315  0.6059 -0.2134
 1002TIP3    H124421   0.762   0.690  10.815  0.2985  1.8407 -0.3452
 1002TIP3    H224422   0.913   0.678  10.810  0.4473  3.2503  0.4417
 1003TIP3   OH224423   4.027   0.895  14.107  0.2425 -0.0411 -0.0943
 1003TIP3    H124424   3.984   0.832  14.164  1.7059 -1.6207 -0.6545
 1003TIP3    H224425   4.097   0.933  14.160 -0.8848  1.4984  0.3759
 1004TIP3   OH224426   3.752   4.785  12.978 -0.5678 -0.3892  0.4641
 1004TIP3    H124427   3.805   4.815  12.904 -2.2783 -0.3611 -0.8248
 1004TIP3    H224428   3.722   4.866  13.019 -1.3527 -0.3665 -0.1362
 1005TIP3   OH224429   3.668   5.044  13.095 -0.4263 -0.1880 -0.2724
 1005TIP3    H124430   3.758   5.027  13.123 -0.3944 -1.7111 -1.1274
 1005TIP3    H224431   3.677   5.102  13.019 -0.2048  0.0844 -0.0396
 1006TIP3   OH224432   4.225   2.730  15.000  0.5144  0.1046 -0.8012
 1006TIP3    H124433   4.290   2.716  15.069 -0.6036 -0.7171  0.1174
 1006TIP3    H224434   4.262   2.685  14.924  1.0779 -0.2688 -0.3233
 1007TIP3   OH224435   2.343   4.396  14.818 -0.8703 -0.4157 -0.9058
 1007TIP3    H124436   2.341   4.491  14.808 -0.2988 -0.2697  0.1859
 1007TIP3    H224437   2.251   4.372  14.829 -0.8892  0.2928  0.9046
 1008TIP3   OH224438   4.423   3.132  14.677  0.2610  0.0933 -0.3927
 1008TIP3    H124439   4.519   3.136  14.670  0.1523  3.0426 -1.5205
 1008TIP3    H224440   4.392   3.133  14.586 -0.8779 -0.6055 -0.0347
 1009TIP3   OH224441   0.192   4.028  10.764  0.2369  0.6360  0.2254
 1009TIP3    H124442   0.112   4.000  10.719  0.7994 -0.8816  0.1207
 1009TIP3    H224443   0.167   4.031  10.857 -0.2553  1.3441  0.0753
 1010TIP3   OH224444   6.131   6.618   5.274  0.1080  0.1312  0.3357
 1010TIP3    H124445   6.108   6.573   5.355  1.2425  0.8098  1.0574
 1010TIP3    H224446   6.189   6.557   5.228 -1.9195 -1.0156 -0.8607
 1011TIP3   OH224447   2.637   1.967   0.922 -0.2298  0.7984  0.2138
 1011TIP3    H124448   2.658   1.959   1.015 -0.1359  0.2023  0.1446
 1011TIP3    H224449   2.547   1.934   0.915  0.1114 -0.1155 -0.0556
 1012TIP3   OH224450   2.650   6.202  15.199  0.0801  0.8215  0.2545
 1012TIP3    H124451   2.608   6.263  15.260 -1.5332 -0.3559  0.3964
 1012TIP3    H224452   2.610   6.222  15.114 -0.1087  0.2671  0.2135
 1013TIP3   OH224453   2.709   3.473   2.661 -0.5213 -0.0321 -0.3436
 1013TIP3    H124454   2.629   3.438   2.701 -0.5472 -0.2716 -0.5954
 1013TIP3    H224455   2.678   3.532   2.593 -0.4740  0.8986  0.4276
 1014TIP3   OH224456   2.433   1.592  12.067 -0.2716 -0.1962 -0.9130
 1014TIP3    H124457   2.346   1.630  12.064 -0.4580 -0.6482 -1.7892
 1014TIP3    H224458   2.487   1.652  12.015  0.2402  0.7535  0.6463
 1015TIP3   OH224459   1.086   6.266   1.460  0.2192 -0.5198  0.5769
 1015TIP3    H124460   1.114   6.257   1.369 -0.9953 -1.1798  0.2502
 1015TIP3    H224461   1.042   6.351   1.464 -2.3547 -1.7300 -0.2148
 1016TIP3   OH224462   6.008   5.131  12.299  0.1985  0.4075 -0.4854
 1016TIP3    H124463   6.068   5.182  12.245  0.2800 -1.2903 -2.0781
 1016TIP3    H224464   5.924   5.136  12.253  0.4075 -1.5500 -1.1678
 1017TIP3   OH224465   4.734   6.029   2.817  0.4603 -0.2972  0.4770
 1017TIP3    H124466   4.655   6.003   2.864  0.4464  1.1307  1.2725
 1017TIP3    H224467   4.718   6.000   2.727 -1.2341  0.5002  0.4882
 1018TIP3   OH224468   6.225   2.711  12.461 -0.2869  0.0231  0.0051
 1018TIP3    H124469   6.272   2.646  12.409  1.7843  1.3566  0.1089
 1018TIP3    H224470   6.280   2.727  12.537 -0.7689  1.8071  0.0484
 1019TIP3   OH224471   5.928   5.059   5.221 -0.7406 -0.6372  0.3306
 1019TIP3    H124472   6.020   5.033   5.231 -0.5369  0.5563  2.1330
 1019TIP3    H224473   5.908   5.107   5.302 -2.0878  1.6532 -1.2347
 1020TIP3   OH224474   0.721   1.126  14.172 -0.0696  0.6454 -0.3256
 1020TIP3    H124475   0.633   1.109  14.139  0.0253  0.8289 -0.6769
 1020TIP3    H224476   0.710   1.196  14.237 -0.4143 -0.4837  0.8723
 1021TIP3   OH224477   3.799   4.223  13.514 -0.3866 -0.3917  0.4479
 1021TIP3    H124478   3.820   4.305  13.469  1.3837 -0.3959  1.1768
 1021TIP3    H224479   3.876   4.205  13.567 -1.5911 -1.4463  1.9243
 1022TIP3   OH224480   3.228   2.190   4.540 -0.0142  0.0619  0.1199
 1022TIP3    H124481   3.142   2.209   4.503 -1.5109 -3.1892  1.5323
 1022TIP3    H224482   3.268   2.129   4.478  0.8910  0.7647 -0.0140
 1023TIP3   OH224483   1.837   2.720   1.822 -0.0325  0.3492  0.1872
 1023TIP3    H124484   1.858   2.660   1.751 -1.4878  0.3529 -0.2909
 1023TIP3    H224485   1.787   2.667   1.884  3.2193 -0.3169  2.5101
 1024TIP3   OH224486   1.862   3.573  11.295 -0.3868  0.6846  0.3269
 1024TIP3    H124487   1.911   3.561  11.376  0.3776 -1.6775 -0.4039
 1024TIP3    H224488   1.770   3.577  11.322 -0.5278 -3.6977  1.2069
 1025TIP3   OH224489   1.541   4.131   4.716 -0.1866 -0.4557 -0.0423
 1025TIP3    H124490   1.531   4.174   4.631  0.8921 -0.8469 -0.3886
 1025TIP3    H224491   1.608   4.183   4.762 -0.7347 -0.2679  0.5647
 1026TIP3   OH224492   5.732   3.132   1.501  0.5495 -0.2460 -0.3339
 1026TIP3    H124493   5.821   3.164   1.487  0.3914  0.4496  0.1617
 1026TIP3    H224494   5.677   3.209   1.485  0.1119 -0.4161  0.3327
 1027TIP3   OH224495   5.448   2.674  11.478 -0.1680  0.3658 -0.0509
 1027TIP3    H124496   5.362   2.688  11.439 -0.7660  1.7499  1.6541
 1027TIP3    H224497   5.472   2.585  11.451 -1.9398  0.0929 -0.8819
 1028TIP3   OH224498   1.217   2.262  16.757 -0.0996 -0.3881 -0.2204
 1028TIP3    H124499   1.255   2.248  16.844 -1.5060 -1.5443  0.2445
 1028TIP3    H224500   1.187   2.176  16.730 -0.1344  0.0569 -1.6583
 1029TIP3   OH224501   2.748   5.784  13.023 -0.5215 -0.2656 -0.5280
 1029TIP3    H124502   2.719   5.798  13.114 -1.3168 -0.5370 -0.7333
 1029TIP3    H224503   2.757   5.873  12.987 -0.2461 -0.1574 -0.2035
 1030TIP3   OH224504   1.930   1.862   0.388 -0.2073  0.0552  0.1974
 1030TIP3    H124505   1.976   1.883   0.470  1.4173 -0.4908 -0.5293
 1030TIP3    H224506   1.865   1.796   0.413  0.0220  0.1643  1.1152
 1031TIP3   OH224507   2.338   2.771  16.044 -0.1765 -0.6995 -0.0399
 1031TIP3    H124508   2.307   2.825  15.971  0.0527  0.7382  0.8824
 1031TIP3    H224509   2.294   2.686  16.032 -0.6667 -0.2659 -1.4476
 1032TIP3   OH224510   1.820   4.102  15.643  0.0871  0.4341 -0.3302
 1032TIP3    H124511   1.875   4.156  15.587 -0.9073  1.0752 -0.7188
 1032TIP3    H224512   1.772   4.165  15.697 -0.1041 -0.1166  0.1564
 1033TIP3   OH224513   6.341   5.966  13.269  0.3273  0.3300  0.0223
 1033TIP3    H124514   6.261   5.925  13.237  1.3543 -0.6327 -1.4585
 1033TIP3    H224515   6.315   6.010  13.350 -1.2916 -1.4975  0.5761
 1034TIP3   OH224516   3.489   0.798  14.834  0.1270 -0.1488 -0.0816
 1034TIP3    H124517   3.464   0.785  14.743 -0.3221  0.2865 -0.0266
 1034TIP3    H224518   3.441   0.877  14.861 -0.0443 -0.4886  0.6362
 1035TIP3   OH224519   5.090   0.999   0.534 -0.4915 -0.8107 -0.0163
 1035TIP3    H124520   5.094   1.088   0.499 -1.1597 -0.3283  1.0756
 1035TIP3    H224521   5.048   0.948   0.465  0.1076 -0.3452 -0.7512
 1036TIP3   OH224522   0.825   4.820  13.950  0.5548  0.4322  0.4773
 1036TIP3    H124523   0.880   4.845  14.025  2.1033 -0.0233 -0.4441
 1036TIP3    H224524   0.822   4.724  13.954  0.1427  0.4379  0.2937
 1037TIP3   OH224525   4.731   6.223   5.764 -0.0788  0.2218  0.5519
 1037TIP3    H124526   4.820   6.194   5.785  0.4924  2.1622  1.0226
 1037TIP3    H224527   4.742   6.277   5.686 -1.2408 -1.4950 -0.8792
 1038TIP3   OH224528   1.508   3.619  12.457  0.2462  0.4793  0.2316
 1038TIP3    H124529   1.417   3.598  12.477 -0.5654  0.7624 -2.6896
 1038TIP3    H224530   1.551   3.622  12.543 -3.1440  3.6151  2.1297
 1039TIP3   OH224531   3.497   3.257   3.324  0.6901  0.4594 -0.0988
 1039TIP3    H124532   3.496   3.162   3.315  0.3013  0.4774 -0.2455
 1039TIP3    H224533   3.590   3.281   3.319  0.6545  0.3274 -2.5105
 1040TIP3   OH224534   3.234   3.752   5.119  0.1115 -0.6502 -0.7623
 1040TIP3    H124535   3.314   3.773   5.072  0.4964  0.4588  0.3368
 1040TIP3    H224536   3.258   3.678   5.175  0.4020 -0.2617 -0.3676
 1041TIP3   OH224537   0.979   2.718   4.611 -0.1885  0.3563 -0.2986
 1041TIP3    H124538   1.004   2.810   4.609 -1.5608  0.9978  3.1165
 1041TIP3    H224539   1.057   2.672   4.640  0.4517  0.4503 -1.8381
 1042TIP3   OH224540   0.908   1.149  10.555 -0.3979  0.0251 -0.1684
 1042TIP3    H124541   0.999   1.178  10.565 -0.6389  0.4155  1.0477
 1042TIP3    H224542   0.910   1.057  10.579 -0.5871  0.4319  1.5319
 1043TIP3   OH224543   4.955   1.568   3.052  0.0133  0.3788  0.0555
 1043TIP3    H124544   4.907   1.649   3.034  0.0625  0.3614 -0.1566
 1043TIP3    H224545   4.896   1.499   3.021 -0.2590  0.3023  0.7232
 1044TIP3   OH224546   0.837   6.745   5.574  0.3231 -0.1222 -0.0634
 1044TIP3    H124547   0.863   6.805   5.504 -0.1099 -1.7935 -1.7226
 1044TIP3    H224548   0.755   6.781   5.608  1.0270  1.2255  0.2977
 1045TIP3   OH224549   2.574   6.363   0.684 -0.7139 -0.1543  0.2846
 1045TIP3    H124550   2.608   6.275   0.702 -0.4662  0.0416  0.7878
 1045TIP3    H224551   2.640   6.404   0.629  0.1513  0.4017  1.6646
 1046TIP3   OH224552   0.063   5.358  13.969 -0.0518 -0.1003 -0.1610
 1046TIP3    H124553   0.035   5.435  13.920 -1.1178 -1.4383 -1.7725
 1046TIP3    H224554   0.122   5.311  13.909 -1.2778 -1.7081 -0.1980
 1047TIP3   OH224555   3.624   6.163   6.597 -0.2660 -0.4525  0.6116
 1047TIP3    H124556   3.609   6.252   6.566 -2.5339 -0.1412  2.3497
 1047TIP3    H224557   3.719   6.155   6.600  0.0563  1.0087 -1.8891
 1048TIP3   OH224558   2.882   6.483   0.694 -0.1950 -0.6527 -0.1658
 1048TIP3    H124559   2.936   6.465   0.617  0.8653  1.8890 -0.1275
 1048TIP3    H224560   2.944   6.481   0.767 -0.3484  1.1065  0.0438
 1049TIP3   OH224561   0.992   2.838  13.957 -0.2029  0.2023  0.1445
 1049TIP3    H124562   1.005   2.792  13.874 -0.5646  1.7110 -0.7928
 1049TIP3    H224563   1.026   2.926  13.941 -2.1420  1.1609  0.8935
 1050TIP3   OH224564   6.547   0.882   1.404 -0.2378 -0.4554 -0.4062
 1050TIP3    H124565   6.591   0.964   1.423  0.0547 -0.4592 -1.0292
 1050TIP3    H224566   6.548   0.876   1.308  0.2799 -1.4687 -0.3462
 1051TIP3   OH224567   4.239   4.255  15.333 -0.3232  0.2563  0.1962
 1051TIP3    H124568   4.208   4.191  15.268 -0.8297 -0.1006  0.7707
 1051TIP3    H224569   4.228   4.340  15.290 -1.5444  0.0957  0.1365
 1052TIP3   OH224570   0.874   5.699  17.192 -0.1312  0.2758  0.0609
 1052TIP3    H124571   0.794   5.701  17.244 -0.2721 -2.8719  0.1539
 1052TIP3    H224572   0.852   5.646  17.116  1.4736  0.5787 -0.6573
 1053TIP3   OH224573   2.746   1.227   2.414 -1.0659 -0.5471  0.4286
 1053TIP3    H124574   2.787   1.296   2.467 -0.5317 -1.5579  1.3757
 1053TIP3    H224575   2.816   1.163   2.401 -0.9474 -0.0151 -2.1659
 1054TIP3   OH224576   0.592   1.897  12.457 -0.2887 -0.6695  0.3574
 1054TIP3    H124577   0.588   1.802  12.451 -1.8877 -0.5706 -0.9598
 1054TIP3    H224578   0.602   1.915  12.550  1.7014 -2.1283  0.4904
 1055TIP3   OH224579   2.432   5.905   1.382  0.2549  0.1107  0.2897
 1055TIP3    H124580   2.443   5.999   1.389 -0.4737  0.1817  0.5332
 1055TIP3    H224581   2.495   5.869   1.445 -0.4859  0.4892  1.2821
 1056TIP3   OH224582   4.865   4.994  11.018  0.2826  1.0240 -0.0272
 1056TIP3    H124583   4.883   5.083  11.049  0.2893  0.2096  2.5622
 1056TIP3    H224584   4.950   4.962  10.987  0.1577  2.0734 -1.5872
 1057TIP3   OH224585   4.199   1.113   2.641 -0.0777  0.2973 -0.5379
 1057TIP3    H124586   4.244   1.158   2.713 -1.3654 -1.5153  1.5352
 1057TIP3    H224587   4.106   1.135   2.654 -0.7908 -2.9533  0.7198
 1058TIP3   OH224588   6.407   4.621   2.466 -0.1457 -0.1125  0.0397
 1058TIP3    H124589   6.351   4.641   2.391 -1.0878  0.0278  0.7648
 1058TIP3    H224590   6.482   4.680   2.457 -0.6566  0.4773 -0.3414
 1059TIP3   OH224591   1.638   1.961   1.516 -0.2855 -0.3931  0.2913
 1059TIP3    H124592   1.639   1.926   1.605  0.5678 -0.6470  0.1981
 1059TIP3    H224593   1.627   2.056   1.528  1.8892 -0.1343  0.8181
 1060TIP3   OH224594   1.704   3.204  11.317 -0.3175 -0.0874  0.2085
 1060TIP3    H124595   1.732   3.150  11.243  1.6454 -1.1109  1.6273
 1060TIP3    H224596   1.685   3.142  11.387  0.2815  0.9497  1.3389
 1061TIP3   OH224597   3.195   6.058   3.119  0.3829 -0.4437 -0.5238
 1061TIP3    H124598   3.209   5.999   3.193  1.7707 -0.7032 -0.9720
 1061TIP3    H224599   3.117   6.022   3.075  0.0202 -0.7515  0.3373
 1062TIP3   OH224600   2.190   2.326   4.676  0.3439  0.2083 -0.2356
 1062TIP3    H124601   2.177   2.391   4.607  2.4252  1.8699  0.8291
 1062TIP3    H224602   2.285   2.317   4.682  0.1592 -3.2335 -0.5191
 1063TIP3   OH224603   5.189   6.708  12.615 -0.5935  0.0863  0.1257
 1063TIP3    H124604   5.165   6.617  12.633  1.0994 -0.1964  1.2033
 1063TIP3    H224605   5.172   6.754  12.697  0.8452  0.2070  0.3828
 1064TIP3   OH224606   3.411   1.698  12.576 -0.6934  0.0522 -0.2990
 1064TIP3    H124607   3.395   1.684  12.483  0.0238 -2.7907 -0.1087
 1064TIP3    H224608   3.481   1.637  12.597  2.4441  3.7870  1.2511
 1065TIP3   OH224609   0.251   0.308   0.777  0.1577  0.5766 -0.3812
 1065TIP3    H124610   0.224   0.390   0.818 -1.2082 -0.0841  0.0957
 1065TIP3    H224611   0.181   0.287   0.715  0.6041 -0.1065 -0.6772
 1066TIP3   OH224612   3.789   2.619   6.269  0.2245  0.7266  0.3715
 1066TIP3    H124613   3.847   2.544   6.282 -1.3742 -0.1960  2.6688
 1066TIP3    H224614   3.836   2.692   6.310  0.8006  0.5183  0.0978
 1067TIP3   OH224615   5.941   4.121   0.256  0.1248  0.2111 -0.2318
 1067TIP3    H124616   6.031   4.149   0.240  0.2152 -1.2703 -2.8960
 1067TIP3    H224617   5.893   4.151   0.179 -1.7535  1.1143  1.2250
 1068TIP3   OH224618   5.000   5.343   0.726  0.0252  0.3067  0.5121
 1068TIP3    H124619   4.987   5.254   0.695 -2.1371  0.7370  0.0781
 1068TIP3    H224620   5.013   5.395   0.647 -2.3250  0.8955  0.4391
 1069TIP3   OH224621   0.425   2.234  14.133 -0.0461 -0.2200 -0.4004
 1069TIP3    H124622   0.408   2.198  14.220 -0.5796  2.7639  0.8567
 1069TIP3    H224623   0.358   2.194  14.077 -2.7678  1.2052  1.5959
 1070TIP3   OH224624   3.215   1.393  14.268  0.0460  0.0919  0.3011
 1070TIP3    H124625   3.274   1.334  14.221  0.7295  0.2219  0.9863
 1070TIP3    H224626   3.130   1.380  14.226  0.4182 -0.5823 -0.2628
 1071TIP3   OH224627   2.520   1.474   0.523  0.3016 -0.4556  0.6080
 1071TIP3    H124628   2.497   1.555   0.569 -0.6370  0.5197 -1.4413
 1071TIP3    H224629   2.599   1.497   0.473  0.1682 -0.8775  0.2000
 1072TIP3   OH224630   3.908   5.198   4.552 -0.4628  0.1732  0.3133
 1072TIP3    H124631   3.813   5.208   4.546 -0.5577 -0.9781 -0.4821
 1072TIP3    H224632   3.942   5.288   4.547 -1.5358  0.7018  1.8249
 1073TIP3   OH224633   1.432   0.859  16.682  0.7037 -0.4693 -0.1994
 1073TIP3    H124634   1.518   0.855  16.639  1.8588 -0.4602  1.9579
 1073TIP3    H224635   1.431   0.783  16.740 -0.8674 -0.5841 -0.3307
 1074TIP3   OH224636   3.696   2.354   2.224 -0.5863  0.4772  0.4976
 1074TIP3    H124637   3.670   2.294   2.155 -1.6369  0.4253  0.9117
 1074TIP3    H224638   3.664   2.313   2.305  0.1289  0.8016  0.9511
 1075TIP3   OH224639   4.732   4.356  13.359 -0.6361 -0.3102  0.7010
 1075TIP3    H124640   4.808   4.385  13.309  0.4087 -0.2262  2.2811
 1075TIP3    H224641   4.663   4.420  13.337 -0.8987 -1.4549 -2.1898
 1076TIP3   OH224642   5.034   2.744   3.366 -0.1390 -0.2468  0.0672
 1076TIP3    H124643   5.094   2.779   3.432 -0.7641  1.6169 -0.3181
 1076TIP3    H224644   4.947   2.755   3.405 -0.5584  1.3251 -1.2188
 1077TIP3   OH224645   5.898   1.437   4.280  0.3838  0.0741  0.0730
 1077TIP3    H124646   5.838   1.364   4.291  1.1679 -0.4418  1.0672
 1077TIP3    H224647   5.915   1.440   4.185  0.8591 -1.4805  0.0846
 1078TIP3   OH224648   5.176   3.533  15.347  0.5285 -0.0891  0.4189
 1078TIP3    H124649   5.220   3.518  15.264 -1.1511 -0.8616 -0.3666
 1078TIP3    H224650   5.216   3.470  15.407 -0.3529 -1.6944 -0.6101
 1079TIP3   OH224651   3.186   6.654   5.696 -0.2427 -0.2945 -0.2479
 1079TIP3    H124652   3.178   6.658   5.601 -0.3440 -0.4150 -0.2439
 1079TIP3    H224653   3.275   6.620   5.711 -0.8987 -2.1663 -0.3216
 1080TIP3   OH224654   2.753   1.815  14.030 -0.3088 -0.2320  0.0577
 1080TIP3    H124655   2.798   1.745  14.077 -1.3156 -0.3794  0.8294
 1080TIP3    H224656   2.708   1.866  14.098  0.9871  1.6357 -0.3945
 1081TIP3   OH224657   2.599   4.175  13.563 -0.4579 -0.2127 -0.2790
 1081TIP3    H124658   2.672   4.138  13.612 -0.9422  0.5504  1.0456
 1081TIP3    H224659   2.595   4.267  13.590 -1.2010  0.0458 -1.1989
 1082TIP3   OH224660   3.479   5.823   1.990  0.4825 -0.5674 -0.1220
 1082TIP3    H124661   3.442   5.781   1.912 -0.0869 -0.2659 -0.0206
 1082TIP3    H224662   3.560   5.775   2.007 -0.0730 -1.5215 -0.0986
 1083TIP3   OH224663   6.541   1.955   1.716 -0.0965  0.6110  0.2092
 1083TIP3    H124664   6.465   1.902   1.694 -0.2095  0.9885 -0.3212
 1083TIP3    H224665   6.511   2.045   1.705  0.3432  0.7677  0.2817
 1084TIP3   OH224666   5.868   2.426  12.483  0.0502 -0.1772  0.0798
 1084TIP3    H124667   5.839   2.401  12.571 -0.0955  0.5384  0.2379
 1084TIP3    H224668   5.808   2.496  12.457 -0.5146 -1.0261 -0.9812
 1085TIP3   OH224669   4.742   3.836  11.251  0.3464  0.3692  0.7575
 1085TIP3    H124670   4.745   3.755  11.301 -1.2846  0.4990  1.1402
 1085TIP3    H224671   4.664   3.881  11.284 -0.1096  0.9985 -1.0499
 1086TIP3   OH224672   5.403   4.830   1.714  0.2429  0.9983  0.3142
 1086TIP3    H124673   5.374   4.873   1.634  1.7291  1.3901 -0.0447
 1086TIP3    H224674   5.491   4.866   1.730  0.6859 -0.3943  1.1350
 1087TIP3   OH224675   5.585   0.768   4.320  0.3599 -0.0912 -0.0344
 1087TIP3    H124676   5.670   0.757   4.276  0.2609 -1.3660  0.0568
 1087TIP3    H224677   5.608   0.800   4.407  0.5736  2.1638 -0.8552
 1088TIP3   OH224678   2.124   1.404  11.798 -0.2285 -0.3037 -0.1604
 1088TIP3    H124679   2.165   1.490  11.789 -1.2160  0.4384  1.9836
 1088TIP3    H224680   2.073   1.394  11.718  2.4712 -0.4306 -2.0189
 1089TIP3   OH224681   0.091   5.809   5.453  0.3354  0.1883 -0.1523
 1089TIP3    H124682   0.022   5.783   5.392 -0.8192  1.6150  0.4592
 1089TIP3    H224683   0.045   5.827   5.535  1.5744  0.2726  0.5549
 1090TIP3   OH224684   2.322   0.206   0.162 -0.6289 -0.6754 -0.0490
 1090TIP3    H124685   2.317   0.199   0.258 -0.9311  0.4377  0.0223
 1090TIP3    H224686   2.350   0.296   0.146  1.3424 -1.4000 -0.9673
 1091TIP3   OH224687   1.961   2.481  15.856  0.3443  0.4331 -0.3528
 1091TIP3    H124688   1.896   2.551  15.867 -0.8532 -0.5858 -0.7436
 1091TIP3    H224689   1.950   2.453  15.765  1.4775  0.3766 -0.4787
 1092TIP3   OH224690   0.311   1.717   1.568 -0.8437  0.4440  0.4357
 1092TIP3    H124691   0.400   1.698   1.599 -1.4392 -1.0120  1.3587
 1092TIP3    H224692   0.323   1.779   1.496  1.0709 -1.1679 -0.7491
 1093TIP3   OH224693   0.069   6.218  14.120 -0.1042 -0.4789  0.2595
 1093TIP3    H124694   0.071   6.237  14.027  1.6857  0.7407  0.4968
 1093TIP3    H224695   0.105   6.297  14.162 -0.8705 -0.9901  1.9757
 1094TIP3   OH224696   2.914   6.509  16.357 -0.2974  0.0650 -0.1598
 1094TIP3    H124697   2.982   6.491  16.422 -0.8983  1.0794  0.7794
 1094TIP3    H224698   2.847   6.556  16.406 -1.4809 -0.5316 -1.1762
 1095TIP3   OH224699   1.791   0.528  14.255 -0.9708  0.0131 -0.0592
 1095TIP3    H124700   1.705   0.486  14.252 -1.0160  0.1352 -0.4715
 1095TIP3    H224701   1.840   0.477  14.320 -1.6896  0.5734  0.9590
 1096TIP3   OH224702   1.914   3.188  15.404  0.3728 -0.2705 -0.0219
 1096TIP3    H124703   1.931   3.277  15.372  0.7064 -0.0064  0.8297
 1096TIP3    H224704   1.934   3.193  15.498  0.2045 -1.1994  0.0731
 1097TIP3   OH224705   1.135   4.495   1.230 -0.1165  0.5780  0.3052
 1097TIP3    H124706   1.209   4.501   1.290 -0.9016 -0.4544  1.4203
 1097TIP3    H224707   1.165   4.439   1.159 -0.1536 -0.7168  1.2899
 1098TIP3   OH224708   0.331   1.178   0.063  0.3014 -0.4146 -0.0198
 1098TIP3    H124709   0.302   1.203  -0.025  1.1364  1.9231  0.3045
 1098TIP3    H224710   0.407   1.234   0.081 -1.0998  0.7812  2.9812
 1099TIP3   OH224711   1.895   3.971   0.526 -0.1529  0.1296 -0.0597
 1099TIP3    H124712   1.989   3.975   0.511  0.0098 -0.1715  0.8081
 1099TIP3    H224713   1.872   4.058   0.559 -0.4736  0.7223 -1.7354
 1100TIP3   OH224714   6.571   5.330  12.927 -0.5628  0.0641  0.0475
 1100TIP3    H124715   6.550   5.306  13.017  2.8839 -2.4546  0.3906
 1100TIP3    H224716   6.650   5.382  12.934  1.3227 -2.3571 -1.4642
 1101TIP3   OH224717   3.681   5.595   2.025 -0.1127 -0.5767  0.7615
 1101TIP3    H124718   3.686   5.571   1.932  1.1813  0.2734  0.5904
 1101TIP3    H224719   3.732   5.528   2.070 -0.7974 -1.0284  0.8948
 1102TIP3   OH224720   1.613   0.204  11.611 -0.4740  0.0567 -0.6277
 1102TIP3    H124721   1.578   0.133  11.556  1.4694  0.2688 -2.2810
 1102TIP3    H224722   1.589   0.284  11.564 -0.9640  0.4070  0.1988
 1103TIP3   OH224723   2.347   0.699  13.323 -1.1648 -0.2414 -0.2614
 1103TIP3    H124724   2.413   0.730  13.261 -1.1652 -0.1118 -0.1967
 1103TIP3    H224725   2.314   0.618  13.284  0.3977 -1.3576  0.6570
 1104TIP3   OH224726   5.860   2.940  14.752  0.0603  0.1143  0.8219
 1104TIP3    H124727   5.874   2.982  14.836 -0.4453  2.1301 -0.0577
 1104TIP3    H224728   5.934   2.968  14.698 -0.3173 -0.0719  0.1900
 1105TIP3   OH224729   4.083   1.732  11.855  0.4199  0.3566 -0.9707
 1105TIP3    H124730   3.988   1.735  11.846  0.5707  0.1696 -3.0370
 1105TIP3    H224731   4.100   1.648  11.897 -0.3795  1.1825  1.1575
 1106TIP3   OH224732   0.548   4.674  17.280 -0.0773 -0.4811  0.1302
 1106TIP3    H124733   0.584   4.588  17.256  0.2827 -1.1845  2.8656
 1106TIP3    H224734   0.596   4.736  17.226  0.5060 -1.8896 -1.0528
 1107TIP3   OH224735   2.586   6.053   1.979  0.1420 -0.0681  0.1567
 1107TIP3    H124736   2.557   6.144   1.985  1.4438  0.4659 -1.2110
 1107TIP3    H224737   2.641   6.041   2.057 -0.2905  0.2091  0.5101
 1108TIP3   OH224738   6.098   3.060  13.961  0.4464  0.5165  0.0135
 1108TIP3    H124739   6.161   3.132  13.957  1.6833 -0.4820  0.6886
 1108TIP3    H224740   6.025   3.095  14.014  0.9781  1.3026  0.2443
 1109TIP3   OH224741   3.811   4.680  14.193 -0.5390 -1.0659 -0.4354
 1109TIP3    H124742   3.770   4.691  14.278 -1.9414 -0.0339 -1.2127
 1109TIP3    H224743   3.773   4.600  14.158 -1.4141 -0.4815 -0.8617
 1110TIP3   OH224744   6.631   0.158  11.312 -0.0905 -0.5506 -0.0726
 1110TIP3    H124745   6.592   0.235  11.270  2.1735  0.1635 -1.0119
 1110TIP3    H224746   6.625   0.089  11.245 -0.5628 -0.7173  0.1356
 1111TIP3   OH224747   0.218   5.883   0.926 -0.0928 -0.1540  0.1658
 1111TIP3    H124748   0.300   5.866   0.973  0.3885 -1.2212 -1.0058
 1111TIP3    H224749   0.211   5.978   0.923  2.4755  0.0633 -1.9792
 1112TIP3   OH224750   5.572   3.478   3.675 -0.2988 -0.1214 -0.6376
 1112TIP3    H124751   5.640   3.506   3.735 -0.4807 -1.2020  0.1048
 1112TIP3    H224752   5.615   3.473   3.590 -0.3808  2.8278 -0.9611
 1113TIP3   OH224753   2.297   2.633  14.191  0.4143 -0.7644 -0.3827
 1113TIP3    H124754   2.330   2.564  14.248  1.1360 -0.1952 -0.0968
 1113TIP3    H224755   2.348   2.711  14.215 -0.3897 -0.1266 -0.6864
 1114TIP3   OH224756   2.526   3.126   1.405  0.4109 -0.0302  0.0897
 1114TIP3    H124757   2.515   3.162   1.493  0.9579 -0.1204  0.1977
 1114TIP3    H224758   2.453   3.066   1.394 -0.0025  0.4354  0.2515
 1115TIP3   OH224759   6.621   2.432   0.942  0.4906  0.0537 -0.5341
 1115TIP3    H124760   6.637   2.338   0.939  3.1565  0.4503 -2.5556
 1115TIP3    H224761   6.532   2.443   0.907  0.2890 -1.6649 -0.6291
 1116TIP3   OH224762   2.363   4.385   2.581 -0.1417 -0.4036  0.3337
 1116TIP3    H124763   2.348   4.303   2.534 -1.0675 -0.6479  1.0311
 1116TIP3    H224764   2.327   4.453   2.524  0.1801 -0.5264 -0.0195
 1117TIP3   OH224765   6.683   4.682   3.314  0.7785 -0.5646  0.1919
 1117TIP3    H124766   6.682   4.611   3.378  1.4991 -1.1435 -0.4213
 1117TIP3    H224767   6.763   4.732   3.335 -0.8819  1.5109  2.1134
 1118TIP3   OH224768   4.251   6.241  15.820  0.0978 -0.0996  0.9921
 1118TIP3    H124769   4.233   6.186  15.744  1.4630 -1.0081  1.3000
 1118TIP3    H224770   4.168   6.241  15.868 -0.5315 -0.1920 -0.0541
 1119TIP3   OH224771   2.794   0.457   4.734 -0.0499 -0.3689  0.2471
 1119TIP3    H124772   2.740   0.536   4.733  0.8306  0.2664 -1.5489
 1119TIP3    H224773   2.802   0.435   4.827 -1.1009  1.0976  0.7308
 1120TIP3   OH224774   4.366   5.082   1.278  1.1638 -0.4920 -0.1944
 1120TIP3    H124775   4.446   5.129   1.254  1.6085  1.3708  3.9079
 1120TIP3    H224776   4.389   5.036   1.358 -1.2956 -1.8143 -0.1574
 1121TIP3   OH224777   5.688   1.408  14.508  0.4432 -0.4084  0.2698
 1121TIP3    H124778   5.646   1.412  14.422 -0.3172 -1.5986  0.5513
 1121TIP3    H224779   5.655   1.326  14.547 -0.5379  0.8793  2.3537
 1122TIP3   OH224780   5.223   0.108   2.415  0.3254  0.1756  0.0416
 1122TIP3    H124781   5.315   0.090   2.434 -0.1576 -1.3475  1.0783
 1122TIP3    H224782   5.204   0.054   2.338 -0.0016 -0.4853  0.5720
 1123TIP3   OH224783   3.367   4.406   1.142  0.3939  0.4128 -0.1704
 1123TIP3    H124784   3.274   4.387   1.130 -0.2498  3.3390 -0.5736
 1123TIP3    H224785   3.378   4.412   1.237  0.7850 -2.2966  0.0206
 1124TIP3   OH224786   4.349   4.920   4.401 -0.1793  0.4696  0.4315
 1124TIP3    H124787   4.342   4.825   4.400 -0.2025  0.4633 -1.0547
 1124TIP3    H224788   4.440   4.938   4.374 -0.0191  0.8690  1.2040
 1125TIP3   OH224789   1.923   2.956  13.887 -0.2950  0.5885 -0.0732
 1125TIP3    H124790   2.003   2.904  13.881 -0.5234  0.1189  0.8288
 1125TIP3    H224791   1.874   2.933  13.808 -0.4147 -0.6167  0.3309
 1126TIP3   OH224792   2.719   0.474  13.160  0.0959 -0.1669 -0.1257
 1126TIP3    H124793   2.629   0.488  13.190 -0.0380  1.6132 -1.2407
 1126TIP3    H224794   2.715   0.486  13.066  1.5430  0.1237 -0.1644
 1127TIP3   OH224795   2.904   3.784   3.538 -0.4169 -0.1051 -0.1547
 1127TIP3    H124796   2.852   3.832   3.474 -0.7057 -1.6880 -1.1573
 1127TIP3    H224797   2.840   3.752   3.602 -0.2560  0.5886  0.3694
 1128TIP3   OH224798   0.365   3.990  12.751 -0.5792 -0.4189 -0.3328
 1128TIP3    H124799   0.277   3.970  12.718 -0.8213 -1.6348  0.9850
 1128TIP3    H224800   0.412   3.907  12.747 -0.0601 -0.1815  0.6659
 1129TIP3   OH224801   2.690   1.868  14.779  0.6402 -0.2375 -0.0622
 1129TIP3    H124802   2.641   1.911  14.849 -1.3988 -1.5920 -0.5547
 1129TIP3    H224803   2.684   1.775  14.799 -1.0061 -0.7771 -2.5409
 1130TIP3   OH224804   1.521   1.527   2.381 -0.4200 -0.0140 -1.2411
 1130TIP3    H124805   1.487   1.460   2.322 -0.6335 -1.5311  0.5342
 1130TIP3    H224806   1.614   1.534   2.359 -0.6588  0.0686 -2.2972
 1131TIP3   OH224807   4.809   1.475   0.589  0.0034 -0.4266 -0.1848
 1131TIP3    H124808   4.852   1.517   0.514  0.3787  0.2191  0.3840
 1131TIP3    H224809   4.721   1.456   0.558  0.8036 -2.2272 -1.5384
 1132TIP3   OH224810   3.222   6.277   5.243  0.0964 -0.0479  0.0343
 1132TIP3    H124811   3.159   6.213   5.274 -0.7056  0.0407 -1.3098
 1132TIP3    H224812   3.262   6.313   5.322 -2.3305  0.6924  1.0097
 1133TIP3   OH224813   4.140   1.069   6.361  0.2991 -0.2846  0.1318
 1133TIP3    H124814   4.223   1.075   6.410  0.7931 -0.4154 -0.6698
 1133TIP3    H224815   4.087   1.141   6.395  1.3205  0.7561 -0.4013
 1134TIP3   OH224816   4.934   1.212   1.984 -0.0232 -0.1230  0.3362
 1134TIP3    H124817   4.850   1.215   2.031 -0.0247  1.9210  0.3020
 1134TIP3    H224818   4.996   1.254   2.044  1.3145 -2.6117  0.8572
 1135TIP3   OH224819   6.462   2.995   5.050  0.5919  0.2507 -0.2711
 1135TIP3    H124820   6.411   3.029   4.976  1.8354  0.9189 -0.8533
 1135TIP3    H224821   6.487   2.907   5.022  0.5676  0.2835 -0.3994
 1136TIP3   OH224822   2.209   4.964   5.644 -0.0201  0.9681 -0.0098
 1136TIP3    H124823   2.256   4.947   5.726  0.5528  2.0850 -0.0879
 1136TIP3    H224824   2.174   4.879   5.618  3.0933 -0.2510 -0.6462
 1137TIP3   OH224825   2.006   2.315   3.873  0.3332  0.1070 -0.6196
 1137TIP3    H124826   1.937   2.355   3.926  0.8606  1.4306 -0.8940
 1137TIP3    H224827   2.084   2.365   3.894  1.1310 -1.0903 -0.6485
 1138TIP3   OH224828   1.024   2.400  12.962 -0.3013  0.6706 -0.2999
 1138TIP3    H124829   1.059   2.391  13.051 -3.4851 -0.8213  0.9767
 1138TIP3    H224830   1.067   2.330  12.912  0.3588  0.4795  0.5206
 1139TIP3   OH224831   2.698   4.710   1.075  0.1763 -0.0162 -0.0072
 1139TIP3    H124832   2.685   4.793   1.121 -0.0024  0.0824 -0.2343
 1139TIP3    H224833   2.652   4.721   0.991 -0.2894 -0.5258  0.1678
 1140TIP3   OH224834   3.642   6.421   1.635 -0.0628  0.0120 -0.1026
 1140TIP3    H124835   3.622   6.508   1.602  0.5364  0.1129 -0.2072
 1140TIP3    H224836   3.735   6.410   1.619  0.0103 -0.3786  0.5388
 1141TIP3   OH224837   3.767   5.493  17.219  0.6867 -0.1032 -0.4125
 1141TIP3    H124838   3.730   5.530  17.299  0.5004 -1.0118 -0.0630
 1141TIP3    H224839   3.855   5.531  17.212  0.1836  1.0834 -0.5609
 1142TIP3   OH224840   2.028   0.631   2.512  0.0151 -0.6056 -0.1754
 1142TIP3    H124841   2.067   0.682   2.441 -1.6702  0.4444 -0.4015
 1142TIP3    H224842   1.997   0.551   2.470 -1.2603  0.1489 -0.7288
 1143TIP3   OH224843   3.420   4.898  11.916 -0.4917 -0.8092  0.0955
 1143TIP3    H124844   3.495   4.933  11.868  0.1330 -1.8359  0.2969
 1143TIP3    H224845   3.345   4.919  11.860 -0.0580  0.1337 -0.1615
 1144TIP3   OH224846   5.367   3.561  15.611  0.0412  0.3627 -0.5249
 1144TIP3    H124847   5.430   3.579  15.541 -0.6461  0.1961 -1.1979
 1144TIP3    H224848   5.314   3.488  15.577 -1.6609  1.6276 -0.7360
 1145TIP3   OH224849   5.230   0.585   5.028  0.1245 -0.3379 -0.1152
 1145TIP3    H124850   5.308   0.532   5.008  0.9218  1.2010 -1.3538
 1145TIP3    H224851   5.259   0.647   5.095 -0.3157 -0.3651  0.1044
 1146TIP3   OH224852   4.379   3.647   5.662  0.5477  0.1219 -0.3162
 1146TIP3    H124853   4.461   3.674   5.703  1.0871 -2.2979  0.3699
 1146TIP3    H224854   4.375   3.698   5.581  2.8293  0.1678 -0.4675
 1147TIP3   OH224855   6.193   1.412   5.588 -0.5141  1.1891  0.1349
 1147TIP3    H124856   6.275   1.412   5.638 -0.8898  1.9224  0.7728
 1147TIP3    H224857   6.140   1.480   5.629 -2.1354 -0.4270  0.8482
 1148TIP3   OH224858   5.940   0.548  14.011  0.0133  0.6827  0.0091
 1148TIP3    H124859   5.967   0.457  14.001 -0.8821  0.2337  1.5149
 1148TIP3    H224860   6.017   0.599  13.982 -0.3064 -0.4461 -3.2886
 1149TIP3   OH224861   1.888   6.594   6.055 -0.3406 -0.0238 -0.2093
 1149TIP3    H124862   1.834   6.666   6.021 -0.8021 -0.0686  0.4008
 1149TIP3    H224863   1.831   6.517   6.051  0.1897 -0.3883 -0.9665
 1150TIP3   OH224864   6.549   5.434   4.666 -0.4771 -0.5874 -0.2959
 1150TIP3    H124865   6.554   5.530   4.658 -1.5681 -0.4315  0.5471
 1150TIP3    H224866   6.484   5.420   4.736 -2.0659 -1.9648 -1.9456
 1151TIP3   OH224867   6.107   1.322   2.153 -0.3435 -0.3054 -0.4395
 1151TIP3    H124868   6.176   1.377   2.190  0.4157 -2.1462  1.0381
 1151TIP3    H224869   6.151   1.270   2.086 -0.5072 -0.8152 -0.1544
 1152TIP3   OH224870   6.675   1.791  15.877 -0.2653 -0.0679  0.1973
 1152TIP3    H124871   6.666   1.872  15.927  0.9854 -0.1006  0.5194
 1152TIP3    H224872   6.717   1.818  15.795 -1.4560 -0.1491 -0.4499
 1153TIP3   OH224873   6.271   2.460  12.923 -0.3655  0.0138  0.6314
 1153TIP3    H124874   6.196   2.518  12.931  1.1476  1.9438  1.6382
 1153TIP3    H224875   6.331   2.507  12.865 -0.4878 -2.1845 -1.4428
 1154TIP3   OH224876   5.657   4.816   1.389  0.6484  0.6227  0.1366
 1154TIP3    H124877   5.715   4.747   1.358  0.6440  0.8380 -0.3526
 1154TIP3    H224878   5.655   4.880   1.318  0.3370  0.9354  0.4223
 1155TIP3   OH224879   6.424   6.626   6.150  0.3846 -0.2976 -0.2327
 1155TIP3    H124880   6.340   6.594   6.183  0.1322 -1.1931 -1.6675
 1155TIP3    H224881   6.488   6.595   6.214 -0.4162  1.0135  1.2711
 1156TIP3   OH224882   1.455   1.262   6.406 -0.1912  0.5515  0.0678
 1156TIP3    H124883   1.469   1.349   6.368  0.9078 -0.4491 -1.9920
 1156TIP3    H224884   1.531   1.211   6.377  0.7957 -0.3580  3.7275
 1157TIP3   OH224885   5.079   5.278   2.309 -0.4244  0.0284  0.5225
 1157TIP3    H124886   5.023   5.230   2.248  0.1883 -0.7107  0.5181
 1157TIP3    H224887   5.087   5.365   2.272  1.7263 -0.9774 -1.6855
 1158TIP3   OH224888   0.799   0.356  11.455  0.3988 -0.2344  0.0021
 1158TIP3    H124889   0.708   0.327  11.445  0.8557 -0.9170 -3.6440
 1158TIP3    H224890   0.802   0.439  11.407  2.0295 -1.2024 -1.7108
 1159TIP3   OH224891   5.937   2.985   1.693  0.1759  0.0302  0.1287
 1159TIP3    H124892   5.880   3.009   1.620  0.0682  0.2218  0.2741
 1159TIP3    H224893   6.005   3.052   1.694  0.4705 -0.2620 -0.1143
 1160TIP3   OH224894   2.268   1.095   6.367 -0.5209  0.4189  0.0469
 1160TIP3    H124895   2.240   1.052   6.448 -0.7339  1.2195  0.4048
 1160TIP3    H224896   2.235   1.038   6.297  0.5430 -0.8296  0.5121
 1161TIP3   OH224897   4.891   3.000   0.018  0.3988 -0.6883 -0.2993
 1161TIP3    H124898   4.904   2.910   0.049  1.5668  0.1053  1.6308
 1161TIP3    H224899   4.936   3.055   0.082  2.2996  1.1321 -2.9777
 1162TIP3   OH224900   4.686   3.740  13.555 -0.0871 -0.0052  0.1075
 1162TIP3    H124901   4.622   3.669  13.565  0.1020 -0.2645 -0.4862
 1162TIP3    H224902   4.634   3.820  13.565 -0.2550 -0.2185  1.0560
 1163TIP3   OH224903   6.529   2.378  16.663  0.0564 -0.5379 -0.2574
 1163TIP3    H124904   6.570   2.457  16.700 -0.8587  0.3771 -1.1321
 1163TIP3    H224905   6.446   2.409  16.626 -0.7702 -2.0901  0.2078
 1164TIP3   OH224906   6.438   3.061   1.432 -0.1404 -0.3502 -0.3487
 1164TIP3    H124907   6.363   3.113   1.461 -0.1215 -1.0441  1.0064
 1164TIP3    H224908   6.505   3.077   1.499  0.1910 -1.3742 -0.4191
 1165TIP3   OH224909   2.164   5.349  12.942 -0.0357  0.1114 -0.4603
 1165TIP3    H124910   2.071   5.355  12.918  0.1683  1.6311 -0.9731
 1165TIP3    H224911   2.169   5.388  13.029  0.0712 -0.3989 -0.2302
 1166TIP3   OH224912   1.420   4.535  12.930  0.7839  0.4515  0.0597
 1166TIP3    H124913   1.385   4.552  13.018 -0.4074  2.2311 -0.6995
 1166TIP3    H224914   1.344   4.542  12.872  1.6456 -0.1455 -1.1961
 1167TIP3   OH224915   1.884   5.284   1.695  0.0162  0.2954 -0.1427
 1167TIP3    H124916   1.815   5.270   1.760  1.5756 -0.9741  1.3024
 1167TIP3    H224917   1.847   5.247   1.614 -0.9126 -0.5728  0.6468
 1168TIP3   OH224918   0.442   1.861   2.424 -0.3169 -0.2542 -0.0492
 1168TIP3    H124919   0.372   1.905   2.377  0.0403  0.0284 -0.3233
 1168TIP3    H224920   0.457   1.780   2.374  1.1527  0.7848 -1.4049
 1169TIP3   OH224921   6.518   4.736   0.723 -0.5214  0.1711 -0.3453
 1169TIP3    H124922   6.547   4.647   0.743 -0.3257  0.3601  0.2406
 1169TIP3    H224923   6.495   4.774   0.808  0.0622  0.9025 -0.4987
 1170TIP3   OH224924   1.244   1.733  16.989  0.6959 -0.5829 -0.1755
 1170TIP3    H124925   1.208   1.673  16.924 -0.6680 -0.3808  0.3652
 1170TIP3    H224926   1.322   1.688  17.022 -0.3473 -2.1356  0.2940
 1171TIP3   OH224927   0.740   5.006   4.906  0.0180 -0.3774  0.3705
 1171TIP3    H124928   0.760   4.970   4.819 -0.3400 -0.8706  0.4871
 1171TIP3    H224929   0.654   4.969   4.928 -0.8639  1.3654  0.0513
 1172TIP3   OH224930   0.006   4.632   1.401  0.5328  0.3112  0.0195
 1172TIP3    H124931   0.050   4.557   1.362 -1.7750 -0.9936 -0.2178
 1172TIP3    H224932  -0.087   4.614   1.390 -0.1142  3.3137 -0.1965
 1173TIP3   OH224933   5.406   5.491  15.692  0.3809  0.4681 -0.2835
 1173TIP3    H124934   5.338   5.424  15.702 -0.3522  1.2537  0.0938
 1173TIP3    H224935   5.359   5.574  15.695  1.3298  1.0208 -0.2858
 1174TIP3   OH224936   2.541   2.666   5.872  0.2301  0.5891  0.1980
 1174TIP3    H124937   2.549   2.655   5.967 -0.7706  1.0733  0.3503
 1174TIP3    H224938   2.567   2.582   5.835 -0.0818  0.1597  0.9403
 1175TIP3   OH224939   0.427   3.914   5.839  0.1958  0.0569  0.4977
 1175TIP3    H124940   0.353   3.936   5.782  0.0522 -1.1758  0.1864
 1175TIP3    H224941   0.391   3.915   5.927 -0.0415  0.0968  0.4020
 1176TIP3   OH224942   0.412   3.738   4.062  0.1326  0.0598 -0.1373
 1176TIP3    H124943   0.460   3.678   4.005 -0.5618 -0.8683  0.2235
 1176TIP3    H224944   0.418   3.823   4.018  1.5491 -0.1563 -0.4064
 1177TIP3   OH224945   2.379   5.549  12.583 -0.5626  0.2534 -0.3393
 1177TIP3    H124946   2.388   5.457  12.606 -0.8164  0.1501 -0.6538
 1177TIP3    H224947   2.466   5.586  12.600 -0.1235 -0.2841 -1.2811
 1178TIP3   OH224948   2.334   4.643  16.360 -0.9834 -0.3177  0.9358
 1178TIP3    H124949   2.290   4.694  16.292 -2.5223  0.5190  2.4876
 1178TIP3    H224950   2.349   4.557  16.321 -2.9309 -0.2441 -0.0496
 1179TIP3   OH224951   3.866   0.088  12.111 -0.5484  0.1366  0.1515
 1179TIP3    H124952   3.841   0.076  12.203  1.8035  2.3143  1.2100
 1179TIP3    H224953   3.950   0.133  12.115 -0.2240  0.0629 -3.1199
 1180TIP3   OH224954   1.743   5.241  16.701 -0.3921  0.5249  0.0206
 1180TIP3    H124955   1.837   5.226  16.709 -0.8863 -1.8543  3.9729
 1180TIP3    H224956   1.708   5.158  16.669 -1.2301  1.3526 -1.3172
 1181TIP3   OH224957   0.036   3.784   4.901 -0.5267  0.4622  0.3148
 1181TIP3    H124958  -0.025   3.835   4.848 -0.0413  0.2014 -0.5246
 1181TIP3    H224959   0.123   3.815   4.874 -0.2677  0.2438  0.8810
 1182TIP3   OH224960   6.099   5.182   0.220 -0.2781 -0.6380  1.2866
 1182TIP3    H124961   6.049   5.242   0.276 -0.3921  1.0730 -0.5589
 1182TIP3    H224962   6.187   5.218   0.218 -0.4274 -0.3152 -0.1100
 1183TIP3   OH224963   3.237   3.926   6.439 -0.5161 -0.0476  0.2356
 1183TIP3    H124964   3.304   3.994   6.433  0.0880 -0.7262 -1.5504
 1183TIP3    H224965   3.285   3.844   6.426 -1.3696 -0.7544  1.3511
 1184TIP3   OH224966   2.202   3.262   3.429  0.3401 -0.3211 -0.8321
 1184TIP3    H124967   2.179   3.327   3.495  0.8620 -0.7709 -0.1941
 1184TIP3    H224968   2.291   3.287   3.401  0.0883 -0.0805 -1.4357
 1185TIP3   OH224969   0.124   2.123  14.162 -0.7207 -0.0680  0.7791
 1185TIP3    H124970   0.146   2.214  14.180  1.2265 -0.4870  0.7254
 1185TIP3    H224971   0.106   2.120  14.068  1.1515 -0.0460  0.3804
 1186TIP3   OH224972   3.903   3.978  16.366  0.7820 -0.0738  0.2307
 1186TIP3    H124973   3.957   3.937  16.299 -1.7047 -0.3153 -1.7634
 1186TIP3    H224974   3.896   3.912  16.435 -0.1161 -1.6009 -1.2539
 1187TIP3   OH224975   2.095   0.007  13.448  0.0503 -0.2524 -0.0032
 1187TIP3    H124976   2.027  -0.058  13.428 -0.1140  0.4285 -1.9038
 1187TIP3    H224977   2.059   0.059  13.519 -0.3263 -1.4755  0.7318
 1188TIP3   OH224978   2.111   3.694   1.096 -0.5617 -0.3134 -0.4875
 1188TIP3    H124979   2.194   3.736   1.119 -0.0907 -1.4147 -0.1119
 1188TIP3    H224980   2.054   3.766   1.070 -0.2155  0.6979  1.3926
 1189TIP3   OH224981   6.502   6.497   4.217  0.1604 -0.0138  0.4042
 1189TIP3    H124982   6.458   6.448   4.287 -2.5675 -2.1143 -2.5444
 1189TIP3    H224983   6.579   6.445   4.195 -1.2192 -1.6323 -0.8242
 1190TIP3   OH224984   6.093   0.356   5.176 -0.0820  0.2655  0.3054
 1190TIP3    H124985   6.131   0.269   5.162 -1.4946 -0.2132 -0.7384
 1190TIP3    H224986   6.160   0.416   5.146  0.4071 -0.5038 -0.1852
 1191TIP3   OH224987   3.864   3.404  13.942  0.0856  0.2871 -0.1071
 1191TIP3    H124988   3.905   3.360  13.867 -0.7380  1.5283 -1.3332
 1191TIP3    H224989   3.805   3.469  13.903 -1.1947  0.2476  1.6093
 1192TIP3   OH224990   1.513   3.519   4.257 -0.2296 -0.3378  0.2209
 1192TIP3    H124991   1.507   3.582   4.329  1.0993  0.5073 -0.3489
 1192TIP3    H224992   1.606   3.495   4.254 -0.5026 -1.4013 -0.3514
 1193TIP3   OH224993   0.873   1.908  16.609  0.2494 -0.4025 -0.4994
 1193TIP3    H124994   0.867   1.816  16.632 -0.2456 -0.2457  0.0254
 1193TIP3    H224995   0.865   1.954  16.692  2.9487  0.0711 -0.4300
 1194TIP3   OH224996   3.512   4.509   5.002 -0.2832 -0.0680  0.1211
 1194TIP3    H124997   3.591   4.564   5.003 -1.2233  1.4263 -1.7403
 1194TIP3    H224998   3.537   4.432   4.951  0.3715 -0.3071  0.7785
 1195TIP3   OH224999   4.203   5.051   2.443  0.1465 -0.3704 -0.0035
 1195TIP3    H125000   4.274   5.107   2.412 -1.5949  1.2651 -1.2916
 1195TIP3    H225001   4.237   4.962   2.436  1.9038  0.3418 -0.9982
 1196TIP3   OH225002   3.018   6.708  16.946 -0.0857 -0.3205  0.4106
 1196TIP3    H125003   2.930   6.688  16.914 -1.4970  1.7482  2.6429
 1196TIP3    H225004   3.026   6.803  16.939  1.6531 -0.3789  1.0571
 1197TIP3   OH225005   5.738   2.990   2.336  0.1074 -0.4233  0.3083
 1197TIP3    H125006   5.724   3.072   2.382  1.2945  1.1723 -1.9991
 1197TIP3    H225007   5.676   2.929   2.376 -4.2238  2.7204 -0.8992
 1198TIP3   OH225008   6.701   5.984  12.358  0.3958  0.3854 -0.5108
 1198TIP3    H125009   6.729   5.988  12.449  0.3516 -1.7740 -0.3500
 1198TIP3    H225010   6.752   6.052  12.314  1.3792  0.5812  0.8842
 1199TIP3   OH225011   6.105   0.164  13.165  0.2615 -0.0719 -0.4167
 1199TIP3    H125012   6.132   0.221  13.093  1.6375  0.8681  0.7902
 1199TIP3    H225013   6.110   0.220  13.243 -2.3454 -0.7208  0.3050
 1200TIP3   OH225014   3.473   2.985   4.083 -0.0759 -0.2234 -0.0120
 1200TIP3    H125015   3.464   2.898   4.044  2.5046 -0.3937 -0.4486
 1200TIP3    H225016   3.550   3.022   4.040 -0.5441  1.9084  0.8683
 1201TIP3   OH225017   0.326   2.540   4.869  0.5073 -0.2811  0.1703
 1201TIP3    H125018   0.269   2.532   4.793 -0.3082  3.6383  0.1777
 1201TIP3    H225019   0.267   2.558   4.942  1.5749  1.8768  0.5648
 1202TIP3   OH225020   2.698   1.674   5.258 -0.0988  0.0033  0.2215
 1202TIP3    H125021   2.638   1.630   5.198  0.2557 -0.9316  0.5306
 1202TIP3    H225022   2.686   1.767   5.240 -1.4655 -0.1736  0.1169
 1203TIP3   OH225023   0.935   0.929  16.213 -0.5344 -0.7231  0.5744
 1203TIP3    H125024   0.876   0.859  16.185  1.1014 -1.6075 -0.8590
 1203TIP3    H225025   1.016   0.913  16.164  0.2803  1.5184  1.0842
 1204TIP3   OH225026   0.390   3.406  11.869 -0.5597 -0.1568 -0.8757
 1204TIP3    H125027   0.363   3.375  11.782  0.0516  1.3453 -1.6516
 1204TIP3    H225028   0.479   3.375  11.879 -0.3384  0.3607 -1.1692
 1205TIP3   OH225029   4.032   4.542   1.439  0.5337  0.2398  0.8184
 1205TIP3    H125030   4.103   4.483   1.414  0.2862  0.0128  0.6450
 1205TIP3    H225031   4.060   4.628   1.406 -0.3010 -0.2465 -1.2903
 1206TIP3   OH225032   3.350   1.750   6.171  0.0393  0.2776 -0.0887
 1206TIP3    H125033   3.338   1.685   6.240 -2.1283  0.2420 -0.4313
 1206TIP3    H225034   3.282   1.816   6.188 -0.9036  0.0117 -2.4147
 1207TIP3   OH225035   0.315   1.510   6.244  0.3355  0.0171  0.0024
 1207TIP3    H125036   0.254   1.555   6.186 -0.4621 -0.6900  0.2772
 1207TIP3    H225037   0.263   1.441   6.285  0.9839  0.2518  1.2638
 1208TIP3   OH225038   2.328   1.223  12.270  0.0155 -0.3564 -0.4497
 1208TIP3    H125039   2.279   1.192  12.194 -0.1404  1.4108 -1.1155
 1208TIP3    H225040   2.312   1.318  12.272  1.2050 -0.1463  0.9275
 1209TIP3   OH225041   0.028   6.107  11.024  0.0060  0.3663  0.0461
 1209TIP3    H125042   0.017   6.178  11.088 -0.0738  0.5797 -0.2022
 1209TIP3    H225043   0.004   6.146  10.940  1.2252  0.4277 -0.3024
 1210TIP3   OH225044   0.867   5.160   1.108  0.7764  0.1546  0.3048
 1210TIP3    H125045   0.852   5.244   1.153  0.5018  0.5251 -0.4534
 1210TIP3    H225046   0.903   5.103   1.175  1.2184  0.9631  0.7743
 1211TIP3   OH225047   4.569   3.582  16.440  0.0137  0.5721  0.4067
 1211TIP3    H125048   4.642   3.615  16.388 -0.0753  1.6945  0.9702
 1211TIP3    H225049   4.492   3.596  16.386 -0.2079  2.6511  1.1671
 1212TIP3   OH225050   1.234   4.388   0.957  0.2781  0.1999 -0.4784
 1212TIP3    H125051   1.330   4.385   0.950  0.3415  0.2106  0.2867
 1212TIP3    H225052   1.203   4.358   0.871  0.9638 -0.2367 -0.5863
 1213TIP3   OH225053   2.730   3.871   1.426 -0.2397  0.3704  0.1117
 1213TIP3    H125054   2.726   3.789   1.475 -0.4819  0.6503  0.5744
 1213TIP3    H225055   2.652   3.871   1.371 -1.5243  1.3221  1.8175
 1214TIP3   OH225056   1.815   4.801   3.758 -0.6538  0.1511  0.0710
 1214TIP3    H125057   1.803   4.747   3.681 -0.5873  0.1802  0.0399
 1214TIP3    H225058   1.824   4.739   3.830 -1.1899  0.1323  0.1269
 1215TIP3   OH225059   2.499   2.940  14.878  0.1076 -0.4915 -0.0371
 1215TIP3    H125060   2.422   2.940  14.935 -0.8180  0.2657 -1.2500
 1215TIP3    H225061   2.569   2.974  14.934 -0.4547 -1.0319  1.0354
 1216TIP3   OH225062   4.663   4.918   1.811 -0.1491 -0.3945 -0.0912
 1216TIP3    H125063   4.580   4.959   1.786 -0.3763  0.2969  1.6259
 1216TIP3    H225064   4.714   4.990   1.847  1.9041 -0.4674 -2.6184
 1217TIP3   OH225065   2.028   5.434   5.776 -0.7113  0.2267 -0.3357
 1217TIP3    H125066   2.091   5.447   5.846 -1.2100 -0.4433  0.2618
 1217TIP3    H225067   2.076   5.454   5.696  1.0093 -2.5493 -0.1261
 1218TIP3   OH225068   1.159   4.138   5.647  0.0675  0.6936  0.6522
 1218TIP3    H125069   1.152   4.234   5.652  1.3980  0.9064 -0.6252
 1218TIP3    H225070   1.252   4.120   5.664 -0.1007 -0.3303  0.5252
 1219TIP3   OH225071   5.073   6.005  16.678 -0.0606 -0.8221 -0.8420
 1219TIP3    H125072   5.113   6.082  16.717 -0.4596 -1.2623  0.4888
 1219TIP3    H225073   5.148   5.952  16.648  0.2918 -0.7351 -0.1471
 1220TIP3   OH225074   2.856   3.239  15.592  0.9844 -0.2612 -0.5674
 1220TIP3    H125075   2.815   3.261  15.509  0.1164 -1.0972 -0.3716
 1220TIP3    H225076   2.933   3.295  15.596 -0.6230  2.0851 -0.5056
 1221TIP3   OH225077   1.786   0.513   4.420  0.5709 -0.1615  0.1311
 1221TIP3    H125078   1.859   0.502   4.481 -0.2781 -0.3754  1.1537
 1221TIP3    H225079   1.757   0.603   4.433 -0.7890 -0.7496  1.4509
 1222TIP3   OH225080   4.686   6.732  12.860 -0.0843 -0.5672 -0.3361
 1222TIP3    H125081   4.600   6.732  12.816 -0.4473  0.6654  0.3388
 1222TIP3    H225082   4.678   6.798  12.928  1.6551  0.0980 -0.7385
 1223TIP3   OH225083   1.738   6.276  11.739  0.3744  0.3078 -0.6386
 1223TIP3    H125084   1.670   6.270  11.672 -0.2989 -1.7084  0.1336
 1223TIP3    H225085   1.783   6.192  11.734  3.4405  1.8638 -1.6746
 1224TIP3   OH225086   2.091   1.345   4.760 -0.5040  0.5019  0.5431
 1224TIP3    H125087   2.034   1.310   4.691 -1.6238  1.4287  0.9626
 1224TIP3    H225088   2.085   1.280   4.830  1.7303 -1.1526 -0.6833
 1225TIP3   OH225089   4.807   6.510   6.043 -0.2252 -0.0878 -0.5473
 1225TIP3    H125090   4.867   6.577   6.077  1.1139 -2.0799  1.2504
 1225TIP3    H225091   4.756   6.482   6.119 -0.8927 -0.9798 -1.2994
 1226TIP3   OH225092   2.161   4.037   2.254  0.2287 -0.6242  0.7586
 1226TIP3    H125093   2.139   3.944   2.249 -0.6655 -0.3747 -0.6609
 1226TIP3    H225094   2.173   4.063   2.162  0.5048  0.6562  1.1378
 1227TIP3   OH225095   6.545   3.574  13.202  0.4114  0.2702 -0.4589
 1227TIP3    H125096   6.533   3.647  13.142  0.8333  0.6799 -0.0590
 1227TIP3    H225097   6.638   3.575  13.224  0.2778  0.1090  0.1631
 1228TIP3   OH225098   6.102   4.554  12.808 -0.2769  0.0721  0.3778
 1228TIP3    H125099   6.070   4.470  12.843  0.6161  0.3753  2.0152
 1228TIP3    H225100   6.146   4.595  12.882  1.9419  0.6596 -1.1716
 1229TIP3   OH225101   6.001   3.020   4.863 -0.3289  0.0749 -0.7046
 1229TIP3    H125102   5.968   2.931   4.867  0.0591 -0.0249  1.1129
 1229TIP3    H225103   6.000   3.042   4.770  0.7418 -2.2482 -1.3340
 1230TIP3   OH225104   3.451   5.769   6.611  0.1614 -0.1401  0.0193
 1230TIP3    H125105   3.481   5.696   6.557 -1.6714  0.3157 -1.8009
 1230TIP3    H225106   3.472   5.744   6.700  1.0658 -2.1351 -0.6864
 1231TIP3   OH225107   3.465   5.941   4.732 -0.5072  0.6171  0.6176
 1231TIP3    H125108   3.468   5.887   4.653 -2.0157 -2.2191  2.3273
 1231TIP3    H225109   3.437   6.027   4.701 -0.0107 -0.0801 -2.0323
 1232TIP3   OH225110   5.844   1.473   0.019 -0.3414 -0.1486 -0.1688
 1232TIP3    H125111   5.915   1.530   0.048  0.4402 -0.5982 -1.1428
 1232TIP3    H225112   5.810   1.516  -0.060 -1.2727  0.1386  0.3650
 1233TIP3   OH225113   2.242   0.293  16.041  0.4943 -0.3278  0.4616
 1233TIP3    H125114   2.180   0.233  16.082  0.7749 -0.3125  0.9041
 1233TIP3    H225115   2.322   0.242  16.029  1.5454  0.5811  3.0015
 1234TIP3   OH225116   1.823   3.880  16.898 -0.9898 -0.3587  0.2305
 1234TIP3    H125117   1.751   3.836  16.853 -2.3199  1.3446  0.5954
 1234TIP3    H225118   1.797   3.972  16.903  0.5703  0.0776  1.6384
 1235TIP3   OH225119   1.150   3.597  13.228  0.4577 -0.7057  0.1286
 1235TIP3    H125120   1.174   3.528  13.165  0.8845  0.4536 -1.0329
 1235TIP3    H225121   1.124   3.550  13.306 -0.5939 -2.2403 -1.0809
 1236TIP3   OH225122   2.080   4.543  12.141  0.3489  0.2040 -0.0184
 1236TIP3    H125123   2.099   4.605  12.212  0.3363 -0.5098  0.6156
 1236TIP3    H225124   2.075   4.598  12.063 -3.2135  1.5596  0.9845
 1237TIP3   OH225125   0.223   3.173   5.932  0.3399 -0.6393 -0.4612
 1237TIP3    H125126   0.293   3.142   5.873 -0.4998  0.5638 -2.1843
 1237TIP3    H225127   0.161   3.217   5.874 -0.9450 -0.0740  1.2653
 1238TIP3   OH225128   2.995   0.010  11.363 -0.0692  0.6924 -0.1646
 1238TIP3    H125129   3.084   0.013  11.329 -0.1779  0.3946 -0.4825
 1238TIP3    H225130   2.971  -0.083  11.360  0.3080  0.4877  1.7563
 1239TIP3   OH225131   4.793   3.012  15.796  0.1956  0.0500  0.2132
 1239TIP3    H125132   4.761   3.076  15.732  2.0299 -0.7360 -1.6024
 1239TIP3    H225133   4.714   2.971  15.830 -0.8713  0.0454 -2.0596
 1240TIP3   OH225134   5.189   1.193   2.993  0.0501  0.0348  0.1020
 1240TIP3    H125135   5.162   1.260   3.056  1.9525 -0.2862  1.3675
 1240TIP3    H225136   5.255   1.237   2.938  1.7169 -0.8566  1.2862
 1241TIP3   OH225137   5.797   2.425  15.851 -0.0272 -0.2373 -0.4264
 1241TIP3    H125138   5.754   2.378  15.780 -0.0697  0.9555 -1.2220
 1241TIP3    H225139   5.737   2.497  15.872  0.3235 -0.1494  0.3287
 1242TIP3   OH225140   6.481   5.536  16.760  0.1029  0.5084  0.2261
 1242TIP3    H125141   6.433   5.459  16.790 -0.8646  0.4797 -1.2826
 1242TIP3    H225142   6.503   5.516  16.669  2.1116  0.9594  0.5666
 1243TIP3   OH225143   0.051   5.883   3.129 -0.0856  0.0885  0.3919
 1243TIP3    H125144   0.114   5.850   3.193 -0.8679 -0.4657  0.8844
 1243TIP3    H225145   0.023   5.967   3.165 -0.8814 -0.4403  1.0345
 1244TIP3   OH225146   1.143   5.810   1.026 -0.3179 -0.5528  0.3674
 1244TIP3    H125147   1.083   5.800   1.100 -2.5062  1.5404 -0.9566
 1244TIP3    H225148   1.156   5.721   0.994 -3.4960 -1.1074  0.2333
 1245TIP3   OH225149   5.372   1.936   4.675  0.2946  0.0187  1.0431
 1245TIP3    H125150   5.439   1.991   4.717  0.3834  0.3571  0.4646
 1245TIP3    H225151   5.293   1.951   4.726  0.3509  0.5889  0.9734
 1246TIP3   OH225152   3.872   5.630  11.817 -0.0259  0.3159  0.0160
 1246TIP3    H125153   3.841   5.585  11.739 -0.1859  0.2541  0.1163
 1246TIP3    H225154   3.846   5.721  11.805  0.7386  0.4859 -0.4225
 1247TIP3   OH225155   1.320   5.196   4.516 -0.6485 -0.1259 -0.0698
 1247TIP3    H125156   1.350   5.228   4.602  0.2694 -0.1422 -0.3660
 1247TIP3    H225157   1.259   5.262   4.486 -0.0629  0.4987  0.0767
 1248TIP3   OH225158   6.710   6.725  16.648  0.3863 -0.0551 -0.2302
 1248TIP3    H125159   6.785   6.784  16.648  0.2485  0.3165  2.9745
 1248TIP3    H225160   6.637   6.780  16.676 -0.1900 -1.2809  0.7388
 1249TIP3   OH225161   0.364   4.226   0.227 -0.0869 -0.6129  0.0865
 1249TIP3    H125162   0.287   4.271   0.261  0.3847 -0.6930  1.3068
 1249TIP3    H225163   0.335   4.135   0.214  0.1930 -1.0595  2.1379
 1250TIP3   OH225164   1.287   5.680   6.243  0.1100  0.5763  0.3385
 1250TIP3    H125165   1.296   5.660   6.336 -0.7506 -1.1398  0.0957
 1250TIP3    H225166   1.197   5.655   6.222  0.6981 -0.3632 -1.2253
 1251TIP3   OH225167   6.220   1.996   2.118  0.3093  0.3227  0.6531
 1251TIP3    H125168   6.260   1.990   2.205  1.4764  2.2649  0.3209
 1251TIP3    H225169   6.292   1.977   2.057 -0.3445 -0.4083  0.0946
 1252TIP3   OH225170   0.156   5.366  13.652  0.4067  0.1870 -0.3747
 1252TIP3    H125171   0.219   5.436  13.635  0.8682 -0.4014 -1.1864
 1252TIP3    H225172   0.157   5.313  13.572 -1.6662  0.5642 -0.7036
 1253TIP3   OH225173   6.553   2.761  14.018 -0.3128 -0.2079  0.0655
 1253TIP3    H125174   6.646   2.772  13.998 -0.4026  1.5955  0.5132
 1253TIP3    H225175   6.551   2.727  14.108 -0.0833 -2.1355 -0.6007
 1254TIP3   OH225176   1.191   6.710  15.186  0.4795 -0.5228 -0.3432
 1254TIP3    H125177   1.182   6.674  15.274 -2.9614 -0.8389 -0.6850
 1254TIP3    H225178   1.175   6.636  15.128  2.7829 -0.3331 -1.3277
 1255TIP3   OH225179   4.367   2.862   5.970  0.3542  0.4955  0.2843
 1255TIP3    H125180   4.382   2.799   6.041  0.8542  0.0837 -0.1722
 1255TIP3    H225181   4.355   2.946   6.014 -2.1498 -0.1662  1.0367
 1256TIP3   OH225182   6.041   2.295   6.046  0.3377  0.2761 -0.1696
 1256TIP3    H125183   6.034   2.204   6.074  1.5941  0.1355 -0.2693
 1256TIP3    H225184   5.985   2.300   5.968  0.9662 -0.6467 -0.7029
 1257TIP3   OH225185   1.349   2.858   2.874 -0.1442 -0.2594  0.0377
 1257TIP3    H125186   1.396   2.783   2.910 -1.4454 -0.1259  2.1896
 1257TIP3    H225187   1.418   2.919   2.848  0.9220 -0.7144  1.6233
 1258TIP3   OH225188   0.976   6.261   3.182  0.1896  0.2967 -0.1086
 1258TIP3    H125189   0.945   6.294   3.098  1.0524 -0.4942 -0.7516
 1258TIP3    H225190   1.070   6.245   3.169  0.6185  1.3559  1.3780
 1259TIP3   OH225191   6.656   5.452  11.683  0.5663 -0.1925  0.2555
 1259TIP3    H125192   6.634   5.376  11.629 -0.2464 -0.1813  0.5679
 1259TIP3    H225193   6.594   5.519  11.656 -1.9881 -1.0956  3.3347
 1260TIP3   OH225194   5.812   1.624  14.332  0.7369 -0.2067  0.2816
 1260TIP3    H125195   5.832   1.532  14.348  0.7595  0.1110  2.4108
 1260TIP3    H225196   5.898   1.666  14.325  0.7318 -0.4093 -1.3700
 1261TIP3   OH225197   4.206   5.187   1.067 -0.3429 -0.2330 -0.1069
 1261TIP3    H125198   4.257   5.121   1.114  0.2503 -1.3896 -2.2532
 1261TIP3    H225199   4.238   5.271   1.100  0.0279 -0.9637  1.5092
 1262TIP3   OH225200   1.863   2.600   4.788 -0.6166 -0.6827 -0.2532
 1262TIP3    H125201   1.775   2.565   4.776 -0.8532 -0.0762 -0.3230
 1262TIP3    H225202   1.852   2.695   4.780  0.0475 -0.6078 -0.2916
 1263TIP3   OH225203   0.853   2.058  16.014  0.3387 -0.0532  0.5891
 1263TIP3    H125204   0.831   1.970  16.042 -0.1357  0.4377  1.8371
 1263TIP3    H225205   0.813   2.067  15.928  1.5376 -1.4940 -0.1694
 1264TIP3   OH225206   4.266   2.495   0.842  0.1424 -0.7433  0.2490
 1264TIP3    H125207   4.270   2.416   0.788  1.9179 -0.4372 -0.1086
 1264TIP3    H225208   4.356   2.509   0.871 -0.5902 -0.3227  2.4893
 1265TIP3   OH225209   2.721   1.098  14.149  0.1267  0.0580 -0.1899
 1265TIP3    H125210   2.788   1.050  14.101 -0.6075  0.0732 -1.2667
 1265TIP3    H225211   2.718   1.184  14.108  0.1774  0.4183  0.5460
 1266TIP3   OH225212   5.243   2.633  10.719  0.3047 -0.7499 -0.0820
 1266TIP3    H125213   5.292   2.621  10.801 -1.7690 -1.1388  1.1586
 1266TIP3    H225214   5.274   2.716  10.685  1.4336 -0.7231  0.9314
 1267TIP3   OH225215   2.229   3.299   2.029 -0.1696 -0.0702 -0.4946
 1267TIP3    H125216   2.159   3.274   2.090 -0.7336 -0.2031 -1.1902
 1267TIP3    H225217   2.270   3.375   2.070 -1.0526  0.3195 -0.3178
 1268TIP3   OH225218   3.740   5.340   3.607  0.2838 -0.6386  0.8311
 1268TIP3    H125219   3.790   5.266   3.573  1.4046  0.9347 -1.1514
 1268TIP3    H225220   3.693   5.375   3.531  0.7983  1.4359  1.4009
 1269TIP3   OH225221   1.869   6.654   6.589 -0.2481 -0.1842  0.0210
 1269TIP3    H125222   1.914   6.664   6.673 -1.5901  0.0865  0.7273
 1269TIP3    H225223   1.790   6.707   6.596 -0.5398 -0.3848 -1.3156
 1270TIP3   OH225224   0.866   1.229   1.908 -0.3218  0.6805  0.1792
 1270TIP3    H125225   0.893   1.195   1.994  0.0767  0.0837 -0.1712
 1270TIP3    H225226   0.796   1.170   1.880 -0.5291  0.9442  0.1506
 1271TIP3   OH225227   0.116   4.037  11.581  0.6723  0.1656  0.0176
 1271TIP3    H125228   0.182   4.100  11.607  0.2561  0.3752  0.5841
 1271TIP3    H225229   0.071   4.078  11.507  0.3040  0.6031  0.4802
 1272TIP3   OH225230   1.591   6.276  11.506  0.3971  0.4596 -0.6452
 1272TIP3    H125231   1.499   6.254  11.493  0.3844 -0.0733  0.2784
 1272TIP3    H225232   1.631   6.267  11.419 -0.3598  0.4292 -0.9953
 1273TIP3   OH225233   3.576   3.817  14.794  0.1022 -0.3492  0.0888
 1273TIP3    H125234   3.493   3.853  14.827  0.6319  0.6120  0.4183
 1273TIP3    H225235   3.630   3.809  14.872  0.7816  0.2942 -0.3147
 1274TIP3   OH225236   5.821   5.185   5.461 -0.4220  0.0139 -0.4098
 1274TIP3    H125237   5.897   5.147   5.505 -0.7767 -0.7812 -0.4584
 1274TIP3    H225238   5.747   5.167   5.520 -0.6657  0.2461 -0.6392
 1275TIP3   OH225239   6.645   5.034  15.592 -0.0359 -0.0180 -0.3636
 1275TIP3    H125240   6.678   5.015  15.680 -0.6865 -0.1454 -0.1424
 1275TIP3    H225241   6.704   5.101  15.558  2.2088 -2.1735 -1.0567
 1276TIP3   OH225242   0.736   4.656  14.780  0.2950 -0.1479 -0.3100
 1276TIP3    H125243   0.653   4.694  14.810  0.1494 -1.0299  0.4489
 1276TIP3    H225244   0.743   4.682  14.688 -1.0795 -0.5134 -0.5310
 1277TIP3   OH225245   0.858   6.185   5.361 -0.5964 -0.0116  0.3005
 1277TIP3    H125246   0.879   6.254   5.298  1.1263 -0.8122 -0.0651
 1277TIP3    H225247   0.780   6.143   5.326 -1.2667  1.3080  0.1719
 1278TIP3   OH225248   0.144   0.898   3.625 -0.6027 -0.0269  0.0614
 1278TIP3    H125249   0.062   0.902   3.675 -1.4954  0.9707 -1.3898
 1278TIP3    H225250   0.166   0.990   3.609  0.6953 -0.2908  0.2093
 1279TIP3   OH225251   5.808   3.966   4.143 -0.3781 -0.1738  0.0089
 1279TIP3    H125252   5.787   4.016   4.222  0.2186 -0.5824  0.4340
 1279TIP3    H225253   5.769   3.880   4.157  2.9608 -1.5965  1.6519
 1280TIP3   OH225254   6.495   2.143  15.929 -0.0046  0.4933 -0.2840
 1280TIP3    H125255   6.575   2.111  15.972 -0.2984  0.9970  0.6673
 1280TIP3    H225256   6.523   2.222  15.883  0.3620 -0.1760 -1.2388
 1281TIP3   OH225257   2.505   5.535   2.073 -0.3053 -0.4409  0.1607
 1281TIP3    H125258   2.478   5.626   2.068 -1.6830 -0.8589 -0.4910
 1281TIP3    H225259   2.582   5.530   2.018 -0.5529  0.2158 -0.2557
 1282TIP3   OH225260   4.558   3.263  16.916  0.0117 -0.0562 -0.2811
 1282TIP3    H125261   4.543   3.356  16.929 -0.5524 -0.4772  2.8696
 1282TIP3    H225262   4.651   3.256  16.894  0.0708  1.2194 -0.4797
 1283TIP3   OH225263   5.066   4.974   0.019  0.5126  0.2847 -0.5461
 1283TIP3    H125264   5.010   5.016   0.085  0.9114 -1.2751  0.8601
 1283TIP3    H225265   5.156   4.991   0.049  0.6889 -1.5323  0.1106
 1284TIP3   OH225266   6.372   4.777  13.407  0.0867 -0.8304 -1.0683
 1284TIP3    H125267   6.279   4.759  13.391 -0.3783  0.7577 -0.3036
 1284TIP3    H225268   6.373   4.832  13.485  1.6684 -0.7579 -1.1119
 1285TIP3   OH225269   1.770   3.335   4.000 -0.1140 -0.5510 -0.8027
 1285TIP3    H125270   1.774   3.298   4.088 -0.8619 -1.5217 -1.1490
 1285TIP3    H225271   1.752   3.428   4.013  0.9483 -0.4469  0.0807
 1286TIP3   OH225272   6.549   2.821  12.006 -0.0155 -0.6157  0.1340
 1286TIP3    H125273   6.608   2.857  12.073 -1.2631 -0.5748  1.2681
 1286TIP3    H225274   6.468   2.871  12.017 -0.1566 -0.3939 -1.6534
 1287TIP3   OH225275   2.616   3.876   1.786  0.2108 -0.3595  0.1350
 1287TIP3    H125276   2.578   3.837   1.707 -0.0026 -0.4080  0.2615
 1287TIP3    H225277   2.546   3.930   1.822 -0.6692 -2.4704  1.8079
 1288TIP3   OH225278   6.211   1.813   3.940  0.3503 -0.2068 -0.3138
 1288TIP3    H125279   6.209   1.906   3.915  2.2139 -0.3289 -1.0695
 1288TIP3    H225280   6.263   1.812   4.020 -2.8295 -0.2163  1.9038
 1289TIP3   OH225281   0.325   0.393  15.645  0.3814 -0.2058  0.4113
 1289TIP3    H125282   0.338   0.487  15.638  0.1020 -0.2361 -0.7994
 1289TIP3    H225283   0.411   0.357  15.666  1.4035 -0.0126 -2.9828
 1290TIP3   OH225284   6.250   4.857  16.143 -0.0117  0.2738  0.2758
 1290TIP3    H125285   6.230   4.886  16.232 -1.6516  0.3627 -0.0937
 1290TIP3    H225286   6.296   4.932  16.104 -0.4339  0.7347  0.6451
 1291TIP3   OH225287   5.709   4.319   5.084  0.0821  0.5569  0.0696
 1291TIP3    H125288   5.727   4.262   5.009 -2.1410  0.9580 -0.8398
 1291TIP3    H225289   5.772   4.291   5.151  1.1531 -0.7982 -1.4323
 1292TIP3   OH225290   5.724   0.299   5.765  0.5467 -0.0516  0.1514
 1292TIP3    H125291   5.687   0.307   5.677  3.3267 -0.1296 -1.1328
 1292TIP3    H225292   5.692   0.377   5.812 -0.6756  0.1847 -1.0230
 1293TIP3   OH225293   2.843   1.081   0.432  0.1567 -0.4641 -0.3399
 1293TIP3    H125294   2.934   1.074   0.459  0.0894  0.4738  0.1988
 1293TIP3    H225295   2.832   1.173   0.407 -0.6576 -0.5367 -0.2948
 1294TIP3   OH225296   4.217   2.059  15.135  0.0414 -0.2605 -0.0956
 1294TIP3    H125297   4.190   2.146  15.106  1.2578 -0.2938 -1.4595
 1294TIP3    H225298   4.135   2.012  15.150 -0.6276  0.9780  0.2791
 1295TIP3   OH225299   2.533   3.651  17.221 -0.6092 -0.7206 -0.2902
 1295TIP3    H125300   2.552   3.699  17.302  0.2653 -1.5860  0.0429
 1295TIP3    H225301   2.618   3.625  17.188 -1.0531 -2.2395 -0.3256
 1296TIP3   OH225302   6.736   4.763   2.149 -0.0823 -0.1024  0.1951
 1296TIP3    H125303   6.725   4.857   2.132 -2.2249 -0.3672 -0.2610
 1296TIP3    H225304   6.807   4.737   2.090  0.3766  1.1731  0.1370
 1297TIP3   OH225305   3.107   1.175   5.297  0.2618 -0.5244  0.8138
 1297TIP3    H125306   3.134   1.256   5.254  3.0641 -2.0723 -0.5841
 1297TIP3    H225307   3.027   1.149   5.252 -1.6929  2.1729  2.3889
 1298TIP3   OH225308   0.161   0.454   3.099 -0.0646 -0.1442  0.6708
 1298TIP3    H125309   0.093   0.397   3.063  0.8832  0.9303 -3.3183
 1298TIP3    H225310   0.241   0.401   3.092  0.1794  0.1588  1.1433
 1299TIP3   OH225311   0.396   4.629  15.555  0.2145 -0.0947  0.1233
 1299TIP3    H125312   0.382   4.722  15.568  0.2712  0.0125 -0.5636
 1299TIP3    H225313   0.491   4.618  15.560  0.1481 -0.3071  1.3822
 1300TIP3   OH225314   2.108   6.440  12.098  0.0388 -0.1132  0.2386
 1300TIP3    H125315   2.065   6.479  12.174  0.3161  0.4065  0.1366
 1300TIP3    H225316   2.158   6.512  12.060 -0.8839 -0.0955 -1.0126
 1301TIP3   OH225317   2.231   1.107   2.324 -0.0822 -0.5658 -0.3629
 1301TIP3    H125318   2.237   1.184   2.380  2.4768  0.4436 -1.8474
 1301TIP3    H225319   2.315   1.104   2.278 -0.9820 -2.9373 -2.0735
 1302TIP3   OH225320   0.525   6.320   2.543 -0.1421  0.4522  0.3206
 1302TIP3    H125321   0.517   6.245   2.484 -0.8131  1.1281 -0.4962
 1302TIP3    H225322   0.435   6.351   2.554  0.1118  1.0707  0.7194
 1303TIP3   OH225323   4.494   0.403   3.237 -0.5805 -0.2554 -0.4485
 1303TIP3    H125324   4.471   0.375   3.149  0.3929  0.1001 -0.8247
 1303TIP3    H225325   4.430   0.359   3.294  0.4955 -2.8049 -1.0455
 1304TIP3   OH225326   5.010   1.611   5.501 -0.1038 -0.6540  0.6782
 1304TIP3    H125327   4.943   1.640   5.563  0.1371 -0.3085  0.7770
 1304TIP3    H225328   5.053   1.537   5.544  0.4700 -0.0264  1.1805
 1305TIP3   OH225329   3.918   5.867   5.364  0.1185  0.2325  0.4017
 1305TIP3    H125330   3.976   5.800   5.400  1.2899  1.0338  0.0551
 1305TIP3    H225331   3.839   5.819   5.337  1.0425 -1.0479 -0.1118
 1306TIP3   OH225332   0.983   1.254  15.057 -0.7644  0.1072 -0.2915
 1306TIP3    H125333   0.922   1.185  15.084 -0.9203  0.0752 -0.7138
 1306TIP3    H225334   0.926   1.325  15.026 -0.5930  0.1530 -0.5026
 1307TIP3   OH225335   3.074   4.386   1.099  0.1402 -0.4761  0.2470
 1307TIP3    H125336   3.049   4.314   1.157  3.0421 -0.1568  2.0802
 1307TIP3    H225337   2.992   4.412   1.057 -1.6081 -2.5709  2.0953
 1308TIP3   OH225338   4.874   4.429  13.989  0.1944 -0.0666  0.3567
 1308TIP3    H125339   4.930   4.506  13.992 -2.7370  2.3316 -1.2508
 1308TIP3    H225340   4.908   4.378  13.915  0.6830  0.9543 -0.1483
 1309TIP3   OH225341   3.306   5.025  13.656  0.5438 -0.6121 -0.5254
 1309TIP3    H125342   3.220   5.065  13.641 -0.3924 -1.5265  1.8669
 1309TIP3    H225343   3.293   4.933  13.632  0.1098 -1.2503  1.8588
 1310TIP3   OH225344   4.004   3.305  17.227 -0.1019  0.1863  0.0052
 1310TIP3    H125345   4.029   3.328  17.317 -1.7456  2.2394  0.0025
 1310TIP3    H225346   4.076   3.341  17.173 -0.3068  1.1675  0.3570
 1311TIP3   OH225347   3.963   5.262   2.344 -0.1058 -0.0590  0.3474
 1311TIP3    H125348   3.964   5.173   2.381  0.4786 -0.2999 -0.2337
 1311TIP3    H225349   4.042   5.266   2.290 -0.1563  0.8046  0.3320
 1312TIP3   OH225350   1.485   1.010  15.474 -0.4539 -0.7880 -0.2485
 1312TIP3    H125351   1.556   0.954  15.443  0.3087 -0.0737  0.1392
 1312TIP3    H225352   1.427   1.019  15.399 -0.5652 -2.0366 -0.3304
 1313TIP3   OH225353   3.617   2.791  15.116 -0.1396 -0.0574  0.0766
 1313TIP3    H125354   3.602   2.881  15.144 -0.3723  0.1448 -0.6864
 1313TIP3    H225355   3.569   2.783  15.033  2.0093 -0.0901 -1.2348
 1314TIP3   OH225356   0.640   6.342   1.808 -0.0915 -0.6184 -0.2602
 1314TIP3    H125357   0.697   6.371   1.737  1.5215  0.0648  1.2295
 1314TIP3    H225358   0.647   6.411   1.874 -0.2671 -1.9685  1.2277
 1315TIP3   OH225359   4.091   0.308   5.676  0.4014  0.4172  0.0586
 1315TIP3    H125360   4.114   0.284   5.587  1.1476  0.5859  0.2013
 1315TIP3    H225361   4.001   0.339   5.670 -0.3176 -1.5962 -0.2728
 1316TIP3   OH225362   2.971   0.939   4.910 -0.7632  0.5975 -0.4204
 1316TIP3    H125363   2.876   0.937   4.897 -1.3423 -2.6230  2.6826
 1316TIP3    H225364   2.987   1.022   4.955 -1.8534  1.7354 -2.0173
 1317TIP3   OH225365   6.346   5.667  17.066 -0.3297  0.0458 -0.4240
 1317TIP3    H125366   6.378   5.683  16.977 -1.2569  0.4620 -0.6900
 1317TIP3    H225367   6.355   5.751  17.110  1.6402 -0.5288  0.3954
 1318TIP3   OH225368   5.776   3.722   4.987  0.6108  0.1766  0.1386
 1318TIP3    H125369   5.858   3.765   4.964 -0.4724  2.3557  0.1003
 1318TIP3    H225370   5.728   3.718   4.905 -0.2460  1.1223  0.5640
 1319TIP3   OH225371   2.261   2.957  11.523  0.1664 -0.7161  0.4702
 1319TIP3    H125372   2.168   2.975  11.529  0.4515  0.5116  1.9182
 1319TIP3    H225373   2.282   2.965  11.430 -0.8600  0.7016  0.3336
 1320TIP3   OH225374   3.666   6.048   4.126  0.0088  0.2776 -0.6148
 1320TIP3    H125375   3.679   6.135   4.088 -0.2567 -0.7304 -3.2507
 1320TIP3    H225376   3.729   6.043   4.198  0.5558  2.3619 -0.8871
 1321TIP3   OH225377   6.545   1.164   2.889 -0.0482 -0.2385  0.2431
 1321TIP3    H125378   6.485   1.237   2.876 -0.1743 -0.2126  0.9396
 1321TIP3    H225379   6.492   1.086   2.872 -0.2330 -0.2085  0.6686
 1322TIP3   OH225380   3.605   2.416  11.230  0.4938  0.3782 -0.0027
 1322TIP3    H125381   3.587   2.415  11.136 -1.7783  0.3128  0.3625
 1322TIP3    H225382   3.667   2.345  11.243  0.4505  0.0484 -1.3976
 1323TIP3   OH225383   1.265   3.200  11.451 -0.8147 -0.2292  0.3862
 1323TIP3    H125384   1.261   3.170  11.360 -0.0207  1.1906 -0.1581
 1323TIP3    H225385   1.178   3.236  11.469 -0.8019  0.0141 -0.0243
 1324TIP3   OH225386   6.127   0.027  14.230 -0.1116 -0.6422  1.0725
 1324TIP3    H125387   6.164   0.115  14.240  1.3534 -0.8425 -1.6186
 1324TIP3    H225388   6.187  -0.029  14.279  0.9424 -0.4870  0.0168
 1325TIP3   OH225389   2.896   2.280   3.148  0.0877  0.3569 -0.1513
 1325TIP3    H125390   2.950   2.344   3.102  0.1374  0.1630 -0.3652
 1325TIP3    H225391   2.937   2.273   3.235  0.1877  0.4821 -0.1878
 1326TIP3   OH225392   5.261   4.830   3.099 -0.5084  0.3505 -0.2748
 1326TIP3    H125393   5.235   4.819   3.007 -1.1901  1.0231 -0.1747
 1326TIP3    H225394   5.354   4.856   3.094 -0.1633 -0.8949 -0.6961
 1327TIP3   OH225395   6.187   2.641   0.301 -0.0664 -0.1885  0.5052
 1327TIP3    H125396   6.212   2.614   0.212  1.0501  0.8471  0.4850
 1327TIP3    H225397   6.245   2.590   0.358  0.1883  0.1798  0.5768
 1328TIP3   OH225398   3.149   1.789  15.526 -0.2382  0.0709 -0.0648
 1328TIP3    H125399   3.220   1.833  15.479  0.1052 -0.4371 -0.0228
 1328TIP3    H225400   3.182   1.701  15.544  0.4902  0.8694  3.0111
 1329TIP3   OH225401   3.228   6.199   0.164  0.4605  0.2233  0.0186
 1329TIP3    H125402   3.149   6.224   0.117  1.0237  0.2764 -0.9199
 1329TIP3    H225403   3.196   6.152   0.241 -0.4691 -0.8219 -0.9636
 1330TIP3   OH225404   3.420   2.355  15.498  0.1338  0.0088 -0.1022
 1330TIP3    H125405   3.478   2.369  15.424 -1.8523  3.0574 -1.2768
 1330TIP3    H225406   3.332   2.355  15.460 -0.8482 -0.8755  1.9972
 1331TIP3   OH225407   5.524   2.240   2.917 -0.1410  0.5582 -0.2085
 1331TIP3    H125408   5.561   2.302   2.980 -0.7689  2.3917 -1.5522
 1331TIP3    H225409   5.480   2.295   2.852 -2.3713 -1.3747 -0.4746
 1332TIP3   OH225410   0.504   6.257   1.211 -0.4311 -1.4346  0.2231
 1332TIP3    H125411   0.436   6.296   1.157  1.1660 -1.7097 -2.1982
 1332TIP3    H225412   0.560   6.210   1.148  1.5307 -1.8816  2.1597
 1333TIP3   OH225413   0.355   5.425  13.363  0.1892  0.1032  0.4981
 1333TIP3    H125414   0.444   5.390  13.371  0.5014  0.7451 -0.0359
 1333TIP3    H225415   0.298   5.350  13.379  0.7979 -0.0480  2.1813
 1334TIP3   OH225416   5.259   4.206  13.566 -0.4321 -0.1631 -0.3926
 1334TIP3    H125417   5.325   4.210  13.496 -0.2171 -1.1311 -0.2550
 1334TIP3    H225418   5.282   4.129  13.617 -2.0369 -0.8985 -0.7155
 1335TIP3   OH225419   1.863   6.205   6.427  0.1618  0.3739 -0.0766
 1335TIP3    H125420   1.834   6.296   6.428 -0.5040  0.1688  0.9273
 1335TIP3    H225421   1.955   6.210   6.400  1.1579  1.7045  3.0498
 1336TIP3   OH225422   0.749   3.986   4.114 -0.4933 -0.0017 -0.2960
 1336TIP3    H125423   0.720   3.972   4.205  1.8673 -1.3427  0.3272
 1336TIP3    H225424   0.840   4.014   4.122 -1.0707  2.7260 -2.2003
 1337TIP3   OH225425   3.844   5.135  11.591  0.4416 -0.7229 -0.7650
 1337TIP3    H125426   3.826   5.159  11.500  1.7247  2.2412 -0.3501
 1337TIP3    H225427   3.760   5.106  11.626 -0.3381 -0.7164 -2.5485
 1338TIP3   OH225428   4.736   3.384  14.932 -0.2566 -0.1064 -0.1953
 1338TIP3    H125429   4.709   3.392  14.840  0.1006  0.0841 -0.2885
 1338TIP3    H225430   4.823   3.343  14.927  0.1892  0.7987 -0.0000
 1339TIP3   OH225431   5.864   3.444   3.553 -0.1617 -0.1707 -0.1624
 1339TIP3    H125432   5.909   3.458   3.637 -0.7565  2.3259 -0.1559
 1339TIP3    H225433   5.913   3.499   3.491 -1.0765 -0.1974 -0.9196
 1340TIP3   OH225434   1.578   5.273   3.327 -0.7154 -0.7217  0.2563
 1340TIP3    H125435   1.496   5.250   3.284 -0.4799 -2.9836  0.8799
 1340TIP3    H225436   1.630   5.315   3.259 -1.7370 -0.8539 -0.6293
 1341TIP3   OH225437   1.877   0.761   3.105  0.3455 -0.0548  0.5459
 1341TIP3    H125438   1.836   0.691   3.054  0.4514  0.3796 -0.1549
 1341TIP3    H225439   1.968   0.735   3.112  0.8325  0.9203 -1.4045
 1342TIP3   OH225440   0.580   0.220  12.400  0.6703  0.0729  0.6784
 1342TIP3    H125441   0.588   0.226  12.304  3.3233  0.2651  0.8436
 1342TIP3    H225442   0.537   0.302  12.425  0.9610  0.5315 -0.2626
 1343TIP3   OH225443   2.992   0.907  11.895  0.2248 -0.3273  0.4102
 1343TIP3    H125444   3.050   0.941  11.964 -0.4996  1.3309  0.2277
 1343TIP3    H225445   3.052   0.870  11.830  0.9467 -1.3758  1.6061
 1344TIP3   OH225446   3.188   2.997  12.476 -0.0749 -0.4387  0.0528
 1344TIP3    H125447   3.279   2.968  12.486  0.2750  1.0363  1.6209
 1344TIP3    H225448   3.178   3.065  12.542 -2.2169 -0.2847 -0.3829
 1345TIP3   OH225449   2.161   1.220  12.038 -0.2247  0.4542  0.2382
 1345TIP3    H125450   2.176   1.290  11.975 -2.9002 -0.5048 -1.6246
 1345TIP3    H225451   2.142   1.143  11.984 -0.1570 -1.0366  2.2264
 1346TIP3   OH225452   2.436   4.371   3.469  0.0468 -0.4428 -0.3687
 1346TIP3    H125453   2.391   4.315   3.406 -1.8760  0.4847  0.0780
 1346TIP3    H225454   2.378   4.372   3.545  0.6095  1.1949  0.0787
 1347TIP3   OH225455   1.243   0.061   2.628 -0.0254  0.1794  0.2510
 1347TIP3    H125456   1.155   0.098   2.639  0.2481  0.6943  0.7786
 1347TIP3    H225457   1.245   0.031   2.538 -0.9149 -0.2944  0.3770
 1348TIP3   OH225458   3.390   4.117   0.463  0.1435 -0.1458  0.4601
 1348TIP3    H125459   3.413   4.210   0.452  2.1360 -0.4481  1.5908
 1348TIP3    H225460   3.330   4.116   0.538 -1.2506  0.3559 -0.6049
 1349TIP3   OH225461   4.294   0.720   0.368 -0.3650 -0.2384 -0.0233
 1349TIP3    H125462   4.365   0.656   0.378 -0.5374 -0.7209 -1.5507
 1349TIP3    H225463   4.280   0.754   0.456  2.2410  0.3942  0.2302
 1350TIP3   OH225464   3.350   2.324  15.905  0.0999  0.4690 -0.0521
 1350TIP3    H125465   3.329   2.248  15.851  2.3968 -1.7470  1.9242
 1350TIP3    H225466   3.426   2.364  15.862  0.5592  0.0318  0.3528
 1351TIP3   OH225467   6.672   2.161  13.399 -0.6348  0.1876 -0.0807
 1351TIP3    H125468   6.630   2.246  13.383  0.7641  0.9848  0.3041
 1351TIP3    H225469   6.763   2.174  13.371 -0.3948 -1.1963 -0.0141
 1352TIP3   OH225470   3.566   1.342   2.735  0.0369 -0.2928 -0.1634
 1352TIP3    H125471   3.588   1.435   2.744 -1.6526  0.2430 -1.1066
 1352TIP3    H225472   3.585   1.305   2.822  0.2510  1.0318  0.3876
 1353TIP3   OH225473   1.828   2.546  13.913 -0.1506 -0.5283  0.2068
 1353TIP3    H125474   1.776   2.610  13.961  0.1702 -1.1234  1.3712
 1353TIP3    H225475   1.853   2.591  13.832 -0.3616  0.6272  0.7726
 1354TIP3   OH225476   5.676   2.344  17.108  0.2858  0.6828  0.1596
 1354TIP3    H125477   5.599   2.287  17.114  1.3247 -0.6629  1.4135
 1354TIP3    H225478   5.646   2.428  17.143 -0.7320  0.3092  0.2239
 1355TIP3   OH225479   0.376   4.707   0.286  0.3240 -0.2065 -0.5262
 1355TIP3    H125480   0.459   4.755   0.286 -0.4164  1.1338 -0.2368
 1355TIP3    H225481   0.394   4.628   0.236  1.7384  0.1303 -0.5927
 1356TIP3   OH225482   1.082   1.492   4.318 -0.1197 -0.3006  0.0737
 1356TIP3    H125483   1.141   1.515   4.247 -0.9640 -1.9572 -1.2605
 1356TIP3    H225484   1.008   1.553   4.309 -1.0182 -1.5343 -1.6248
 1357TIP3   OH225485   1.111   4.791  11.216  0.2475 -0.7695 -0.0757
 1357TIP3    H125486   1.089   4.866  11.161  2.2404  1.8093  2.3311
 1357TIP3    H225487   1.157   4.731  11.158  0.1784  0.7109 -1.7327
 1358TIP3   OH225488   4.396   0.701  12.796 -0.3074  0.1857  0.0922
 1358TIP3    H125489   4.483   0.697  12.837 -0.2440 -0.7150 -0.0917
 1358TIP3    H225490   4.343   0.641  12.848 -0.5940  0.0864 -0.3075
 1359TIP3   OH225491   6.050   3.040  11.692  0.4925  0.2772 -0.3419
 1359TIP3    H125492   6.072   3.020  11.601 -1.7628  0.5784 -1.0051
 1359TIP3    H225493   5.955   3.044  11.693  0.4853  0.5066  2.0076
 1360TIP3   OH225494   1.876   0.221   0.293 -0.0697 -0.0160 -0.3653
 1360TIP3    H125495   1.884   0.283   0.366 -0.4255  1.0556 -1.1989
 1360TIP3    H225496   1.850   0.276   0.218  2.2906 -0.7301 -1.8316
 1361TIP3   OH225497   1.052   1.064  11.959  0.4609  0.1685  0.4502
 1361TIP3    H125498   1.011   0.977  11.955 -0.6510  0.6031  1.5742
 1361TIP3    H225499   1.146   1.046  11.959  0.2471 -1.0472  0.7846
 1362TIP3   OH225500   2.311   1.069  14.712  0.0052 -0.5397 -0.2437
 1362TIP3    H125501   2.339   1.113  14.632 -0.8720  0.8525  0.1948
 1362TIP3    H225502   2.384   1.080  14.772  0.1062 -0.3691 -0.3967
 1363TIP3   OH225503   1.445   4.851  13.986  0.1860  0.0271  0.1137
 1363TIP3    H125504   1.436   4.946  13.996 -1.4570 -0.2940  2.8133
 1363TIP3    H225505   1.534   4.832  14.016  0.3016  0.6599  0.1786
 1364TIP3   OH225506   4.504   3.509   1.760 -0.1301  0.0695  0.0344
 1364TIP3    H125507   4.409   3.508   1.748 -0.4586  1.1905  2.1252
 1364TIP3    H225508   4.522   3.432   1.813  0.2120 -0.3308 -0.6388
 1365TIP3   OH225509   0.008   3.523   1.291 -0.5666  0.1526  0.2612
 1365TIP3    H125510   0.098   3.491   1.281 -0.6137  0.2317 -0.4874
 1365TIP3    H225511   0.011   3.612   1.254 -0.9109  0.2223  0.4020
 1366TIP3   OH225512   3.222   3.218  15.303 -0.1592 -0.1129  1.0753
 1366TIP3    H125513   3.296   3.238  15.245 -0.8791  1.9650  0.7969
 1366TIP3    H225514   3.264   3.186  15.383  0.9729 -0.2949  0.4427
 1367TIP3   OH225515   4.708   0.938   1.314 -0.2722  0.2489  0.2456
 1367TIP3    H125516   4.661   1.017   1.288  0.9662  0.3542 -1.9266
 1367TIP3    H225517   4.786   0.969   1.358  0.3007  0.2894 -0.7605
 1368TIP3   OH225518   1.313   2.394   4.013  0.0654  0.0549  0.1918
 1368TIP3    H125519   1.385   2.380   3.952  0.0906 -0.2202  0.2851
 1368TIP3    H225520   1.355   2.426   4.093  0.1129 -0.3884  0.3451
 1369TIP3   OH225521   0.049   0.495   0.003 -0.2356 -0.2846 -0.3805
 1369TIP3    H125522   0.101   0.472   0.079 -0.1471 -2.1352 -0.9671
 1369TIP3    H225523  -0.017   0.556   0.037 -0.2309 -1.1060  1.1966
 1370TIP3   OH225524   0.011   1.173   2.189 -0.2034  0.3057  0.9212
 1370TIP3    H125525  -0.046   1.096   2.196 -2.3224  1.5821 -0.8359
 1370TIP3    H225526   0.034   1.177   2.096  0.7569  1.2148  1.1800
 1371TIP3   OH225527   1.002   3.969   3.021 -0.2140  0.5952  0.2771
 1371TIP3    H125528   0.953   4.013   3.091 -0.9328 -1.7171  1.3117
 1371TIP3    H225529   1.003   4.033   2.950 -0.6442  2.5167  1.8897
 1372TIP3   OH225530   3.694   0.481  12.161 -0.0687 -1.1852  0.1586
 1372TIP3    H125531   3.661   0.548  12.221 -0.4116 -1.4516  0.2712
 1372TIP3    H225532   3.639   0.404  12.179  1.4433 -2.0508  1.2737
 1373TIP3   OH225533   0.865   6.071   4.682 -0.2883  0.6510  0.1258
 1373TIP3    H125534   0.843   6.154   4.724  1.6785  0.2231  2.1895
 1373TIP3    H225535   0.888   6.012   4.754  2.7645 -0.3014 -1.4118
 1374TIP3   OH225536   2.492   1.835  13.022 -0.7278 -0.1091 -0.3072
 1374TIP3    H125537   2.541   1.883  12.956 -0.2851  1.1975  0.9155
 1374TIP3    H225538   2.400   1.855  13.003 -0.5206  2.3979  0.9481
 1375TIP3   OH225539   0.561   3.891  14.608  0.3424  0.0332  0.0537
 1375TIP3    H125540   0.617   3.967  14.626 -1.8683  1.4324  1.5041
 1375TIP3    H225541   0.473   3.928  14.598 -0.7475 -2.3087  0.3391
 1376TIP3   OH225542   5.023   1.643  12.779  0.7586 -0.6750 -0.0568
 1376TIP3    H125543   5.050   1.607  12.695 -0.3170  2.2956 -1.8236
 1376TIP3    H225544   4.971   1.574  12.820  1.5947 -2.3179 -1.6590
 1377TIP3   OH225545   4.369   5.828   2.641 -0.1648 -0.1957  0.1615
 1377TIP3    H125546   4.407   5.748   2.677  1.3033  1.0051  1.4145
 1377TIP3    H225547   4.315   5.863   2.712 -0.8367 -0.0874 -0.3928
 1378TIP3   OH225548   1.905   1.013  14.640  0.2370  0.0148 -0.3622
 1378TIP3    H125549   1.933   1.090  14.591  1.3858 -1.6384 -2.4671
 1378TIP3    H225550   1.828   0.982  14.593  0.0554 -0.3880  0.1932
 1379TIP3   OH225551   6.326   4.233  15.936 -0.2805  0.2008 -0.2013
 1379TIP3    H125552   6.419   4.208  15.934  0.3759  2.3921 -1.6587
 1379TIP3    H225553   6.312   4.268  16.024  0.8885  1.6972 -0.5604
 1380TIP3   OH225554   0.323   0.715  11.826  0.1482  0.7103  0.0509
 1380TIP3    H125555   0.396   0.660  11.856  0.3423  0.4885 -0.7966
 1380TIP3    H225556   0.256   0.652  11.799 -0.2764  0.9130  0.6411
 1381TIP3   OH225557   0.230   2.715   2.359 -0.1333 -0.2842 -0.5462
 1381TIP3    H125558   0.325   2.708   2.373 -0.0152  3.1721  1.5572
 1381TIP3    H225559   0.192   2.682   2.440 -0.4464  1.7261  0.1910
 1382TIP3   OH225560   3.463   2.523   1.238 -0.5404  0.1101 -0.0583
 1382TIP3    H125561   3.423   2.562   1.316 -1.6216  3.0631 -1.9076
 1382TIP3    H225562   3.389   2.485   1.190  0.1626 -2.0045  0.4413
 1383TIP3   OH225563   6.073   1.539   2.947 -0.6997 -0.0331  0.2693
 1383TIP3    H125564   6.053   1.595   3.022 -3.2600  3.2804 -2.5376
 1383TIP3    H225565   5.996   1.483   2.938 -1.3911  1.0924 -1.0481
 1384TIP3   OH225566   3.532   4.589   1.347  0.2370  0.4444  0.1463
 1384TIP3    H125567   3.608   4.619   1.297 -0.4043 -1.1240 -1.9022
 1384TIP3    H225568   3.555   4.500   1.374 -0.8224 -0.0123 -0.4152
 1385TIP3   OH225569   5.767   0.166  11.303  0.1131 -0.1954 -0.8312
 1385TIP3    H125570   5.706   0.238  11.316  1.4416  0.7256  0.6348
 1385TIP3    H225571   5.737   0.098  11.363  0.0870 -0.0426 -0.6711
 1386TIP3   OH225572   2.287   2.033   5.496  0.1033 -0.7132  0.4613
 1386TIP3    H125573   2.193   2.032   5.512 -0.5464  0.9293 -2.6087
 1386TIP3    H225574   2.309   1.943   5.472 -1.4282 -0.5206 -1.9955
 1387TIP3   OH225575   0.371   6.015  12.597 -0.4370 -0.1259 -0.0254
 1387TIP3    H125576   0.351   6.092  12.650 -0.6461 -0.0435 -0.2250
 1387TIP3    H225577   0.390   6.049  12.510 -0.5383 -0.3007 -0.1168
 1388TIP3   OH225578   4.253   4.249  11.929  0.3316 -0.6256 -0.0044
 1388TIP3    H125579   4.323   4.295  11.976  0.9208 -0.1103 -1.3433
 1388TIP3    H225580   4.176   4.304  11.942  0.3392 -0.7912  0.8230
 1389TIP3   OH225581   6.460   5.401  14.086 -0.1450  0.0292  0.4502
 1389TIP3    H125582   6.523   5.464  14.053  0.0928 -0.7054 -0.5549
 1389TIP3    H225583   6.499   5.367  14.166  0.0570  0.6137  0.6037
 1390TIP3   OH225584   2.139   2.193   4.921 -0.2234 -0.0312  0.0407
 1390TIP3    H125585   2.171   2.103   4.907 -1.3372 -0.4235 -0.0812
 1390TIP3    H225586   2.146   2.234   4.835 -1.7966 -0.7047 -0.4298
 1391TIP3   OH225587   4.562   4.920   6.202  0.3123  0.6225 -0.0797
 1391TIP3    H125588   4.467   4.930   6.211  0.2523  0.7623 -0.8455
 1391TIP3    H225589   4.585   4.855   6.269 -0.5017 -0.3519 -0.7110
 1392TIP3   OH225590   2.402   0.328  11.805  0.8982  0.1066 -0.1971
 1392TIP3    H125591   2.403   0.322  11.709 -0.4695  1.0271 -0.3114
 1392TIP3    H225592   2.310   0.314  11.828  1.2326 -0.1757  0.9924
 1393TIP3   OH225593   1.355   2.785  11.780  0.1492  0.0303  0.0689
 1393TIP3    H125594   1.293   2.734  11.729  1.3153  0.0138 -1.3940
 1393TIP3    H225595   1.301   2.850  11.825 -0.9933 -0.3982 -0.6371
 1394TIP3   OH225596   3.189   0.692   2.910 -0.0504 -0.0078  0.5036
 1394TIP3    H125597   3.275   0.672   2.874 -0.7492  0.0336 -1.2985
 1394TIP3    H225598   3.197   0.781   2.945  0.7376 -0.1650  0.7326
 1395TIP3   OH225599   5.409   2.567  10.936 -0.6018  0.3978  0.2306
 1395TIP3    H125600   5.445   2.488  10.895 -2.0833 -0.3557  0.3003
 1395TIP3    H225601   5.482   2.629  10.937  0.5079 -0.8503 -0.1320
 1396TIP3   OH225602   4.279   2.554  11.918 -0.4033  0.0285  0.3228
 1396TIP3    H125603   4.334   2.566  11.841 -1.2958  0.1729 -0.3021
 1396TIP3    H225604   4.211   2.620  11.909 -0.0435  0.6335  1.6861
 1397TIP3   OH225605   5.915   1.814   4.592  0.1045  0.1463 -0.0439
 1397TIP3    H125606   5.903   1.908   4.581 -1.1028 -0.0355 -0.3874
 1397TIP3    H225607   5.848   1.789   4.656 -1.4530 -0.9130 -1.9866
 1398TIP3   OH225608   5.876   6.662  10.955 -0.2014 -0.6199 -0.2390
 1398TIP3    H125609   5.941   6.731  10.972  0.0985 -0.3781 -2.1062
 1398TIP3    H225610   5.881   6.605  11.031  3.2275 -1.3751 -0.8400
 1399TIP3   OH225611   6.390   0.127  14.628 -0.6193 -0.3893 -0.3117
 1399TIP3    H125612   6.447   0.163  14.560 -0.8520 -0.7508 -0.7064
 1399TIP3    H225613   6.422   0.038  14.641  3.0397  1.2198  4.0023
 1400TIP3   OH225614   2.755   2.167  16.466 -0.1382 -1.1482  0.1112
 1400TIP3    H125615   2.707   2.247  16.487  0.5267 -1.3222  2.5455
 1400TIP3    H225616   2.690   2.097  16.475 -0.4064 -1.0286 -0.7670
 1401TIP3   OH225617   1.849   3.074   5.368 -0.7541  0.6574  0.0800
 1401TIP3    H125618   1.894   3.034   5.443  0.7324 -1.0627 -1.6498
 1401TIP3    H225619   1.850   3.168   5.388  0.2080  0.3216  1.8863
 1402TIP3   OH225620   6.484   2.388  11.945  0.4038 -0.0332  0.6166
 1402TIP3    H125621   6.500   2.299  11.912  1.3158 -0.2172  1.4869
 1402TIP3    H225622   6.558   2.439  11.911  0.9938 -0.0815  1.7885
 1403TIP3   OH225623   4.685   5.113  15.056  0.0094 -0.4027  0.5717
 1403TIP3    H125624   4.643   5.154  14.980 -0.1730 -0.2883  0.7341
 1403TIP3    H225625   4.729   5.035  15.020 -1.7881 -1.5169  0.6586
 1404TIP3   OH225626   0.767   5.837   0.442 -0.1767 -0.1332 -0.0139
 1404TIP3    H125627   0.689   5.783   0.429  0.8478 -2.3925  2.3243
 1404TIP3    H225628   0.826   5.812   0.371  0.0344 -1.6940  0.6787
 1405TIP3   OH225629   3.561   4.059   4.145 -0.0260  0.7221 -0.4719
 1405TIP3    H125630   3.608   4.067   4.062  1.0538  1.7309  0.2044
 1405TIP3    H225631   3.601   4.125   4.202 -0.1756 -0.4839  1.1134
 1406TIP3   OH225632   1.715   1.056  12.872 -0.4497 -0.6135  0.4709
 1406TIP3    H125633   1.683   0.996  12.804 -1.1790  0.4556 -0.1600
 1406TIP3    H225634   1.689   1.016  12.954  1.9238 -2.8069  0.2632
 1407TIP3   OH225635   0.892   6.372   2.940 -0.7782  0.2236  0.3146
 1407TIP3    H125636   0.839   6.451   2.951  1.0305  1.4310  0.8369
 1407TIP3    H225637   0.846   6.322   2.872 -2.0719  1.6268  0.0906
 1408TIP3   OH225638   2.213   4.630  15.109  1.0898 -0.2246  0.3918
 1408TIP3    H125639   2.148   4.568  15.076 -0.5029  1.5401  0.1145
 1408TIP3    H225640   2.296   4.581  15.106 -0.0524 -2.2220 -0.0928
 1409TIP3   OH225641   5.698   0.407   4.360 -1.1124 -0.3080 -0.4959
 1409TIP3    H125642   5.719   0.319   4.391  0.8413 -0.0559 -0.9803
 1409TIP3    H225643   5.667   0.452   4.439  1.8300 -0.2721  0.7845
 1410TIP3   OH225644   6.017   1.777   5.423  0.0925  0.2620 -0.4768
 1410TIP3    H125645   6.082   1.820   5.366  1.6275  0.2779  1.2094
 1410TIP3    H225646   6.022   1.824   5.506 -1.6974 -0.1218 -0.1018
 1411TIP3   OH225647   5.877   4.130   1.799  0.3194  0.4675  0.2135
 1411TIP3    H125648   5.961   4.083   1.800  0.1883  0.1728 -0.8336
 1411TIP3    H225649   5.889   4.198   1.732  0.7401  2.4182  2.1738
 1412TIP3   OH225650   6.481   6.126  10.964 -0.4269 -0.7718 -0.0216
 1412TIP3    H125651   6.538   6.153  10.892 -0.8846  0.3470  0.0058
 1412TIP3    H225652   6.392   6.140  10.931 -0.6419  0.3336  0.9260
 1413TIP3   OH225653   1.428   2.474  16.782  0.0637 -0.8018 -0.2016
 1413TIP3    H125654   1.334   2.470  16.797  0.1417  0.7006  1.0666
 1413TIP3    H225655   1.465   2.419  16.851  0.1520 -0.1899  0.2472
 1414TIP3   OH225656   2.623   3.469  11.787  0.1111 -0.2509 -0.2491
 1414TIP3    H125657   2.551   3.483  11.725  1.0061 -0.5302 -1.3885
 1414TIP3    H225658   2.601   3.388  11.832 -0.6347  0.0437 -0.0713
 1415TIP3   OH225659   2.900   3.642   5.093 -0.6340  0.4680  0.1770
 1415TIP3    H125660   2.938   3.702   5.029 -1.3623 -1.4450 -2.1955
 1415TIP3    H225661   2.825   3.689   5.128  0.3567  1.9420  0.4295
 1416TIP3   OH225662   3.674   1.683   0.943 -0.4617  0.3990 -0.1509
 1416TIP3    H125663   3.714   1.770   0.932 -1.7013  1.0605  0.2953
 1416TIP3    H225664   3.671   1.669   1.038  1.3085 -0.9328 -0.2542
 1417TIP3   OH225665   2.921   4.622  12.744 -0.4371 -0.4495  0.1199
 1417TIP3    H125666   2.849   4.559  12.751 -1.2255  0.1530 -1.8994
 1417TIP3    H225667   2.884   4.705  12.773 -1.0846  0.1823 -2.3075
 1418TIP3   OH225668   3.940   1.789  16.391  0.0943 -0.3871 -0.5008
 1418TIP3    H125669   3.975   1.711  16.434 -0.9855 -1.9367 -2.2572
 1418TIP3    H225670   3.890   1.833  16.460 -2.5119 -3.3559 -0.2223
 1419TIP3   OH225671   2.466   1.597   5.776 -0.1946 -0.4202  0.6804
 1419TIP3    H125672   2.448   1.515   5.730 -0.2429 -0.2830  0.4545
 1419TIP3    H225673   2.507   1.570   5.858  1.2071 -0.6005 -0.0600
 1420TIP3   OH225674   0.713   3.988  11.336 -0.0319 -0.4651  0.5490
 1420TIP3    H125675   0.764   4.067  11.322  0.3800 -1.1281 -2.2637
 1420TIP3    H225676   0.623   4.019  11.347  0.0455  0.4293 -1.0394
 1421TIP3   OH225677   6.747   3.612   0.517  0.6423 -0.0604  0.3050
 1421TIP3    H125678   6.659   3.584   0.490  1.2947 -0.5666 -1.4331
 1421TIP3    H225679   6.760   3.569   0.601  0.3565 -2.5155 -0.7975
 1422TIP3   OH225680   1.034   1.400  16.150 -0.1723  0.0201 -0.2723
 1422TIP3    H125681   1.047   1.335  16.082 -0.0975  1.7961 -2.0448
 1422TIP3    H225682   1.042   1.351  16.232  0.1669 -2.1089 -1.5073
 1423TIP3   OH225683   3.901   1.180   1.532  0.1920  0.6810  0.4675
 1423TIP3    H125684   3.901   1.107   1.595 -2.6943  2.1446  2.3614
 1423TIP3    H225685   3.811   1.184   1.501  0.9089  1.8600 -1.6178
 1424TIP3   OH225686   5.395   4.659   3.866  0.3727 -0.4697 -0.3084
 1424TIP3    H125687   5.487   4.677   3.886  1.2600 -1.8145 -2.7222
 1424TIP3    H225688   5.392   4.654   3.770 -2.5118  0.8317 -0.3912
 1425TIP3   OH225689   5.477   2.934   0.541  0.1084  0.0312  0.3443
 1425TIP3    H125690   5.489   2.871   0.470  2.5285  1.0627 -0.2629
 1425TIP3    H225691   5.533   2.901   0.612  0.3507  0.7763  0.5043
 1426TIP3   OH225692   2.913   0.970  15.765 -0.0709 -0.5446  0.0124
 1426TIP3    H125693   2.864   1.042  15.727 -1.7760 -0.7462  1.7002
 1426TIP3    H225694   2.986   0.956  15.705 -0.6874  1.4092 -1.2651
 1427TIP3   OH225695   6.534   4.565  16.652 -0.4978  0.0601  0.1261
 1427TIP3    H125696   6.440   4.577  16.666 -0.5168  1.6127 -1.0266
 1427TIP3    H225697   6.570   4.654  16.654  0.6778 -0.3524 -1.1864
 1428TIP3   OH225698   2.071   0.533  13.022  0.6297 -0.2045 -0.3848
 1428TIP3    H125699   1.995   0.568  12.975  0.1435 -1.3590 -0.5138
 1428TIP3    H225700   2.139   0.526  12.955  0.8658  0.8505 -0.2647
 1429TIP3   OH225701   0.090   4.546  15.159  0.3044 -0.2164  0.2292
 1429TIP3    H125702   0.130   4.498  15.232  1.3943  1.2116  0.6210
 1429TIP3    H225703   0.153   4.537  15.088  2.1124  3.0581  1.2071
 1430TIP3   OH225704   5.621   5.660  16.199  0.2040  0.5268 -0.0067
 1430TIP3    H125705   5.706   5.701  16.213 -1.2034  3.6378  0.3625
 1430TIP3    H225706   5.577   5.666  16.284 -0.1014 -1.9037  0.0707
 1431TIP3   OH225707   4.200   2.783   6.751  0.3015 -0.0105 -0.6385
 1431TIP3    H125708   4.198   2.837   6.830 -0.1873  0.7362 -1.1476
 1431TIP3    H225709   4.162   2.839   6.683 -2.3196 -1.7150 -0.7388
 1432TIP3   OH225710   5.251   3.304  15.513 -0.2759  0.0208 -0.6074
 1432TIP3    H125711   5.167   3.259  15.520  0.0703 -0.4240  1.3753
 1432TIP3    H225712   5.313   3.235  15.489 -0.5455  0.4916 -2.8624
 1433TIP3   OH225713   4.256   2.617   0.102  0.3837  0.0854  0.2140
 1433TIP3    H125714   4.341   2.635   0.143 -0.9332  1.9649  2.3421
 1433TIP3    H225715   4.236   2.696   0.053 -0.0142 -0.4921 -0.5746
 1434TIP3   OH225716   4.633   4.101  15.923  0.2168 -0.4024 -0.2000
 1434TIP3    H125717   4.622   4.195  15.904  0.4926 -0.0826  1.1073
 1434TIP3    H225718   4.722   4.081  15.896  0.1073 -0.3413 -0.6276
 1435TIP3   OH225719   4.968   2.655  10.927  0.8550  0.3516  0.2112
 1435TIP3    H125720   4.907   2.582  10.932  1.0255  0.2017  0.1253
 1435TIP3    H225721   4.996   2.657  10.835  0.7183  0.6324  0.1768
 1436TIP3   OH225722   5.968   4.560  14.726 -0.0344 -0.5199 -0.4881
 1436TIP3    H125723   6.048   4.563  14.673  0.1676  0.1718 -0.1598
 1436TIP3    H225724   5.995   4.594  14.811 -0.6947 -0.2189 -0.3933
 1437TIP3   OH225725   1.508   5.762   4.719  0.3344 -0.4914  0.2124
 1437TIP3    H125726   1.588   5.809   4.695  0.7704 -2.3544 -2.3984
 1437TIP3    H225727   1.533   5.711   4.797  1.6320 -0.7906 -0.3583
 1438TIP3   OH225728   1.719   5.393  14.475  0.0654  0.3671  0.2820
 1438TIP3    H125729   1.626   5.409  14.460  0.1068  0.0896 -0.3199
 1438TIP3    H225730   1.728   5.298  14.467  0.5979  0.4971 -0.9100
 1439TIP3   OH225731   1.091   3.618  16.039 -0.0028  0.3699  0.3208
 1439TIP3    H125732   1.102   3.667  16.120  0.0891  2.0672 -0.6735
 1439TIP3    H225733   1.000   3.587  16.042  0.1829 -0.1313  1.3328
 1440TIP3   OH225734   1.772   4.939  13.992 -0.0425 -0.6677  0.1609
 1440TIP3    H125735   1.867   4.930  14.001  0.2062  0.6077 -0.8487
 1440TIP3    H225736   1.742   4.969  14.078  0.9760  2.2678 -0.4073
 1441TIP3   OH225737   6.743   4.224  15.693 -0.0088 -0.2888  0.4459
 1441TIP3    H125738   6.817   4.209  15.751  0.6282 -3.1252 -0.9292
 1441TIP3    H225739   6.782   4.235  15.606 -1.1259 -2.5177 -0.4213
 1442TIP3   OH225740   2.314   5.838  16.751 -0.1468 -0.0036 -0.4154
 1442TIP3    H125741   2.297   5.749  16.781  0.0073 -0.5453 -1.8461
 1442TIP3    H225742   2.315   5.831  16.655 -0.3504  1.5757 -0.5619
 1443TIP3   OH225743   2.049   1.142  10.796  0.1333 -0.3804 -0.0758
 1443TIP3    H125744   2.028   1.099  10.879  0.9489 -0.6127  0.0168
 1443TIP3    H225745   1.981   1.112  10.736  0.3661 -1.3548  0.1304
 1444TIP3   OH225746   0.767   0.891  13.720 -0.3669  0.4715  0.7639
 1444TIP3    H125747   0.814   0.812  13.748 -3.6413 -0.8877  3.1995
 1444TIP3    H225748   0.795   0.959  13.781 -0.7998 -0.0537  1.5597
 1445TIP3   OH225749   2.079   6.339  10.872  0.2430  0.1303 -0.5766
 1445TIP3    H125750   2.142   6.282  10.827  0.4931 -0.5885  0.6326
 1445TIP3    H225751   1.993   6.309  10.841  0.4524  0.5765 -1.6173
 1446TIP3   OH225752   1.671   3.821  17.333  0.4389  0.0216 -0.1962
 1446TIP3    H125753   1.678   3.750  17.270 -1.8742 -0.0385 -0.4465
 1446TIP3    H225754   1.703   3.898  17.286  2.3121 -0.6485 -0.1359
 1447TIP3   OH225755   1.940   0.231  11.900  0.1860  0.1797 -0.0344
 1447TIP3    H125756   1.880   0.176  11.849  0.6382  1.6536 -2.3303
 1447TIP3    H225757   2.021   0.230  11.850  1.4731 -0.1960  1.9760
 1448TIP3   OH225758   2.153   1.106  12.460  0.7136 -0.2751 -0.0906
 1448TIP3    H125759   2.163   1.171  12.530 -0.1168 -1.2891  1.0080
 1448TIP3    H225760   2.230   1.119  12.404  1.5946  0.3250  1.2123
 1449TIP3   OH225761   6.601   0.212  10.956 -1.0921 -0.0402  0.1359
 1449TIP3    H125762   6.624   0.280  11.019  0.0164 -1.4979  1.3763
 1449TIP3    H225763   6.622   0.250  10.871  1.2127  0.5725  0.9102
 1450TIP3   OH225764   0.434   6.478   5.384 -0.4850  0.5867 -0.4212
 1450TIP3    H125765   0.469   6.421   5.316 -0.0182 -0.9758  1.0793
 1450TIP3    H225766   0.503   6.542   5.401  0.4776 -0.6168  0.3739
 1451TIP3   OH225767   4.790   3.130  13.980  0.1515 -0.0051  0.4167
 1451TIP3    H125768   4.874   3.092  14.007  0.3336 -1.1385 -1.6037
 1451TIP3    H225769   4.725   3.079  14.027  0.5360 -0.1795  0.7687
 1452TIP3   OH225770   3.845   4.605  17.024  0.3480 -0.4198 -0.1118
 1452TIP3    H125771   3.836   4.681  17.081 -0.3698 -0.4651 -0.1529
 1452TIP3    H225772   3.788   4.539  17.063  0.2447 -0.6200 -0.5930
 1453TIP3   OH225773   3.095   4.885  17.066 -0.3169  0.0280  0.6449
 1453TIP3    H125774   3.083   4.794  17.036 -1.5364  0.3072  0.2196
 1453TIP3    H225775   3.030   4.895  17.136  0.5855  0.2414  1.4605
 1454TIP3   OH225776   5.799   2.969   1.093 -0.1181 -0.6051  0.5771
 1454TIP3    H125777   5.710   2.944   1.070 -0.3595  1.8225 -1.5918
 1454TIP3    H225778   5.799   3.065   1.088  2.7582 -0.5371 -0.1980
 1455TIP3   OH225779   2.455   6.098   0.482  0.1887  0.2295 -0.2876
 1455TIP3    H125780   2.522   6.155   0.446  0.5959  1.6342  2.4127
 1455TIP3    H225781   2.375   6.123   0.437  0.8198  1.1775 -0.9116
 1456TIP3   OH225782   4.217   5.438  13.307 -0.5572  0.4486  0.1758
 1456TIP3    H125783   4.195   5.530  13.296 -0.0622  0.4688 -0.8277
 1456TIP3    H225784   4.254   5.432  13.395 -2.2042  0.8597  0.9160
 1457TIP3   OH225785   5.292   2.855   2.925 -0.1306  0.4019 -0.0537
 1457TIP3    H125786   5.199   2.836   2.941 -0.8110  2.9568 -0.4702
 1457TIP3    H225787   5.313   2.923   2.988  0.5979  1.8965 -1.8099
 1458TIP3   OH225788   5.224   0.674  15.919 -0.2723  1.1297  0.4844
 1458TIP3    H125789   5.202   0.760  15.883 -0.9541  1.1762  0.9820
 1458TIP3    H225790   5.278   0.694  15.996 -0.9507  1.1508  0.9655
 1459TIP3   OH225791   2.524   4.442  16.878 -0.1124 -0.2299 -0.0519
 1459TIP3    H125792   2.555   4.486  16.957 -1.1439 -0.0406  0.2647
 1459TIP3    H225793   2.589   4.464  16.811  0.5495 -0.0420  0.6314
 1460TIP3   OH225794   4.462   3.341  12.727  0.0862 -0.7447  0.1308
 1460TIP3    H125795   4.554   3.322  12.741  0.0402 -0.8008  0.3585
 1460TIP3    H225796   4.447   3.324  12.634  1.2674  3.1177 -0.9624
 1461TIP3   OH225797   4.315   4.441  14.974 -0.0046 -0.0609  0.2651
 1461TIP3    H125798   4.357   4.473  14.894  2.3921  2.4929  2.3610
 1461TIP3    H225799   4.291   4.350  14.954  1.4385  0.1488 -2.9658
 1462TIP3   OH225800   6.101   2.373   5.095  0.2095 -0.3104 -0.1082
 1462TIP3    H125801   6.079   2.433   5.167  2.6753 -1.2650  1.5627
 1462TIP3    H225802   6.196   2.369   5.095  0.1990 -4.0752 -0.2105
 1463TIP3   OH225803   6.618   0.209  14.500 -0.2993  0.1506 -0.3474
 1463TIP3    H125804   6.653   0.162  14.576  0.4836  0.2593 -0.6312
 1463TIP3    H225805   6.662   0.169  14.425  0.5147  1.4454 -0.5827
 1464TIP3   OH225806   1.528   2.371  11.879  0.3246 -0.3485  0.1948
 1464TIP3    H125807   1.617   2.398  11.859  0.8605 -0.2371  2.4407
 1464TIP3    H225808   1.537   2.281  11.909 -0.3374 -0.3711  0.3306
 1465TIP3   OH225809   0.275   2.227  14.821 -0.1706  0.0003 -0.0769
 1465TIP3    H125810   0.273   2.314  14.862 -0.9251 -0.4563  0.8878
 1465TIP3    H225811   0.191   2.221  14.775  0.4035  0.2570 -1.1925
 1466TIP3   OH225812   5.894   0.179   3.147  0.4301 -0.1561 -0.0833
 1466TIP3    H125813   5.853   0.152   3.229 -0.4414 -1.5516 -0.9337
 1466TIP3    H225814   5.849   0.260   3.123 -1.9884 -1.6929 -1.0351
 1467TIP3   OH225815   4.995   3.418  11.117 -0.6342  0.1891  0.3055
 1467TIP3    H125816   4.958   3.330  11.127 -1.1862  0.4695  0.7070
 1467TIP3    H225817   5.008   3.427  11.022  0.1413 -0.6138  0.3186
 1468TIP3   OH225818   6.326   4.020  17.241 -0.1685 -0.0510  0.5794
 1468TIP3    H125819   6.322   3.975  17.326 -0.8814  1.1206  1.1894
 1468TIP3    H225820   6.335   4.112  17.264  2.9822  0.0686 -0.6367
 1469TIP3   OH225821   6.648   5.132   5.409  0.1499 -0.2524  0.1757
 1469TIP3    H125822   6.554   5.148   5.411  0.2003  0.4177 -1.1745
 1469TIP3    H225823   6.687   5.212   5.445  0.2429  0.6237 -1.7218
 1470TIP3   OH225824   4.155   0.208  16.429 -0.5669 -0.1046  0.2200
 1470TIP3    H125825   4.142   0.147  16.357  1.5522 -1.7174  1.0921
 1470TIP3    H225826   4.199   0.283  16.389  0.7731 -1.0711 -0.2042
 1471TIP3   OH225827   2.662   4.251  12.585  0.6415  0.8217 -0.0981
 1471TIP3    H125828   2.755   4.263  12.603  0.8877 -1.3872  0.3532
 1471TIP3    H225829   2.638   4.171  12.631 -1.0746  0.3893 -1.6023
 1472TIP3   OH225830   5.434   0.491  15.829 -0.4095 -0.0509  0.1939
 1472TIP3    H125831   5.390   0.423  15.881 -0.3807  0.3340  0.7317
 1472TIP3    H225832   5.525   0.488  15.859 -0.1940 -0.4288 -0.4754
 1473TIP3   OH225833   5.061   1.335   1.765 -0.1397  0.3699  0.1307
 1473TIP3    H125834   5.034   1.284   1.841  0.9550 -0.1523  0.1966
 1473TIP3    H225835   5.130   1.281   1.724  0.8242  1.6356  0.0257
 1474TIP3   OH225836   3.479   4.165   4.756 -0.2507 -0.1094 -0.0292
 1474TIP3    H125837   3.574   4.180   4.750 -0.3833  0.3812 -1.5134
 1474TIP3    H225838   3.458   4.179   4.848  0.9607  0.8138  0.1378
 1475TIP3   OH225839   3.738   0.466  11.500 -0.0083 -0.5041 -0.5924
 1475TIP3    H125840   3.761   0.546  11.452 -0.3000 -0.3788 -0.5237
 1475TIP3    H225841   3.822   0.423  11.515  0.2779  0.3494  0.3532
 1476TIP3   OH225842   1.387   3.148  14.327  0.6010  0.4033  0.0375
 1476TIP3    H125843   1.394   3.053  14.337  0.2349  0.4880  1.1518
 1476TIP3    H225844   1.348   3.160  14.241  0.1441 -0.4712  0.1152
 1477TIP3   OH225845   4.269   0.557   2.398 -0.0275  0.1026  0.0959
 1477TIP3    H125846   4.186   0.579   2.441 -0.0978 -0.6580  0.3519
 1477TIP3    H225847   4.247   0.553   2.305 -0.2900 -0.1675  0.1690
 1478TIP3   OH225848   4.117   2.471  13.398  0.2509  0.7162  0.3820
 1478TIP3    H125849   4.128   2.418  13.319 -1.3937 -0.6267  0.9804
 1478TIP3    H225850   4.186   2.440  13.457  0.8546  1.0202 -0.1524
 1479TIP3   OH225851   3.661   5.428   4.962  0.2740  0.1951  0.4880
 1479TIP3    H125852   3.754   5.448   4.971 -0.1006  2.2342  0.3144
 1479TIP3    H225853   3.630   5.417   5.051  0.7175 -0.7262  0.5352
 1480TIP3   OH225854   1.792   5.368   5.346  0.4294  0.4037  0.3096
 1480TIP3    H125855   1.738   5.289   5.338  0.8736  0.2072 -0.9550
 1480TIP3    H225856   1.796   5.385   5.440  1.7915 -2.1099  0.7885
 1481TIP3   OH225857   5.785   6.065   4.009  0.0041 -0.1264  0.1120
 1481TIP3    H125858   5.699   6.080   3.970  0.9174  1.3465 -1.4886
 1481TIP3    H225859   5.788   6.123   4.085 -0.8460 -1.1121  0.9255
 1482TIP3   OH225860   4.564   1.995   4.806 -0.2628 -0.0214  0.0254
 1482TIP3    H125861   4.580   2.040   4.889  0.6339  0.1846 -0.2589
 1482TIP3    H225862   4.469   1.981   4.806 -0.1849 -0.8086  1.4887
 1483TIP3   OH225863   1.160   2.747  12.599 -0.2495 -0.9399 -0.4398
 1483TIP3    H125864   1.141   2.809  12.528  2.6581  0.1206 -0.3827
 1483TIP3    H225865   1.186   2.667  12.553 -0.1698 -0.8515 -0.5505
 1484TIP3   OH225866   2.426   0.114  14.501 -0.5809  0.2189  0.5469
 1484TIP3    H125867   2.499   0.112  14.438 -1.9961 -1.0563 -1.1455
 1484TIP3    H225868   2.355   0.068  14.457 -2.6202  1.8777  1.9418
 1485TIP3   OH225869   0.563   0.092   0.165  0.1143  0.0546  0.0184
 1485TIP3    H125870   0.595   0.124   0.081  1.0417 -0.2295  0.2412
 1485TIP3    H225871   0.476   0.130   0.175  0.2105  0.5113 -0.8259
 1486TIP3   OH225872   3.420   5.657   1.783  0.6287 -0.2856 -0.3123
 1486TIP3    H125873   3.334   5.617   1.769  0.3857  0.4094 -0.8469
 1486TIP3    H225874   3.471   5.632   1.706  0.7933 -0.4111 -0.1615
 1487TIP3   OH225875   2.071   2.507   1.063 -0.4906  0.7729  0.4592
 1487TIP3    H125876   2.102   2.417   1.072 -0.0912  0.4592 -2.8446
 1487TIP3    H225877   2.150   2.560   1.063 -0.5233  0.8314  0.0625
 1488TIP3   OH225878   3.220   4.307  13.048  0.3330 -0.1264  0.7214
 1488TIP3    H125879   3.232   4.229  12.994 -1.5721  0.3355 -0.4616
 1488TIP3    H225880   3.233   4.380  12.987  0.5296  0.4565  1.4543
 1489TIP3   OH225881   2.817   6.408   4.586  0.2865  0.0050  0.6595
 1489TIP3    H125882   2.816   6.337   4.522  0.5170  2.2923 -2.0601
 1489TIP3    H225883   2.890   6.387   4.644  0.5041 -1.8288 -0.2116
 1490TIP3   OH225884   5.104   6.682   1.290 -0.0461 -0.2321  0.0888
 1490TIP3    H125885   5.088   6.742   1.363 -0.0645 -0.8244  0.5764
 1490TIP3    H225886   5.190   6.643   1.308 -0.6150 -1.3485  0.4914
 1491TIP3   OH225887   2.902   6.079   3.238 -0.1552 -0.0686  0.3033
 1491TIP3    H125888   2.953   6.160   3.233 -1.8266  0.9740 -0.9569
 1491TIP3    H225889   2.935   6.026   3.166 -0.0204  0.1012  0.2392
 1492TIP3   OH225890   2.944   0.010   1.383  0.1769  0.3943 -0.3086
 1492TIP3    H125891   2.932  -0.012   1.476  0.3798  1.8184  0.0927
 1492TIP3    H225892   2.997  -0.060   1.348  1.6874  0.7430  1.1245
 1493TIP3   OH225893   5.335   6.524   1.866  0.3853 -0.7855  0.4859
 1493TIP3    H125894   5.376   6.594   1.816 -2.0359 -0.2947 -0.9964
 1493TIP3    H225895   5.317   6.562   1.952  0.3564 -0.0395  0.1552
 1494TIP3   OH225896   2.686   6.509  15.706  0.0104 -0.4019 -0.4996
 1494TIP3    H125897   2.687   6.580  15.771  0.4500  0.1379 -1.0823
 1494TIP3    H225898   2.605   6.522  15.657  0.7411  0.5565 -1.5083
 1495TIP3   OH225899   4.845   5.521  13.583 -0.2043  0.4612 -0.3015
 1495TIP3    H125900   4.931   5.528  13.625  0.9642  0.1364 -2.4951
 1495TIP3    H225901   4.782   5.532  13.654  1.6313  2.2436  1.1513
 1496TIP3   OH225902   6.606   0.458  12.927 -0.3036 -0.3644 -0.1695
 1496TIP3    H125903   6.601   0.553  12.933  1.9383 -0.2533  1.0611
 1496TIP3    H225904   6.660   0.432  13.001  1.3838 -2.3468 -1.9696
 1497TIP3   OH225905   1.369   0.035   0.185 -0.1848 -0.4806 -0.3657
 1497TIP3    H125906   1.429   0.023   0.258 -0.4295  1.5111  0.2122
 1497TIP3    H225907   1.388  -0.038   0.126  1.2627 -1.1096  0.8198
 1498TIP3   OH225908   2.842   6.290   2.349  0.2874  0.1029 -0.0126
 1498TIP3    H125909   2.833   6.366   2.292  0.4289  0.8845  0.9714
 1498TIP3    H225910   2.819   6.215   2.294  0.6416  0.8043 -1.1424
 1499TIP3   OH225911   6.240   0.313  15.215 -0.3720  0.0266  0.1303
 1499TIP3    H125912   6.306   0.372  15.252 -0.9031  0.5085  0.3300
 1499TIP3    H225913   6.167   0.318  15.277 -0.0021 -1.7140  0.7628
 1500TIP3   OH225914   0.271   2.588   0.141 -0.0117 -0.1306 -0.2090
 1500TIP3    H125915   0.352   2.594   0.091  0.8575 -1.6093  0.9515
 1500TIP3    H225916   0.212   2.537   0.086  0.3642 -0.3428 -0.4127
 1501TIP3   OH225917   0.062   1.241   2.585 -0.1662  0.4114  0.3105
 1501TIP3    H125918   0.086   1.287   2.505 -0.8601  0.1172 -0.0694
 1501TIP3    H225919  -0.007   1.180   2.559  0.8663 -1.0059  0.7621
 1502TIP3   OH225920   5.186   6.118  16.259  0.5940  0.0794  0.1327
 1502TIP3    H125921   5.143   6.046  16.305 -1.5001  0.3739 -1.2481
 1502TIP3    H225922   5.184   6.191  16.321 -0.0734 -0.1823  0.4274
 1503TIP3   OH225923   3.186   0.021  11.602 -0.0999  0.2653 -0.4012
 1503TIP3    H125924   3.204   0.026  11.508  1.4743 -0.7329 -0.1839
 1503TIP3    H225925   3.113  -0.041  11.609  0.6416 -0.7005 -0.9026
 1504TIP3   OH225926   0.120   1.202   4.268 -0.0836  0.1728  0.6397
 1504TIP3    H125927   0.133   1.296   4.280  3.6884  0.1528 -1.7005
 1504TIP3    H225928   0.109   1.191   4.174  1.1957 -1.7790  0.6504
 1505TIP3   OH225929   4.901   6.681  14.818 -0.2657  0.1827 -0.3179
 1505TIP3    H125930   4.831   6.736  14.782 -0.0001  0.0209 -1.1112
 1505TIP3    H225931   4.928   6.626  14.744 -0.7121 -1.2143  0.5386
 1506TIP3   OH225932   4.625   1.172  14.947  0.5468  0.4961 -0.4248
 1506TIP3    H125933   4.709   1.214  14.962  0.3257  1.6796 -2.2296
 1506TIP3    H225934   4.616   1.110  15.020  3.2062 -0.0729 -0.4719
 1507TIP3   OH225935   1.352   0.089   0.865  0.6151  0.0072 -0.1507
 1507TIP3    H125936   1.372   0.029   0.792  0.5956  1.1212 -1.1060
 1507TIP3    H225937   1.263   0.120   0.846  0.2674 -0.3507  0.8399
 1508TIP3   OH225938   2.831   2.352  12.857  0.0654  0.6563  0.2680
 1508TIP3    H125939   2.757   2.362  12.797  0.1872  0.0032 -0.0019
 1508TIP3    H225940   2.861   2.441  12.873 -0.2978  0.8737 -0.2282
 1509TIP3   OH225941   5.569   1.722   2.560  0.0142 -0.4651 -0.4153
 1509TIP3    H125942   5.486   1.756   2.527  0.1889  0.5900  0.2119
 1509TIP3    H225943   5.623   1.799   2.575  0.3002 -0.9754  1.3669
 1510TIP3   OH225944   1.781   5.741   6.495  0.0016  0.6079  0.0812
 1510TIP3    H125945   1.837   5.814   6.519 -0.1979  0.5101  0.8613
 1510TIP3    H225946   1.836   5.684   6.441  0.0354  1.5306 -0.8814
 1511TIP3   OH225947   5.497   0.050   0.073 -0.3358 -0.1377  0.2089
 1511TIP3    H125948   5.422   0.093   0.032 -1.4090 -0.2792  1.9020
 1511TIP3    H225949   5.547   0.122   0.113 -0.2403 -0.1627  0.1365
 1512TIP3   OH225950   1.934   4.043   5.366  0.0980 -0.5141 -0.6155
 1512TIP3    H125951   2.027   4.034   5.344  1.2423  1.7377  2.5002
 1512TIP3    H225952   1.925   4.002   5.452 -0.8554  2.2423  0.7490
 1513TIP3   OH225953   1.242   6.369  16.681  0.7185  0.2604 -0.2309
 1513TIP3    H125954   1.156   6.412  16.682  1.1207  1.0764 -0.0273
 1513TIP3    H225955   1.235   6.301  16.749  0.7772  1.4258  0.9848
 1514TIP3   OH225956   3.816   0.994   3.336  0.0130 -0.2175 -0.2302
 1514TIP3    H125957   3.793   1.082   3.304 -0.3779  0.2752  1.3075
 1514TIP3    H225958   3.885   0.964   3.276  0.2797  1.2142 -0.6864
 1515TIP3   OH225959   0.944   5.181   0.836  0.0631  0.4803 -0.3778
 1515TIP3    H125960   0.919   5.175   0.928  0.6902 -0.3921 -0.2470
 1515TIP3    H225961   1.033   5.216   0.837 -0.0684  0.8347 -0.6792
 1516TIP3   OH225962   2.177   3.954   0.503  0.2566  0.2893  0.0328
 1516TIP3    H125963   2.215   4.019   0.562 -0.6935 -1.3151  2.5738
 1516TIP3    H225964   2.225   3.873   0.522 -0.2981 -0.3696 -1.1969
 1517TIP3   OH225965   1.658   1.581  11.965 -0.2070  0.6260 -0.5577
 1517TIP3    H125966   1.589   1.543  12.019  0.7652  0.8266  0.9155
 1517TIP3    H225967   1.614   1.641  11.906 -1.3619  0.1225 -0.2225
 1518TIP3   OH225968   0.767   6.611  13.509  0.2160 -0.2895  0.4204
 1518TIP3    H125969   0.837   6.622  13.574  0.3876  0.4107  0.1340
 1518TIP3    H225970   0.760   6.517  13.496  3.4208 -0.3654 -1.9950
 1519TIP3   OH225971   1.055   0.330   4.796 -0.0145 -0.3448  0.0751
 1519TIP3    H125972   1.007   0.249   4.781  0.1339 -0.1247 -1.8210
 1519TIP3    H225973   0.988   0.397   4.808 -0.1580 -0.3909 -0.4727
 1520TIP3   OH225974   0.269   0.620  14.233  0.0480  0.5049 -0.3996
 1520TIP3    H125975   0.214   0.654  14.304 -2.2773  0.9746 -2.2896
 1520TIP3    H225976   0.238   0.531  14.219  2.2070 -0.4938  0.7343
 1521TIP3   OH225977   2.341   4.131   3.590  0.5602  0.0920  0.1878
 1521TIP3    H125978   2.406   4.061   3.580 -0.9325 -1.4246  0.6690
 1521TIP3    H225979   2.329   4.140   3.685 -1.3015 -1.0208  0.1019
 1522TIP3   OH225980   2.437   5.347   0.379 -0.0219 -0.4342  0.4198
 1522TIP3    H125981   2.353   5.301   0.373 -0.2119 -0.0692  0.1899
 1522TIP3    H225982   2.499   5.282   0.412  0.0535 -1.2926 -1.3143
 1523TIP3   OH225983   3.576   6.056   6.902 -0.4003  0.3665 -0.1194
 1523TIP3    H125984   3.512   6.086   6.966 -0.5454  0.1116 -0.1433
 1523TIP3    H225985   3.572   6.121   6.832 -0.4438  0.4928  0.0011
 1524TIP3   OH225986   0.235   6.696  13.068  0.0757 -0.0856  0.4295
 1524TIP3    H125987   0.198   6.766  13.122  1.1181  1.8467 -1.2515
 1524TIP3    H225988   0.320   6.679  13.107  0.7765  1.2218 -0.4631
 1525TIP3   OH225989   6.679   1.618   2.941 -0.1006  0.1330  0.0874
 1525TIP3    H125990   6.598   1.662   2.969  0.0429 -0.1889  1.0550
 1525TIP3    H225991   6.727   1.685   2.893 -1.8131 -0.2077 -2.2859
 1526TIP3   OH225992   5.006   2.409   5.957 -0.4620 -0.4976 -0.0740
 1526TIP3    H125993   4.928   2.399   5.902  0.4995  0.0400 -1.6049
 1526TIP3    H225994   5.048   2.323   5.954  0.3634 -0.0664 -1.4414
 1527TIP3   OH225995   3.290   4.914  12.394 -0.6712  0.5533 -0.2689
 1527TIP3    H125996   3.333   4.865  12.323 -0.6278  1.6429 -1.0278
 1527TIP3    H225997   3.197   4.896  12.383 -0.5415 -0.6289  0.4583
 1528TIP3   OH225998   2.814   5.906  16.724  0.0604 -0.0842  0.7423
 1528TIP3    H125999   2.897   5.858  16.716 -1.0702 -1.9419 -1.0818
 1528TIP3    H226000   2.814   5.941  16.812  3.1899  0.7701  0.4962
 1529TIP3   OH226001   1.009   6.146  15.528 -0.6220  0.2051  0.1128
 1529TIP3    H126002   0.968   6.232  15.519 -1.4865 -0.2443 -0.4014
 1529TIP3    H226003   1.073   6.158  15.598 -1.3967  1.0323  0.7217
 1530TIP3   OH226004   2.062   1.378  12.244 -0.6744  1.0645 -0.6885
 1530TIP3    H126005   2.093   1.296  12.204 -3.4500 -2.4446  3.4304
 1530TIP3    H226006   2.001   1.414  12.180 -0.2820 -0.7632 -2.1993
 1531TIP3   OH226007   0.321   0.976  16.645 -0.2621 -0.6107  0.3118
 1531TIP3    H126008   0.247   1.011  16.595  1.1671  0.5310 -1.1156
 1531TIP3    H226009   0.291   0.977  16.736 -1.4368  1.4705 -0.0306
 1532TIP3   OH226010   1.109   0.296  15.076 -0.0882 -0.6059  0.2175
 1532TIP3    H126011   1.156   0.376  15.098  0.2966 -0.8917  0.4592
 1532TIP3    H226012   1.170   0.226  15.099 -1.1403 -1.0501  1.7972
 1533TIP3   OH226013   6.487   5.570  14.875 -0.0604  0.3197  0.1236
 1533TIP3    H126014   6.400   5.598  14.847 -2.2199 -3.9683  1.5824
 1533TIP3    H226015   6.513   5.635  14.941 -1.8476  2.0267 -0.7469
 1534TIP3   OH226016   0.923   4.693   1.281 -0.1772 -0.1478  0.3330
 1534TIP3    H126017   0.935   4.753   1.209  0.6183 -0.1596  0.4511
 1534TIP3    H226018   0.974   4.615   1.257 -0.2678 -0.3268  0.7046
 1535TIP3   OH226019   0.504   6.064   0.229  0.3243 -0.4577  0.2269
 1535TIP3    H126020   0.460   6.129   0.175 -0.5626 -0.9349  0.3699
 1535TIP3    H226021   0.563   6.115   0.284 -1.4587  0.4040  1.4252
 1536TIP3   OH226022   6.695   5.387   4.437 -0.0404 -0.0531  0.5070
 1536TIP3    H126023   6.665   5.384   4.528  1.7620 -2.2513  1.1270
 1536TIP3    H226024   6.762   5.456   4.437  2.6427 -2.4322  1.9045
 1537TIP3   OH226025   4.733   6.312   1.523 -0.4758 -0.4244  0.3743
 1537TIP3    H126026   4.645   6.343   1.546 -0.1891  1.1181 -0.4466
 1537TIP3    H226027   4.789   6.389   1.535  0.3531 -0.7025 -1.4011
 1538TIP3   OH226028   1.402   0.361  15.956 -0.1626  1.0651  0.5942
 1538TIP3    H126029   1.406   0.293  15.889  0.9975 -0.6707  2.3033
 1538TIP3    H226030   1.412   0.443  15.907  2.3952 -0.1840 -1.2421
 1539TIP3   OH226031   6.221   3.735   3.053  0.7598 -0.1581 -0.0931
 1539TIP3    H126032   6.191   3.647   3.029  1.2203 -0.6922  1.1762
 1539TIP3    H226033   6.317   3.729   3.050  0.7925  0.5021 -0.6436
 1540TIP3   OH226034   1.862   1.828  12.050  0.6401 -0.2654  0.4722
 1540TIP3    H126035   1.951   1.816  12.016  0.5010 -2.5916  0.7585
 1540TIP3    H226036   1.806   1.795  11.980  0.0908 -0.2610  0.9082
 1541TIP3   OH226037   4.765   6.244   6.697 -0.4927 -0.3130  0.5713
 1541TIP3    H126038   4.735   6.215   6.783  0.3074 -1.6211  0.4392
 1541TIP3    H226039   4.762   6.165   6.643  1.8285 -0.2093  0.2008
 1542TIP3   OH226040   5.194   0.924  15.676  0.0579  0.4831 -0.0793
 1542TIP3    H126041   5.240   0.994  15.629  1.5213 -0.6027 -0.3551
 1542TIP3    H226042   5.190   0.955  15.766  2.2088  0.2578  0.1476
 1543TIP3   OH226043   4.796   1.816   2.939 -0.0028 -0.8443  0.5904
 1543TIP3    H126044   4.759   1.780   2.858  1.3553 -2.0502  0.4664
 1543TIP3    H226045   4.871   1.868   2.911 -0.5824  0.2283  0.9650
 1544TIP3   OH226046   5.020   1.285  12.312  0.6192  0.9206 -0.8053
 1544TIP3    H126047   5.003   1.226  12.239  1.9003  0.8153 -1.0434
 1544TIP3    H226048   4.993   1.236  12.390  0.0350  0.7068 -1.1382
 1545TIP3   OH226049   5.190   2.935  10.990 -0.0305  0.6513  0.2746
 1545TIP3    H126050   5.228   2.853  11.021  1.2730  0.4665 -1.6627
 1545TIP3    H226051   5.210   2.998  11.059  2.0401  0.0919  0.2531
 1546TIP3   OH226052   1.098   6.589  11.581 -0.0579  0.1471 -0.0247
 1546TIP3    H126053   1.134   6.648  11.646 -0.7201  0.5025  0.0295
 1546TIP3    H226054   1.067   6.513  11.631  2.6029 -1.2376 -0.2652
 1547TIP3   OH226055   4.200   0.720   4.079  0.1042 -0.1424 -0.0103
 1547TIP3    H126056   4.137   0.787   4.052  0.7363  0.8786  0.9062
 1547TIP3    H226057   4.227   0.678   3.997 -1.0481  0.0356 -0.5034
 1548TIP3   OH226058   4.981   5.212   3.772  0.8306 -0.0156  0.0249
 1548TIP3    H126059   4.913   5.258   3.820 -1.3068 -1.7367 -1.1627
 1548TIP3    H226060   4.963   5.231   3.680  1.1305 -1.5178 -0.3800
 1549TIP3   OH226061   0.926   5.003  11.537  0.2008 -0.2189 -0.2573
 1549TIP3    H126062   1.006   4.951  11.542 -0.5169 -1.3012  0.2342
 1549TIP3    H226063   0.900   5.018  11.628 -2.1162 -3.0505 -0.2918
 1550TIP3   OH226064   4.723   4.514   0.617 -0.7798 -0.2514 -0.3475
 1550TIP3    H126065   4.669   4.545   0.689  0.5411 -1.0822  1.0735
 1550TIP3    H226066   4.782   4.587   0.598  0.2006 -0.7072  0.8173
 1551TIP3   OH226067   0.063   4.194  15.176 -0.3545  0.1458  0.5365
 1551TIP3    H126068   0.013   4.234  15.105 -0.1481 -0.3444  0.1067
 1551TIP3    H226069   0.095   4.111  15.139 -0.2138 -0.0963  1.1896
 1552TIP3   OH226070   4.635   5.740   2.030 -0.4388  0.6398 -0.1192
 1552TIP3    H126071   4.560   5.783   1.990 -1.1159 -0.9642 -0.6532
 1552TIP3    H226072   4.709   5.765   1.975 -1.0493  0.0133 -1.2435
 1553TIP3   OH226073   1.778   3.565  15.418 -0.0342  0.1006  0.2295
 1553TIP3    H126074   1.728   3.488  15.445  1.1291 -0.1120  1.8903
 1553TIP3    H226075   1.713   3.622  15.376 -1.3407 -0.8354  0.9134
 1554TIP3   OH226076   4.358   4.101   5.881 -0.4801  0.2867  0.0580
 1554TIP3    H126077   4.288   4.084   5.819 -1.3606 -1.3689  1.4125
 1554TIP3    H226078   4.438   4.076   5.834 -0.9780  0.4190 -0.8829
 1555TIP3   OH226079   5.471   5.364  12.946 -0.1084  0.2111 -0.0671
 1555TIP3    H126080   5.533   5.303  12.906 -1.4875 -0.4007 -1.3914
 1555TIP3    H226081   5.457   5.329  13.034  1.9661  0.8109  0.5573
 1556TIP3   OH226082   4.339   5.989   0.032 -0.2521  0.0439 -0.5647
 1556TIP3    H126083   4.315   6.029   0.115 -0.4442 -1.0430 -0.0802
 1556TIP3    H226084   4.404   6.049  -0.005 -1.9104  1.7861 -0.7929
 1557TIP3   OH226085   3.378   1.346  12.975 -0.0972  0.3117  0.8961
 1557TIP3    H126086   3.469   1.366  12.956  0.8226 -2.1219  2.2777
 1557TIP3    H226087   3.335   1.431  12.980  1.4729  1.4574 -2.3896
 1558TIP3   OH226088   3.774   4.722  11.313  0.7188 -0.3767 -0.5563
 1558TIP3    H126089   3.739   4.684  11.232  1.5513 -1.0637 -0.6114
 1558TIP3    H226090   3.761   4.816  11.302  0.7523 -0.4642 -1.4655
 1559TIP3   OH226091   5.592   4.067  10.874  0.8545 -0.1661 -0.5996
 1559TIP3    H126092   5.556   3.990  10.918 -0.9999  0.6111 -0.6520
 1559TIP3    H226093   5.524   4.134  10.884  2.0882  1.2368 -1.2199
 1560TIP3   OH226094   5.377   0.793  16.111  0.2716  0.5714  0.2025
 1560TIP3    H126095   5.391   0.831  16.197 -0.0976 -0.4741  0.7450
 1560TIP3    H226096   5.462   0.755  16.087  0.0471 -0.2805  0.7028
 1561TIP3   OH226097   0.504   2.154   3.973  0.3697  0.1986 -0.0951
 1561TIP3    H126098   0.437   2.136   3.907 -0.3722  0.7409  0.5068
 1561TIP3    H226099   0.518   2.248   3.968  1.6300  0.0047 -0.7146
 1562TIP3   OH226100   2.632   5.952   3.222 -0.2760  0.6074  0.3303
 1562TIP3    H126101   2.601   6.038   3.250  0.5557 -0.0282  3.5745
 1562TIP3    H226102   2.727   5.959   3.225 -0.2018 -0.3697  0.3795
 1563TIP3   OH226103   1.606   2.665  14.013 -0.2260 -0.4174  0.1660
 1563TIP3    H126104   1.553   2.745  14.006 -1.1311 -1.0583 -0.7541
 1563TIP3    H226105   1.542   2.596  14.030  0.6280 -0.8635  1.7485
 1564TIP3   OH226106   4.824   3.329  15.278 -0.6211 -0.5299  0.1251
 1564TIP3    H126107   4.851   3.420  15.294  2.3299 -1.0362 -1.4232
 1564TIP3    H226108   4.757   3.336  15.209  0.6354  0.4355 -1.0478
 1565TIP3   OH226109   1.532   0.702   4.757  0.1069  0.0379  0.1060
 1565TIP3    H126110   1.500   0.695   4.847 -0.8602 -1.1464 -0.3075
 1565TIP3    H226111   1.628   0.697   4.766  0.1094  1.2585  1.1500
 1566TIP3   OH226112   5.843   5.447  12.770 -0.0967 -0.1049  0.3066
 1566TIP3    H126113   5.890   5.405  12.842 -1.9869 -2.7053  0.1725
 1566TIP3    H226114   5.866   5.395  12.693 -1.2502  0.0425 -0.1652
 1567TIP3   OH226115   5.680   0.963   4.519  0.3449 -0.2188 -0.4601
 1567TIP3    H126116   5.715   1.005   4.597 -0.5109  2.2101 -1.2665
 1567TIP3    H226117   5.739   0.990   4.448  0.1632 -0.9643 -0.9068
 1568TIP3   OH226118   2.404   1.029  13.922 -0.3521  0.3554 -0.6390
 1568TIP3    H126119   2.365   1.091  13.861 -0.5656 -1.2264 -2.2010
 1568TIP3    H226120   2.481   0.994  13.875  0.3409  0.1717  0.5946
 1569TIP3   OH226121   6.191   0.461   3.318 -0.1937  0.2853  0.1499
 1569TIP3    H126122   6.141   0.538   3.344 -1.2087 -0.9003  1.9187
 1569TIP3    H226123   6.278   0.495   3.296 -0.4460  1.8633  1.4154
 1570TIP3   OH226124   3.891   5.472  12.377  0.1400 -0.5707  0.5052
 1570TIP3    H126125   3.978   5.443  12.351  1.3593  1.4335  2.0919
 1570TIP3    H226126   3.881   5.438  12.466  0.3716  1.2540  1.2613
 1571TIP3   OH226127   0.136   2.399  16.488  0.4692  0.6296  0.0120
 1571TIP3    H126128   0.181   2.481  16.510  0.6052  0.4523  0.3959
 1571TIP3    H226129   0.099   2.369  16.571  1.3231 -0.2552  0.0866
 1572TIP3   OH226130   5.792   5.933  11.220 -0.3339  0.4562  0.0038
 1572TIP3    H126131   5.800   5.838  11.219  0.6458  0.4605  2.3563
 1572TIP3    H226132   5.838   5.962  11.141 -2.1748 -1.0414 -1.7245
 1573TIP3   OH226133   4.552   4.081  11.629  0.1790 -0.3457 -0.5020
 1573TIP3    H126134   4.477   4.137  11.648 -0.9040 -0.7287 -3.0844
 1573TIP3    H226135   4.565   4.030  11.709 -0.2259  1.9763  1.1176
 1574TIP3   OH226136   4.923   6.261   2.072 -0.2615  0.3451  0.1779
 1574TIP3    H126137   4.990   6.228   2.012  1.3375  2.5871  0.6042
 1574TIP3    H226138   4.840   6.240   2.030  0.7126 -1.4678 -0.9498
 1575TIP3   OH226139   1.641   1.338  12.948  0.0897 -0.0345  0.1252
 1575TIP3    H126140   1.666   1.249  12.924  0.9153  0.1329  0.3300
 1575TIP3    H226141   1.561   1.328  12.999  1.3561 -0.8810  2.0881
 1576TIP3   OH226142   2.052   0.500   6.721 -0.2676 -0.2581  0.5012
 1576TIP3    H126143   2.135   0.547   6.725 -0.5337  0.1708  1.0196
 1576TIP3    H226144   1.990   0.564   6.687 -0.0663 -1.0494 -1.5422
 1577TIP3   OH226145   2.002   0.406   2.386 -0.2263  0.6485  0.4505
 1577TIP3    H126146   1.934   0.343   2.408  0.6048 -0.0643  1.0468
 1577TIP3    H226147   2.055   0.362   2.319 -0.5601  1.3452 -0.2904
 1578TIP3   OH226148   2.100   5.100  15.389  0.3897  0.8661 -0.0022
 1578TIP3    H126149   2.132   5.134  15.473  1.1192 -0.5702  0.3291
 1578TIP3    H226150   2.170   5.122  15.327  1.7574 -1.5359  0.5637
 1579TIP3   OH226151   5.766   5.476   3.809 -0.2501 -0.0240 -0.0009
 1579TIP3    H126152   5.774   5.403   3.746 -0.6006  0.0572 -0.1363
 1579TIP3    H226153   5.849   5.523   3.800 -0.0945 -0.2993 -0.0444
 1580TIP3   OH226154   3.331   6.114   5.827  0.3953 -0.1909 -0.3182
 1580TIP3    H126155   3.404   6.128   5.887  0.0624  1.5933 -0.2939
 1580TIP3    H226156   3.256   6.155   5.870 -0.6683 -1.9888 -0.3402
 1581TIP3   OH226157   0.705   5.166   0.685  0.2521  0.2539 -0.1970
 1581TIP3    H126158   0.702   5.071   0.673  0.2849  0.1346  0.6463
 1581TIP3    H226159   0.777   5.179   0.748 -0.2586  0.7646  0.2954
 1582TIP3   OH226160   6.612   2.902   0.776 -0.0535  0.2903  0.0173
 1582TIP3    H126161   6.694   2.949   0.760  0.1335 -0.3091 -0.8506
 1582TIP3    H226162   6.562   2.912   0.695 -0.2773 -0.4787  0.0558
 1583TIP3   OH226163   0.587   2.347   4.497  0.3639 -0.0114 -0.4327
 1583TIP3    H126164   0.614   2.431   4.460  0.2843 -0.1259 -0.7537
 1583TIP3    H226165   0.566   2.367   4.589  0.8889  0.2045 -0.3597
 1584TIP3   OH226166   0.817   3.928   6.438 -0.3783 -0.0660  0.1465
 1584TIP3    H126167   0.862   4.012   6.447 -1.6605  0.6460  0.1116
 1584TIP3    H226168   0.888   3.863   6.435  0.6593  1.0439 -0.2977
 1585TIP3   OH226169   5.005   5.392   1.270  0.3202 -0.0286  0.1920
 1585TIP3    H126170   5.081   5.341   1.298 -0.5107 -0.7653  1.1972
 1585TIP3    H226171   5.002   5.380   1.175  1.7086  0.4035  0.0687
 1586TIP3   OH226172   2.633   1.666  13.823 -1.0205  0.0336 -0.3572
 1586TIP3    H126173   2.677   1.699  13.901 -1.8339 -0.5663  0.3688
 1586TIP3    H226174   2.673   1.715  13.751  1.1885 -0.8330  0.1993
 1587TIP3   OH226175   4.067   5.623   1.709  0.0267  0.3883 -0.1325
 1587TIP3    H126176   4.011   5.676   1.765 -0.1060  0.3227 -0.2023
 1587TIP3    H226177   4.086   5.545   1.761  0.3690  0.5851  0.0394
 1588TIP3   OH226178   4.091   1.314   6.003 -0.1017 -0.1493  0.1242
 1588TIP3    H126179   4.085   1.403   6.036 -0.1533 -0.1883  0.2211
 1588TIP3    H226180   4.001   1.280   6.007  0.0582 -0.4946  0.9043
 1589TIP3   OH226181   2.839   0.724   1.663  0.0153 -0.1540  0.2391
 1589TIP3    H126182   2.827   0.764   1.577  1.6605 -0.5892 -0.2263
 1589TIP3    H226183   2.854   0.631   1.644  0.7199 -0.1991  0.9550
 1590TIP3   OH226184   0.131   2.647   1.704 -0.3709 -0.1111  0.1024
 1590TIP3    H126185   0.222   2.674   1.690  0.7850 -2.7908  1.7224
 1590TIP3    H226186   0.102   2.618   1.617  0.5396  0.1718 -0.3184
 1591TIP3   OH226187   0.836   1.521   3.774  0.2052  0.4061  0.3935
 1591TIP3    H126188   0.795   1.603   3.747 -1.6599 -0.2229  1.1440
 1591TIP3    H226189   0.929   1.542   3.782 -0.2723  2.5446  0.9383
 1592TIP3   OH226190   3.034   0.395  14.300 -0.3884  0.5332  0.1866
 1592TIP3    H126191   2.945   0.359  14.302 -1.0097  1.9805  3.0527
 1592TIP3    H226192   3.091   0.318  14.299 -1.6184 -0.4247 -1.1404
 1593TIP3   OH226193   4.489   0.718  16.494  0.4652 -0.0635  0.2910
 1593TIP3    H126194   4.396   0.697  16.498 -0.4463  3.1496 -0.7644
 1593TIP3    H226195   4.499   0.796  16.549  2.3949  0.0808 -0.1771
 1594TIP3   OH226196   1.682   6.129  11.289 -0.0396  0.6162 -0.2356
 1594TIP3    H126197   1.617   6.072  11.328  0.3344 -0.4845 -1.1346
 1594TIP3    H226198   1.649   6.146  11.201 -0.7049  2.7606  0.3865
 1595TIP3   OH226199   1.826   5.465   5.971  0.6827  0.2040 -0.3423
 1595TIP3    H126200   1.858   5.429   6.054 -1.5460 -2.4775 -0.5063
 1595TIP3    H226201   1.901   5.461   5.912  2.0192  1.1928  1.1902
 1596TIP3   OH226202   5.618   3.407   2.864 -0.3641  0.0594 -0.1760
 1596TIP3    H126203   5.714   3.406   2.855 -0.4405  0.0334 -1.0517
 1596TIP3    H226204   5.588   3.336   2.807 -0.8217 -1.0244  1.3517
 1597TIP3   OH226205   2.556   2.180  15.395 -0.1665 -0.3646  0.0648
 1597TIP3    H126206   2.491   2.250  15.395  0.6189  0.4204  1.6073
 1597TIP3    H226207   2.640   2.224  15.383  0.4807 -0.8285  2.3870
 1598TIP3   OH226208   4.280   3.953  14.730 -0.5703 -0.0202 -0.6079
 1598TIP3    H126209   4.310   3.970  14.641  0.4129  1.9266  0.0412
 1598TIP3    H226210   4.328   3.875  14.757  1.4148  1.0529 -0.8053
 1599TIP3   OH226211   3.615   3.458   4.802 -0.4974 -0.0016  0.1195
 1599TIP3    H126212   3.676   3.532   4.800 -0.9710  0.3814 -1.4250
 1599TIP3    H226213   3.550   3.483   4.868 -0.4751  0.8087 -0.1544
 1600TIP3   OH226214   0.405   1.868   6.124 -0.4841 -0.1398  0.0404
 1600TIP3    H126215   0.465   1.801   6.093  0.3464 -0.6243  2.4857
 1600TIP3    H226216   0.423   1.944   6.069 -0.5488 -1.4775 -1.9410
 1601TIP3   OH226217   1.916   0.750  12.929  0.3659 -0.4980  0.5071
 1601TIP3    H126218   1.854   0.799  12.875  1.6752 -0.7243 -1.2910
 1601TIP3    H226219   1.863   0.719  13.003 -1.1067  1.2912  0.3003
 1602TIP3   OH226220   0.180   0.842  12.041 -0.4517  0.1457  0.1519
 1602TIP3    H126221   0.250   0.823  11.978 -0.8392  2.6314 -1.1634
 1602TIP3    H226222   0.101   0.849  11.987 -1.1249  0.6124  1.1734
 1603TIP3   OH226223   3.550   2.653  13.504  0.5172  0.6278  0.1425
 1603TIP3    H126224   3.613   2.615  13.565  1.2499  0.1879 -0.8407
 1603TIP3    H226225   3.570   2.610  13.420 -0.6501  0.9829 -0.3396
 1604TIP3   OH226226   2.657   0.133  14.354 -0.0397  0.8210  0.3307
 1604TIP3    H126227   2.656   0.209  14.295  0.3918  0.8238  0.3202
 1604TIP3    H226228   2.750   0.115  14.367 -0.1114  1.2889  1.6136
 1605TIP3   OH226229   0.169   4.294   3.522  0.3722  0.1428 -0.0571
 1605TIP3    H126230   0.084   4.280   3.481  0.8253 -0.1312 -0.9085
 1605TIP3    H226231   0.169   4.235   3.598  0.6374 -1.4740 -1.2725
 1606TIP3   OH226232   0.538   2.182  13.397  0.2865 -0.7133 -0.9941
 1606TIP3    H126233   0.607   2.146  13.452  1.0089  2.9905  0.8058
 1606TIP3    H226234   0.580   2.255  13.351 -2.0529  0.8206 -0.8473
 1607TIP3   OH226235   6.684   3.564  16.229 -0.1891 -0.3309  0.5891
 1607TIP3    H126236   6.751   3.631  16.213  0.2173 -0.8970 -0.1458
 1607TIP3    H226237   6.606   3.614  16.254  0.2693  0.3820  0.6314
 1608TIP3   OH226238   0.566   0.925   3.489 -0.3097  0.0911 -0.1161
 1608TIP3    H126239   0.521   1.009   3.480 -2.2511 -0.9428 -0.7628
 1608TIP3    H226240   0.499   0.865   3.520  1.4116 -0.9365  1.9012
 1609TIP3   OH226241   2.969   0.160   4.286 -0.0205  0.3832  0.3444
 1609TIP3    H126242   2.879   0.191   4.275 -0.4820 -1.6124 -2.5034
 1609TIP3    H226243   3.022   0.218   4.232  0.1685  0.5208  0.6727
 1610TIP3   OH226244   5.977   4.180  13.962  0.1253  0.3328 -0.1330
 1610TIP3    H126245   5.901   4.203  14.016  0.6338  1.5423  0.0874
 1610TIP3    H226246   5.957   4.216  13.876 -0.1787 -0.6169 -0.4788
 1611TIP3   OH226247   5.927   5.879  10.505 -0.3633  0.5349 -0.3934
 1611TIP3    H126248   5.900   5.878  10.597 -0.0655  1.6495 -0.2759
 1611TIP3    H226249   6.007   5.825  10.503 -1.8915 -1.8539 -0.5480
 1612TIP3   OH226250   3.965   2.569  15.594  0.4686 -0.1456  0.2341
 1612TIP3    H126251   4.018   2.492  15.574 -0.4512 -0.3919 -1.4603
 1612TIP3    H226252   4.014   2.642  15.557  1.3765  0.1398  1.9047
 1613TIP3   OH226253   0.949   5.497  16.024 -0.2481 -0.3626  0.1241
 1613TIP3    H126254   0.877   5.550  16.059  0.3639  0.3814  0.2947
 1613TIP3    H226255   0.956   5.524  15.933  0.1987  0.0221  0.2647
 1614TIP3   OH226256   6.067   6.358  15.183 -0.0762  0.3506 -0.2197
 1614TIP3    H126257   5.990   6.301  15.182 -0.1521  0.4539 -0.7477
 1614TIP3    H226258   6.140   6.300  15.202 -0.2759  0.2466  0.2656
 1615TIP3   OH226259   3.380   4.182  13.605  0.2995  0.3940 -0.4606
 1615TIP3    H126260   3.308   4.219  13.655 -0.4877 -1.6430 -0.0070
 1615TIP3    H226261   3.457   4.192  13.661  0.7482  3.6519 -1.4086
 1616TIP3   OH226262   0.720   0.444  12.614 -0.4969  0.4929 -0.4578
 1616TIP3    H126263   0.692   0.472  12.527 -0.2934 -0.6136 -0.8990
 1616TIP3    H226264   0.641   0.445  12.667 -0.3431  2.7843 -0.1798
 1617TIP3   OH226265   0.188   5.925  16.492 -0.1742 -0.1136 -0.1367
 1617TIP3    H126266   0.252   5.984  16.452 -0.2714  0.6253  0.7606
 1617TIP3    H226267   0.108   5.940  16.443 -0.3607  0.9749  0.4616
 1618TIP3   OH226268   0.241   0.883   2.192 -0.2269 -0.6147  0.3516
 1618TIP3    H126269   0.148   0.868   2.176  0.0906 -1.9660 -0.3838
 1618TIP3    H226270   0.277   0.796   2.208  1.0466 -0.1996 -0.1030
 1619TIP3   OH226271   5.109   4.792  16.897 -0.2264  0.8390  0.3550
 1619TIP3    H126272   5.196   4.820  16.869  0.6590 -0.5861  1.5754
 1619TIP3    H226273   5.104   4.816  16.989 -0.8470  0.2540  0.4800
 1620TIP3   OH226274   4.627   3.173   2.579 -0.0542  0.1729 -0.1125
 1620TIP3    H126275   4.695   3.128   2.629  1.3462  1.7625 -0.4967
 1620TIP3    H226276   4.566   3.205   2.646  1.0604  1.0769  0.5082
 1621TIP3   OH226277   6.142   0.903   5.263 -0.3341 -0.5633  0.4298
 1621TIP3    H126278   6.160   0.819   5.304  0.9974 -1.3950 -1.6790
 1621TIP3    H226279   6.224   0.951   5.270 -0.8887  0.3251  1.0395
 1622TIP3   OH226280   0.103   5.353  14.519 -0.1742 -0.1379 -0.1310
 1622TIP3    H126281   0.155   5.367  14.598  1.5730  1.1147 -1.4278
 1622TIP3    H226282   0.069   5.264  14.528  0.9670 -0.4571  1.4635
 1623TIP3   OH226283   3.651   2.945  13.222  0.3158 -0.3066 -0.5764
 1623TIP3    H126284   3.731   2.894  13.236 -0.8005 -1.8663  0.4211
 1623TIP3    H226285   3.624   2.973  13.309 -0.7327 -0.6175 -0.7864
 1624TIP3   OH226286   0.279   5.380  16.311 -0.0978 -0.0111 -0.6966
 1624TIP3    H126287   0.235   5.462  16.288  0.4677 -0.4519 -3.9171
 1624TIP3    H226288   0.371   5.404  16.319  0.1378 -0.3024 -2.0962
 1625TIP3   OH226289   4.396   3.948  13.069  0.1833  0.0360  0.3157
 1625TIP3    H126290   4.489   3.974  13.074 -0.0702  1.3007 -1.0149
 1625TIP3    H226291   4.385   3.888  13.143  1.7598  0.8168  1.2573
 1626TIP3   OH226292   1.143   4.007   3.325  0.3206 -0.1031 -0.8411
 1626TIP3    H126293   1.212   4.040   3.267 -0.3955  0.4877 -1.3802
 1626TIP3    H226294   1.145   4.067   3.400 -1.1619  1.4142 -1.9458
 1627TIP3   OH226295   1.976   0.013  11.368  0.1305 -0.2916  0.1166
 1627TIP3    H126296   2.061  -0.031  11.367 -0.4499 -1.6224  2.4372
 1627TIP3    H226297   1.928  -0.029  11.439 -1.4725  2.3179  0.7067
 1628TIP3   OH226298   1.153   1.280  17.135  0.3676 -0.1498 -0.1777
 1628TIP3    H126299   1.094   1.233  17.193  0.7105  1.2003  1.3211
 1628TIP3    H226300   1.108   1.362  17.116  0.3312 -0.4931 -1.7366
 1629TIP3   OH226301   5.455   4.238   4.627  0.9329  0.2834 -0.6577
 1629TIP3    H126302   5.379   4.274   4.672  1.9713  1.1309  0.4888
 1629TIP3    H226303   5.484   4.166   4.683  1.1904  0.1969 -0.8979
 1630TIP3   OH226304   5.872   2.501   3.530  0.0541 -0.1593 -0.6240
 1630TIP3    H126305   5.808   2.434   3.507  0.9957 -0.8477 -1.3383
 1630TIP3    H226306   5.924   2.462   3.600 -0.3992  0.4605  0.0692
 1631TIP3   OH226307   6.191   3.783  11.549 -0.1188 -0.4430  0.3984
 1631TIP3    H126308   6.172   3.689  11.543  0.1815 -0.4975  0.3113
 1631TIP3    H226309   6.285   3.789  11.534 -0.0169 -0.1991  1.1031
 1632TIP3   OH226310   1.572   5.857  15.375 -0.0134  0.3198 -0.1332
 1632TIP3    H126311   1.476   5.859  15.379 -0.1377 -1.8752 -0.5677
 1632TIP3    H226312   1.600   5.913  15.447 -1.6448  0.2131  0.6367
 1633TIP3   OH226313   4.146   1.913   3.768  0.4985  0.0034  0.6007
 1633TIP3    H126314   4.184   1.953   3.846  0.2894  1.2355  0.0946
 1633TIP3    H226315   4.191   1.955   3.695 -0.4152  0.0150  0.0265
 1634TIP3   OH226316   5.408   4.354   1.932 -0.0689  0.2995  0.2629
 1634TIP3    H126317   5.475   4.289   1.912 -1.4445 -1.4057  0.8568
 1634TIP3    H226318   5.452   4.438   1.924  2.1383 -0.7415  0.6837
 1635TIP3   OH226319   0.756   4.413  13.137 -0.3785 -0.1052 -0.1457
 1635TIP3    H126320   0.782   4.443  13.050  0.4297  0.6459  0.3377
 1635TIP3    H226321   0.718   4.490  13.179  4.0058  1.2227  2.0357
 1636TIP3   OH226322   3.853   0.469   1.328 -0.2254  0.7491 -0.0928
 1636TIP3    H126323   3.887   0.473   1.238  1.8222  1.0748  0.6405
 1636TIP3    H226324   3.931   0.468   1.383 -1.4300  1.8031  1.7512
 1637TIP3   OH226325   4.075   0.394  14.864  0.2281 -0.3240 -0.3158
 1637TIP3    H126326   4.085   0.482  14.900 -1.6743  0.2328 -1.0379
 1637TIP3    H226327   4.165   0.367  14.843  0.8033  1.7427 -0.7942
 1638TIP3   OH226328   5.862   5.738   3.505 -0.7722 -0.0179 -0.0082
 1638TIP3    H126329   5.814   5.817   3.482  0.1574  0.3256 -0.8679
 1638TIP3    H226330   5.908   5.761   3.586 -0.8582  0.1797 -0.0154
 1639TIP3   OH226331   3.858   2.757   1.437 -0.1524  0.0451 -0.1981
 1639TIP3    H126332   3.776   2.722   1.471  0.5590 -1.0896  0.3854
 1639TIP3    H226333   3.910   2.776   1.515  0.2730  0.4580 -0.5777
 1640TIP3   OH226334   4.847   1.215   2.725 -0.1508  0.3945  0.3367
 1640TIP3    H126335   4.926   1.174   2.688 -0.0647  0.1156  0.8194
 1640TIP3    H226336   4.780   1.146   2.721  0.4037 -0.3712  2.5956
 1641TIP3   OH226337   2.452   5.342   3.260 -0.3915 -0.6719  0.3175
 1641TIP3    H126338   2.547   5.341   3.249 -0.6270 -0.6016 -2.6727
 1641TIP3    H226339   2.429   5.435   3.257 -0.6682 -0.7582 -1.1386
 1642TIP3   OH226340   2.327   1.207   1.463 -0.2218 -0.2532  0.3301
 1642TIP3    H126341   2.283   1.148   1.402  0.5912  0.6389 -1.1576
 1642TIP3    H226342   2.420   1.189   1.453  0.0598  1.3410 -0.2528
 1643TIP3   OH226343   5.848   4.687   4.275 -0.2260  0.9074 -0.1684
 1643TIP3    H126344   5.779   4.650   4.330 -1.0446  0.2692 -1.5972
 1643TIP3    H226345   5.822   4.667   4.186  1.8276  0.5995 -0.7569
 1644TIP3   OH226346   1.156   4.842  16.435 -0.7221  0.0650  0.3434
 1644TIP3    H126347   1.148   4.848  16.340 -0.2468  1.2174  0.3644
 1644TIP3    H226348   1.208   4.763  16.449 -1.3636 -0.4903 -0.3099
 1645TIP3   OH226349   1.834   4.621  13.603 -0.1236  0.0781 -0.6328
 1645TIP3    H126350   1.819   4.539  13.648  0.9080  0.8625  1.2730
 1645TIP3    H226351   1.763   4.628  13.539 -1.0024 -1.6194  0.1190
 1646TIP3   OH226352   0.716   5.554   0.846 -0.1134 -0.0171  0.4680
 1646TIP3    H126353   0.740   5.505   0.767 -2.2463  1.8883 -1.5741
 1646TIP3    H226354   0.688   5.488   0.909 -1.5804 -1.5553 -1.6569
 1647TIP3   OH226355   2.741   4.108   2.592 -0.5985 -0.0982  0.2995
 1647TIP3    H126356   2.765   4.024   2.632 -2.9687 -0.9972 -0.0170
 1647TIP3    H226357   2.742   4.170   2.664  0.0730 -0.6239  0.7575
 1648TIP3   OH226358   4.046   2.661   2.495 -0.3435 -0.0315 -0.2379
 1648TIP3    H126359   4.053   2.756   2.505 -0.4235  0.0048 -0.5259
 1648TIP3    H226360   4.108   2.640   2.425  0.7570 -0.3773  0.8071
 1649TIP3   OH226361   5.114   0.581  16.867  0.1483 -0.1283 -0.1660
 1649TIP3    H126362   5.033   0.532  16.852 -0.5105  0.5662  1.0147
 1649TIP3    H226363   5.172   0.553  16.796  0.1153 -3.2429  0.8592
 1650TIP3   OH226364   1.477   1.597  13.136 -0.1274  0.4750  0.2729
 1650TIP3    H126365   1.384   1.604  13.158 -0.5230  1.4778 -1.5215
 1650TIP3    H226366   1.481   1.529  13.069  0.4066  0.6559  0.1156
 1651TIP3   OH226367   4.192   1.032  15.792 -0.3227  0.2050 -0.6876
 1651TIP3    H126368   4.130   0.977  15.839  0.4301 -0.0743  0.0036
 1651TIP3    H226369   4.156   1.120  15.799 -1.5136 -0.1709 -1.7720
 1652TIP3   OH226370   3.446   2.812   2.681  0.6368  0.2812 -0.0436
 1652TIP3    H126371   3.506   2.761   2.627  1.5264  0.5816  0.6431
 1652TIP3    H226372   3.359   2.780   2.656  1.1277 -0.9564 -0.2522
 1653TIP3   OH226373   6.086   1.781   2.371 -0.4024  0.6907 -0.4194
 1653TIP3    H126374   6.177   1.757   2.383 -0.4788 -0.0744 -1.2447
 1653TIP3    H226375   6.068   1.844   2.441  0.4607  0.0829  0.3717
 1654TIP3   OH226376   0.015   4.301  11.383 -0.0006  0.4149  0.3326
 1654TIP3    H126377   0.053   4.248  11.313  2.2997  1.1645  0.9463
 1654TIP3    H226378   0.001   4.387  11.342  0.7832  0.6824  0.6164
 1655TIP3   OH226379   4.561   2.852  15.499 -0.1292  0.2431  0.0063
 1655TIP3    H126380   4.506   2.840  15.422  0.2942  0.1088 -0.2794
 1655TIP3    H226381   4.525   2.929  15.542  1.2569  1.9596 -1.7617
 1656TIP3   OH226382   6.374   1.345   2.261  0.3127 -0.4532  0.0823
 1656TIP3    H126383   6.451   1.352   2.204  0.8021 -0.6046  0.7223
 1656TIP3    H226384   6.363   1.251   2.275 -1.7655 -0.7119 -2.3815
 1657TIP3   OH226385   2.984   4.629   1.716 -0.0533  0.0361  0.7085
 1657TIP3    H126386   3.044   4.561   1.684 -0.2630 -0.2399  0.9025
 1657TIP3    H226387   2.994   4.701   1.653 -1.9952 -1.2716 -1.2678
 1658TIP3   OH226388   1.431   2.973   3.586  0.0827 -0.1355 -0.2136
 1658TIP3    H126389   1.430   2.878   3.603 -1.0212  0.1414  1.4442
 1658TIP3    H226390   1.359   3.008   3.637  1.3010  1.7955  0.2949
 1659TIP3   OH226391   4.913   1.640   4.875  0.0068 -0.4172 -0.3029
 1659TIP3    H126392   4.872   1.718   4.913 -0.5904 -0.8758  0.0094
 1659TIP3    H226393   4.874   1.632   4.788 -1.2712 -1.3627  0.3280
 1660TIP3   OH226394   1.363   4.033   2.679  0.3662 -0.4768  0.2348
 1660TIP3    H126395   1.314   4.023   2.597  0.2270  0.7775  0.1378
 1660TIP3    H226396   1.339   4.121   2.710  1.9990 -0.1217  0.5586
 1661TIP3   OH226397   6.278   5.545   1.508 -0.2206  0.1595 -0.4333
 1661TIP3    H126398   6.304   5.636   1.518 -0.4718  0.2351 -0.4623
 1661TIP3    H226399   6.266   5.533   1.414  0.3097 -0.0422 -0.4759
 1662TIP3   OH226400   5.648   0.532  11.765  0.1135 -0.0594 -0.0441
 1662TIP3    H126401   5.596   0.588  11.708  0.9539  0.4943 -0.2723
 1662TIP3    H226402   5.686   0.592  11.829 -1.0184 -0.6953  1.2833
 1663TIP3   OH226403   1.192   4.890   5.763 -0.2790 -0.0207  0.2242
 1663TIP3    H126404   1.192   4.874   5.669 -0.1913  0.2731  0.1740
 1663TIP3    H226405   1.225   4.980   5.773  0.6567 -0.3920  0.5942
 1664TIP3   OH226406   2.375   5.567   2.810 -0.2174 -0.1062 -0.5573
 1664TIP3    H126407   2.357   5.617   2.890 -0.1601 -0.5618 -0.2559
 1664TIP3    H226408   2.295   5.573   2.759 -0.6598 -0.7753  0.0532
 1665TIP3   OH226409   2.379   0.227   1.358 -0.1148 -0.4379  0.0248
 1665TIP3    H126410   2.461   0.183   1.382  0.7755  1.7639  1.3283
 1665TIP3    H226411   2.315   0.195   1.421  0.4579 -0.0961  0.7966
 1666TIP3   OH226412   5.884   6.705   2.139  0.0270  0.3068  0.6287
 1666TIP3    H126413   5.970   6.727   2.102 -0.3227 -0.5369 -0.7538
 1666TIP3    H226414   5.835   6.669   2.066 -1.2465  0.0181  1.5889
 1667TIP3   OH226415   2.464   0.101   1.806  0.4919 -0.4982 -0.2889
 1667TIP3    H126416   2.456   0.176   1.864 -1.0206  0.3986 -1.5852
 1667TIP3    H226417   2.398   0.039   1.838 -0.6960  0.2010 -1.2601
 1668TIP3   OH226418   3.375   3.299   2.769  0.4323  0.4597  0.1287
 1668TIP3    H126419   3.419   3.238   2.709  1.7466  1.6204 -0.1384
 1668TIP3    H226420   3.301   3.249   2.804  1.2720 -1.1718 -0.3292
 1669TIP3   OH226421   0.072   0.174   2.793 -0.2075 -0.5511 -0.0618
 1669TIP3    H126422  -0.011   0.153   2.750 -0.0682 -0.4602 -0.3792
 1669TIP3    H226423   0.133   0.108   2.760  0.1999  0.2613 -0.9631
 1670TIP3   OH226424   2.185   1.877  12.304  0.3309 -0.0503 -0.6491
 1670TIP3    H126425   2.232   1.823  12.368  0.8227 -0.0206 -0.9845
 1670TIP3    H226426   2.176   1.821  12.227 -1.3986 -0.5584 -0.1441
 1671TIP3   OH226427   4.621   4.127   1.567  0.0580  0.1084  0.3514
 1671TIP3    H126428   4.615   4.222   1.561 -2.0504 -0.0246 -0.7557
 1671TIP3    H226429   4.591   4.107   1.656 -0.7924  0.4489  0.1581
 1672TIP3   OH226430   0.188   6.142  15.590  0.9059 -0.3770  0.4031
 1672TIP3    H126431   0.272   6.111  15.556  0.9947  1.0230 -0.7385
 1672TIP3    H226432   0.189   6.236  15.573 -0.0230  0.0273  2.2932
 1673TIP3   OH226433   1.123   4.189   4.433 -0.7442 -0.6437  0.4007
 1673TIP3    H126434   1.212   4.224   4.443 -0.1960 -1.9184  0.2847
 1673TIP3    H226435   1.066   4.257   4.467  0.2752  0.2642  0.3431
 1674TIP3   OH226436   3.093   3.668  15.669 -0.3839 -0.1315 -0.3380
 1674TIP3    H126437   3.171   3.662  15.614 -0.6204  0.2184 -0.7259
 1674TIP3    H226438   3.105   3.750  15.717 -0.1220 -0.4954  0.2277
 1675TIP3   OH226439   3.057   1.991   3.100  0.0326 -0.2140 -0.0746
 1675TIP3    H126440   3.000   2.067   3.110  1.1726  0.4137  2.7066
 1675TIP3    H226441   3.104   2.007   3.018 -3.0547 -0.3686 -2.0308
 1676TIP3   OH226442   1.004   5.193   4.282  0.0505  0.4763 -0.2679
 1676TIP3    H126443   0.971   5.260   4.341  1.5986  0.8973  0.1572
 1676TIP3    H226444   1.089   5.225   4.253  0.1714 -0.6214 -1.2230
 1677TIP3   OH226445   3.034   1.313  13.674 -0.2545 -0.5489 -0.3798
 1677TIP3    H126446   3.045   1.368  13.596 -0.5247 -0.0873 -0.0986
 1677TIP3    H226447   2.952   1.267  13.658 -0.9257  0.4175  0.1325
 1678TIP3   OH226448   1.363   1.643   2.179  0.4770  0.0222  0.6651
 1678TIP3    H126449   1.425   1.643   2.252  0.7014  1.9109  0.5215
 1678TIP3    H226450   1.287   1.691   2.213  0.8509  1.5126 -0.5303
 1679TIP3   OH226451   1.157   4.394   2.310  0.3008 -0.1883  0.0060
 1679TIP3    H126452   1.183   4.413   2.220 -1.6620  0.6774 -0.4237
 1679TIP3    H226453   1.179   4.473   2.359 -1.5354  0.6080 -0.3895
 1680TIP3   OH226454   4.288   0.978  14.223  0.3286 -0.3193 -0.5027
 1680TIP3    H126455   4.366   1.031  14.204 -0.6211  1.2655 -0.1583
 1680TIP3    H226456   4.322   0.889  14.232  2.2719  0.4622  0.6792
 1681TIP3   OH226457   5.194   5.505   5.989 -0.2682  0.9966 -0.2127
 1681TIP3    H126458   5.287   5.524   5.991 -0.3572  1.6061 -1.0899
 1681TIP3    H226459   5.154   5.583   5.949 -0.9328 -0.0214 -1.6305
 1682TIP3   OH226460   3.975   3.268  13.692  0.1652 -0.1034  0.5148
 1682TIP3    H126461   4.019   3.326  13.630 -0.6847 -1.1529 -1.1344
 1682TIP3    H226462   3.904   3.228  13.642  0.5029 -2.3049  1.6767
 1683TIP3   OH226463   1.335   0.023  16.061 -0.0055  0.0315 -0.1290
 1683TIP3    H126464   1.421   0.027  16.102  0.2807 -0.5634 -0.6505
 1683TIP3    H226465   1.351   0.048  15.970 -0.4473  0.2925 -0.1370
 1684TIP3   OH226466   3.548   3.950  16.108 -0.4271 -0.1713  0.2034
 1684TIP3    H126467   3.465   3.973  16.150  0.4621  3.2067  0.4137
 1684TIP3    H226468   3.535   3.969  16.016  0.0924  0.4312  0.2449
 1685TIP3   OH226469   5.206   6.169   1.979 -0.7234 -0.0611 -0.1616
 1685TIP3    H126470   5.222   6.249   2.028 -0.0339  0.2560 -0.8868
 1685TIP3    H226471   5.214   6.194   1.887 -2.2273 -0.6001 -0.4731
 1686TIP3   OH226472   2.176   0.146   4.000  0.1794  0.5929  0.1714
 1686TIP3    H126473   2.237   0.158   3.928  2.4266  0.4185  1.9397
 1686TIP3    H226474   2.163   0.234   4.036  1.6849  0.3036  1.5181
 1687TIP3   OH226475   6.430   4.533  16.014 -0.1589  0.1026 -0.6251
 1687TIP3    H126476   6.357   4.490  15.968 -1.9253  1.8178  0.4435
 1687TIP3    H226477   6.422   4.503  16.105  0.5976  0.1726 -0.5284
 1688TIP3   OH226478   6.591   4.454  16.376  0.2216 -1.1408 -0.1729
 1688TIP3    H126479   6.576   4.458  16.471  0.8155  1.6921 -0.1087
 1688TIP3    H226480   6.566   4.540  16.344  1.1912 -1.6201 -2.4211
 1689TIP3   OH226481   1.137   4.192  17.329  0.4340  0.0831  0.0062
 1689TIP3    H126482   1.056   4.158  17.367 -0.0875  1.2171 -0.0364
 1689TIP3    H226483   1.205   4.169  17.391  0.0540 -0.7198  0.1357
 1690TIP3   OH226484   5.955   2.706  13.801 -0.3136 -0.0627 -0.3226
 1690TIP3    H126485   6.027   2.678  13.744  0.5671  0.6516  0.4077
 1690TIP3    H226486   5.976   2.796  13.823 -0.9315 -0.1561  0.6781
 1691TIP3   OH226487   3.349   4.345   4.600 -0.4543  0.6099  0.1194
 1691TIP3    H126488   3.408   4.283   4.642  0.8445  0.2650 -2.0748
 1691TIP3    H226489   3.404   4.420   4.579 -1.4159  1.4100  0.3817
 1692TIP3   OH226490   1.315   3.224   0.250  0.0139  0.0157  0.0887
 1692TIP3    H126491   1.230   3.268   0.251 -1.7777 -3.1189 -0.2838
 1692TIP3    H226492   1.319   3.177   0.334  1.8145  0.7393  0.4679
 1693TIP3   OH226493   3.413   2.199   3.397  0.1141  0.0093 -0.4494
 1693TIP3    H126494   3.368   2.283   3.386 -0.7779 -0.1169  1.7664
 1693TIP3    H226495   3.504   2.223   3.413 -0.3210  0.6536  1.2171
 1694TIP3   OH226496   1.933   3.981   3.088  0.0795  0.1461 -0.8685
 1694TIP3    H126497   1.872   3.957   3.019 -1.0761 -0.1979  0.2344
 1694TIP3    H226498   1.909   4.070   3.112  0.8447  0.4728 -1.2711
 1695TIP3   OH226499   5.531   1.132   3.080 -0.4164 -0.1391 -0.5801
 1695TIP3    H126500   5.563   1.222   3.088 -1.8467  0.2518  1.9342
 1695TIP3    H226501   5.484   1.116   3.162 -1.2894 -2.7682 -1.4823
 1696TIP3   OH226502   3.643   1.312  11.812  0.2829 -0.1757 -0.2615
 1696TIP3    H126503   3.619   1.259  11.736  0.3250  1.4240 -1.4594
 1696TIP3    H226504   3.738   1.312  11.813  0.2820 -0.3688 -0.0720
 1697TIP3   OH226505   4.481   4.164  15.520 -0.0615  0.3736  0.2233
 1697TIP3    H126506   4.411   4.182  15.456 -0.3848  0.5213  0.6122
 1697TIP3    H226507   4.509   4.251  15.549 -1.3891  0.3152  1.8498
 1698TIP3   OH226508   6.348   1.089   2.618  0.3280  0.3363 -0.2411
 1698TIP3    H126509   6.353   1.078   2.713  1.8917 -2.6790 -0.5358
 1698TIP3    H226510   6.389   1.010   2.583  0.9456  1.9346 -3.4615
 1699TIP3   OH226511   2.553   4.791   5.686 -0.1009  0.2689  0.0645
 1699TIP3    H126512   2.637   4.772   5.644 -0.0357 -0.1271  0.3654
 1699TIP3    H226513   2.548   4.887   5.687  0.3570  0.2953  0.0602
 1700TIP3   OH226514   6.422   6.436   0.801  0.1906 -0.0383  0.3478
 1700TIP3    H126515   6.434   6.355   0.751  1.3040  0.8278 -0.8568
 1700TIP3    H226516   6.331   6.461   0.784 -0.4374 -1.4412  1.4215
 1701TIP3   OH226517   4.686   5.290  12.774 -0.3538  0.3596 -0.6217
 1701TIP3    H126518   4.726   5.296  12.861 -0.7184  0.3079 -0.4468
 1701TIP3    H226519   4.707   5.201  12.745  1.3342  0.9728 -1.3730
 1702TIP3   OH226520   3.728   6.023   6.159 -0.0076  0.1448  0.3030
 1702TIP3    H126521   3.682   6.014   6.243  0.9816 -0.9858  0.7383
 1702TIP3    H226522   3.783   6.101   6.171 -1.1660  1.0410  0.0543
 1703TIP3   OH226523   0.803   4.559  11.580  0.7320 -0.0450 -0.1195
 1703TIP3    H126524   0.751   4.617  11.636  2.8742  0.7494  1.1701
 1703TIP3    H226525   0.800   4.600  11.494 -2.1506 -0.9780 -0.5844
 1704TIP3   OH226526   1.717   1.655  11.596  0.0294 -0.3642  0.1963
 1704TIP3    H126527   1.676   1.647  11.510 -0.0248  1.4349  0.0207
 1704TIP3    H226528   1.645   1.680  11.655 -0.2394 -2.9608  1.1266
 1705TIP3   OH226529   6.128   0.872   2.510 -0.2081 -0.0441 -0.6252
 1705TIP3    H126530   6.069   0.835   2.576  0.5388 -1.1751 -0.5752
 1705TIP3    H226531   6.168   0.947   2.554  1.3540 -1.6054  0.7792
 1706TIP3   OH226532   5.720   3.352  13.412 -0.4236 -0.6012 -0.5658
 1706TIP3    H126533   5.719   3.434  13.361 -1.3440  0.2410  0.7494
 1706TIP3    H226534   5.633   3.314  13.397 -0.7310 -0.3055  0.4203
 1707TIP3   OH226535   5.734   1.279   4.078  0.0672  0.5182  0.2186
 1707TIP3    H126536   5.765   1.325   4.000  0.1104  0.6778  0.3302
 1707TIP3    H226537   5.650   1.319   4.099  0.5751  1.2591  0.9188
 1708TIP3   OH226538   5.124   2.167  12.384  0.0008  0.1893 -0.0584
 1708TIP3    H126539   5.066   2.122  12.323 -0.3958  0.6527 -0.0228
 1708TIP3    H226540   5.130   2.109  12.459 -4.0781  2.0563  2.0032
 1709TIP3   OH226541   4.484   6.275  16.487  0.2548 -0.3485 -0.3835
 1709TIP3    H126542   4.573   6.286  16.454  0.1764 -1.3586 -0.9717
 1709TIP3    H226543   4.430   6.268  16.409 -0.2086 -0.7195 -0.0357
 1710TIP3   OH226544   1.161   4.618   5.807 -0.5818 -0.2264  0.3276
 1710TIP3    H126545   1.139   4.591   5.896 -0.4832  1.0920  0.7720
 1710TIP3    H226546   1.178   4.712   5.813  1.0259 -0.3876 -0.7667
 1711TIP3   OH226547   6.448   3.822   2.112 -0.1937  0.0504 -0.3643
 1711TIP3    H126548   6.522   3.805   2.170  0.6603  2.4951 -0.6416
 1711TIP3    H226549   6.487   3.864   2.035 -1.7602  0.6207 -0.8910
 1712TIP3   OH226550   0.022   2.084  13.653 -0.0237  0.4528 -0.4468
 1712TIP3    H126551   0.009   2.174  13.680  0.2782  0.7895 -1.3928
 1712TIP3    H226552  -0.031   2.075  13.574 -0.3199 -0.2952 -0.1710
 1713TIP3   OH226553   5.387   0.804   2.522  0.2083  0.1779  0.2368
 1713TIP3    H126554   5.373   0.845   2.608  2.1049  1.1159  0.1556
 1713TIP3    H226555   5.423   0.718   2.542  2.1358  0.9775  0.4482
 1714TIP3   OH226556   1.555   1.283  12.441  0.0117 -0.6837  0.2668
 1714TIP3    H126557   1.602   1.310  12.362 -0.6086 -3.8292 -1.3330
 1714TIP3    H226558   1.621   1.241  12.495  0.2098  0.4692  0.9485
 1715TIP3   OH226559   3.851   5.147   5.064 -0.2181 -0.0620 -0.5417
 1715TIP3    H126560   3.767   5.123   5.025 -0.3318  0.6935 -0.7748
 1715TIP3    H226561   3.912   5.146   4.990  0.2561 -1.8032 -0.1781
 1716TIP3   OH226562   2.903   2.787   1.863  0.1466 -0.1332 -0.0301
 1716TIP3    H126563   2.916   2.785   1.958  0.6154 -0.7708 -0.1072
 1716TIP3    H226564   2.897   2.880   1.842  1.0014  0.0445  0.4915
 1717TIP3   OH226565   2.538   2.282  14.781 -0.0292 -0.5238  0.3055
 1717TIP3    H126566   2.475   2.311  14.715  0.2843 -0.2273  0.1297
 1717TIP3    H226567   2.616   2.257  14.730  0.0517 -0.7306  0.5317
 1718TIP3   OH226568   0.241   3.987  13.663 -0.0669 -0.2560  0.4088
 1718TIP3    H126569   0.323   3.975  13.711 -0.1332 -1.5868  0.2370
 1718TIP3    H226570   0.172   3.969  13.728 -0.2725  1.3699  0.6934
 1719TIP3   OH226571   3.774   4.941  14.696  0.9484  0.5681 -0.1314
 1719TIP3    H126572   3.696   4.968  14.744  0.8473  0.5114 -0.2616
 1719TIP3    H226573   3.840   4.925  14.764  0.8201  0.5287 -0.0156
 1720TIP3   OH226574   0.907   4.835  14.941 -0.6408 -0.5320  0.0904
 1720TIP3    H126575   0.872   4.759  14.895  0.2099 -0.5935 -0.4708
 1720TIP3    H226576   0.987   4.857  14.894 -0.1381 -0.1413  1.1001
 1721TIP3   OH226577   3.681   0.843   5.270 -0.2611  0.6936 -0.0171
 1721TIP3    H126578   3.763   0.801   5.294 -1.2945 -0.2799  2.0708
 1721TIP3    H226579   3.633   0.777   5.220 -0.8464  0.2527  1.0914
 1722TIP3   OH226580   5.183   3.729   6.561  0.0187  0.2488  0.7170
 1722TIP3    H126581   5.256   3.673   6.535  1.1110  0.3363  3.3417
 1722TIP3    H226582   5.114   3.668   6.585 -1.1683  0.1620 -2.4291
 1723TIP3   OH226583   4.776   4.934   0.835  0.2189  0.0453 -0.4087
 1723TIP3    H126584   4.745   4.984   0.760 -1.2063 -1.2076 -0.7037
 1723TIP3    H226585   4.746   4.983   0.911  0.1177  0.3858 -0.6676
 1724TIP3   OH226586   3.524   1.526   3.826 -0.6616  0.0038  0.3032
 1724TIP3    H126587   3.588   1.456   3.838 -0.6012 -0.4002 -1.9819
 1724TIP3    H226588   3.568   1.591   3.771 -1.4839  0.7767  0.5207
 1725TIP3   OH226589   5.221   5.200   6.514  0.0233  0.6952  0.3064
 1725TIP3    H126590   5.138   5.201   6.560 -0.9789 -1.7852 -1.2779
 1725TIP3    H226591   5.281   5.151   6.571 -1.0606 -1.8909 -0.6345
 1726TIP3   OH226592   4.681   6.639  11.066 -0.1120  0.2459 -0.0007
 1726TIP3    H126593   4.748   6.658  11.132 -0.2276 -0.7380  0.4042
 1726TIP3    H226594   4.701   6.551  11.036 -1.9173 -0.5287  0.9665
 1727TIP3   OH226595   1.635   1.776   5.055  0.0715  0.4316 -0.6174
 1727TIP3    H126596   1.706   1.714   5.070 -0.1057 -0.2123 -2.2288
 1727TIP3    H226597   1.568   1.726   5.010 -2.2674  0.5455  2.4182
 1728TIP3   OH226598   4.554   2.917  14.506 -0.1611 -0.5343 -0.5248
 1728TIP3    H126599   4.645   2.919  14.477 -0.0047 -1.5612 -0.1714
 1728TIP3    H226600   4.556   2.867  14.588 -0.7934  1.0055  0.4770
 1729TIP3   OH226601   4.980   5.974   3.338  0.0188  0.2738 -0.3788
 1729TIP3    H126602   5.060   5.921   3.333  0.4618  0.9078 -0.1217
 1729TIP3    H226603   5.010   6.064   3.328 -0.7855  0.4577 -1.2986
 1730TIP3   OH226604   3.381   6.044   6.577  0.0420  0.4289 -0.3041
 1730TIP3    H126605   3.394   5.951   6.594  1.4345  1.0107  2.3637
 1730TIP3    H226606   3.469   6.078   6.562 -0.5716  1.1407 -2.7530
 1731TIP3   OH226607   4.049   0.936   1.278  0.1243 -0.1466 -0.1252
 1731TIP3    H126608   3.965   0.894   1.260  0.8874 -1.7934 -0.0240
 1731TIP3    H226609   4.040   1.024   1.241 -1.0511 -0.8530 -1.6588
 1732TIP3   OH226610   2.478   5.330   4.906 -0.0345 -0.6304  0.4409
 1732TIP3    H126611   2.471   5.291   4.993 -0.4625  2.3927  1.9177
 1732TIP3    H226612   2.388   5.337   4.875 -0.0159 -0.3879  0.4343
 1733TIP3   OH226613   6.173   5.330   1.901  0.3568  0.5840  0.2105
 1733TIP3    H126614   6.231   5.406   1.906  1.2009 -0.0535  0.5123
 1733TIP3    H226615   6.184   5.298   1.811  0.3571  0.5542  0.2212
 1734TIP3   OH226616   0.615   5.622   6.359 -0.5895 -0.4146  0.3380
 1734TIP3    H126617   0.585   5.711   6.343 -0.2659 -0.5193 -0.9665
 1734TIP3    H226618   0.662   5.598   6.279 -0.4555 -1.6633  0.7748
 1735TIP3   OH226619   1.058   0.416   5.920  0.2668 -0.0256 -0.8829
 1735TIP3    H126620   0.995   0.449   5.983  1.0145 -0.4012  0.0919
 1735TIP3    H226621   1.096   0.494   5.880  0.3620  0.2399 -0.2820
 1736TIP3   OH226622   1.901   1.336   5.756 -0.7088  0.3854  0.3856
 1736TIP3    H126623   1.968   1.269   5.772 -0.8776  0.2923  0.6898
 1736TIP3    H226624   1.950   1.418   5.752 -0.7721  0.5565  2.3943
 1737TIP3   OH226625   1.528   4.493   2.070  0.3074 -0.0558  0.5542
 1737TIP3    H126626   1.609   4.503   2.120  0.7713 -1.5962  0.1460
 1737TIP3    H226627   1.473   4.436   2.124  0.6972 -1.4956 -0.5061
 1738TIP3   OH226628   1.734   4.991  15.489 -0.1628 -0.1194 -0.7918
 1738TIP3    H126629   1.749   4.970  15.581 -0.4208 -0.8384 -0.9027
 1738TIP3    H226630   1.639   4.993  15.480 -0.1386  0.1440 -0.9969
 1739TIP3   OH226631   5.479   2.126  16.987  0.1887 -0.1783 -0.1006
 1739TIP3    H126632   5.520   2.043  17.011  1.5500  0.7963  1.1203
 1739TIP3    H226633   5.438   2.157  17.067  2.4443  1.8075  0.3981
 1740TIP3   OH226634   4.454   3.774   0.160 -0.1990 -0.5320 -0.6899
 1740TIP3    H126635   4.394   3.822   0.102  1.0790  1.0831 -0.7428
 1740TIP3    H226636   4.533   3.828   0.162  1.3729 -2.7328 -0.8377
 1741TIP3   OH226637   1.836   5.279  15.577 -0.3121 -0.0982 -0.0284
 1741TIP3    H126638   1.821   5.188  15.553  1.1816 -0.3044 -0.2865
 1741TIP3    H226639   1.773   5.329  15.525 -1.7248 -1.0210  0.7452
 1742TIP3   OH226640   2.030   1.759  12.924  0.7547 -0.0755 -0.0595
 1742TIP3    H126641   1.967   1.688  12.931 -0.3453  0.5176 -2.6740
 1742TIP3    H226642   2.084   1.737  12.848  2.0934  0.6303  0.6503
 1743TIP3   OH226643   3.264   0.222   6.009 -0.3106 -0.2097 -0.4802
 1743TIP3    H126644   3.274   0.242   6.102  4.1260 -0.8444 -0.6420
 1743TIP3    H226645   3.279   0.305   5.965 -0.7101 -0.2487 -0.6935
 1744TIP3   OH226646   2.183   6.613  13.804  0.3379 -0.3803 -0.1876
 1744TIP3    H126647   2.244   6.685  13.790  0.4300 -0.2406  0.8163
 1744TIP3    H226648   2.124   6.646  13.872  0.3656 -1.2406  0.2589
 1745TIP3   OH226649   1.726   2.764   5.022  0.4364  0.0672  0.3405
 1745TIP3    H126650   1.638   2.801   5.019  0.6332  0.8024  2.3929
 1745TIP3    H226651   1.712   2.669   5.015 -0.4214  0.2384 -0.3943
 1746TIP3   OH226652   3.835   5.612  15.497 -0.2533  0.2444 -0.3567
 1746TIP3    H126653   3.869   5.696  15.464 -0.9620  0.3765 -0.7784
 1746TIP3    H226654   3.747   5.633  15.529 -0.6633 -0.4449 -1.0006
 1747TIP3   OH226655   5.556   4.169   2.165 -0.2996  0.2062  0.0315
 1747TIP3    H126656   5.536   4.241   2.224  0.2365  1.0550 -0.8010
 1747TIP3    H226657   5.577   4.211   2.081  0.8876 -0.8521 -0.2346
 1748TIP3   OH226658   3.223   4.070  15.970  0.5466  0.0729  0.5075
 1748TIP3    H126659   3.220   3.999  15.906 -0.6204  0.6671 -0.1212
 1748TIP3    H226660   3.227   4.026  16.055 -0.5408 -0.7481  0.1385
 1749TIP3   OH226661   3.298   4.749   0.384 -0.3488  0.0137 -0.0936
 1749TIP3    H126662   3.335   4.664   0.406  0.3369  0.2154 -0.4329
 1749TIP3    H226663   3.374   4.808   0.378 -0.8444  0.7406  0.5507
 1750TIP3   OH226664   2.140   0.238   4.773 -0.0221  0.2666  0.1822
 1750TIP3    H126665   2.088   0.257   4.694  1.1077  2.3988 -0.1441
 1750TIP3    H226666   2.205   0.173   4.744 -0.0588  0.5105 -0.4782
 1751TIP3   OH226667   1.410   5.230   1.077  0.3450 -0.2351  0.0390
 1751TIP3    H126668   1.482   5.262   1.022  1.7210  0.8389  2.3000
 1751TIP3    H226669   1.453   5.198   1.157 -1.5357 -1.9608  0.4360
 1752TIP3   OH226670   2.721   0.447   0.878  0.5684  0.0226  0.3253
 1752TIP3    H126671   2.678   0.437   0.963 -0.8548 -1.2884 -0.5024
 1752TIP3    H226672   2.669   0.393   0.818  2.1187  0.1246 -1.1866
 1753TIP3   OH226673   0.276   3.363   4.876 -0.2857 -0.1600 -0.1084
 1753TIP3    H126674   0.208   3.428   4.894  0.6720  1.4065 -1.7679
 1753TIP3    H226675   0.229   3.280   4.870 -1.5428  0.3141  2.1808
 1754TIP3   OH226676   0.968   4.194  13.457  0.2730 -0.3020 -0.0849
 1754TIP3    H126677   0.942   4.111  13.418 -0.9845 -0.3166  0.7556
 1754TIP3    H226678   1.053   4.176  13.498 -0.0429 -1.2047  0.1987
 1755TIP3   OH226679   3.619   5.358  16.174  0.5714 -0.1210  0.5379
 1755TIP3    H126680   3.587   5.407  16.250  1.7450  1.1438  0.2544
 1755TIP3    H226681   3.543   5.310  16.142 -1.8257  4.4400 -1.4934
 1756TIP3   OH226682   4.360   0.797  17.100 -0.4690  0.2219  0.0671
 1756TIP3    H126683   4.337   0.746  17.022 -0.5144  0.5003 -0.1037
 1756TIP3    H226684   4.455   0.809  17.094 -0.3973 -0.1892  0.3209
 1757TIP3   OH226685   1.082   2.650  15.309 -0.1616  0.2822 -0.1543
 1757TIP3    H126686   1.025   2.671  15.235  0.3430 -0.4213 -0.7610
 1757TIP3    H226687   1.117   2.564  15.288  2.3757  1.3429 -0.5639
 1758TIP3   OH226688   0.563   2.746   3.245  0.1849 -0.0518  0.1292
 1758TIP3    H126689   0.517   2.665   3.224  1.3084 -0.5413 -0.5353
 1758TIP3    H226690   0.494   2.804   3.278 -0.3937 -1.7594  2.1143
 1759TIP3   OH226691   4.004   0.916   4.044  0.3367 -0.8369 -0.1576
 1759TIP3    H126692   3.944   0.913   3.969 -1.2981  1.1351  0.9460
 1759TIP3    H226693   3.946   0.922   4.120  1.9313  0.1223  1.0383
 1760TIP3   OH226694   4.071   3.137   4.268 -0.2929  0.2836  0.3303
 1760TIP3    H126695   4.068   3.217   4.321  2.9237  0.6411  0.2129
 1760TIP3    H226696   3.996   3.144   4.209 -0.0208  3.3404  0.1995
 1761TIP3   OH226697   5.114   4.148   1.142  0.0358  0.1252  0.2405
 1761TIP3    H126698   5.153   4.111   1.221  1.5687  1.0065 -0.0553
 1761TIP3    H226699   5.067   4.226   1.173 -2.0270 -1.2164  0.6697
 1762TIP3   OH226700   3.707   2.305  15.966 -0.5841  0.0824 -0.1783
 1762TIP3    H126701   3.649   2.353  16.025 -0.7495 -0.8598  0.4604
 1762TIP3    H226702   3.673   2.324  15.878  0.4804  2.5712 -0.1143
 1763TIP3   OH226703   2.055   2.194  13.010  0.1185  0.4897  0.1590
 1763TIP3    H126704   2.022   2.230  13.093 -0.8343  0.3451 -0.1454
 1763TIP3    H226705   2.127   2.253  12.986  0.3901  0.5505  1.0674
 1764TIP3   OH226706   0.628   0.406   4.605  0.5266 -0.2077 -0.0115
 1764TIP3    H126707   0.608   0.471   4.673  2.8256 -0.2451  0.7926
 1764TIP3    H226708   0.667   0.457   4.534  2.1075 -0.6007  0.5208
 1765TIP3   OH226709   6.262   1.454   6.207 -0.3068  0.0663  0.2545
 1765TIP3    H126710   6.194   1.503   6.253 -0.4444  0.0801  0.0392
 1765TIP3    H226711   6.333   1.446   6.270 -0.5120  0.0444  0.4858
 1766TIP3   OH226712   4.397   0.835  15.894 -0.0096  0.0589  0.1682
 1766TIP3    H126713   4.441   0.880  15.966 -0.3239 -1.9517  1.7123
 1766TIP3    H226714   4.335   0.899  15.860 -0.6556  0.7496  2.4729
 1767TIP3   OH226715   6.151   6.553   1.133  0.1119  0.3458  0.1346
 1767TIP3    H126716   6.076   6.502   1.103  0.7993 -0.7197  0.1744
 1767TIP3    H226717   6.173   6.515   1.218  0.2733  1.1119  0.4417
 1768TIP3   OH226718   6.061   2.351   6.749 -0.2315  0.5746 -0.5003
 1768TIP3    H126719   5.988   2.414   6.754  0.4493  1.2945  1.8331
 1768TIP3    H226720   6.133   2.395   6.794  1.3638 -0.5167 -1.9010
 1769TIP3   OH226721   5.878   5.466   5.518  0.0441 -0.5545  0.1327
 1769TIP3    H126722   5.960   5.455   5.566  0.0796 -0.4196  0.1023
 1769TIP3    H226723   5.866   5.382   5.473  0.4492 -0.3780 -0.3041
 1770TIP3   OH226724   3.798   0.677  11.794  0.4669 -0.1183  0.3898
 1770TIP3    H126725   3.839   0.741  11.736  0.5498  1.0300  1.6526
 1770TIP3    H226726   3.706   0.706  11.800  0.1795 -0.9101 -0.0665
 1771TIP3   OH226727   6.333   4.808  14.876 -0.1104 -0.5672 -0.4376
 1771TIP3    H126728   6.411   4.753  14.864 -0.9338 -2.2634  1.4049
 1771TIP3    H226729   6.330   4.825  14.970 -0.6221  1.6197 -0.7916
 1772TIP3   OH226730   4.474   4.945  16.641  0.3510 -0.1239  0.9553
 1772TIP3    H126731   4.487   5.033  16.676 -0.1097  0.0486  0.7070
 1772TIP3    H226732   4.394   4.952  16.588 -0.0811 -0.8502  1.4925
 1773TIP3   OH226733   5.987   4.672   6.093 -0.0787  0.3096 -0.1065
 1773TIP3    H126734   5.962   4.757   6.129 -2.2433 -0.7359  1.0587
 1773TIP3    H226735   5.904   4.627   6.079  1.0126 -1.5311 -0.9068
 1774TIP3   OH226736   5.533   3.654  16.034  0.2812 -0.1621  0.5968
 1774TIP3    H126737   5.599   3.596  15.997  1.1437  0.4048  1.2058
 1774TIP3    H226738   5.467   3.662  15.965  1.3487  0.0648 -0.4391
 1775TIP3   OH226739   4.805   1.033  17.245 -0.3350  0.0435  0.2720
 1775TIP3    H126740   4.816   1.035  17.340  0.7996  0.2470  0.1434
 1775TIP3    H226741   4.833   1.119  17.215 -0.2589 -0.1731 -0.2939
 1776TIP3   OH226742   5.622   0.345   5.505 -0.6095  0.4538  0.2296
 1776TIP3    H126743   5.564   0.401   5.455  2.4154  3.0106 -0.7704
 1776TIP3    H226744   5.687   0.314   5.441  1.1493  0.6621  1.8244
 1777TIP3   OH226745   3.826   1.644  14.293 -0.6755  0.0358 -0.1031
 1777TIP3    H126746   3.920   1.662  14.301 -1.0900  1.8233  1.1318
 1777TIP3    H226747   3.791   1.658  14.381 -2.2614  0.4068 -0.7597
 1778TIP3   OH226748   4.903   1.496   5.199  0.3319  0.2384  0.6517
 1778TIP3    H126749   4.978   1.469   5.146 -0.4738  0.8196 -0.8389
 1778TIP3    H226750   4.907   1.440   5.277  2.1310  0.0695  0.4710
 1779TIP3   OH226751   5.105   3.443   1.706 -0.0234  0.1292  0.8195
 1779TIP3    H126752   5.110   3.452   1.611  0.1879  0.7935  0.8868
 1779TIP3    H226753   5.187   3.400   1.730  0.6198  1.3174  0.8409
 1780TIP3   OH226754   0.511   4.268   0.537 -0.3009  0.0171 -0.4967
 1780TIP3    H126755   0.536   4.247   0.447  1.3377 -0.5886  0.0635
 1780TIP3    H226756   0.563   4.209   0.591 -1.3362  0.2909  0.8636
 1781TIP3   OH226757   0.071   2.319  16.739 -0.2114 -0.2609  0.3854
 1781TIP3    H126758  -0.008   2.265  16.729  0.0764 -0.7530  0.7390
 1781TIP3    H226759   0.137   2.259  16.774  0.7517 -0.2348 -1.2672
 1782TIP3   OH226760   2.646   4.825   0.833  0.7929 -0.4925 -0.4197
 1782TIP3    H126761   2.631   4.910   0.791 -0.4146  0.7294  2.2842
 1782TIP3    H226762   2.559   4.790   0.848  1.1639 -0.7952  1.1617
 1783TIP3   OH226763   3.409   5.794  16.323 -0.0143 -0.4504  0.1376
 1783TIP3    H126764   3.353   5.870  16.309 -0.0634 -0.6460 -0.8130
 1783TIP3    H226765   3.467   5.792  16.247  1.3770 -0.1930  1.1474
 1784TIP3   OH226766   2.474   1.019  13.002  0.0980 -0.1122  0.1631
 1784TIP3    H126767   2.557   1.039  12.960  0.4666 -1.1756  0.3572
 1784TIP3    H226768   2.474   0.924  13.012 -1.2703 -0.1690 -0.1117
 1785TIP3   OH226769   3.215   2.372  16.747  0.1854  0.6994 -0.8878
 1785TIP3    H126770   3.253   2.336  16.667  0.3592 -0.9797 -0.0837
 1785TIP3    H226771   3.133   2.323  16.759  1.7785 -1.5907  1.7297
 1786TIP3   OH226772   2.122   2.870   0.619  0.0278 -0.0637  0.7509
 1786TIP3    H126773   2.045   2.829   0.579 -0.4936  0.2901  1.3648
 1786TIP3    H226774   2.196   2.822   0.583 -0.5430 -1.2239  1.0605
 1787TIP3   OH226775   1.915   5.100   2.385  0.5540 -0.0182  0.0596
 1787TIP3    H126776   1.983   5.119   2.320 -0.3002  2.3342 -0.2336
 1787TIP3    H226777   1.927   5.165   2.453 -1.0135  0.0818  0.2880
 1788TIP3   OH226778   6.445   3.886  14.672  0.1704 -0.4335 -0.2185
 1788TIP3    H126779   6.531   3.925  14.658  1.1593 -2.2503  0.4132
 1788TIP3    H226780   6.463   3.792  14.681 -1.6933 -0.6966  1.4628
 1789TIP3   OH226781   3.518   5.605   4.720 -0.3108 -0.0213  0.2049
 1789TIP3    H126782   3.597   5.589   4.772 -1.1120 -1.8030  0.9689
 1789TIP3    H226783   3.546   5.666   4.652  1.8049 -0.8137  0.2775
 1790TIP3   OH226784   3.723   0.781  16.887  0.6282 -0.4143 -0.2282
 1790TIP3    H126785   3.772   0.818  16.813  0.3532 -0.4364 -0.4192
 1790TIP3    H226786   3.721   0.851  16.951  0.3985 -0.2109 -0.4572
 1791TIP3   OH226787   1.213   2.501  14.016 -0.4649  0.5385  0.0179
 1791TIP3    H126788   1.125   2.537  14.016 -0.0204  1.7205 -0.9685
 1791TIP3    H226789   1.206   2.420  13.965 -0.8627  0.9816 -0.6482
 1792TIP3   OH226790   6.706   5.136   5.003  0.6406  0.7743  0.1774
 1792TIP3    H126791   6.720   5.077   5.076 -0.5814 -1.1292 -1.0078
 1792TIP3    H226792   6.623   5.180   5.023  0.0024 -0.1816 -0.2869
 1793TIP3   OH226793   0.895   3.475   1.846 -0.1293 -0.1259 -0.5402
 1793TIP3    H126794   0.941   3.402   1.804 -0.5858 -0.1357 -1.0313
 1793TIP3    H226795   0.938   3.484   1.932 -0.0840 -0.9883 -0.4583
 1794TIP3   OH226796   3.744   1.478   2.535 -0.3828  0.3809 -0.1098
 1794TIP3    H126797   3.665   1.455   2.485 -1.4508 -0.5904  1.9081
 1794TIP3    H226798   3.715   1.545   2.597 -0.0597 -1.0702  1.6961
 1795TIP3   OH226799   1.776   4.453   1.853 -0.3074  0.1797  0.3312
 1795TIP3    H126800   1.710   4.503   1.901 -0.1013  0.4509  0.3348
 1795TIP3    H226801   1.784   4.371   1.901 -0.5240  0.2141  0.4260
 1796TIP3   OH226802   1.419   3.214   4.202  0.6992  0.0436  0.0972
 1796TIP3    H126803   1.436   3.177   4.115  0.3402 -1.7344  0.7507
 1796TIP3    H226804   1.482   3.286   4.209  0.4236  0.5345 -1.8037
 1797TIP3   OH226805   0.140   1.964  15.745  0.6942 -0.8182  0.1417
 1797TIP3    H126806   0.197   1.942  15.819  0.1490 -1.0917  0.4893
 1797TIP3    H226807   0.156   2.057  15.729  0.3134 -0.5875  1.0492
 1798TIP3   OH226808   3.353   3.510  10.906  0.6217  0.1171  0.3178
 1798TIP3    H126809   3.382   3.487  10.994 -1.0357  0.1577  0.9155
 1798TIP3    H226810   3.334   3.426  10.864  0.4031  0.1350  0.3778
 1799TIP3   OH226811   0.642   6.404  12.769 -0.1503 -0.0708 -0.0496
 1799TIP3    H126812   0.614   6.491  12.741 -1.2880 -0.4333 -0.0790
 1799TIP3    H226813   0.628   6.403  12.863 -0.9340 -0.4844 -0.1565
 1800TIP3   OH226814   4.793   4.723   5.959  0.1923  0.3529  0.4151
 1800TIP3    H126815   4.746   4.691   6.036  2.1783 -1.9379  0.7844
 1800TIP3    H226816   4.790   4.818   5.967 -2.4933  0.2691  1.4909
 1801TIP3   OH226817   1.359   3.379   0.808  0.0070 -0.4065 -0.2740
 1801TIP3    H126818   1.334   3.395   0.899 -2.0345  1.3995 -1.0805
 1801TIP3    H226819   1.316   3.296   0.786  1.0634 -1.2068  0.5482
 1802TIP3   OH226820   4.712   2.481   5.505 -0.1892  0.2674 -0.9741
 1802TIP3    H126821   4.687   2.438   5.423 -1.2414 -1.1375  0.0338
 1802TIP3    H226822   4.768   2.553   5.478  0.0123 -0.5455 -2.8901
 1803TIP3   OH226823   3.447   5.029  14.464 -0.2080 -0.0249 -0.0293
 1803TIP3    H126824   3.379   5.071  14.412 -1.2475 -1.4310  0.1031
 1803TIP3    H226825   3.441   5.070  14.550 -0.1029  0.6538 -0.3439
 1804TIP3   OH226826   1.933   2.592  13.272  0.2462  0.3540  0.0699
 1804TIP3    H126827   2.002   2.586  13.206  1.8368  1.7218  1.5183
 1804TIP3    H226828   1.866   2.647  13.232  1.6063  1.9396 -0.1140
 1805TIP3   OH226829   4.307   5.001   5.384  0.0251 -0.0961 -0.1151
 1805TIP3    H126830   4.247   4.988   5.311 -0.2883  0.6932 -0.0037
 1805TIP3    H226831   4.324   4.912   5.416 -0.2656 -0.4056 -0.7939
 1806TIP3   OH226832   4.325   5.742  12.806  0.0449  0.5373 -0.2961
 1806TIP3    H126833   4.361   5.756  12.718  0.0096 -1.2132 -0.6238
 1806TIP3    H226834   4.389   5.686  12.850 -1.0555 -0.5684 -0.0404
 1807TIP3   OH226835   3.123   5.013  12.109 -0.3825  0.3380 -0.5599
 1807TIP3    H126836   3.218   5.010  12.115 -0.4481  0.6742  0.8426
 1807TIP3    H226837   3.098   5.091  12.158 -1.4594 -0.3913  0.0843
 1808TIP3   OH226838   1.563   1.045   3.481 -0.1571 -0.3093 -0.2838
 1808TIP3    H126839   1.629   1.105   3.445 -0.1280  0.8237  1.5498
 1808TIP3    H226840   1.492   1.046   3.417  0.0689  1.3094 -0.5401
 1809TIP3   OH226841   1.529   4.056  15.971 -0.2558 -0.4053 -0.5720
 1809TIP3    H126842   1.550   4.103  15.890  0.0546 -1.2623 -1.0050
 1809TIP3    H226843   1.578   3.974  15.964 -0.4146 -0.5856  0.3840
 1810TIP3   OH226844   6.434   0.858  12.746 -0.1601  0.5008 -0.3279
 1810TIP3    H126845   6.403   0.948  12.755  0.5181  0.7874 -0.8077
 1810TIP3    H226846   6.529   0.865  12.740 -0.0792 -0.2688 -0.1022
 1811TIP3   OH226847   2.007   3.903  11.223 -0.4403 -0.4036  0.5330
 1811TIP3    H126848   1.932   3.960  11.237 -1.0433 -1.2326  0.8195
 1811TIP3    H226849   2.065   3.920  11.298 -1.4337 -1.3886  1.5803
 1812TIP3   OH226850   6.365   4.245   4.900 -0.5772  0.2681  0.3928
 1812TIP3    H126851   6.428   4.272   4.834 -0.1492  0.3166  0.8174
 1812TIP3    H226852   6.357   4.320   4.959 -0.4447 -0.0152  0.7785
 1813TIP3   OH226853   0.207   1.277  14.599  0.3154 -0.3826  0.1058
 1813TIP3    H126854   0.247   1.258  14.515 -3.6721  0.3690 -2.2254
 1813TIP3    H226855   0.227   1.200  14.653  6.0911  0.6348  0.0703
 1814TIP3   OH226856   3.461   1.017   2.693 -0.7187  0.7309 -0.2716
 1814TIP3    H126857   3.380   1.045   2.735 -1.0357  2.2053 -1.7567
 1814TIP3    H226858   3.529   1.066   2.738 -0.3309 -1.7932  2.1783
 1815TIP3   OH226859   3.417   1.182  17.042 -0.4849  0.7129  0.1074
 1815TIP3    H126860   3.408   1.092  17.073 -0.3853  1.7606  3.6426
 1815TIP3    H226861   3.511   1.194  17.032 -0.4717  0.5544  0.0285
 1816TIP3   OH226862   5.235   4.270  11.356 -0.4386  0.1419  0.6284
 1816TIP3    H126863   5.198   4.278  11.444 -0.4582 -0.4654  0.6775
 1816TIP3    H226864   5.291   4.347  11.347  0.3400 -0.3000  1.5486
 1817TIP3   OH226865   4.417   0.149  17.190  0.7894 -0.1411  0.2442
 1817TIP3    H126866   4.509   0.125  17.175  1.1693  1.0269  0.6140
 1817TIP3    H226867   4.392   0.101  17.269  1.1824 -0.1832  0.3431
 1818TIP3   OH226868   4.383   2.950  12.734  0.1838 -0.4931  0.2185
 1818TIP3    H126869   4.296   2.915  12.754  0.1275 -0.8435 -0.5799
 1818TIP3    H226870   4.379   3.042  12.760  0.1095 -0.8886  1.7078
 1819TIP3   OH226871   1.984   3.080   3.407 -0.1688  0.6989 -0.4061
 1819TIP3    H126872   2.066   3.126   3.427  1.5189 -1.1514 -2.4525
 1819TIP3    H226873   1.944   3.132   3.337 -0.5586  1.4162  0.3480
 1820TIP3   OH226874   6.038   3.351   6.342  0.4401 -0.4189  0.1764
 1820TIP3    H126875   6.000   3.276   6.388  0.1940  0.3277  1.2241
 1820TIP3    H226876   5.998   3.428   6.383 -0.4323  0.2767 -1.8595
 1821TIP3   OH226877   0.729   6.728   4.753 -0.3677  0.1653  0.2284
 1821TIP3    H126878   0.734   6.803   4.813 -0.1261 -1.3650  2.2097
 1821TIP3    H226879   0.646   6.685   4.776  0.8278 -1.7597  1.1221
 1822TIP3   OH226880   1.676   4.542  15.642  0.5643  0.1191  0.1459
 1822TIP3    H126881   1.708   4.455  15.666  0.8741 -0.3881 -1.9600
 1822TIP3    H226882   1.743   4.577  15.584 -1.2179  0.2556 -1.9433
 1823TIP3   OH226883   3.680   0.706   4.584 -0.1287  0.1943 -0.2249
 1823TIP3    H126884   3.615   0.654   4.632  1.2674 -0.5314  0.9335
 1823TIP3    H226885   3.737   0.642   4.543  0.2384  0.8313 -0.7252
 1824TIP3   OH226886   3.794   6.111   5.247 -0.0953 -0.0599  0.3359
 1824TIP3    H126887   3.767   6.166   5.320  2.2592 -0.4722  1.6028
 1824TIP3    H226888   3.827   6.031   5.287  1.9593 -0.0024 -1.0996
 1825TIP3   OH226889   6.130   3.253  12.278  0.4421  0.5436 -0.5271
 1825TIP3    H126890   6.202   3.255  12.215  2.3507  0.1047  1.5393
 1825TIP3    H226891   6.122   3.161  12.303  0.8371  0.9183  1.0703
 1826TIP3   OH226892   4.416   0.738  14.118  0.5045  0.3495  0.6202
 1826TIP3    H126893   4.465   0.811  14.080  1.5318 -0.1835  0.9003
 1826TIP3    H226894   4.351   0.716  14.051  1.5449  0.1659 -0.3608
 1827TIP3   OH226895   3.144   2.353  13.879  0.1429 -0.1149  0.6118
 1827TIP3    H126896   3.085   2.309  13.940 -0.6607  0.8544  0.5539
 1827TIP3    H226897   3.162   2.438  13.921 -0.5714  0.6450 -0.5766
 1828TIP3   OH226898   3.730   1.132   0.195  0.0227  0.1014  0.1849
 1828TIP3    H126899   3.692   1.044   0.201 -1.7200  0.6099 -1.9538
 1828TIP3    H226900   3.817   1.118   0.159  0.4891 -0.8451  1.6097
 1829TIP3   OH226901   3.147   3.239  11.674  0.1600  0.1219 -0.1389
 1829TIP3    H126902   3.170   3.315  11.727  0.1171  0.3020 -0.3756
 1829TIP3    H226903   3.115   3.276  11.592 -1.6572 -0.0823  0.4273
 1830TIP3   OH226904   3.828   6.567  12.720 -0.1626 -0.2792  0.9149
 1830TIP3    H126905   3.803   6.651  12.756 -0.9201 -0.3200  0.5023
 1830TIP3    H226906   3.902   6.538  12.774 -0.1290  0.4749  1.2793
 1831TIP3   OH226907   4.350   1.068  13.384  0.4118  0.1422  0.1637
 1831TIP3    H126908   4.327   1.128  13.313 -0.6634  0.2824  0.6107
 1831TIP3    H226909   4.268   1.021  13.403  0.1731  1.3748  2.5210
 1832TIP3   OH226910   6.485   5.112   1.216  0.0232 -0.3610 -0.2240
 1832TIP3    H126911   6.522   5.175   1.154 -0.9285  0.3946 -0.0634
 1832TIP3    H226912   6.541   5.035   1.209  1.3990  0.6008 -0.2085
 1833TIP3   OH226913   0.260   2.397   0.823 -1.0220  0.0788 -0.0607
 1833TIP3    H126914   0.281   2.400   0.729 -0.8125 -0.6949 -0.0513
 1833TIP3    H226915   0.205   2.473   0.838 -1.2177  0.1063 -0.8626
 1834TIP3   OH226916   6.392   1.870  16.886  0.2204  0.0813 -0.2132
 1834TIP3    H126917   6.357   1.863  16.797  1.0554 -1.1371 -0.4660
 1834TIP3    H226918   6.316   1.855  16.942 -0.1556  0.0533 -0.7178
 1835TIP3   OH226919   3.122   6.334  16.476  0.3031 -0.7522  0.0273
 1835TIP3    H126920   3.113   6.265  16.541  0.2433 -0.6375  0.1424
 1835TIP3    H226921   3.119   6.289  16.392 -1.3482 -0.7317  0.0399
 1836TIP3   OH226922   2.350   2.441   3.168 -0.0452  0.2516 -0.2842
 1836TIP3    H126923   2.262   2.472   3.188 -0.2836 -0.0432 -0.8565
 1836TIP3    H226924   2.359   2.451   3.074  0.6602  0.5924 -0.1855
 1837TIP3   OH226925   6.747   2.652  12.782 -0.1730 -0.0259  0.2327
 1837TIP3    H126926   6.730   2.720  12.717 -0.8065  0.4740  0.8944
 1837TIP3    H226927   6.739   2.698  12.866 -0.9979 -0.9983  0.7033
 1838TIP3   OH226928   4.688   4.781  16.687 -0.3447  0.0863  0.0200
 1838TIP3    H126929   4.725   4.805  16.772  0.2444  1.4501 -0.5932
 1838TIP3    H226930   4.610   4.835  16.678 -0.1562  0.2845 -0.4920
 1839TIP3   OH226931   5.878   0.074   4.964 -0.3039 -0.1921 -0.0071
 1839TIP3    H126932   5.880   0.041   5.054  0.7973  0.6265  0.2912
 1839TIP3    H226933   5.891   0.168   4.973 -3.0811  0.3753 -0.8568
 1840TIP3   OH226934   6.250   6.141  13.702 -0.2542 -0.6101 -0.1582
 1840TIP3    H126935   6.251   6.051  13.735  1.0876 -0.2106  0.9800
 1840TIP3    H226936   6.208   6.192  13.771 -2.4255 -0.5320 -1.4402
 1841TIP3   OH226937   4.384   4.528  15.882  0.2450  0.2550  0.2002
 1841TIP3    H126938   4.320   4.456  15.882 -0.1930  0.6296 -0.5794
 1841TIP3    H226939   4.460   4.492  15.838  0.3025  0.0414  0.4684
 1842TIP3   OH226940   1.768   3.611   4.026  0.4632 -0.1032  0.2530
 1842TIP3    H126941   1.702   3.678   4.043  0.1994 -0.2631 -0.1228
 1842TIP3    H226942   1.826   3.650   3.961 -0.2434 -0.5838 -0.6871
 1843TIP3   OH226943   0.503   2.780   4.999 -0.4281 -0.2145  0.1288
 1843TIP3    H126944   0.480   2.810   4.911 -0.4429  1.1160  0.5633
 1843TIP3    H226945   0.424   2.735   5.030 -0.7527  0.1331 -0.1800
 1844TIP3   OH226946   5.039   2.994  16.443 -0.2635  0.2189 -0.3545
 1844TIP3    H126947   5.092   3.024  16.517  2.1137  0.0993 -1.8965
 1844TIP3    H226948   5.034   2.899  16.455 -0.1800  0.2364 -0.1770
 1845TIP3   OH226949   1.718   0.689   1.434 -0.1048 -0.1052 -0.9075
 1845TIP3    H126950   1.664   0.697   1.512 -1.5918  0.7115 -1.9577
 1845TIP3    H226951   1.780   0.761   1.440 -3.5832  3.4279 -2.8915
 1846TIP3   OH226952   2.639   6.253   0.341  0.2742 -0.0285  0.1688
 1846TIP3    H126953   2.679   6.338   0.323  0.8678 -0.1864  0.7053
 1846TIP3    H226954   2.708   6.189   0.323  0.3494 -0.2919  1.3106
 1847TIP3   OH226955   6.676   5.488   2.088 -0.4432  0.1020  0.2294
 1847TIP3    H126956   6.708   5.466   2.001  0.3389  2.2457 -0.1004
 1847TIP3    H226957   6.711   5.420   2.145  0.9276 -0.1045 -0.8149
 1848TIP3   OH226958   6.440   2.678  10.954 -0.3964 -0.0489  0.7290
 1848TIP3    H126959   6.444   2.760  11.003 -0.1107  0.2360  0.2395
 1848TIP3    H226960   6.530   2.663  10.925 -0.7992  0.5848 -0.9777
 1849TIP3   OH226961   6.400   6.198  12.161  0.0744  0.3555 -0.4154
 1849TIP3    H126962   6.319   6.147  12.174  0.3949  0.0117  0.2770
 1849TIP3    H226963   6.409   6.249  12.242  0.5098  0.4482 -0.5236
 1850TIP3   OH226964   5.786   6.623  16.254  0.3156 -0.0126 -0.1603
 1850TIP3    H126965   5.799   6.717  16.243 -0.3852 -0.0333 -1.2290
 1850TIP3    H226966   5.860   6.595  16.309  0.3585  1.2016  0.4199
 1851TIP3   OH226967   6.550   2.997  16.227  0.4884 -0.6608  0.3124
 1851TIP3    H126968   6.549   3.041  16.142  0.4172  1.2045  1.2188
 1851TIP3    H226969   6.480   2.932  16.221  0.3861 -0.4618 -0.9919
 1852TIP3   OH226970   1.330   6.242  16.212  0.3700  0.2921 -0.1346
 1852TIP3    H126971   1.297   6.305  16.148  1.0380 -0.0882 -0.8657
 1852TIP3    H226972   1.269   6.248  16.286  0.0297  1.2838 -0.4894
 1853TIP3   OH226973   6.621   5.152  13.561  0.3214  0.2318 -0.0802
 1853TIP3    H126974   6.690   5.157  13.495  0.7210 -1.3283  0.1759
 1853TIP3    H226975   6.600   5.243  13.581  0.3923  0.7575 -2.1326
 1854TIP3   OH226976   5.746   4.698   2.618  0.3598  0.3376 -0.5199
 1854TIP3    H126977   5.770   4.730   2.705 -1.1017  1.1192 -0.3778
 1854TIP3    H226978   5.707   4.612   2.633  0.7060  0.1824 -0.4891
 1855TIP3   OH226979   2.252   5.810   1.662 -0.3436 -0.1422  0.3010
 1855TIP3    H126980   2.262   5.764   1.745  0.8170  0.2374  0.3891
 1855TIP3    H226981   2.262   5.743   1.595  1.8994 -0.0038  0.4093
 1856TIP3   OH226982   2.987   1.264  15.234  0.3620 -1.0618 -0.2397
 1856TIP3    H126983   2.991   1.271  15.329 -2.0412 -0.7574 -0.0986
 1856TIP3    H226984   3.049   1.194  15.212  1.3647 -0.7632  1.4657
 1857TIP3   OH226985   2.768   5.643   4.612 -0.1792 -0.5315  0.2883
 1857TIP3    H126986   2.761   5.555   4.575 -2.3212 -1.9731  3.6232
 1857TIP3    H226987   2.840   5.637   4.674  0.1082  0.2898  0.0440
 1858TIP3   OH226988   0.399   6.462  17.166  0.0021  0.4216 -0.1954
 1858TIP3    H126989   0.398   6.479  17.072 -0.2349 -0.0054 -0.2706
 1858TIP3    H226990   0.412   6.367  17.173  0.8806  0.5586  0.2143
 1859TIP3   OH226991   4.702   4.713  16.049  0.4989 -0.2999  0.2685
 1859TIP3    H126992   4.614   4.745  16.027  0.7664  0.5052  0.3133
 1859TIP3    H226993   4.690   4.620  16.067 -0.3251 -0.2278  0.1461
 1860TIP3   OH226994   1.877   2.535   1.308 -0.1041 -0.9013 -0.6210
 1860TIP3    H126995   1.875   2.628   1.285  1.9260 -0.3021  1.2703
 1860TIP3    H226996   1.958   2.503   1.270  1.1719 -0.8860  1.8738
 1861TIP3   OH226997   2.775   2.643  15.146 -0.2211  0.4996  0.4662
 1861TIP3    H126998   2.762   2.666  15.238  1.1600  0.1265  0.7734
 1861TIP3    H226999   2.692   2.603  15.119  0.0986 -1.4856  2.2170
 1862TIP3   OH227000   6.572   1.968  10.758  0.4491 -0.4602  0.1716
 1862TIP3    H127001   6.594   2.051  10.716  1.1266 -2.2469 -3.4390
 1862TIP3    H227002   6.650   1.913  10.744 -0.1144 -1.8373  2.1016
 1863TIP3   OH227003   4.453   0.645  15.358  0.0902  0.4308  1.2849
 1863TIP3    H127004   4.394   0.713  15.391  1.1174  1.9906  0.0197
 1863TIP3    H227005   4.518   0.692  15.306  1.4856 -1.4135  1.2561
 1864TIP3   OH227006   4.299   0.435  11.753 -0.8106  0.1550  0.1882
 1864TIP3    H127007   4.295   0.518  11.706  1.3302  0.7302  0.8957
 1864TIP3    H227008   4.230   0.440  11.818  0.3271  2.1782  1.3537
 1865TIP3   OH227009   2.087   6.168  16.161 -0.2701  0.0175 -0.1756
 1865TIP3    H127010   2.057   6.167  16.070 -1.8004  0.2414  0.3054
 1865TIP3    H227011   2.166   6.223  16.159 -0.9091  0.9421 -1.1817
 1866TIP3   OH227012   2.633   0.041   0.781  0.1159 -0.1963 -0.1935
 1866TIP3    H127013   2.577  -0.034   0.799 -0.0443 -0.0926 -0.2535
 1866TIP3    H227014   2.681   0.017   0.701  1.6855 -1.1321  0.9737
 1867TIP3   OH227015   2.266   5.097   6.122  0.5201 -0.3207  0.1801
 1867TIP3    H127016   2.233   5.012   6.153 -0.5514  0.4526  1.2617
 1867TIP3    H227017   2.189   5.139   6.083  0.9198  0.3416  0.0980
 1868TIP3   OH227018   6.350   0.004   4.495 -0.4230  0.0032 -0.1375
 1868TIP3    H127019   6.328  -0.075   4.546  1.5843 -1.3118 -1.1600
 1868TIP3    H227020   6.414   0.050   4.549 -1.3634  0.7981  0.3190
 1869TIP3   OH227021   3.036   0.922  14.399  0.7355  0.7500 -0.3353
 1869TIP3    H127022   3.054   0.834  14.430  0.2701  0.0292 -1.9879
 1869TIP3    H227023   3.028   0.913  14.304  0.2983  2.5045 -0.5051
 1870TIP3   OH227024   0.417   1.482   2.801  0.6706 -1.2227 -0.6254
 1870TIP3    H127025   0.325   1.476   2.776  1.1688 -0.3413 -2.9576
 1870TIP3    H227026   0.420   1.554   2.864 -0.4491 -2.5495  1.0517
 1871TIP3   OH227027   2.687   5.926   5.710  1.0394 -0.6535  0.2192
 1871TIP3    H127028   2.728   5.946   5.794  0.7505  0.5963  0.0856
 1871TIP3    H227029   2.692   6.008   5.660  0.2716 -1.0728 -0.5872
 1872TIP3   OH227030   6.048   3.831  11.935 -0.0471  0.4827  0.0819
 1872TIP3    H127031   5.979   3.824  12.001  0.1052  0.1083  0.2018
 1872TIP3    H227032   6.014   3.784  11.859  0.4720 -0.5559  0.4728
 1873TIP3   OH227033   5.575   6.071  15.091 -0.4091  0.7437  0.4252
 1873TIP3    H127034   5.540   6.111  15.171 -1.5083  1.8608 -0.5841
 1873TIP3    H227035   5.521   6.106  15.020  0.6367 -0.1062 -0.8462
 1874TIP3   OH227036   2.547   6.104  13.379 -0.2033  1.2620 -0.2009
 1874TIP3    H127037   2.556   6.160  13.456 -0.0373 -0.2416  0.9045
 1874TIP3    H227038   2.551   6.165  13.305  0.3193  2.6702  0.9397
 1875TIP3   OH227039   3.974   0.275   3.760 -0.5160  0.6380 -0.3097
 1875TIP3    H127040   3.962   0.357   3.808  0.0440  0.0641  0.8452
 1875TIP3    H227041   4.030   0.299   3.686  0.0230  1.2143  0.2723
 1876TIP3   OH227042   4.417   2.258  13.767  0.1271 -0.2888 -0.8248
 1876TIP3    H127043   4.425   2.179  13.821 -0.2427 -1.8246 -2.8506
 1876TIP3    H227044   4.506   2.294  13.764 -0.3355  1.7350  3.2372
 1877TIP3   OH227045   4.801   3.843   2.826 -0.0689  0.4894  0.0778
 1877TIP3    H127046   4.768   3.932   2.829 -1.2169  0.0593  0.9100
 1877TIP3    H227047   4.726   3.790   2.800  1.2222  0.0202 -3.1547
 1878TIP3   OH227048   6.627   3.450   2.615  0.0747 -0.1724 -0.8938
 1878TIP3    H127049   6.595   3.520   2.672  1.3499 -0.5901  0.3975
 1878TIP3    H227050   6.591   3.370   2.653 -2.6397 -0.2269 -3.2214
 1879TIP3   OH227051   2.571   1.298  11.217  0.0600 -0.3686 -0.7310
 1879TIP3    H127052   2.658   1.306  11.257  0.1822 -0.3339 -1.0060
 1879TIP3    H227053   2.511   1.302  11.291  0.2019  1.2192 -0.6680
 1880TIP3   OH227054   2.412   1.930   5.102  0.0725  0.0772  0.2750
 1880TIP3    H127055   2.489   1.973   5.064  0.2484 -0.1657  0.3563
 1880TIP3    H227056   2.381   1.992   5.168 -0.8714  1.0057 -0.9732
 1881TIP3   OH227057   6.643   3.574   5.573 -0.1922 -0.3408  0.4666
 1881TIP3    H127058   6.691   3.655   5.556 -0.4837 -0.0757  0.8737
 1881TIP3    H227059   6.615   3.544   5.487 -0.5609  0.2926  0.3568
 1882TIP3   OH227060   6.229   3.571  16.260  0.3497 -0.5574  0.2647
 1882TIP3    H127061   6.318   3.537  16.254 -0.5667 -3.0891 -0.3504
 1882TIP3    H227062   6.207   3.597  16.171  0.1012 -1.0102  0.1901
 1883TIP3   OH227063   2.108   1.257  17.052  0.0309 -0.0670  0.4518
 1883TIP3    H127064   2.169   1.225  16.985 -0.4329 -0.7391  0.3386
 1883TIP3    H227065   2.089   1.347  17.026 -0.5703 -0.4886 -0.6517
 1884TIP3   OH227066   3.071   1.821  11.114 -0.0091 -0.6167  0.1627
 1884TIP3    H127067   2.990   1.820  11.063 -1.4678 -0.4956  2.2974
 1884TIP3    H227068   3.099   1.912  11.112 -0.5770 -0.4312  0.3252
 1885TIP3   OH227069   0.882   4.274  13.866 -0.5821  0.6592  0.6650
 1885TIP3    H127070   0.877   4.367  13.844 -1.9219  0.4395 -0.0846
 1885TIP3    H227071   0.972   4.250  13.849 -0.6444  1.4254 -0.8687
 1886TIP3   OH227072   0.661   0.050   6.208 -0.5028  0.7314  0.3420
 1886TIP3    H127073   0.694  -0.032   6.245 -3.1040 -1.0328 -0.9893
 1886TIP3    H227074   0.706   0.059   6.124 -0.1668  0.7209  0.5202
 1887TIP3   OH227075   1.977   5.512  13.148  0.2541 -0.2715  0.1675
 1887TIP3    H127076   1.953   5.541  13.060  1.3471 -2.1284 -0.8006
 1887TIP3    H227077   1.906   5.452  13.173 -0.0733  0.2814  0.5862
 1888TIP3   OH227078   5.938   0.259   4.502 -0.1267 -0.3512  0.4466
 1888TIP3    H127079   5.981   0.226   4.423 -0.7013  0.4597 -0.2229
 1888TIP3    H227080   5.966   0.199   4.571  0.2392 -1.1874 -0.4013
 1889TIP3   OH227081   0.492   3.059  12.250  0.1189  0.1914 -0.2080
 1889TIP3    H127082   0.508   3.078  12.343 -0.9778  1.3399 -0.2335
 1889TIP3    H227083   0.397   3.055  12.243  0.2109 -1.1791 -1.0564
 1890TIP3   OH227084   2.160   5.248  17.329 -0.0280 -0.0169 -0.6447
 1890TIP3    H127085   2.068   5.253  17.302 -0.4593  0.9165  0.8641
 1890TIP3    H227086   2.157   5.201  17.412  0.7647  0.7499 -0.1775
 1891TIP3   OH227087   5.910   3.840   2.117  0.0940  0.6319  0.1028
 1891TIP3    H127088   5.945   3.894   2.188  0.4890  1.2090 -0.5218
 1891TIP3    H227089   5.976   3.844   2.049 -0.6158  0.6851 -0.5949
 1892TIP3   OH227090   5.675   1.710   3.558 -0.2155 -0.0809 -0.1317
 1892TIP3    H127091   5.750   1.653   3.579  0.5318  1.6033  2.1374
 1892TIP3    H227092   5.711   1.775   3.498 -0.5837 -0.7877 -1.1554
 1893TIP3   OH227093   1.028   2.647  12.838  0.1032 -0.1067 -0.5727
 1893TIP3    H127094   0.961   2.580  12.820  0.3867 -0.7567  0.6577
 1893TIP3    H227095   1.078   2.653  12.757 -0.3914 -0.8418 -0.9521
 1894TIP3   OH227096   1.014   6.600  11.998 -0.7173 -0.1195  0.0077
 1894TIP3    H127097   0.949   6.656  11.955  1.6687  2.4457 -0.5397
 1894TIP3    H227098   1.033   6.644  12.080  0.2154 -0.8976  0.2288
 1895TIP3   OH227099   5.720   4.162  13.540  0.5686  0.4806 -0.4288
 1895TIP3    H127100   5.726   4.081  13.489  0.7275 -0.4686  1.0414
 1895TIP3    H227101   5.811   4.187  13.556  0.6770 -1.1035  2.1503
 1896TIP3   OH227102   6.334   0.937   0.162 -0.4271 -0.3033 -0.6522
 1896TIP3    H127103   6.268   0.974   0.220 -0.0253  1.8247 -1.4808
 1896TIP3    H227104   6.360   0.855   0.204 -1.1031  0.5116  1.4637
 1897TIP3   OH227105   4.333   3.645   1.009 -0.3626 -0.0976  0.7790
 1897TIP3    H127106   4.360   3.706   1.078  0.4496  0.1070  0.3002
 1897TIP3    H227107   4.317   3.563   1.054 -0.3483  0.1692  1.2796
 1898TIP3   OH227108   2.744   1.946   6.038 -0.4857 -0.2270  0.1899
 1898TIP3    H127109   2.671   2.000   6.008 -0.7080  0.0059  1.1334
 1898TIP3    H227110   2.772   1.899   5.959  0.1089  1.6824 -0.7819
 1899TIP3   OH227111   3.614   6.577   3.936 -0.0810  0.6390 -0.1328
 1899TIP3    H127112   3.563   6.658   3.940 -2.4773 -0.8015  0.9970
 1899TIP3    H227113   3.668   6.586   3.857  0.3181  3.5889  0.3620
 1900TIP3   OH227114   4.964   2.181   2.038 -0.3906  0.2309  0.6149
 1900TIP3    H127115   4.924   2.128   2.107 -0.0569 -1.0285 -0.1231
 1900TIP3    H227116   5.056   2.154   2.037 -0.3976  0.1808 -0.3388
 1901TIP3   OH227117   2.771   2.923  14.267  0.1109 -0.4844  0.3487
 1901TIP3    H127118   2.727   2.843  14.295  0.2922 -0.3435  1.0682
 1901TIP3    H227119   2.705   2.971  14.218 -0.0784 -0.9541  0.1318
 1902TIP3   OH227120   2.351   5.608  16.397 -0.5372 -0.3452  0.1853
 1902TIP3    H127121   2.410   5.680  16.420  0.0028 -0.6599 -0.1886
 1902TIP3    H227122   2.343   5.556  16.477 -1.9326  0.7935  0.8444
 1903TIP3   OH227123   5.505   5.596   1.998  0.0363  0.3308 -0.5857
 1903TIP3    H127124   5.592   5.626   1.972  0.0446  2.3815  1.5213
 1903TIP3    H227125   5.448   5.672   1.986 -0.9943 -0.2885  0.2111
 1904TIP3   OH227126   5.328   4.863   4.773 -0.2560 -0.3246 -0.2662
 1904TIP3    H127127   5.362   4.773   4.776 -1.5911 -0.8362  0.7727
 1904TIP3    H227128   5.344   4.897   4.861 -1.6603 -0.3030 -0.0057
 1905TIP3   OH227129   3.597   5.450   3.395 -0.0890  0.2440  0.1393
 1905TIP3    H127130   3.619   5.538   3.367 -0.8021  1.5544  3.2816
 1905TIP3    H227131   3.504   5.454   3.418 -0.0140 -1.1734  0.8090
 1906TIP3   OH227132   4.461   2.435   2.433 -0.4795  0.2676 -0.1303
 1906TIP3    H127133   4.527   2.370   2.455  0.8798  0.6351 -2.7118
 1906TIP3    H227134   4.426   2.463   2.517  1.5268 -1.0955  1.2562
 1907TIP3   OH227135   4.032   5.953   4.861 -0.3423  0.5022 -0.0807
 1907TIP3    H127136   3.938   5.968   4.857 -0.5324 -0.4713  0.3969
 1907TIP3    H227137   4.046   5.871   4.814 -0.3301 -1.6107  3.2173
 1908TIP3   OH227138   5.563   2.337   2.036 -0.0429  0.4324 -0.5390
 1908TIP3    H127139   5.604   2.264   2.083  1.0763  1.2681 -0.1757
 1908TIP3    H227140   5.604   2.336   1.950 -0.7477  0.0534 -0.8894
 1909TIP3   OH227141   1.907   0.338  13.785 -0.1276 -0.3668  0.3816
 1909TIP3    H127142   1.863   0.263  13.826 -1.8746 -0.1553 -0.9840
 1909TIP3    H227143   1.874   0.414  13.833 -1.7116 -0.1681 -0.9518
 1910TIP3   OH227144   0.207   6.585   3.546 -0.3403 -0.3293 -0.2673
 1910TIP3    H127145   0.139   6.521   3.569 -0.4601 -0.6634 -1.5198
 1910TIP3    H227146   0.248   6.549   3.468  0.8509  0.2029  0.0901
 1911TIP3   OH227147   0.029   2.738  14.565  0.3957 -0.5604 -0.5614
 1911TIP3    H127148  -0.015   2.805  14.513 -0.8544 -1.3995 -0.6188
 1911TIP3    H227149   0.038   2.776  14.652  0.6535  0.0680 -0.8599
 1912TIP3   OH227150   2.717   2.600  16.795  0.2455 -0.2446 -0.6891
 1912TIP3    H127151   2.770   2.633  16.868  0.2449  0.0487 -0.8173
 1912TIP3    H227152   2.781   2.566  16.732  0.2418 -0.5887 -0.5100
 1913TIP3   OH227153   5.604   5.261   2.651 -0.1990  0.2889 -0.2142
 1913TIP3    H127154   5.697   5.284   2.657 -0.4070  0.9493  0.6263
 1913TIP3    H227155   5.586   5.256   2.557  0.8767 -0.6598 -0.3925
 1914TIP3   OH227156   5.542   3.088   5.054 -0.0433  0.0311  0.2259
 1914TIP3    H127157   5.626   3.121   5.023 -0.6341  2.0414  0.6240
 1914TIP3    H227158   5.477   3.146   5.015 -1.2326 -1.1828  0.3181
 1915TIP3   OH227159   1.335   5.871   4.475  0.5495  0.1275 -0.1255
 1915TIP3    H127160   1.419   5.867   4.522  1.2260 -0.8497 -1.3579
 1915TIP3    H227161   1.273   5.828   4.534  1.6729 -2.3691 -0.6052
 1916TIP3   OH227162   3.107   1.721   0.565  0.4210 -0.1235  0.1879
 1916TIP3    H127163   3.062   1.796   0.602 -0.7367  1.1830 -3.4273
 1916TIP3    H227164   3.195   1.753   0.546  0.1910  0.0844 -0.5635
 1917TIP3   OH227165   0.287   2.090   3.800  0.1434 -0.0573 -0.3517
 1917TIP3    H127166   0.334   2.090   3.717 -0.5624 -2.1358 -0.8193
 1917TIP3    H227167   0.278   1.997   3.822  0.6411  0.4366  2.2573
 1918TIP3   OH227168   5.282   3.831   0.402  0.2225  0.2579  0.0885
 1918TIP3    H127169   5.373   3.805   0.416 -0.5026 -1.3294  2.2744
 1918TIP3    H227170   5.231   3.756   0.430 -1.8057  0.8149 -1.8193
 1919TIP3   OH227171   0.362   0.673  13.433 -0.2112  0.1867  0.6598
 1919TIP3    H127172   0.287   0.616  13.414 -0.4271  0.2146  1.4023
 1919TIP3    H227173   0.328   0.762  13.423 -0.0084  0.1933  0.0050
 1920TIP3   OH227174   3.322   1.715  16.498 -0.5427 -0.5043 -0.1110
 1920TIP3    H127175   3.268   1.780  16.544  0.1215  0.3697 -0.5368
 1920TIP3    H227176   3.323   1.639  16.557 -0.5395  0.2277  0.8610
 1921TIP3   OH227177   5.615   0.701  14.685  0.0561 -0.6327 -0.6262
 1921TIP3    H127178   5.659   0.721  14.767  0.4785 -1.2945 -0.6839
 1921TIP3    H227179   5.674   0.731  14.616 -0.7802  0.9288 -0.7017
 1922TIP3   OH227180   1.521   1.809   3.616  0.2844 -0.2749  0.7361
 1922TIP3    H127181   1.605   1.825   3.660  1.0589 -1.0318 -0.4315
 1922TIP3    H227182   1.500   1.892   3.573  0.7954 -0.3007  0.4359
 1923TIP3   OH227183   3.746   3.379   1.359 -0.1533 -0.6026 -0.3351
 1923TIP3    H127184   3.678   3.383   1.426 -0.4135 -0.2201 -0.6150
 1923TIP3    H227185   3.823   3.416   1.402 -0.1796 -0.8379 -0.0838
 1924TIP3   OH227186   4.976   0.509   4.712  0.2354 -0.4071 -0.9059
 1924TIP3    H127187   5.009   0.538   4.797 -1.1348  0.3368 -0.5983
 1924TIP3    H227188   4.924   0.582   4.679  2.2284  0.0612 -3.2897
 1925TIP3   OH227189   4.137   0.528  14.527  0.3712  0.1091 -0.5132
 1925TIP3    H127190   4.090   0.445  14.513 -1.7584  1.2922 -0.8798
 1925TIP3    H227191   4.202   0.507  14.594 -1.3914 -1.4391  0.8278
 1926TIP3   OH227192   0.750   1.048   1.697 -1.0378 -0.5164 -0.6914
 1926TIP3    H127193   0.755   0.963   1.742 -1.0042 -0.4520 -0.5730
 1926TIP3    H227194   0.674   1.091   1.736 -1.1585 -0.5643 -0.8760
 1927TIP3   OH227195   0.919   3.238  13.453 -0.4189 -0.2153 -0.4272
 1927TIP3    H127196   0.999   3.192  13.480  0.8434  2.2756  0.3752
 1927TIP3    H227197   0.849   3.198  13.504  0.4401 -1.8208 -0.4504
 1928TIP3   OH227198   4.314   1.095  17.111  0.7728 -0.0171  0.3740
 1928TIP3    H127199   4.316   0.999  17.121 -0.3191 -0.1181 -0.2902
 1928TIP3    H227200   4.365   1.127  17.185  1.1694 -1.1105  0.6017
 1929TIP3   OH227201   3.226   4.233   4.278 -0.5516 -0.0874  0.2057
 1929TIP3    H127202   3.234   4.150   4.324 -1.5341 -0.6186 -0.5454
 1929TIP3    H227203   3.131   4.250   4.276 -0.5093  0.1154 -1.2560
 1930TIP3   OH227204   3.144   3.369   2.473 -0.0785  0.3540 -0.5286
 1930TIP3    H127205   3.137   3.274   2.465  0.2438  0.2605  0.2350
 1930TIP3    H227206   3.234   3.388   2.447  0.1261  0.3490  0.1628
 1931TIP3   OH227207   4.217   6.052  15.634  0.2594  0.3799 -0.3830
 1931TIP3    H127208   4.247   6.098  15.556  1.4549 -0.4901 -0.4594
 1931TIP3    H227209   4.237   5.960  15.617 -0.2193  0.0755  0.6104
 1932TIP3   OH227210   0.986   0.020  12.532  0.8699  0.4750 -0.0279
 1932TIP3    H127211   0.913   0.080  12.545  1.6175  1.1291  1.4718
 1932TIP3    H227212   0.993  -0.027  12.615  0.6801 -1.2893 -0.9640
 1933TIP3   OH227213   0.214   5.309   1.240 -0.2505  0.4228  0.2701
 1933TIP3    H127214   0.225   5.330   1.147  0.8477  0.7911  0.4676
 1933TIP3    H227215   0.216   5.394   1.284  2.1465  0.1172  0.8799
 1934TIP3   OH227216   0.515   4.181  13.152  0.0455 -0.1038 -0.8599
 1934TIP3    H127217   0.517   4.272  13.181  0.6979 -0.3339 -0.1554
 1934TIP3    H227218   0.494   4.186  13.058 -1.6942  0.6721 -0.4666
 1935TIP3   OH227219   3.341   6.568  11.077  0.1131  0.3282 -0.1437
 1935TIP3    H127220   3.380   6.485  11.051 -0.2901 -0.8802  2.7147
 1935TIP3    H227221   3.253   6.566  11.039 -0.6427 -1.5820  1.5604
 1936TIP3   OH227222   1.001   1.877   6.630 -0.3629  0.2641  0.2591
 1936TIP3    H127223   1.039   1.940   6.569 -1.1719 -0.2281 -0.7863
 1936TIP3    H227224   1.035   1.903   6.716  1.5665  0.4265 -0.4944
 1937TIP3   OH227225   1.136   5.779   3.968 -0.1622 -0.0786 -0.1139
 1937TIP3    H127226   1.125   5.685   3.982  0.3241 -0.0532  0.4663
 1937TIP3    H227227   1.155   5.814   4.055 -2.0772  0.8233 -0.0016
 1938TIP3   OH227228   2.800   1.113   6.096 -0.5897  0.2727 -0.0254
 1938TIP3    H127229   2.767   1.030   6.061 -2.0573  0.5990  0.5450
 1938TIP3    H227230   2.840   1.090   6.180 -1.5091  0.2127  0.4042
 1939TIP3   OH227231   1.045   2.354  11.480 -0.2625  0.5277 -0.2370
 1939TIP3    H127232   0.981   2.306  11.427 -1.8084  1.6232  0.5533
 1939TIP3    H227233   1.046   2.308  11.564  0.7995 -0.0958 -0.5667
 1940TIP3   OH227234   2.797   0.295  11.700 -0.9626 -0.8150 -0.2171
 1940TIP3    H127235   2.778   0.265  11.611 -0.1151 -0.2483 -0.6062
 1940TIP3    H227236   2.851   0.227  11.738 -1.2917 -1.0389 -0.1443
 1941TIP3   OH227237   2.171   2.252   1.122 -0.2417  0.3143  0.2090
 1941TIP3    H127238   2.249   2.202   1.143 -0.3349  0.8408  1.9369
 1941TIP3    H227239   2.098   2.193   1.144 -0.3475  0.5009  0.3566
 1942TIP3   OH227240   1.050   0.805   1.139  0.3768 -0.0179 -0.0651
 1942TIP3    H127241   0.978   0.758   1.181 -0.3809 -0.2813 -1.6037
 1942TIP3    H227242   1.010   0.884   1.102  0.8780 -0.1574 -0.9261
 1943TIP3   OH227243   5.631   4.475  14.283  0.0514  0.2643 -0.2436
 1943TIP3    H127244   5.551   4.446  14.325 -0.3679  0.9099 -0.5855
 1943TIP3    H227245   5.611   4.561  14.248  0.4766 -0.1071 -1.4827
 1944TIP3   OH227246   6.624   6.321  15.507  0.6832  0.1503 -0.4795
 1944TIP3    H127247   6.640   6.257  15.438 -1.4773 -0.5101 -0.4448
 1944TIP3    H227248   6.596   6.268  15.582  2.8573  0.8510  0.9159
 1945TIP3   OH227249   5.533   4.790  15.658 -0.5238  0.2343 -0.0975
 1945TIP3    H127250   5.477   4.797  15.736 -2.7228  1.7009 -1.6805
 1945TIP3    H227251   5.477   4.821  15.587  1.7890  0.0218 -2.0951
 1946TIP3   OH227252   3.195   6.105   3.662  0.0408 -0.4657 -0.4105
 1946TIP3    H127253   3.146   6.129   3.741 -0.3564  0.2804 -0.8750
 1946TIP3    H227254   3.284   6.089   3.694  0.0240  0.4131  0.1201
 1947TIP3   OH227255   1.462   0.249  17.126 -0.2461  0.1704  0.2557
 1947TIP3    H127256   1.457   0.337  17.088 -2.1502  0.0909  0.2486
 1947TIP3    H227257   1.523   0.202  17.069  0.1957  1.2477 -0.1950
 1948TIP3   OH227258   3.790   5.384  14.989 -0.2838 -0.2207  0.3394
 1948TIP3    H127259   3.746   5.402  14.906  0.8436 -0.0921 -0.2574
 1948TIP3    H227260   3.766   5.458  15.045 -0.7392 -0.1022 -0.0036
 1949TIP3   OH227261   0.968   0.895   4.649  0.0267 -0.1015  0.4799
 1949TIP3    H127262   0.906   0.888   4.721  0.5777 -1.0135  0.8908
 1949TIP3    H227263   1.034   0.828   4.668  1.0686  0.7602  0.0032
 1950TIP3   OH227264   5.260   1.171  12.381 -0.4301  0.4213  0.5116
 1950TIP3    H127265   5.293   1.208  12.463  0.4357 -0.7965  0.7200
 1950TIP3    H227266   5.191   1.233  12.354  0.9507  2.1811  0.8474
 1951TIP3   OH227267   6.577   0.194  13.187  0.3078  0.3285 -0.6629
 1951TIP3    H127268   6.498   0.201  13.134  0.6682  1.6625 -1.0577
 1951TIP3    H227269   6.561   0.118  13.244 -1.2633  0.5875 -0.7054
 1952TIP3   OH227270   1.013   2.519  12.376 -0.2208 -0.0599 -0.5420
 1952TIP3    H127271   0.958   2.594  12.354 -0.9358  1.1168  4.1327
 1952TIP3    H227272   1.102   2.556  12.385 -0.1777 -0.2172 -0.3109
 1953TIP3   OH227273   2.826   2.741   3.533  0.4987  0.5670  0.5425
 1953TIP3    H127274   2.895   2.784   3.583  1.3416  0.1097 -0.1968
 1953TIP3    H227275   2.866   2.721   3.448  0.1813 -1.6816  0.8443
 1954TIP3   OH227276   3.284   2.691  13.493 -0.1031 -0.1325 -0.3006
 1954TIP3    H127277   3.377   2.687  13.473  1.2384  1.4667  4.2342
 1954TIP3    H227278   3.274   2.636  13.571 -1.1392  4.9762  3.7265
 1955TIP3   OH227279   0.324   2.051   1.773  0.2343 -0.3860  0.2221
 1955TIP3    H127280   0.413   2.033   1.744  1.3196  3.0748  0.8883
 1955TIP3    H227281   0.290   2.113   1.709 -0.6783  0.3672  1.3890
 1956TIP3   OH227282   1.706   0.924   5.124  0.0322  0.3462  0.1420
 1956TIP3    H127283   1.757   1.000   5.153 -0.2155  0.0855  1.2969
 1956TIP3    H227284   1.637   0.961   5.069  0.5881  0.8371 -0.2507
 1957TIP3   OH227285   5.978   1.126   1.618 -0.3924 -0.5360  0.0974
 1957TIP3    H127286   5.990   1.164   1.531  0.1231 -0.9843 -0.0361
 1957TIP3    H227287   5.887   1.099   1.620 -0.7908  0.7318  0.2116
 1958TIP3   OH227288   4.825   6.751   5.734  0.6543 -0.5472 -0.0873
 1958TIP3    H127289   4.831   6.774   5.826  0.5548  1.0958 -0.4722
 1958TIP3    H227290   4.770   6.672   5.733 -0.6894  0.3266  1.1313
 1959TIP3   OH227291   0.614   1.223  13.316  0.3315 -0.2020 -0.2478
 1959TIP3    H127292   0.598   1.159  13.386 -2.5563  1.4308  0.7126
 1959TIP3    H227293   0.658   1.296  13.359 -0.5823  0.4025 -0.3184
 1960TIP3   OH227294   4.331   4.666  11.321 -0.2663  0.0725  0.1158
 1960TIP3    H127295   4.259   4.698  11.376  0.6791 -0.5749  1.8133
 1960TIP3    H227296   4.303   4.579  11.294 -0.4715  0.1487  0.0791
 1961TIP3   OH227297   3.531   5.834  12.028  0.0058  0.6462  0.1950
 1961TIP3    H127298   3.619   5.797  12.037 -0.3274  0.0041  0.9050
 1961TIP3    H227299   3.507   5.816  11.937  0.1330 -0.2748  0.3321
 1962TIP3   OH227300   5.365   1.628  14.548 -0.7821  0.2703  0.5190
 1962TIP3    H127301   5.396   1.703  14.598 -2.7620  0.4159  1.6022
 1962TIP3    H227302   5.340   1.664  14.463 -0.0641  0.4967  0.3925
 1963TIP3   OH227303   1.043   1.137  15.436  0.7403 -0.3355 -0.1470
 1963TIP3    H127304   0.979   1.203  15.412 -0.6963 -0.4891  2.7829
 1963TIP3    H227305   1.091   1.176  15.509  1.3196 -1.7297  0.2479
 1964TIP3   OH227306   0.893   0.990  16.951 -0.4854 -0.5163 -0.9031
 1964TIP3    H127307   0.873   1.081  16.973  2.4383  0.3270 -1.2373
 1964TIP3    H227308   0.813   0.956  16.913 -2.4408  1.1582  1.3905
 1965TIP3   OH227309   4.673   2.806  16.184 -0.1822 -0.4181  0.6873
 1965TIP3    H127310   4.690   2.764  16.100 -0.7383  0.4036  0.1443
 1965TIP3    H227311   4.737   2.878  16.188 -1.1164  0.4689  0.2640
 1966TIP3   OH227312   3.533   4.258  14.039  0.3311 -0.3358 -0.2683
 1966TIP3    H127313   3.588   4.242  13.963  0.5443 -1.7433  0.1566
 1966TIP3    H227314   3.539   4.352  14.054 -0.8466  0.2340 -2.8381
 1967TIP3   OH227315   3.458   6.440   6.057  0.2757 -0.0869  0.1194
 1967TIP3    H127316   3.435   6.510   5.996 -1.2810 -1.4763 -0.9862
 1967TIP3    H227317   3.381   6.431   6.113  1.0201  0.0067  1.1903
 1968TIP3   OH227318   5.663   4.653  14.975  0.1166 -0.5192  0.1724
 1968TIP3    H127319   5.681   4.582  14.914 -1.3519 -1.2882  0.5932
 1968TIP3    H227320   5.597   4.707  14.931  1.0056  0.4387 -0.0215
 1969TIP3   OH227321   1.893   5.869  13.332 -0.0929 -0.3560  0.1136
 1969TIP3    H127322   1.980   5.904  13.314 -0.7019 -0.1865 -3.2075
 1969TIP3    H227323   1.850   5.936  13.385  0.6939  1.2583 -1.1918
 1970TIP3   OH227324   5.986   1.226   3.850  0.2321  0.4422 -0.2279
 1970TIP3    H127325   5.983   1.130   3.846  0.0677  0.4407 -0.0065
 1970TIP3    H227326   5.971   1.254   3.759 -4.9927  0.4320  0.3432
 1971TIP3   OH227327   6.585   0.579   3.870  0.0537 -0.3494 -0.1823
 1971TIP3    H127328   6.520   0.585   3.801  1.5359 -0.4852 -1.6619
 1971TIP3    H227329   6.655   0.526   3.833  1.9140  1.4040  0.5631
 1972TIP3   OH227330   1.885   5.479  12.574 -0.6714 -0.4393 -0.0959
 1972TIP3    H127331   1.920   5.550  12.520  0.3899  0.0754  1.2139
 1972TIP3    H227332   1.962   5.429  12.602 -0.8698  0.6333  2.7509
 1973TIP3   OH227333   5.572   2.859   2.124 -0.0388  0.1907  0.5912
 1973TIP3    H127334   5.630   2.808   2.068 -1.2048 -1.6721  0.9893
 1973TIP3    H227335   5.626   2.883   2.200 -0.0341 -2.6226  1.5798
 1974TIP3   OH227336   2.484   5.364   4.522  0.0515  0.2064 -0.7713
 1974TIP3    H127337   2.488   5.378   4.428  0.0175  1.5950 -0.5806
 1974TIP3    H227338   2.450   5.275   4.531  2.0988 -0.7827 -2.0684
 1975TIP3   OH227339   0.567   1.227   3.969  0.3427 -0.5158 -0.0262
 1975TIP3    H127340   0.626   1.224   3.894 -0.8494  3.0366 -1.3621
 1975TIP3    H227341   0.480   1.217   3.931 -0.4242  3.0496  0.4043
 1976TIP3   OH227342   4.398   3.669  12.860  0.0247 -0.7353  0.3769
 1976TIP3    H127343   4.323   3.671  12.919  0.3299  2.1063  0.8051
 1976TIP3    H227344   4.383   3.593  12.804 -2.6715 -0.7765  1.0442
 1977TIP3   OH227345   1.694   3.361   2.628  0.1346 -0.3881 -0.7627
 1977TIP3    H127346   1.727   3.365   2.717 -0.3855 -1.3082 -0.5089
 1977TIP3    H227347   1.654   3.447   2.612  1.7874  0.4122 -0.7588
 1978TIP3   OH227348   3.493   6.320  11.117 -0.7955 -0.0003  0.5634
 1978TIP3    H127349   3.576   6.285  11.151 -0.5944  0.4323  0.5274
 1978TIP3    H227350   3.465   6.256  11.052 -0.8720 -0.5285  1.1057
 1979TIP3   OH227351   0.726   5.970  11.672 -0.5732 -0.6656 -0.3855
 1979TIP3    H127352   0.703   5.959  11.765 -0.1311 -3.0605 -0.5044
 1979TIP3    H227353   0.812   5.928  11.664  0.6387  1.8228 -1.4039
 1980TIP3   OH227354   0.878   5.899   4.325 -0.1722 -0.5659 -0.1951
 1980TIP3    H127355   0.960   5.907   4.375  0.6477 -3.3117 -0.9150
 1980TIP3    H227356   0.816   5.862   4.387 -0.4262 -0.0012 -0.1010
 1981TIP3   OH227357   6.257   3.496   3.917  0.4701 -0.3171  0.5329
 1981TIP3    H127358   6.315   3.464   3.849 -0.3780 -0.6952 -0.0346
 1981TIP3    H227359   6.212   3.418   3.949 -0.8774  0.1370 -0.1560
 1982TIP3   OH227360   3.502   2.733  11.835 -0.0172 -0.1617  0.3324
 1982TIP3    H127361   3.442   2.718  11.908  0.0220  1.2585  0.6802
 1982TIP3    H227362   3.473   2.816  11.797  1.9341  0.7375  0.7324
 1983TIP3   OH227363   6.203   6.676   3.704 -0.7454 -0.0041 -0.0166
 1983TIP3    H127364   6.151   6.744   3.748 -2.0491 -0.1415 -1.2603
 1983TIP3    H227365   6.250   6.632   3.775 -2.4479  0.0377  1.2085
 1984TIP3   OH227366   1.043   0.235  13.949 -0.2665  0.3043  0.4384
 1984TIP3    H127367   1.130   0.268  13.926 -0.7508  0.6835 -0.8914
 1984TIP3    H227368   0.982   0.293  13.904 -1.1662 -1.8126 -1.2048
 1985TIP3   OH227369   4.590   4.569  13.869  0.1116 -0.1651 -0.5012
 1985TIP3    H127370   4.585   4.477  13.842 -0.0888  0.1683 -1.6737
 1985TIP3    H227371   4.637   4.612  13.797  0.2469  0.6387  0.0581
 1986TIP3   OH227372   0.385   6.568   4.354  0.1305 -0.0867  0.3941
 1986TIP3    H127373   0.371   6.531   4.266  0.0509  0.0965  0.3284
 1986TIP3    H227374   0.480   6.574   4.363  0.1676 -0.9704  0.6841
 1987TIP3   OH227375   4.615   1.721  13.818  0.0356  0.6334  0.3337
 1987TIP3    H127376   4.669   1.657  13.771 -0.1779  0.0408  0.8854
 1987TIP3    H227377   4.542   1.670  13.853 -1.3993  1.5459 -1.1527
 1988TIP3   OH227378   5.159   4.274  15.358  0.1258 -0.0126 -0.4848
 1988TIP3    H127379   5.172   4.359  15.400  1.1409 -1.7915  3.1810
 1988TIP3    H227380   5.231   4.267  15.295  1.6969  0.7729  1.1558
 1989TIP3   OH227381   6.114   0.369   2.097  0.2511 -0.1950  0.1774
 1989TIP3    H127382   6.162   0.403   2.173  0.6944  1.8732 -0.9214
 1989TIP3    H227383   6.051   0.438   2.076 -1.0773 -1.5020 -0.2994
 1990TIP3   OH227384   1.051   5.925   6.184 -0.0541  0.2127 -0.2122
 1990TIP3    H127385   1.142   5.940   6.160  0.3375  0.2768  1.2059
 1990TIP3    H227386   1.046   5.831   6.202 -0.0609  0.3336  0.4547
 1991TIP3   OH227387   5.356   6.592  13.730  0.7139 -0.0453 -0.3840
 1991TIP3    H127388   5.380   6.503  13.757  0.2230 -0.1243 -0.1940
 1991TIP3    H227389   5.264   6.601  13.756  1.4444  1.4352  1.9899
 1992TIP3   OH227390   1.232   6.094   0.063 -0.1687  0.2301 -0.0202
 1992TIP3    H127391   1.229   6.114   0.156  1.4571 -1.8703  0.5533
 1992TIP3    H227392   1.162   6.031   0.049 -0.6545  0.8251 -0.3200
 1993TIP3   OH227393   3.893   2.891  16.814  0.3682  0.1883 -0.0457
 1993TIP3    H127394   3.823   2.923  16.757 -0.4877 -2.0287 -0.3665
 1993TIP3    H227395   3.875   2.932  16.899 -0.8796  0.2524 -0.3194
 1994TIP3   OH227396   1.053   6.734   3.941 -0.0566  0.4705  0.3102
 1994TIP3    H127397   1.094   6.820   3.952  1.7029 -0.1057 -1.2435
 1994TIP3    H227398   1.103   6.677   3.999 -1.3891  0.5184  1.5315
 1995TIP3   OH227399   0.885   0.678   3.075  0.7163  0.0598 -0.1744
 1995TIP3    H127400   0.980   0.688   3.085  0.3843  2.7833  1.0333
 1995TIP3    H227401   0.862   0.605   3.133  1.8205  0.7293  1.1471
 1996TIP3   OH227402   1.218   5.662   2.831 -0.0362  0.2861 -0.4357
 1996TIP3    H127403   1.258   5.576   2.846  0.0583  0.4058  0.0165
 1996TIP3    H227404   1.144   5.665   2.892  0.2090  0.6846 -0.1475
 1997TIP3   OH227405   2.255   5.746  17.060 -0.3321  0.0176  0.1091
 1997TIP3    H127406   2.166   5.721  17.085  0.3398  1.1206  4.3350
 1997TIP3    H227407   2.260   5.840  17.079  1.7076  0.0017 -0.1294
 1998TIP3   OH227408   6.584   5.105   3.396  0.1363 -0.4743  0.0399
 1998TIP3    H127409   6.490   5.103   3.384 -0.0579  0.6587  1.1151
 1998TIP3    H227410   6.620   5.124   3.309 -0.7832  1.3585  0.0098
 1999TIP3   OH227411   4.792   1.342  16.047 -0.7021  0.1532  0.1116
 1999TIP3    H127412   4.715   1.300  16.010 -0.5116  0.1282 -0.2623
 1999TIP3    H227413   4.803   1.301  16.133 -0.8922 -0.0988  0.0155
 2000TIP3   OH227414   2.229   6.358   2.597 -0.1311  0.1729  0.1835
 2000TIP3    H127415   2.284   6.430   2.568  1.3934 -0.3801  1.5018
 2000TIP3    H227416   2.199   6.383   2.685 -1.7460  0.3052 -0.3662
 2001TIP3   OH227417   1.956   3.261  12.242 -0.6489 -0.1341  0.2051
 2001TIP3    H127418   1.863   3.259  12.223 -0.5866 -0.5351 -0.0579
 2001TIP3    H227419   1.994   3.192  12.189 -0.5500 -1.7393  2.2250
 2002TIP3   OH227420   1.999   3.119  11.490  0.2800 -0.8875 -0.0420
 2002TIP3    H127421   1.920   3.170  11.474 -0.3259 -1.7013  0.2595
 2002TIP3    H227422   2.025   3.087  11.404  0.6103 -0.1592 -0.2201
 2003TIP3   OH227423   0.112   4.794  15.405 -0.2805  0.2009 -0.3420
 2003TIP3    H127424   0.128   4.775  15.313 -0.2510  3.0134 -1.0177
 2003TIP3    H227425   0.198   4.818  15.440 -0.6559  1.4291 -0.2214
 2004TIP3   OH227426   4.913   6.516  14.549  0.0679  0.0258  0.0181
 2004TIP3    H127427   4.825   6.544  14.523 -0.3970 -0.6200  0.8463
 2004TIP3    H227428   4.956   6.490  14.467 -0.8023 -0.4517 -0.2920
 2005TIP3   OH227429   3.935   3.962   2.241 -0.2119  0.2650 -0.0090
 2005TIP3    H127430   3.868   4.002   2.297  0.0295  0.0909  0.4059
 2005TIP3    H227431   3.897   3.879   2.213  0.2797 -0.3883  1.1769
 2006TIP3   OH227432   4.355   6.207   3.482 -0.4991 -0.3187  0.0387
 2006TIP3    H127433   4.321   6.263   3.552 -0.6846 -1.2838  0.7543
 2006TIP3    H227434   4.360   6.120   3.523  1.6816 -0.4451 -0.4243
 2007TIP3   OH227435   5.865   4.904   0.459  0.2831 -0.4983 -0.0760
 2007TIP3    H127436   5.804   4.925   0.389 -0.5863 -0.5751  0.6506
 2007TIP3    H227437   5.914   4.829   0.425 -0.7889 -1.1507 -0.2291
 2008TIP3   OH227438   4.721   4.322  13.650  0.5011 -0.4240 -0.3302
 2008TIP3    H127439   4.807   4.342  13.684  0.6268 -0.0212 -0.8799
 2008TIP3    H227440   4.725   4.346  13.557 -0.6239  0.9299 -0.0663
 2009TIP3   OH227441   6.458   2.556  14.423 -0.1287 -0.1409 -0.1341
 2009TIP3    H127442   6.519   2.571  14.351  3.6129  0.0458  2.7139
 2009TIP3    H227443   6.461   2.637  14.474 -0.1434 -1.3140  1.8360
 2010TIP3   OH227444   5.180   3.007   5.370 -0.3425 -0.3305 -0.5710
 2010TIP3    H127445   5.234   3.075   5.412 -0.2713 -0.7370  0.0157
 2010TIP3    H227446   5.203   3.012   5.277 -0.3976  0.5001 -0.5493
 2011TIP3   OH227447   5.642   0.769   2.984  0.0008  0.3073  0.3334
 2011TIP3    H127448   5.644   0.807   2.897 -1.3173 -2.1591 -0.8977
 2011TIP3    H227449   5.549   0.769   3.008  0.0506 -1.2075  0.6522
 2012TIP3   OH227450   5.856   2.678  13.509  0.3671 -0.5406 -0.1560
 2012TIP3    H127451   5.862   2.584  13.525  0.8626 -0.3948  0.5648
 2012TIP3    H227452   5.894   2.690  13.422  3.6943 -0.5946  1.1337
 2013TIP3   OH227453   2.512   1.753  16.813 -0.4953 -0.1489 -0.3792
 2013TIP3    H127454   2.471   1.723  16.732  0.1860 -0.6878 -0.5260
 2013TIP3    H227455   2.605   1.739  16.800 -0.4057 -0.5724  0.6404
 2014TIP3   OH227456   6.506   3.068   2.369  0.6212  0.3577  0.1175
 2014TIP3    H127457   6.573   3.118   2.324 -0.8556  1.4501 -0.9490
 2014TIP3    H227458   6.523   3.083   2.462 -0.6025  4.1804 -0.0972
 2015TIP3   OH227459   4.651   6.251   2.021  0.6621  0.4143  0.1246
 2015TIP3    H127460   4.643   6.340   1.986 -2.0133  0.2283  0.0625
 2015TIP3    H227461   4.581   6.202   1.979  1.1164 -1.3458  1.3015
 2016TIP3   OH227462   0.661   3.566   0.220  0.3245 -0.4065  0.4024
 2016TIP3    H127463   0.667   3.471   0.216 -0.8500 -0.4490 -0.8735
 2016TIP3    H227464   0.576   3.583   0.261  0.4644  0.0876  0.4895
 2017TIP3   OH227465   1.771   1.637  17.229  0.0244  0.3081  0.2919
 2017TIP3    H127466   1.801   1.715  17.183 -2.9533 -0.2648 -3.0908
 2017TIP3    H227467   1.693   1.665  17.276  0.2559 -0.1547  0.9623
 2018TIP3   OH227468   5.908   4.057  14.653  0.0768  0.3807 -0.4588
 2018TIP3    H127469   5.869   3.975  14.683  0.4089 -0.2933 -1.8459
 2018TIP3    H227470   5.993   4.060  14.696 -0.0855  0.1836 -0.1177
 2019TIP3   OH227471   1.249   3.063   1.136  0.2030  0.0974 -0.3262
 2019TIP3    H127472   1.197   2.985   1.117 -0.5779  0.1764  1.3310
 2019TIP3    H227473   1.330   3.029   1.175 -0.1893  0.1043  0.5098
 2020TIP3   OH227474   2.927   5.518  13.355 -0.0841 -0.6557 -0.1355
 2020TIP3    H127475   2.977   5.593  13.388 -1.0599  0.9699 -2.1636
 2020TIP3    H227476   2.882   5.483  13.433 -1.0114  1.9939  0.6260
 2021TIP3   OH227477   4.972   0.711   5.708  0.0926 -0.1946  0.1889
 2021TIP3    H127478   5.033   0.643   5.679  1.2417  0.1146  1.7163
 2021TIP3    H227479   5.028   0.786   5.726 -1.1953  1.3698 -1.8944
 2022TIP3   OH227480   6.528   5.335   3.561  0.1194 -0.3636  0.1690
 2022TIP3    H127481   6.512   5.254   3.512  0.0427 -0.0960 -0.2546
 2022TIP3    H227482   6.623   5.345   3.560  0.0523  0.4921 -1.3551
 2023TIP3   OH227483   6.309   2.213  13.885  0.9067  0.1879 -0.0585
 2023TIP3    H127484   6.343   2.270  13.954 -0.9550  1.1206  0.1312
 2023TIP3    H227485   6.285   2.132  13.931 -0.1808  0.7462  0.3788
 2024TIP3   OH227486   1.809   5.002   3.556 -0.4810  0.6008 -0.2505
 2024TIP3    H127487   1.792   4.952   3.636 -1.8411 -0.4151 -1.1339
 2024TIP3    H227488   1.884   4.958   3.515 -1.8135 -0.9220 -1.1386
 2025TIP3   OH227489   4.465   4.318   1.075  0.3849 -0.1182  0.4066
 2025TIP3    H127490   4.410   4.319   0.997  1.3961  1.4824 -0.3363
 2025TIP3    H227491   4.542   4.268   1.050  1.6034  2.0132 -0.3394
 2026TIP3   OH227492   5.035   5.710   3.897  0.0019  0.0761  0.9223
 2026TIP3    H127493   4.996   5.677   3.816  1.2325  2.5877 -0.8116
 2026TIP3    H227494   4.960   5.723   3.955 -1.2772  0.8683 -0.8221
 2027TIP3   OH227495   4.224   3.897   3.564 -0.2647  0.8219 -0.3777
 2027TIP3    H127496   4.286   3.965   3.536 -0.0062  0.4674 -0.6727
 2027TIP3    H227497   4.224   3.902   3.659  0.5602  0.5307 -0.3525
 2028TIP3   OH227498   5.895   4.947  10.890  0.0466 -0.2844  1.0435
 2028TIP3    H127499   5.873   5.023  10.944 -3.2871  0.6349 -1.2942
 2028TIP3    H227500   5.828   4.882  10.911  0.9385 -1.3591  0.6754
 2029TIP3   OH227501   3.750   4.159  11.060  0.0490 -0.3236 -0.2510
 2029TIP3    H127502   3.762   4.109  10.980  1.1118 -2.2863  1.0601
 2029TIP3    H227503   3.660   4.191  11.055  0.5569  0.9841 -2.9072
 2030TIP3   OH227504   4.257   4.929  14.331 -0.1272  0.0121 -0.0058
 2030TIP3    H127505   4.324   4.954  14.268 -1.3240  2.5403 -0.4372
 2030TIP3    H227506   4.180   4.909  14.277 -0.8512  1.1618  0.5426
 2031TIP3   OH227507   5.297   5.811  17.162  0.2093 -0.7401  0.0222
 2031TIP3    H127508   5.390   5.796  17.181  0.5361  0.7720 -0.2747
 2031TIP3    H227509   5.291   5.801  17.066  0.6357  1.7644 -0.3247
 2032TIP3   OH227510   4.478   4.885   2.195  0.0631  0.2387 -0.4350
 2032TIP3    H127511   4.535   4.871   2.120 -0.8196 -0.0172 -1.0816
 2032TIP3    H227512   4.433   4.801   2.206  1.0666 -0.1318  1.1719
 2033TIP3   OH227513   0.974   1.650   2.981 -0.1166  0.0942  0.0158
 2033TIP3    H127514   1.012   1.592   2.915  0.7483  2.0499 -1.2908
 2033TIP3    H227515   0.880   1.648   2.964 -0.1015 -0.8372 -0.0313
 2034TIP3   OH227516   3.281   6.555   3.236 -0.1559  0.3096 -0.3278
 2034TIP3    H127517   3.304   6.617   3.167 -2.0432  0.5622 -0.7853
 2034TIP3    H227518   3.200   6.515   3.206 -1.3852  0.8746  1.9825
 2035TIP3   OH227519   1.321   1.102   1.204  0.5401  0.0568  0.4080
 2035TIP3    H127520   1.320   1.007   1.198 -0.1215  0.0428  0.6256
 2035TIP3    H227521   1.238   1.124   1.246 -0.2408  0.8485 -1.4492
 2036TIP3   OH227522   0.788   5.505  13.572 -0.0990  0.0725 -0.2175
 2036TIP3    H127523   0.789   5.423  13.523  1.2499 -1.1028  1.6358
 2036TIP3    H227524   0.720   5.494  13.638 -0.2745  0.6804 -0.2826
 2037TIP3   OH227525   6.673   1.925   3.284 -0.2468 -0.0267  0.3846
 2037TIP3    H127526   6.696   1.995   3.224 -0.2933 -0.0042  0.3930
 2037TIP3    H227527   6.748   1.866   3.282  0.1375  0.4274  0.9803
 2038TIP3   OH227528   5.585   4.496  16.885  0.1127 -0.0359 -0.3447
 2038TIP3    H127529   5.496   4.473  16.859  0.2605 -1.2918  0.1640
 2038TIP3    H227530   5.620   4.547  16.813 -0.9229  0.2163 -0.6745
 2039TIP3   OH227531   1.730   3.215   1.430  0.8061 -0.1111 -0.3760
 2039TIP3    H127532   1.698   3.133   1.468  2.1145 -0.0807  0.8824
 2039TIP3    H227533   1.739   3.274   1.505 -0.1667  1.2334 -1.2640
 2040TIP3   OH227534   6.065   4.626  14.008 -0.4304  0.0933 -0.2976
 2040TIP3    H127535   6.112   4.710  14.018 -0.6834  0.3456 -1.1601
 2040TIP3    H227536   6.126   4.561  14.042  0.3252  0.4843 -0.8794
 2041TIP3   OH227537   3.791   2.975  13.863  0.7274 -0.3712 -0.1776
 2041TIP3    H127538   3.740   2.965  13.944 -1.9269  0.7481 -1.5816
 2041TIP3    H227539   3.782   3.068  13.842  1.0267 -0.7305 -1.9845
 2042TIP3   OH227540   5.194   2.067  16.914  0.5618  0.2432  0.0241
 2042TIP3    H127541   5.104   2.069  16.948  0.0141  0.5561 -1.4005
 2042TIP3    H227542   5.246   2.103  16.986 -0.2797 -0.9963  1.3064
 2043TIP3   OH227543   5.484   4.150  15.645 -0.2128  0.0143 -0.1636
 2043TIP3    H127544   5.433   4.107  15.713  0.9948 -1.2417  0.0022
 2043TIP3    H227545   5.575   4.137  15.672  0.5469 -3.2580 -3.4176
 2044TIP3   OH227546   4.309   2.619   3.287 -0.0912  0.1569 -0.1780
 2044TIP3    H127547   4.296   2.631   3.382  0.0871  0.5020 -0.1962
 2044TIP3    H227548   4.392   2.662   3.269 -0.6173  0.9840 -0.6684
 2045TIP3   OH227549   5.891   6.353  11.309  0.1957 -0.0010 -0.1637
 2045TIP3    H127550   5.944   6.295  11.254  0.9949 -0.7954  1.3730
 2045TIP3    H227551   5.919   6.441  11.284 -0.2611 -0.2825 -1.7796
 2046TIP3   OH227552   1.316   1.802   1.182  0.8723  0.2586 -1.1159
 2046TIP3    H127553   1.408   1.781   1.164  0.8427 -0.8827 -0.0006
 2046TIP3    H227554   1.309   1.804   1.277  0.6384  4.5294 -1.0230
 2047TIP3   OH227555   1.364   2.539  10.894  0.0753  0.5409 -0.3797
 2047TIP3    H127556   1.397   2.628  10.910  1.4492 -0.1607  0.9345
 2047TIP3    H227557   1.269   2.547  10.896  0.1283  2.2248 -1.8160
 2048TIP3   OH227558   1.928   3.256   4.622  0.4353  0.4338 -0.3057
 2048TIP3    H127559   2.006   3.210   4.593 -0.0145 -0.3224 -0.3402
 2048TIP3    H227560   1.855   3.199   4.597 -0.0142 -0.0660  1.9418
 2049TIP3   OH227561   0.119   0.520   0.268 -0.2336  0.4869 -0.2757
 2049TIP3    H127562   0.190   0.571   0.229  0.6295 -1.2028 -0.9910
 2049TIP3    H227563   0.100   0.565   0.350  1.6267  0.9980 -0.0859
 2050TIP3   OH227564   3.009   6.152   5.391 -0.0995 -0.6869  0.3959
 2050TIP3    H127565   2.920   6.185   5.403  0.1182 -0.1555  0.6167
 2050TIP3    H227566   3.044   6.145   5.480  0.0941 -0.8488  0.3082
 2051TIP3   OH227567   6.216   5.764  11.039 -0.5539 -0.1248  0.2563
 2051TIP3    H127568   6.198   5.840  11.095 -1.7755 -0.3005  0.1313
 2051TIP3    H227569   6.290   5.791  10.985  0.0816  0.3716  1.3321
 2052TIP3   OH227570   5.846   3.029   3.676  0.1206 -0.1620  0.2814
 2052TIP3    H127571   5.814   3.098   3.619  1.5839 -0.1419 -0.5426
 2052TIP3    H227572   5.833   2.948   3.626  1.5500 -0.1294 -0.1884
 2053TIP3   OH227573   3.564   4.308   1.778  0.3050  0.5750  0.4790
 2053TIP3    H127574   3.498   4.304   1.848  1.1935 -0.7860  1.2758
 2053TIP3    H227575   3.602   4.396   1.786 -1.8091  1.6444 -0.4101
 2054TIP3   OH227576   6.189   3.795  15.137 -0.5581  0.6813 -0.0557
 2054TIP3    H127577   6.218   3.789  15.046 -2.0749 -0.2075 -0.5167
 2054TIP3    H227578   6.197   3.888  15.158 -2.8196  1.4555 -2.0816
 2055TIP3   OH227579   1.598   3.885  11.701 -0.1502  0.0292 -0.8307
 2055TIP3    H127580   1.645   3.940  11.764  1.0796 -0.0158 -1.6816
 2055TIP3    H227581   1.513   3.869  11.743  0.4082  0.4802  0.5556
 2056TIP3   OH227582   4.694   1.916  13.387 -0.0604 -0.1458  0.7913
 2056TIP3    H127583   4.780   1.909  13.430 -0.3289  0.1166  1.3799
 2056TIP3    H227584   4.632   1.926  13.459 -0.8111 -2.1804  0.5081
 2057TIP3   OH227585   3.484   6.040   1.138  0.2312 -0.3850 -0.0183
 2057TIP3    H127586   3.491   5.994   1.054 -0.7138 -0.8989  0.1687
 2057TIP3    H227587   3.538   5.988   1.198  0.6960 -0.1674 -0.2463
 2058TIP3   OH227588   2.391   6.686   1.105  0.0256 -0.1876  0.3165
 2058TIP3    H127589   2.408   6.602   1.062 -0.7992 -0.9678  1.4599
 2058TIP3    H227590   2.329   6.665   1.174 -0.0243  1.3419  0.7637
 2059TIP3   OH227591   6.017   4.948   6.098  0.2162  0.0704  0.3972
 2059TIP3    H127592   5.937   4.991   6.067  0.4409  0.7268  0.6962
 2059TIP3    H227593   6.057   5.012   6.157  1.4440  0.1449 -0.4611
 2060TIP3   OH227594   3.797   2.619  11.496 -0.0291  0.0681  0.3370
 2060TIP3    H127595   3.753   2.534  11.494 -0.6877  0.4104 -0.4308
 2060TIP3    H227596   3.822   2.634  11.405  1.9555 -0.2354  0.7800
 2061TIP3   OH227597   2.424   4.387  12.679 -0.3944  0.8785  0.6546
 2061TIP3    H127598   2.491   4.323  12.656  0.0933  1.7603 -0.5281
 2061TIP3    H227599   2.358   4.380  12.609 -0.0604  2.0004  0.1927
 2062TIP3   OH227600   5.257   0.749   5.302  0.6638  1.0195  0.0613
 2062TIP3    H127601   5.191   0.689   5.337  0.0631  0.8908 -1.2134
 2062TIP3    H227602   5.339   0.722   5.343 -0.0184  1.0119  1.4806
 2063TIP3   OH227603   3.401   0.610  16.346  0.7433  0.3689 -0.2328
 2063TIP3    H127604   3.462   0.544  16.379 -0.1186 -0.2125  0.2400
 2063TIP3    H227605   3.352   0.565  16.277  0.2123  0.5343  0.0274
 2064TIP3   OH227606   0.284   6.396  15.783  0.3464 -0.0071  0.0213
 2064TIP3    H127607   0.344   6.436  15.720 -0.8399  2.2673  0.2321
 2064TIP3    H227608   0.322   6.417  15.868 -0.8183  1.7169  0.1662
 2065TIP3   OH227609   0.158   0.247   3.826  0.1841  0.3600  0.1315
 2065TIP3    H127610   0.183   0.166   3.781 -0.8625  0.7527 -1.2404
 2065TIP3    H227611   0.206   0.244   3.909  2.3651 -0.3361 -1.0549
 2066TIP3   OH227612   5.644   2.124   5.153  0.4116 -0.2424  0.3477
 2066TIP3    H127613   5.662   2.060   5.222  2.4687  1.2588  1.3089
 2066TIP3    H227614   5.565   2.170   5.183  0.8605 -0.1017  1.3482
 2067TIP3   OH227615   6.404   3.265  12.180 -0.4288 -0.0154 -0.1947
 2067TIP3    H127616   6.418   3.301  12.268 -0.5190 -0.2718 -0.0728
 2067TIP3    H227617   6.489   3.271  12.138  0.3272 -2.3441  0.8260
 2068TIP3   OH227618   4.450   3.750   2.174 -0.1984 -0.2072 -0.0757
 2068TIP3    H127619   4.532   3.774   2.129 -0.7195 -0.3204 -1.1205
 2068TIP3    H227620   4.409   3.685   2.117 -1.0682 -0.0779  0.3800
 2069TIP3   OH227621   4.454   1.355   5.717  0.3120 -0.0551  0.2480
 2069TIP3    H127622   4.499   1.337   5.635  1.7239 -1.5879  1.2817
 2069TIP3    H227623   4.493   1.293   5.779 -3.0303 -1.3138  1.3238
 2070TIP3   OH227624   2.287   2.164  12.214  0.1002  0.1148 -0.1881
 2070TIP3    H127625   2.247   2.154  12.128  0.5808  2.6703 -0.7688
 2070TIP3    H227626   2.218   2.139  12.275 -1.2280  1.0181 -1.2575
 2071TIP3   OH227627   5.057   1.560  13.756 -0.0653  0.3381 -0.9969
 2071TIP3    H127628   5.084   1.548  13.847  0.4841  1.5817 -0.9789
 2071TIP3    H227629   5.082   1.650  13.735 -1.3506  0.4950 -1.9805
 2072TIP3   OH227630   0.772   4.746  16.861 -0.1985  0.3518 -0.0409
 2072TIP3    H127631   0.739   4.830  16.829 -2.0213 -0.3186 -0.0362
 2072TIP3    H227632   0.867   4.756  16.860 -0.3670  2.5636  0.3795
 2073TIP3   OH227633   3.010   1.862  15.806 -0.3233  0.1201  0.2095
 2073TIP3    H127634   3.052   1.906  15.732  0.1750 -0.9558 -0.1572
 2073TIP3    H227635   2.936   1.919  15.828  0.0722  0.9405 -0.5021
 2074TIP3   OH227636   3.887   2.709  13.192 -0.0867  0.0879 -0.6320
 2074TIP3    H127637   3.914   2.800  13.204 -1.8987  0.4547  1.2503
 2074TIP3    H227638   3.967   2.658  13.207  0.5181  1.2897  0.4120
 2075TIP3   OH227639   6.399   0.258  13.528 -0.6661 -0.2156 -0.0043
 2075TIP3    H127640   6.442   0.174  13.544 -1.4327 -0.9035 -1.3624
 2075TIP3    H227641   6.469   0.314  13.491 -0.2098 -0.3126  0.6942
 2076TIP3   OH227642   5.366   0.264  14.219 -0.0345 -0.0529  0.0202
 2076TIP3    H127643   5.337   0.249  14.129 -1.8408 -0.2442  0.5766
 2076TIP3    H227644   5.330   0.350  14.242  1.1132  0.3620  0.2963
 2077TIP3   OH227645   1.755   1.242  15.048  0.4613 -0.3571 -0.2349
 2077TIP3    H127646   1.794   1.260  15.133 -0.3117  0.2921 -0.0112
 2077TIP3    H227647   1.773   1.149  15.032  0.1597 -0.6124  0.8737
 2078TIP3   OH227648   6.651   2.979   0.168  0.0628  0.3683  0.1335
 2078TIP3    H127649   6.722   3.012   0.112 -1.9760  1.8898 -1.7483
 2078TIP3    H227650   6.649   2.885   0.152  1.3634  0.3699 -0.1169
 2079TIP3   OH227651   3.326   3.668  16.098  0.3419 -0.1233 -0.3672
 2079TIP3    H127652   3.315   3.760  16.125  2.2301  0.2241 -0.6380
 2079TIP3    H227653   3.348   3.622  16.178 -0.1273 -0.2562 -0.3120
 2080TIP3   OH227654   2.827   2.648   2.700  0.5386 -0.2034  0.3028
 2080TIP3    H127655   2.758   2.706   2.669  0.1693 -0.3600  0.8175
 2080TIP3    H227656   2.895   2.707   2.732  0.5540 -0.0485 -0.0146
 2081TIP3   OH227657   5.464   1.742   3.841 -0.0934  0.3437  0.2796
 2081TIP3    H127658   5.475   1.669   3.780  0.0888 -0.6205  1.4140
 2081TIP3    H227659   5.503   1.817   3.796  2.0349 -0.8001  0.0584
 2082TIP3   OH227660   3.646   6.321  16.696 -0.8382  0.0215  0.2408
 2082TIP3    H127661   3.599   6.404  16.703  1.4619  1.4160  0.2022
 2082TIP3    H227662   3.724   6.342  16.644  0.2321 -1.9827  0.9355
 2083TIP3   OH227663   1.962   0.643  12.593  0.1513  0.3797  0.0866
 2083TIP3    H127664   1.976   0.737  12.607 -1.2084  0.4371  1.2797
 2083TIP3    H227665   1.883   0.637  12.540 -0.3648 -0.0980  0.8863
 2084TIP3   OH227666   3.890   1.065   5.649  0.5219 -0.3327  0.4794
 2084TIP3    H127667   3.912   1.080   5.740  0.5495  1.7012  0.1755
 2084TIP3    H227668   3.794   1.056   5.649  0.4107  0.6807  0.6184
 2085TIP3   OH227669   5.436   5.552   4.818 -0.5282  0.1128  0.0566
 2085TIP3    H127670   5.528   5.553   4.845 -0.2781  2.9503 -0.5652
 2085TIP3    H227671   5.388   5.581   4.896 -0.7494 -0.0343 -0.0243
 2086TIP3   OH227672   3.057   1.365  14.531  0.0785 -0.1389  0.0309
 2086TIP3    H127673   3.037   1.274  14.552 -0.0020 -0.1040  0.1091
 2086TIP3    H227674   3.134   1.361  14.476 -0.6111 -0.3275 -0.9499
 2087TIP3   OH227675   3.085   0.748   2.491 -0.0440  0.1367  0.8071
 2087TIP3    H127676   3.075   0.782   2.401 -2.6353  1.5573  1.5275
 2087TIP3    H227677   3.178   0.760   2.510  0.6492 -0.4844 -1.7609
 2088TIP3   OH227678   1.178   2.390  15.251  0.4117  0.3643 -0.0823
 2088TIP3    H127679   1.240   2.381  15.324  1.0585 -0.3758 -0.7078
 2088TIP3    H227680   1.155   2.301  15.227  0.5902  0.5695 -1.0906
 2089TIP3   OH227681   3.011   3.028  11.908 -0.5086  0.6171  0.0455
 2089TIP3    H127682   2.953   3.094  11.947 -1.1443 -0.5354  1.1235
 2089TIP3    H227683   3.034   2.971  11.981 -1.4279 -1.3916 -1.1633
 2090TIP3   OH227684   4.006   2.199  16.581 -0.0636  0.0573 -0.5464
 2090TIP3    H127685   4.034   2.182  16.491  2.4933 -0.9421  0.3393
 2090TIP3    H227686   3.943   2.129  16.599  0.0159 -0.2254 -1.3009
 2091TIP3   OH227687   0.775   3.376   1.104 -0.2202 -0.3654 -0.7401
 2091TIP3    H127688   0.737   3.417   1.182 -0.8120 -0.6046 -0.9057
 2091TIP3    H227689   0.760   3.439   1.034  1.3152  0.3695 -0.4569
 2092TIP3   OH227690   6.032   0.378   1.232  0.4816  0.2076  0.0124
 2092TIP3    H127691   5.999   0.381   1.322  1.2443  0.5895  0.2928
 2092TIP3    H227692   6.007   0.463   1.195 -2.6730 -1.0980 -1.2250
 2093TIP3   OH227693   1.078   5.259  16.455  0.2412 -0.0937 -0.0011
 2093TIP3    H127694   1.114   5.271  16.543  2.1920 -1.5442 -0.5244
 2093TIP3    H227695   1.023   5.181  16.462  0.5258 -0.3029 -0.1107
 2094TIP3   OH227696   6.708   1.390  11.394 -0.4049 -1.1182  0.1989
 2094TIP3    H127697   6.750   1.397  11.308 -1.0353 -2.9377 -0.3003
 2094TIP3    H227698   6.780   1.371  11.454  0.1580  0.9562  0.2743
 2095TIP3   OH227699   4.023   2.731   4.931  0.4265  0.2420  0.3131
 2095TIP3    H127700   3.950   2.686   4.973 -0.2533  2.3082  1.4842
 2095TIP3    H227701   4.019   2.820   4.965  1.2800  1.4231 -2.4312
 2096TIP3   OH227702   1.047   4.928   0.656  0.0850  0.6232 -0.0255
 2096TIP3    H127703   1.143   4.933   0.655  0.1004  0.2790 -0.2269
 2096TIP3    H227704   1.027   4.842   0.621 -0.3529  1.5419 -2.2110
 2097TIP3   OH227705   0.491   2.110  14.974  0.5001 -0.0895  0.0984
 2097TIP3    H127706   0.560   2.100  14.908  0.2033 -0.9128 -0.0993
 2097TIP3    H227707   0.420   2.155  14.927  0.1073 -1.0822 -0.3029
 2098TIP3   OH227708   3.299   1.355  12.666 -0.4936 -0.3848 -0.0205
 2098TIP3    H127709   3.266   1.265  12.661 -0.8929 -0.1982 -0.9899
 2098TIP3    H227710   3.288   1.379  12.758 -0.3116 -1.3471  0.2671
 2099TIP3   OH227711   1.007   4.600   2.729  0.2148 -0.4127  0.5440
 2099TIP3    H127712   1.035   4.664   2.795  2.4125  0.1733 -0.8197
 2099TIP3    H227713   0.929   4.639   2.690 -1.7214 -1.2345  3.3373
 2100TIP3   OH227714   0.078   0.055  14.659 -0.1949  0.2432  0.7383
 2100TIP3    H127715   0.055  -0.018  14.716  1.5443 -0.5600  0.4622
 2100TIP3    H227716   0.137   0.018  14.593 -0.7664  1.5119 -0.5590
 2101TIP3   OH227717   2.785   5.921   4.262 -0.1475  0.3251 -0.0078
 2101TIP3    H127718   2.852   5.856   4.284 -0.3385  0.2405  0.3372
 2101TIP3    H227719   2.743   5.887   4.183 -0.8761 -0.4618  0.6880
 2102TIP3   OH227720   4.359   3.505  14.802  0.4089 -0.3960 -0.3178
 2102TIP3    H127721   4.363   3.417  14.838  1.8039 -1.1042 -2.0417
 2102TIP3    H227722   4.283   3.504  14.743  0.4968 -0.4656 -0.4282
 2103TIP3   OH227723   3.441   2.428  16.917  0.6048  0.3418  0.4521
 2103TIP3    H127724   3.486   2.487  16.857  1.9972 -0.9350  0.1704
 2103TIP3    H227725   3.374   2.386  16.863  1.1802 -0.0538  0.0301
 2104TIP3   OH227726   2.468   3.277   4.127  0.1177  0.5599 -0.0088
 2104TIP3    H127727   2.505   3.193   4.156  2.1899  1.8160  1.2345
 2104TIP3    H227728   2.452   3.265   4.034  0.5755 -1.1528  0.0903
 2105TIP3   OH227729   2.269   2.923  12.275  0.0207 -0.4559 -0.4189
 2105TIP3    H127730   2.261   2.852  12.338  3.5003  0.1327  0.8812
 2105TIP3    H227731   2.338   2.979  12.310 -0.1560  1.6900 -3.1516
 2106TIP3   OH227732   3.649   4.134  17.176  0.2998  0.0651 -0.2722
 2106TIP3    H127733   3.628   4.098  17.262  0.5624 -0.2814 -0.3503
 2106TIP3    H227734   3.591   4.086  17.116  0.9519 -0.5410 -0.4297
 2107TIP3   OH227735   4.251   4.040   5.152  0.1610  0.5891 -0.0859
 2107TIP3    H127736   4.250   3.952   5.188  1.6704  0.3445 -0.6091
 2107TIP3    H227737   4.162   4.073   5.168 -0.4024 -0.9794  0.1741
 2108TIP3   OH227738   5.964   5.742  16.534 -0.6112  1.0521  0.3519
 2108TIP3    H127739   6.010   5.691  16.600 -0.4135 -0.0953 -0.6525
 2108TIP3    H227740   5.871   5.732  16.557 -0.5749  0.2347  0.1719
 2109TIP3   OH227741   2.917   1.167  10.656 -0.2029  0.2098  0.0235
 2109TIP3    H127742   2.839   1.147  10.605 -0.9931  1.2982  0.7701
 2109TIP3    H227743   2.955   1.244  10.614  0.3160 -0.1371 -0.1576
 2110TIP3   OH227744   5.274   0.237  13.931  0.6835 -1.1189 -0.3339
 2110TIP3    H127745   5.249   0.271  13.845 -0.5000 -0.0921  0.3752
 2110TIP3    H227746   5.217   0.161  13.944  1.3036 -1.6563 -0.7064
 2111TIP3   OH227747   3.310   2.118  14.819 -0.1506 -0.0606  0.0945
 2111TIP3    H127748   3.374   2.163  14.764 -1.2867  0.5067 -0.8049
 2111TIP3    H227749   3.263   2.060  14.759 -1.4630  0.6241  0.4285
 2112TIP3   OH227750   0.045   6.069  10.652 -0.8789 -0.0224  0.0740
 2112TIP3    H127751   0.013   5.980  10.664  0.5012 -0.6848 -0.8934
 2112TIP3    H227752  -0.015   6.124  10.703 -2.2013 -1.4114  0.0591
 2113TIP3   OH227753   0.307   4.746  14.633 -0.0307  0.1732 -0.4599
 2113TIP3    H127754   0.278   4.706  14.551 -0.3286 -0.5594 -0.0004
 2113TIP3    H227755   0.228   4.752  14.686  0.3830 -0.5200  0.2518
 2114TIP3   OH227756   2.693   4.506  17.353  0.2515 -0.3187 -0.3322
 2114TIP3    H127757   2.733   4.500  17.440  2.2685 -1.1881 -1.2560
 2114TIP3    H227758   2.629   4.435  17.351 -1.2072  0.8707  1.0480
 2115TIP3   OH227759   5.958   1.026   2.828  0.2442 -0.3790 -0.5894
 2115TIP3    H127760   6.008   1.103   2.800 -2.6895  2.0562  0.3721
 2115TIP3    H227761   5.880   1.026   2.773 -1.5142 -0.5173  1.7260
 2116TIP3   OH227762   2.955   0.517   2.569 -0.6088  0.6327 -0.0474
 2116TIP3    H127763   2.982   0.608   2.554  0.1057  0.8634  2.2949
 2116TIP3    H227764   2.955   0.507   2.664 -2.0687 -1.4303 -0.1995
 2117TIP3   OH227765   3.261   0.536  16.945  0.4325 -0.1114 -0.0022
 2117TIP3    H127766   3.257   0.533  17.040  0.5373  0.5731  0.0250
 2117TIP3    H227767   3.326   0.604  16.925 -1.4904  1.6458 -0.5756
 2118TIP3   OH227768   0.939   2.714   2.901  0.1755 -0.1748  0.0846
 2118TIP3    H127769   1.002   2.786   2.897 -0.5280  0.4179 -1.0733
 2118TIP3    H227770   0.862   2.752   2.945  0.6339 -0.9251  1.5933
 2119TIP3   OH227771   4.415   5.487  12.395  0.5671  0.0227 -0.6733
 2119TIP3    H127772   4.428   5.432  12.473 -0.6721  1.3235  0.5062
 2119TIP3    H227773   4.471   5.447  12.328  0.9622 -1.6828  0.6040
 2120TIP3   OH227774   2.445   1.832   6.128 -0.1110  0.1312 -0.6408
 2120TIP3    H127775   2.515   1.771   6.107  1.1419  1.2906  0.0303
 2120TIP3    H227776   2.367   1.793   6.089  0.7877 -1.4750 -0.9201
 2121TIP3   OH227777   2.279   2.057  16.072  0.1908 -0.0163  0.5084
 2121TIP3    H127778   2.326   2.120  16.128 -0.9554 -0.2987  1.8661
 2121TIP3    H227779   2.191   2.095  16.063  0.2809 -0.1128 -0.9161
 2122TIP3   OH227780   0.744   0.838  15.789  0.4363  0.3828  0.2670
 2122TIP3    H127781   0.814   0.836  15.723 -2.2034  1.8743 -2.8685
 2122TIP3    H227782   0.686   0.909  15.760 -2.1919 -0.4870  2.8917
 2123TIP3   OH227783   5.705   0.739   3.440  0.2779 -0.2942  0.3292
 2123TIP3    H127784   5.687   0.786   3.521  2.4775  0.5656  0.3903
 2123TIP3    H227785   5.642   0.667   3.439 -0.5917  0.3756  2.1762
 2124TIP3   OH227786   5.451   6.339  14.082  0.9572 -0.7788  0.2820
 2124TIP3    H127787   5.475   6.325  13.991  1.9374  0.0608  0.3841
 2124TIP3    H227788   5.533   6.366  14.124  0.5396 -1.2525  1.4282
 2125TIP3   OH227789   5.577   6.260  14.579 -0.0726  0.1255 -0.2088
 2125TIP3    H127790   5.512   6.325  14.553 -1.6457 -0.0068  2.8468
 2125TIP3    H227791   5.573   6.192  14.511 -2.9503  0.2980 -0.3101
 2126TIP3   OH227792   0.421   5.808   0.259  0.5639 -0.4267  0.9685
 2126TIP3    H127793   0.457   5.897   0.252 -0.6067  0.0945  1.2625
 2126TIP3    H227794   0.363   5.799   0.183  1.5383 -1.3722  0.3162
 2127TIP3   OH227795   6.603   2.300  17.359 -0.1967 -1.3339  0.1194
 2127TIP3    H127796   6.670   2.259  17.303 -0.7224 -0.3130 -1.3210
 2127TIP3    H227797   6.520   2.267  17.324 -0.5471 -0.4015  0.0548
 2128TIP3   OH227798   4.301   3.437  13.748  0.2936 -0.1846 -0.8032
 2128TIP3    H127799   4.225   3.484  13.716  1.2110 -1.0774 -4.9745
 2128TIP3    H227800   4.266   3.356  13.786 -0.9329  0.1636 -1.1603
 2129TIP3   OH227801   4.369   5.284  14.259 -0.6698 -0.0446  0.1594
 2129TIP3    H127802   4.463   5.298  14.265 -0.6789 -0.4179  1.7195
 2129TIP3    H227803   4.355   5.252  14.170  0.5512  0.8442 -0.3755
 2130TIP3   OH227804   2.465   3.309   2.276  0.0603 -0.1072 -0.0803
 2130TIP3    H127805   2.546   3.295   2.325  0.3150  0.6450 -0.2703
 2130TIP3    H227806   2.404   3.244   2.311  0.6141 -0.3917  0.3680
 2131TIP3   OH227807   5.667   0.160  16.052  0.4200  0.5426 -0.2740
 2131TIP3    H127808   5.730   0.135  16.120  0.6460  1.6150 -0.0730
 2131TIP3    H227809   5.590   0.191  16.100  0.7279  1.6727 -0.4825
 2132TIP3   OH227810   0.626   1.396  13.931 -0.2293  0.2299  0.0566
 2132TIP3    H127811   0.610   1.309  13.894  0.2302  0.3591 -0.4589
 2132TIP3    H227812   0.721   1.402  13.938 -0.2108  0.9996 -0.6889
 2133TIP3   OH227813   4.734   0.454   5.653  0.6088  0.1186 -0.4238
 2133TIP3    H127814   4.821   0.424   5.679 -0.2807 -2.4420 -0.0715
 2133TIP3    H227815   4.694   0.485   5.735  0.5128 -0.5860 -0.1978
 2134TIP3   OH227816   2.045   0.782   1.476 -0.3574 -0.2769  0.3029
 2134TIP3    H127817   2.003   0.775   1.561  0.3346 -0.8761  0.6096
 2134TIP3    H227818   2.004   0.858   1.434  1.1991  1.7588  2.2672
 2135TIP3   OH227819   5.250   3.579   2.257  0.0185 -0.1735  0.3195
 2135TIP3    H127820   5.339   3.610   2.277 -0.2694  0.5487  0.5142
 2135TIP3    H227821   5.246   3.578   2.161 -1.5519  5.4726 -0.0478
 2136TIP3   OH227822   0.605   1.266   0.200 -0.4394  0.8739  0.0303
 2136TIP3    H127823   0.570   1.354   0.190  0.1563  1.1298  0.1542
 2136TIP3    H227824   0.567   1.235   0.282  0.1531  1.4054  0.5130
 2137TIP3   OH227825   6.105   0.768  15.725  0.2282 -0.2760 -0.2665
 2137TIP3    H127826   6.172   0.836  15.720 -0.3072  0.2392 -0.4221
 2137TIP3    H227827   6.044   0.789  15.655 -0.5808 -0.2366  0.4372
 2138TIP3   OH227828   2.202   0.411   5.263  0.0173  0.2378 -0.3202
 2138TIP3    H127829   2.149   0.338   5.296  1.4188 -0.5831  0.2640
 2138TIP3    H227830   2.212   0.393   5.170 -0.0555 -0.0594 -0.2738
 2139TIP3   OH227831   4.162   2.988  13.476  0.2510  0.1835  0.2873
 2139TIP3    H127832   4.082   2.938  13.491 -0.4714  0.8334 -1.1303
 2139TIP3    H227833   4.212   2.934  13.415  0.0290  0.5966 -0.2754
 2140TIP3   OH227834   4.834   1.950   1.155 -0.1652  0.2050 -0.5293
 2140TIP3    H127835   4.854   1.994   1.072 -0.6613  0.0233 -0.7473
 2140TIP3    H227836   4.920   1.929   1.192  0.1033  1.6141 -0.2802
 2141TIP3   OH227837   2.664   0.871  11.532  0.0785  0.3289  0.6908
 2141TIP3    H127838   2.671   0.949  11.587  0.0045  0.5429  0.3947
 2141TIP3    H227839   2.680   0.902  11.443  0.0733  0.0030  0.5745
 2142TIP3   OH227840   6.339   1.770   1.727  0.1294  0.3188  0.7544
 2142TIP3    H127841   6.272   1.752   1.794  0.7541 -1.8323  0.8928
 2142TIP3    H227842   6.311   1.718   1.651  1.0341  0.3005  0.4257
 2143TIP3   OH227843   4.547   1.164   1.288  0.0559 -0.5264  0.5955
 2143TIP3    H127844   4.479   1.168   1.355 -0.9746 -0.7508 -0.4018
 2143TIP3    H227845   4.593   1.247   1.295 -0.0377 -0.5491  1.5717
 2144TIP3   OH227846   4.220   4.910  14.870  0.1025 -0.3482 -0.0974
 2144TIP3    H127847   4.202   4.855  14.946 -0.1518  0.3832  0.3779
 2144TIP3    H227848   4.136   4.951  14.849  0.5399  0.7760  0.2884
 2145TIP3   OH227849   0.439   5.802   2.243 -0.4855 -0.3044  0.4888
 2145TIP3    H127850   0.353   5.761   2.232 -0.4445 -0.3988  0.5266
 2145TIP3    H227851   0.461   5.835   2.155 -0.8915  0.3678  0.6310
 2146TIP3   OH227852   2.526   0.451  13.556  0.0613 -0.0388 -0.3109
 2146TIP3    H127853   2.435   0.426  13.575  0.3438 -0.4487  0.5135
 2146TIP3    H227854   2.527   0.463  13.461 -0.9568  0.3801 -0.2838
 2147TIP3   OH227855   5.557   5.837  17.249 -0.3834  0.4058  0.1007
 2147TIP3    H127856   5.529   5.916  17.202  1.0711  0.6683 -0.3551
 2147TIP3    H227857   5.612   5.869  17.320  0.6643 -0.2080 -0.4138
 2148TIP3   OH227858   1.022   5.423   1.148  0.1686 -0.1089  0.1952
 2148TIP3    H127859   1.080   5.418   1.224  0.2974 -0.0883  0.0986
 2148TIP3    H227860   0.943   5.466   1.181  0.0583 -0.4770  0.4162
 2149TIP3   OH227861   3.650   1.746   6.035  0.1044 -0.3966  0.4201
 2149TIP3    H127862   3.611   1.701   6.110  0.9688 -1.7771  0.0799
 2149TIP3    H227863   3.677   1.676   5.976 -0.6564  0.6685 -1.2554
 2150TIP3   OH227864   2.535   1.730   0.702 -0.6213  0.0870  0.0501
 2150TIP3    H127865   2.578   1.688   0.776  0.1320  0.6093 -0.0774
 2150TIP3    H227866   2.461   1.777   0.741  0.3303  1.1504  0.6250
 2151TIP3   OH227867   4.928   2.841  11.205 -0.3039 -0.2884 -0.5295
 2151TIP3    H127868   4.946   2.853  11.112 -1.0321  0.0573 -0.6335
 2151TIP3    H227869   4.900   2.928  11.235 -0.0044 -0.3810  0.0237
 2152TIP3   OH227870   4.204   2.854  17.361 -0.0959 -0.2522  0.0480
 2152TIP3    H127871   4.277   2.913  17.381 -0.3280 -0.4663  1.5819
 2152TIP3    H227872   4.209   2.843  17.266  1.1308  0.6910 -0.0291
 2153TIP3   OH227873   5.632   5.644  15.626 -0.6072  0.0165 -0.0782
 2153TIP3    H127874   5.658   5.732  15.652 -0.0294  0.3802 -1.7233
 2153TIP3    H227875   5.587   5.608  15.702 -1.6084  2.0354  0.3387
 2154TIP3   OH227876   6.423   3.165  11.746  0.3321  0.2936 -0.2715
 2154TIP3    H127877   6.411   3.070  11.750 -0.3309  0.3870  0.0203
 2154TIP3    H227878   6.394   3.190  11.658  3.0428 -0.1028 -1.3923
 2155TIP3   OH227879   6.649   3.511  14.068  0.0033  0.2100  0.4420
 2155TIP3    H127880   6.685   3.430  14.104  2.3917  0.7746 -0.4694
 2155TIP3    H227881   6.615   3.558  14.144 -0.0742 -0.9985  1.1750
 2156TIP3   OH227882   0.262   5.075   2.504 -0.1926  0.5654 -0.5122
 2156TIP3    H127883   0.263   5.012   2.432  0.7995  1.1239 -1.0073
 2156TIP3    H227884   0.252   5.160   2.461  1.8459  1.0369 -0.1330
 2157TIP3   OH227885   1.134   3.231   1.424 -0.2748 -0.5595  0.4163
 2157TIP3    H127886   1.213   3.180   1.440  0.1325 -0.1735 -0.3355
 2157TIP3    H227887   1.108   3.209   1.335 -0.2914  0.2759  0.2068
 2158TIP3   OH227888   2.674   2.044  16.128 -0.0185  0.1238  0.2132
 2158TIP3    H127889   2.758   2.003  16.148 -0.0603 -0.7467 -1.2034
 2158TIP3    H227890   2.612   1.972  16.125 -0.1386  0.2382 -2.1110
 2159TIP3   OH227891   4.501   5.574   0.517 -0.2529  0.4881 -0.1204
 2159TIP3    H127892   4.520   5.658   0.475 -1.1381  1.3027  1.0479
 2159TIP3    H227893   4.443   5.529   0.455  2.1504 -0.3512 -1.8802
 2160TIP3   OH227894   3.512   5.811   0.585 -0.0626 -0.4391 -0.2379
 2160TIP3    H127895   3.539   5.739   0.528  4.7303 -1.2027  2.4447
 2160TIP3    H227896   3.522   5.889   0.531  1.9635 -1.3097 -1.2455
 2161TIP3   OH227897   5.692   6.292   5.000  0.6569 -0.0629 -0.3493
 2161TIP3    H127898   5.617   6.342   5.033 -0.5467 -2.9734  1.8161
 2161TIP3    H227899   5.746   6.277   5.078  1.9312 -0.5180 -1.2977
 2162TIP3   OH227900   4.322   0.644   3.782 -0.3360  0.5576  0.0587
 2162TIP3    H127901   4.229   0.667   3.778  0.1391  3.7449  3.0439
 2162TIP3    H227902   4.362   0.694   3.710 -0.7204  0.1471 -0.4524
 2163TIP3   OH227903   4.002   5.206   5.418  0.4595 -0.1488 -0.2146
 2163TIP3    H127904   4.029   5.296   5.436 -1.7707  0.9118 -1.7252
 2163TIP3    H227905   3.957   5.177   5.497 -0.7967  0.9375 -0.4991
 2164TIP3   OH227906   0.137   1.247   1.636  0.5695 -0.1586 -0.1596
 2164TIP3    H127907   0.129   1.333   1.595  0.4358 -0.2382 -0.3052
 2164TIP3    H227908   0.226   1.245   1.671  0.8395 -0.2555 -0.8373
 2165TIP3   OH227909   5.593   0.004   3.002 -0.2111 -0.1903 -0.2646
 2165TIP3    H127910   5.576   0.094   2.973 -0.8963 -0.8292 -1.9727
 2165TIP3    H227911   5.597   0.010   3.098 -2.2456  1.3098 -0.2138
 2166TIP3   OH227912   6.293   4.381   5.346  0.6235 -0.4714 -0.3174
 2166TIP3    H127913   6.209   4.424   5.363  0.6828 -0.7868  0.8560
 2166TIP3    H227914   6.270   4.298   5.304  0.4358  0.0417 -1.2644
 2167TIP3   OH227915   0.991   4.178   2.366 -0.2226 -0.4519  0.0907
 2167TIP3    H127916   0.963   4.173   2.274 -0.0801 -0.0104  0.0191
 2167TIP3    H227917   1.059   4.246   2.366  0.7507 -1.3997  0.2807
 2168TIP3   OH227918   0.211   4.604   3.492  0.1002 -0.6047 -0.2438
 2168TIP3    H127919   0.174   4.519   3.516 -0.7030 -0.3567 -0.5656
 2168TIP3    H227920   0.247   4.590   3.404 -0.7676 -0.4060 -0.6394
 2169TIP3   OH227921   0.170   4.180   5.148 -0.0606  0.6263 -0.1311
 2169TIP3    H127922   0.138   4.270   5.142 -0.3512  0.5077 -0.3933
 2169TIP3    H227923   0.140   4.138   5.068  1.6533  0.7776 -0.9021
 2170TIP3   OH227924   2.256   2.417   3.907 -0.2664 -0.1477  0.3370
 2170TIP3    H127925   2.202   2.484   3.868 -0.2930 -0.5888 -0.4114
 2170TIP3    H227926   2.344   2.455   3.911 -0.3964  0.1361  0.4581
 2171TIP3   OH227927   6.366   2.385   3.745 -0.0578 -1.0373  0.0219
 2171TIP3    H127928   6.419   2.426   3.678  0.0755 -0.8134  0.2637
 2171TIP3    H227929   6.398   2.295   3.749 -0.3847 -1.1853 -0.5412
 2172TIP3   OH227930   1.448   4.784  14.537 -0.5110 -0.5900 -0.6839
 2172TIP3    H127931   1.379   4.757  14.476  0.8303  1.3360 -3.2794
 2172TIP3    H227932   1.530   4.763  14.491  0.6341 -0.8982  1.3837
 2173TIP3   OH227933   1.205   5.367   2.916  0.6856  0.3374 -0.3947
 2173TIP3    H127934   1.239   5.306   2.851 -1.7524 -0.1678 -1.2882
 2173TIP3    H227935   1.166   5.311   2.983  2.3873  0.8762  1.1493
 2174TIP3   OH227936   0.029   2.371   0.630  0.2192  0.0835 -0.0481
 2174TIP3    H127937   0.062   2.453   0.666  1.0593 -0.6381  0.8961
 2174TIP3    H227938   0.003   2.392   0.540  0.9309  1.2444  0.0071
 2175TIP3   OH227939   1.373   1.749  13.759 -0.2999  0.1746  0.2396
 2175TIP3    H127940   1.416   1.665  13.773  2.7509  1.6195  0.2799
 2175TIP3    H227941   1.372   1.790  13.846 -3.5508 -0.4673  0.6434
 2176TIP3   OH227942   5.080   3.450   1.408 -0.0874  0.2875 -0.6731
 2176TIP3    H127943   5.068   3.537   1.370  1.5409  1.4577  1.2710
 2176TIP3    H227944   4.991   3.420   1.428 -0.6179  2.3945  0.3969
 2177TIP3   OH227945   3.748   0.191  16.359 -0.5220  0.3958  0.4147
 2177TIP3    H127946   3.807   0.123  16.394  0.4909  1.1637  0.2358
 2177TIP3    H227947   3.663   0.147  16.351 -0.0529 -0.6484  0.9759
 2178TIP3   OH227948   0.422   5.731  17.039 -0.0148 -0.0253 -0.1345
 2178TIP3    H127949   0.460   5.655  17.083 -2.4346 -1.9160 -1.1347
 2178TIP3    H227950   0.458   5.729  16.950 -0.1071 -0.0114 -0.1727
 2179TIP3   OH227951   1.413   4.246   4.050 -0.2069 -0.5290 -0.1210
 2179TIP3    H127952   1.343   4.202   4.097  0.0245 -2.6148 -1.6040
 2179TIP3    H227953   1.494   4.213   4.090 -0.0217  0.8165  0.6718
 2180TIP3   OH227954   2.378   3.088  14.048 -0.0839  0.0850 -0.5330
 2180TIP3    H127955   2.284   3.090  14.067  0.1047 -1.4452  0.7800
 2180TIP3    H227956   2.388   3.021  13.980 -0.0256  0.8852 -1.3264
 2181TIP3   OH227957   0.265   3.467  11.431  0.6399  0.6352  0.0300
 2181TIP3    H127958   0.278   3.435  11.342  0.4589  1.4362 -0.3009
 2181TIP3    H227959   0.337   3.529  11.444 -0.2225  1.7151 -0.1605
 2182TIP3   OH227960   1.660   1.613   3.443 -0.0760  0.1363  0.6731
 2182TIP3    H127961   1.651   1.702   3.478  1.0575  0.5760 -0.0660
 2182TIP3    H227962   1.631   1.621   3.352 -3.5201 -1.1038  1.5225
 2183TIP3   OH227963   0.152   1.457  14.814 -0.3405 -0.0664 -0.0956
 2183TIP3    H127964   0.174   1.400  14.888  0.4598 -0.2529 -0.4657
 2183TIP3    H227965   0.168   1.403  14.737  0.2930  0.6105 -0.4497
 2184TIP3   OH227966   1.367   2.201  14.990  0.6817 -0.1208  0.1246
 2184TIP3    H127967   1.400   2.145  15.061  0.9403 -1.2052 -0.8267
 2184TIP3    H227968   1.445   2.244  14.955  0.2537  2.9064  2.4717
 2185TIP3   OH227969   0.502   4.048  16.784  1.0321  0.1640  0.2226
 2185TIP3    H127970   0.552   3.970  16.809  0.5003  0.1752  1.3639
 2185TIP3    H227971   0.493   4.098  16.865 -0.4846  0.3568 -0.0270
 2186TIP3   OH227972   6.037   2.752   3.781  0.2955 -0.2151 -0.4348
 2186TIP3    H127973   5.981   2.754   3.703  0.3359  1.5374 -0.4619
 2186TIP3    H227974   6.125   2.769   3.748  0.2497  0.9881  0.0062
 2187TIP3   OH227975   3.403   5.183  16.068 -0.4871 -0.7075 -0.7402
 2187TIP3    H127976   3.373   5.113  16.126 -0.0511  0.5015  1.0097
 2187TIP3    H227977   3.339   5.254  16.079  0.2120 -0.0400 -0.8866
 2188TIP3   OH227978   4.037   6.454  15.780  0.5379 -0.0922 -0.5657
 2188TIP3    H127979   4.006   6.365  15.794 -0.9926 -0.1264 -3.3955
 2188TIP3    H227980   4.130   6.445  15.759  0.2801 -1.1029 -1.3352
 2189TIP3   OH227981   0.436   5.925  10.930  0.4649  0.4700 -0.1369
 2189TIP3    H127982   0.390   5.963  10.856  0.8468 -2.2077 -1.9091
 2189TIP3    H227983   0.529   5.929  10.905  0.7941  1.2843  1.1185
 2190TIP3   OH227984   2.672   6.752  13.449 -0.2905 -0.0696 -0.1241
 2190TIP3    H127985   2.758   6.752  13.490 -1.4977 -1.6196  2.6550
 2190TIP3    H227986   2.615   6.797  13.511 -1.8305 -0.6508 -1.0588
 2191TIP3   OH227987   2.744   0.098   5.261 -0.3807 -0.3336  0.4723
 2191TIP3    H127988   2.686   0.084   5.336 -0.7544 -1.7326 -0.0477
 2191TIP3    H227989   2.703   0.048   5.190  0.9089 -0.4719 -0.1955
 2192TIP3   OH227990   0.579   0.338  11.210  0.0413  0.0039 -0.2808
 2192TIP3    H127991   0.656   0.339  11.154  0.0167 -1.1755 -0.3446
 2192TIP3    H227992   0.512   0.294  11.159 -0.0248 -0.9461  0.6008
 2193TIP3   OH227993   4.246   3.321   4.753 -0.2465 -0.8298  0.6821
 2193TIP3    H127994   4.284   3.408   4.738 -0.4190 -0.4766  2.1415
 2193TIP3    H227995   4.156   3.329   4.721 -0.8427  0.1309  2.5020
 2194TIP3   OH227996   1.373   2.866   2.537  0.4939  0.2908 -0.1985
 2194TIP3    H127997   1.394   2.797   2.600  2.3279  1.4237  0.5245
 2194TIP3    H227998   1.343   2.820   2.459 -2.8042 -1.1560  1.7141
 2195TIP3   OH227999   6.299   2.112  10.620  0.3511  0.2538  0.0637
 2195TIP3    H128000   6.221   2.166  10.609  0.7341  0.8031 -0.0193
 2195TIP3    H228001   6.366   2.156  10.568  0.8667  0.1127  0.5946
 2196TIP3   OH228002   0.991   5.814  12.601  0.0337 -0.5772 -0.1163
 2196TIP3    H128003   1.008   5.755  12.528 -0.5110  0.2271 -0.9107
 2196TIP3    H228004   0.916   5.776  12.646 -0.0022 -0.7660 -0.3341
 2197TIP3   OH228005   1.950   2.243  17.346  0.1023  0.0394  0.1464
 2197TIP3    H128006   1.896   2.318  17.370  1.1862  0.6778  0.6566
 2197TIP3    H228007   1.900   2.167  17.376 -0.8450  0.5639 -0.0633
 2198TIP3   OH228008   6.414   0.563  11.785  0.0138 -0.1231  0.5084
 2198TIP3    H128009   6.431   0.483  11.836  0.5924  0.6535  1.5646
 2198TIP3    H228010   6.355   0.534  11.715  1.6712 -1.8789 -0.2680
 2199TIP3   OH228011   0.314   2.730  14.749 -0.1267 -0.0411  0.7603
 2199TIP3    H128012   0.362   2.802  14.791 -0.7474  1.8421 -1.5414
 2199TIP3    H228013   0.223   2.744  14.775 -0.0199 -1.2350  1.8882
 2200TIP3   OH228014   3.940   6.643   5.838  0.4217 -0.2885  0.3871
 2200TIP3    H128015   3.976   6.662   5.751 -0.9728  2.0536  0.2434
 2200TIP3    H228016   3.994   6.571   5.871  2.1823 -0.0014 -1.6516
 2201TIP3   OH228017   0.428   3.069  13.195 -0.4861 -1.0857 -0.0433
 2201TIP3    H128018   0.344   3.048  13.236 -1.0734  2.7937  1.1593
 2201TIP3    H228019   0.410   3.069  13.101 -1.7225 -0.6888  0.1837
 2202TIP3   OH228020   2.019   2.760  16.026 -0.0140  0.1133  0.2156
 2202TIP3    H128021   1.960   2.706  16.078  0.9529 -0.3390  0.8868
 2202TIP3    H228022   1.962   2.824  15.983 -1.0103 -0.4910  0.5993
 2203TIP3   OH228023   3.446   1.313   2.039  0.0929 -0.5723  0.0955
 2203TIP3    H128024   3.515   1.289   2.102  0.0252  1.7447  1.1302
 2203TIP3    H228025   3.486   1.382   1.986 -0.8976 -0.3912 -0.4253
 2204TIP3   OH228026   2.680   1.565   3.313  0.0366 -0.4502 -0.0458
 2204TIP3    H128027   2.597   1.580   3.268  0.4723 -0.2847 -0.8132
 2204TIP3    H228028   2.712   1.652   3.334 -0.2647 -0.5308  0.8016
 2205TIP3   OH228029   6.360   5.719  13.655 -0.4227 -0.1056  0.7791
 2205TIP3    H128030   6.297   5.732  13.583  1.0462  0.0292 -0.5406
 2205TIP3    H228031   6.442   5.695  13.611  0.1801 -1.4161  2.5039
 2206TIP3   OH228032   2.803   2.462   3.442 -0.5958 -0.4029  0.3948
 2206TIP3    H128033   2.778   2.494   3.355  0.7452  0.6369  0.3548
 2206TIP3    H228034   2.795   2.538   3.499 -0.7231 -0.8861  1.0379
 2207TIP3   OH228035   0.479   2.108   0.078  0.5980 -0.3400 -0.6025
 2207TIP3    H128036   0.573   2.114   0.090  0.9608 -1.8108 -2.2965
 2207TIP3    H228037   0.457   2.181   0.020  0.6950 -0.0330 -0.2563
 2208TIP3   OH228038   5.009   1.451  16.347 -0.6839  0.6879  0.2845
 2208TIP3    H128039   4.989   1.544  16.349  2.4167  1.4404  1.0450
 2208TIP3    H228040   5.079   1.442  16.283 -1.8192 -1.4125 -0.8086
 2209TIP3   OH228041   0.691   2.793   3.461 -0.0285  0.1047 -0.0009
 2209TIP3    H128042   0.647   2.771   3.379 -1.2250  0.5180  0.5040
 2209TIP3    H228043   0.708   2.887   3.454 -0.7781  0.2845  0.5073
 2210TIP3   OH228044   5.043   6.643  12.309  0.2868  0.3717 -0.3450
 2210TIP3    H128045   5.034   6.675  12.219 -0.7543  0.7089 -0.1388
 2210TIP3    H228046   5.128   6.599  12.311 -0.3450 -1.0295 -1.9370
 2211TIP3   OH228047   5.842   5.261   6.142 -0.1858 -0.0145 -0.3108
 2211TIP3    H128048   5.767   5.314   6.167  0.0411  0.2864 -0.2727
 2211TIP3    H228049   5.914   5.294   6.196 -0.1190 -0.5800 -0.0377
 2212TIP3   OH228050   3.113   6.702  13.079 -0.5550 -0.0536 -0.4123
 2212TIP3    H128051   3.112   6.771  13.013 -1.4698  0.0749 -0.2786
 2212TIP3    H228052   3.203   6.703  13.114 -0.1484  0.0808 -1.4271
 2213TIP3   OH228053   2.183   3.815  13.499  0.2620 -0.7902  0.2306
 2213TIP3    H128054   2.180   3.893  13.555  1.5271 -1.9479  2.0527
 2213TIP3    H228055   2.112   3.760  13.532 -0.8162 -0.3472 -1.2417
 2214TIP3   OH228056   1.802   4.303  10.816  0.2967  0.2126  0.3193
 2214TIP3    H128057   1.870   4.366  10.840  1.3697 -0.8409  0.1950
 2214TIP3    H228058   1.720   4.342  10.846  0.7529  2.2275 -0.8894
 2215TIP3   OH228059   4.936   3.219  14.453  0.3265 -0.0780 -0.5320
 2215TIP3    H128060   4.974   3.306  14.439  0.7445 -0.0138  0.8532
 2215TIP3    H228061   4.844   3.229  14.430  0.6230  0.3781 -1.6308
 2216TIP3   OH228062   6.530   2.270  12.314 -0.0833  0.2609  0.8098
 2216TIP3    H128063   6.438   2.297  12.309 -0.2391 -0.3742 -0.1916
 2216TIP3    H228064   6.536   2.196  12.253  1.2589  0.8040  0.2356
 2217TIP3   OH228065   0.864   4.705  14.519 -0.2380 -0.2878  0.0929
 2217TIP3    H128066   0.817   4.713  14.436 -0.8983  1.2413  0.5730
 2217TIP3    H228067   0.935   4.769  14.513  0.6433 -1.2222  0.1438
 2218TIP3   OH228068   6.398   4.688  12.508 -0.0542 -0.0781 -0.0921
 2218TIP3    H128069   6.412   4.667  12.416 -0.4311  2.3945 -0.8052
 2218TIP3    H228070   6.439   4.774  12.519 -0.6653  0.0209  1.8716
 2219TIP3   OH228071   0.566   0.850   3.856 -0.0129  0.2272  0.7290
 2219TIP3    H128072   0.506   0.882   3.924  0.5215  1.5987  0.5916
 2219TIP3    H228073   0.509   0.826   3.783 -0.4111  2.4306  0.2326
 2220TIP3   OH228074   3.113   2.236  14.135 -0.6171  0.3760  0.3507
 2220TIP3    H128075   3.128   2.150  14.096  0.1113  0.7879 -0.3133
 2220TIP3    H228076   3.071   2.218  14.219  1.2919 -0.7576  1.1359
 2221TIP3   OH228077   0.382   6.707  17.305 -0.2100 -0.3290 -0.5458
 2221TIP3    H128078   0.381   6.638  17.239 -0.4605  0.4947 -1.4245
 2221TIP3    H228079   0.406   6.787  17.257 -1.0944  0.4214  0.2074
 2222TIP3   OH228080   2.423   0.738  12.922 -0.4611  0.2386  0.5863
 2222TIP3    H128081   2.402   0.652  12.887  0.3876  0.3286 -0.1727
 2222TIP3    H228082   2.338   0.781  12.933 -0.7794  0.3641 -1.7863
 2223TIP3   OH228083   0.957   2.133  13.372  0.4228  0.1888  0.1151
 2223TIP3    H128084   0.910   2.051  13.388  0.6266  0.0708  0.1163
 2223TIP3    H228085   1.016   2.142  13.447  0.6348  0.1673 -0.0475
 2224TIP3   OH228086   0.066   5.815   4.148 -0.0981  0.1935 -0.2779
 2224TIP3    H128087   0.066   5.824   4.053  1.4839  0.0289 -0.3195
 2224TIP3    H228088   0.153   5.783   4.170  0.0825  1.6191  1.3506
 2225TIP3   OH228089   0.481   1.001  15.267 -0.6106 -0.4645  0.2086
 2225TIP3    H128090   0.525   0.930  15.220 -0.2416  0.1564 -0.3910
 2225TIP3    H228091   0.529   1.010  15.349 -0.9875 -1.2563  0.5330
 2226TIP3   OH228092   3.843   1.961   3.159 -0.0613  0.2843 -0.1348
 2226TIP3    H128093   3.757   1.976   3.199 -0.0595  0.3755 -0.1635
 2226TIP3    H228094   3.842   1.869   3.133 -0.9413  0.7508 -1.9627
 2227TIP3   OH228095   4.173   2.414   1.097 -0.5936  0.4764  0.0433
 2227TIP3    H128096   4.240   2.460   1.148 -1.6493  2.1443 -0.0194
 2227TIP3    H228097   4.196   2.430   1.006 -0.0486 -0.5221 -0.0094
 2228TIP3   OH228098   4.315   4.735  14.522  0.2052 -0.2709  0.1272
 2228TIP3    H128099   4.286   4.795  14.453  1.6588 -0.9561 -1.1392
 2228TIP3    H228100   4.314   4.787  14.602  1.8594  1.6187 -0.9950
 2229TIP3   OH228101   4.492   0.116  15.298  0.1451 -0.1568 -0.5393
 2229TIP3    H128102   4.433   0.044  15.277  2.3527 -2.2416 -0.0094
 2229TIP3    H228103   4.453   0.156  15.376 -0.0966 -2.1112  0.4071
 2230TIP3   OH228104   3.390   5.461   1.009  0.0686 -0.1036 -0.0369
 2230TIP3    H128105   3.363   5.453   0.917 -0.6764 -0.8218  0.2336
 2230TIP3    H228106   3.354   5.545   1.038  0.2924  0.1169 -0.3926
 2231TIP3   OH228107   3.128   6.605   3.855 -0.1075  0.3438  0.0716
 2231TIP3    H128108   3.160   6.682   3.807  0.4814 -0.4257 -0.7936
 2231TIP3    H228109   3.206   6.553   3.871 -0.4681  0.0477  0.8989
 2232TIP3   OH228110   3.974   0.971  13.848 -0.1765 -0.4493 -0.0016
 2232TIP3    H128111   3.883   0.943  13.838 -0.6160  0.6831  0.6407
 2232TIP3    H228112   4.002   0.931  13.930 -0.6582  0.5743  0.6814
 2233TIP3   OH228113   4.082   6.063  11.208 -0.2577  0.5370  0.2520
 2233TIP3    H128114   4.059   6.140  11.156  0.7571  1.5150  1.2056
 2233TIP3    H228115   4.017   5.997  11.183 -1.1936  1.7147 -0.5309
 2234TIP3   OH228116   1.964   0.554   3.451 -0.0861 -0.1503  0.6878
 2234TIP3    H128117   1.954   0.461   3.428 -1.7449  0.7148 -2.5515
 2234TIP3    H228118   2.049   0.579   3.414  0.2109 -0.2740  1.2742
 2235TIP3   OH228119   0.533   4.684  15.223  0.1392 -0.0514 -0.0116
 2235TIP3    H128120   0.468   4.754  15.221  0.3642  0.2385  1.3871
 2235TIP3    H228121   0.617   4.729  15.234  0.2537 -0.5089  1.2418
 2236TIP3   OH228122   4.936   0.113  10.927 -1.1085 -0.2744 -0.3979
 2236TIP3    H128123   4.917   0.104  10.834 -0.2874 -0.6148 -0.5359
 2236TIP3    H228124   5.027   0.141  10.931 -0.9834 -0.7519  0.3137
 2237TIP3   OH228125   5.686   2.682   1.150  0.3085 -0.5990  0.4524
 2237TIP3    H128126   5.759   2.660   1.092 -1.0744  0.5488 -1.8848
 2237TIP3    H228127   5.720   2.750   1.207  0.9368  0.3759 -1.0229
 2238TIP3   OH228128   3.064   1.432   2.941 -0.0550  0.5678  0.5716
 2238TIP3    H128129   3.012   1.504   2.977  0.5052  0.8540  0.8377
 2238TIP3    H228130   3.090   1.381   3.018 -0.3027  0.1846  0.4000
 2239TIP3   OH228131   5.540   1.770   0.770  0.4264 -0.3501  0.4082
 2239TIP3    H128132   5.609   1.837   0.761  0.4440 -0.0314  2.3789
 2239TIP3    H228133   5.575   1.709   0.835 -0.8024 -0.6498  0.8080
 2240TIP3   OH228134   1.288   3.380   4.421  0.8724  0.3439 -0.3680
 2240TIP3    H128135   1.378   3.363   4.448  0.3207 -0.6183  0.9302
 2240TIP3    H228136   1.287   3.358   4.328  1.4189 -1.9890  0.1342
 2241TIP3   OH228137   3.610   4.451  12.715 -0.1284 -0.7022  0.1803
 2241TIP3    H128138   3.649   4.490  12.637 -0.0197  0.0757  0.6169
 2241TIP3    H228139   3.671   4.472  12.786 -1.6302  1.1444  1.0058
 2242TIP3   OH228140   3.103   0.431   1.333 -0.1714  0.4876  0.4473
 2242TIP3    H128141   3.094   0.522   1.307  0.7203  0.0023 -1.7752
 2242TIP3    H228142   3.014   0.395   1.325 -0.5110  1.1210  1.2712
 2243TIP3   OH228143   2.763   5.741   3.774 -0.2116 -0.1586  0.4012
 2243TIP3    H128144   2.815   5.663   3.753  0.0309  0.2101 -0.4259
 2243TIP3    H228145   2.826   5.814   3.767 -1.2224  0.5429 -2.6257
 2244TIP3   OH228146   1.291   2.436  12.795 -0.1831 -0.0265 -0.2979
 2244TIP3    H128147   1.372   2.476  12.763  0.3713  0.0661  1.1545
 2244TIP3    H228148   1.280   2.471  12.883 -0.9363 -1.2894  0.1332
 2245TIP3   OH228149   5.703   2.205   5.458  0.2419  0.1124  0.6801
 2245TIP3    H128150   5.733   2.138   5.396  0.9404  1.4837 -0.5154
 2245TIP3    H228151   5.718   2.166   5.544 -2.3471 -2.5670  0.0945
 2246TIP3   OH228152   1.979   3.370   3.829  0.0544 -0.4956  0.3482
 2246TIP3    H128153   1.898   3.346   3.875 -0.3904 -1.2010 -0.7452
 2246TIP3    H228154   2.042   3.303   3.856 -0.2261 -0.9516 -0.0936
 2247TIP3   OH228155   5.481   4.573  16.177 -0.0566 -0.0495  0.1651
 2247TIP3    H128156   5.574   4.550  16.177 -0.3204 -1.3717  2.2188
 2247TIP3    H228157   5.471   4.633  16.250 -0.6856  0.8329 -0.6236
 2248TIP3   OH228158   6.400   3.612   6.113 -0.4333 -0.0364 -0.2792
 2248TIP3    H128159   6.471   3.576   6.166 -1.8496  0.5591  2.1729
 2248TIP3    H228160   6.324   3.559   6.136 -1.2900  0.8370 -1.0307
 2249TIP3   OH228161   6.220   6.065   1.380  0.9163 -0.2320  0.2910
 2249TIP3    H128162   6.170   6.011   1.441  2.8529 -1.0482  1.2608
 2249TIP3    H228163   6.236   6.008   1.305  0.2932  0.0771 -0.0830
 2250TIP3   OH228164   6.723   6.084   4.177  0.3954 -0.0362 -0.2147
 2250TIP3    H128165   6.668   6.069   4.101  0.0491  0.0452  0.0187
 2250TIP3    H228166   6.775   6.004   4.185  0.1571 -0.2013 -0.3060
 2251TIP3   OH228167   0.511   1.431  14.887  0.2580  0.3322  0.0433
 2251TIP3    H128168   0.513   1.346  14.931 -0.9709  1.0429  1.5661
 2251TIP3    H228169   0.476   1.412  14.800  0.5642 -0.7944  0.1532
 2252TIP3   OH228170   1.581   6.125  14.153  0.0709  0.2077  0.0801
 2252TIP3    H128171   1.624   6.191  14.098 -0.7370  0.1601 -0.6221
 2252TIP3    H228172   1.511   6.173  14.197 -0.4264 -0.1445 -0.3204
 2253TIP3   OH228173   6.540   5.514  15.808  0.3091 -0.1235  0.7884
 2253TIP3    H128174   6.625   5.514  15.765 -0.7916  0.1313 -1.5720
 2253TIP3    H228175   6.518   5.421  15.817  0.8469 -0.1892  1.4492
 2254TIP3   OH228176   5.082   1.733   1.027  0.2731 -0.2978 -0.1372
 2254TIP3    H128177   5.056   1.787   0.952  1.6031  0.2988 -0.1831
 2254TIP3    H228178   5.172   1.706   1.008  1.0414  0.7782  1.7481
 2255TIP3   OH228179   1.760   4.818  13.033 -0.2479 -0.3330  0.0516
 2255TIP3    H128180   1.728   4.734  13.001  1.7313 -1.9782  2.0686
 2255TIP3    H228181   1.755   4.811  13.128 -3.4129  3.3044  0.3997
 2256TIP3   OH228182   0.436   0.818   5.385  0.4365  0.3090 -0.3688
 2256TIP3    H128183   0.385   0.890   5.348 -1.6562 -1.1212 -0.4146
 2256TIP3    H228184   0.412   0.742   5.332  2.4829 -0.5052 -0.2365
 2257TIP3   OH228185   5.700   5.255   3.151 -0.5207 -0.1590  0.1800
 2257TIP3    H128186   5.685   5.193   3.079 -0.9534  0.6221 -0.4227
 2257TIP3    H228187   5.778   5.222   3.195 -0.7386 -1.1294 -0.1262
 2258TIP3   OH228188   3.846   5.946   2.402 -0.4554 -0.0814 -0.9956
 2258TIP3    H128189   3.800   5.938   2.318 -0.5758  1.6035 -1.1155
 2258TIP3    H228190   3.939   5.948   2.378 -0.4177 -1.0101 -0.9574
 2259TIP3   OH228191   3.223   1.656   1.702  0.1421 -0.2812 -0.8414
 2259TIP3    H128192   3.158   1.627   1.766  0.8771 -0.5226 -0.1942
 2259TIP3    H228193   3.190   1.741   1.671 -1.9818 -1.6482 -2.6818
 2260TIP3   OH228194   4.192   1.200   2.117  0.0393 -0.1678  0.7161
 2260TIP3    H128195   4.184   1.160   2.030 -0.0752  0.4625  0.4343
 2260TIP3    H228196   4.234   1.284   2.101 -0.2640  0.0865  1.2309
 2261TIP3   OH228197   2.289   5.066   3.639 -0.9122 -0.4797 -0.3773
 2261TIP3    H128198   2.227   5.125   3.596 -2.0727 -0.8889  0.6764
 2261TIP3    H228199   2.316   5.113   3.717  0.0989 -0.3238 -0.8092
 2262TIP3   OH228200   6.714   5.769   1.945 -0.7360 -0.4816 -0.1743
 2262TIP3    H128201   6.764   5.745   1.866 -0.1303  0.4427 -0.0826
 2262TIP3    H228202   6.661   5.691   1.964 -0.5293 -0.8945 -1.2102
 2263TIP3   OH228203   4.260   2.609   4.024  0.0021  0.1654 -0.0911
 2263TIP3    H128204   4.259   2.666   4.101  1.9035 -0.1599  0.2259
 2263TIP3    H228205   4.290   2.666   3.953  1.7007 -0.3034  0.1844
 2264TIP3   OH228206   4.186   4.961  10.792 -0.8117  0.2254  0.0435
 2264TIP3    H128207   4.194   5.005  10.708  1.3783 -0.8002 -0.3749
 2264TIP3    H228208   4.243   5.012  10.851  0.8887 -1.3090 -0.1786
 2265TIP3   OH228209   4.096   3.762  16.331 -0.0884 -0.4375 -0.0195
 2265TIP3    H128210   4.023   3.700  16.329 -0.2506 -0.2387 -1.4409
 2265TIP3    H228211   4.094   3.799  16.419 -3.0951  1.1553 -0.5824
 2266TIP3   OH228212   1.625   0.394   1.020 -0.4205 -0.4855 -0.0573
 2266TIP3    H128213   1.718   0.399   1.044  0.1083 -2.4421 -1.4089
 2266TIP3    H228214   1.592   0.482   1.034  1.7038  0.3301  0.2508
 2267TIP3   OH228215   0.915   6.322  11.972 -0.1464  0.1069 -0.4580
 2267TIP3    H128216   0.826   6.327  12.009  0.2397  0.6814  0.4189
 2267TIP3    H228217   0.970   6.367  12.036  0.8024 -0.3565 -0.9331
 2268TIP3   OH228218   4.870   5.518  15.956 -0.5677  0.6531 -0.3980
 2268TIP3    H128219   4.928   5.448  15.988  0.2165  0.8122 -1.4389
 2268TIP3    H228220   4.820   5.544  16.034  0.9080  0.6627  0.5980
 2269TIP3   OH228221   1.168   4.336   0.320 -0.2100  0.1265  0.6178
 2269TIP3    H128222   1.228   4.385   0.375 -1.0720 -0.8960  2.5539
 2269TIP3    H228223   1.170   4.247   0.355 -2.2328 -0.1178  0.2535
 2270TIP3   OH228224   3.916   4.040  11.339  0.6410 -0.3792  0.0895
 2270TIP3    H128225   3.935   4.008  11.251 -1.5311 -0.1826 -0.5189
 2270TIP3    H228226   3.914   4.136  11.330  0.7893 -0.3430  0.4335
 2271TIP3   OH228227   1.378   6.033   2.618 -0.0148  0.7330  0.8245
 2271TIP3    H128228   1.393   5.940   2.635  0.2692  0.9114  1.6481
 2271TIP3    H228229   1.289   6.037   2.584  0.6963 -0.0516 -1.2975
 2272TIP3   OH228230   2.261   5.044   4.255  0.1427 -0.4372 -0.2262
 2272TIP3    H128231   2.326   5.028   4.187  0.6920 -1.6263  0.5390
 2272TIP3    H228232   2.182   4.998   4.223  0.3962 -0.9862 -0.0828
 2273TIP3   OH228233   1.798   1.429   1.118 -0.3187 -0.0048  0.1543
 2273TIP3    H128234   1.711   1.441   1.080 -0.9712 -0.6672  1.3829
 2273TIP3    H228235   1.858   1.463   1.051 -1.3367 -1.8519 -1.8153
 2274TIP3   OH228236   2.530   1.387   1.161 -0.3849  0.7115 -1.1256
 2274TIP3    H128237   2.590   1.345   1.098 -1.5713 -2.0100 -0.5640
 2274TIP3    H228238   2.581   1.395   1.241 -0.6441 -1.4425 -0.7001
 2275TIP3   OH228239   5.397   0.142   1.366  0.3586  0.8391  0.5748
 2275TIP3    H128240   5.473   0.123   1.311 -0.3556 -0.3773 -0.0327
 2275TIP3    H228241   5.343   0.063   1.361  0.0288  0.8847  2.6488
 2276TIP3   OH228242   6.298   0.550  16.302 -0.1229 -0.6420 -0.3087
 2276TIP3    H128243   6.337   0.497  16.233  0.8101 -0.2603 -0.0821
 2276TIP3    H228244   6.299   0.639  16.268  0.6212 -0.4088  0.3162
 2277TIP3   OH228245   2.908   4.811   6.159  0.4895 -0.0443  0.0841
 2277TIP3    H128246   2.831   4.763   6.189 -1.1889  2.5605  0.2885
 2277TIP3    H228247   2.947   4.845   6.239  1.6282 -0.9560 -0.0584
 2278TIP3   OH228248   6.369   6.347  17.068  0.0268  0.5806 -0.4461
 2278TIP3    H128249   6.275   6.328  17.063  0.5459 -3.3153  1.0040
 2278TIP3    H228250   6.398   6.348  16.976 -1.2102  0.5344 -0.8503
 2279TIP3   OH228251   3.959   0.682   5.210  0.0880  0.6318  0.5936
 2279TIP3    H128252   3.985   0.746   5.276  1.2993  0.9060 -0.1194
 2279TIP3    H228253   4.015   0.701   5.135 -0.5095 -0.3740 -0.1301
 2280TIP3   OH228254   5.257   0.335  14.740 -0.1054 -0.0848 -0.3061
 2280TIP3    H128255   5.303   0.409  14.701  0.4634 -0.3800 -0.2057
 2280TIP3    H228256   5.278   0.339  14.833 -0.9848  0.2727 -0.1065
 2281TIP3   OH228257   3.263   0.822  13.551 -0.1699  0.5813  0.5965
 2281TIP3    H128258   3.258   0.742  13.602 -0.8561 -0.5420 -1.1382
 2281TIP3    H228259   3.196   0.812  13.483  1.3814  1.5244 -1.1620
 2282TIP3   OH228260   6.586   3.929   5.181 -0.0933  0.1734  0.1395
 2282TIP3    H128261   6.604   3.846   5.225 -2.7184 -0.1260  0.8243
 2282TIP3    H228262   6.576   3.906   5.089 -0.3754 -0.2098  0.2627
 2283TIP3   OH228263   0.862   1.273  13.703  0.2556 -0.4707 -0.0171
 2283TIP3    H128264   0.774   1.304  13.682  0.4647 -0.5162 -1.0152
 2283TIP3    H228265   0.860   1.258  13.797 -0.8458 -0.5786 -0.0375
 2284TIP3   OH228266   0.315   6.603  13.468 -0.0896  0.5022  0.4000
 2284TIP3    H128267   0.246   6.667  13.449  0.2865  1.0105  0.7117
 2284TIP3    H228268   0.368   6.600  13.388 -1.6436 -1.4492 -0.6428
 2285TIP3   OH228269   1.121   4.995   5.483 -0.4194 -0.3265 -0.4214
 2285TIP3    H128270   1.059   5.013   5.412 -1.0576 -1.1148 -0.0840
 2285TIP3    H228271   1.074   5.019   5.563  0.7946  1.9166 -0.2893
 2286TIP3   OH228272   0.295   2.397  15.287 -0.1220 -0.3744  0.3798
 2286TIP3    H128273   0.379   2.409  15.331  0.0334  1.8789 -0.4055
 2286TIP3    H228274   0.244   2.343  15.347  1.1845 -0.1162  1.7951
 2287TIP3   OH228275   5.511   6.323   1.920  0.0147 -0.4519  0.4538
 2287TIP3    H128276   5.456   6.397   1.895  0.2973 -0.8418 -1.4627
 2287TIP3    H228277   5.589   6.362   1.959  0.4950  0.3205 -1.2030
 2288TIP3   OH228278   1.405   1.584   0.414  0.2719  0.1852 -0.5084
 2288TIP3    H128279   1.337   1.623   0.468 -0.0711 -2.2806  1.0059
 2288TIP3    H228280   1.419   1.497   0.452  3.0007 -0.0928 -1.8736
 2289TIP3   OH228281   2.804   3.213  12.035  0.3476 -0.2448  0.1051
 2289TIP3    H128282   2.818   3.169  12.118  1.7067 -0.0140  0.0163
 2289TIP3    H228283   2.723   3.175  12.000  0.0380 -0.6903  1.2907
 2290TIP3   OH228284   5.707   2.589  13.188  0.1575  0.6185 -0.0052
 2290TIP3    H128285   5.802   2.594  13.175  0.0296 -1.2208 -2.3275
 2290TIP3    H228286   5.696   2.534  13.266  1.0538 -0.7826 -0.8148
 2291TIP3   OH228287   2.878   0.043   5.622  0.3165 -0.2169  0.0581
 2291TIP3    H128288   2.871  -0.048   5.649  0.0601  0.4956  2.6862
 2291TIP3    H228289   2.916   0.040   5.534 -0.2677 -2.8433 -0.1666
 2292TIP3   OH228290   2.199   6.452   4.289 -0.4443 -0.0574  0.0333
 2292TIP3    H128291   2.210   6.542   4.257 -1.9069 -0.0261 -0.4332
 2292TIP3    H228292   2.271   6.404   4.248  0.3955  0.9025  0.3379
 2293TIP3   OH228293   0.089   2.442   1.502 -0.1246  0.1399  0.3446
 2293TIP3    H128294   0.087   2.368   1.563  0.6634  0.9151  1.3455
 2293TIP3    H228295   0.141   2.411   1.428 -0.7619 -0.6790  0.2249
 2294TIP3   OH228296   6.221   1.564  13.999 -0.3510  0.5209 -0.1339
 2294TIP3    H128297   6.147   1.504  13.994  0.1694 -0.2322  1.0084
 2294TIP3    H228298   6.296   1.512  13.972 -0.0082  0.8561  0.1633
 2295TIP3   OH228299   5.176   4.023   1.397  0.3755 -0.0812 -0.0664
 2295TIP3    H128300   5.100   4.036   1.454  2.0003  0.5613  2.0919
 2295TIP3    H228301   5.236   4.094   1.420  1.2696  0.0336 -2.4167
 2296TIP3   OH228302   2.312   6.448   4.677 -0.4495 -0.1303  0.0859
 2296TIP3    H128303   2.226   6.464   4.637 -0.9001 -0.0732  1.0551
 2296TIP3    H228304   2.331   6.356   4.657 -1.1083 -0.3744  0.5450
 2297TIP3   OH228305   3.564   1.691   5.161  0.0625 -0.0605 -0.0498
 2297TIP3    H128306   3.552   1.651   5.075  1.2354  0.0084 -0.2714
 2297TIP3    H228307   3.501   1.647   5.217 -1.0136  0.1825 -1.0237
 2298TIP3   OH228308   0.258   4.321   5.962  0.0370  0.1378 -0.0949
 2298TIP3    H128309   0.190   4.387   5.976 -0.9366 -0.3173 -2.2957
 2298TIP3    H228310   0.233   4.248   6.020 -1.1932  0.0926 -0.6509
 2299TIP3   OH228311   2.171   3.491   2.295  0.0992 -0.0933  0.1646
 2299TIP3    H128312   2.246   3.502   2.238  0.0975 -0.9015 -0.0029
 2299TIP3    H228313   2.167   3.397   2.313 -0.8227 -0.0552  0.2348
 2300TIP3   OH228314   6.712   3.543   3.271  0.5755 -0.5206 -0.2293
 2300TIP3    H128315   6.617   3.532   3.277  0.5523 -0.1486  0.1376
 2300TIP3    H228316   6.724   3.621   3.218  0.6499  0.0112  0.5516
 2301TIP3   OH228317   4.028   3.826  15.833  0.1113  0.0746  0.4460
 2301TIP3    H128318   4.037   3.766  15.907  0.5460  1.1898  1.3405
 2301TIP3    H228319   3.950   3.796  15.787  1.1078 -2.0198  0.0274
 2302TIP3   OH228320   2.139   1.321  14.920  0.0677 -0.1434  0.1893
 2302TIP3    H128321   2.169   1.237  14.884  1.7053  0.3148  0.3897
 2302TIP3    H228322   2.220   1.363  14.950 -0.5456  2.0911 -1.1180
 2303TIP3   OH228323   3.965   4.801  13.454 -0.5397 -0.0571 -0.3000
 2303TIP3    H128324   3.996   4.762  13.536  1.1723 -3.4365 -2.3584
 2303TIP3    H228325   3.869   4.792  13.458 -0.5862  0.8336  1.7067
 2304TIP3   OH228326   0.225   0.721   3.919  0.2170  0.6868  0.6466
 2304TIP3    H128327   0.285   0.657   3.881 -0.5951 -0.3034  0.9772
 2304TIP3    H228328   0.170   0.749   3.846 -1.4738 -1.3644  1.0478
 2305TIP3   OH228329   6.484   1.189   4.446 -0.5987  0.1824 -0.2468
 2305TIP3    H128330   6.435   1.201   4.365  0.2826  0.0677 -0.8073
 2305TIP3    H228331   6.535   1.109   4.432  0.9758  1.1630 -0.3160
 2306TIP3   OH228332   5.264   1.313   2.393  0.0399 -0.0554 -0.2424
 2306TIP3    H128333   5.360   1.317   2.394  0.0326  0.4891  1.1332
 2306TIP3    H228334   5.239   1.318   2.485 -1.2270 -3.3940 -0.2625
 2307TIP3   OH228335   1.917   4.924   0.346 -0.2415 -0.2225 -0.2682
 2307TIP3    H128336   1.932   4.837   0.310 -0.3002  0.3291 -1.6978
 2307TIP3    H228337   1.827   4.922   0.377 -0.5356 -0.4115 -1.1125
 2308TIP3   OH228338   2.539   4.138   4.270 -0.1704  0.0214 -0.3215
 2308TIP3    H128339   2.546   4.224   4.228  0.4886  1.5174  2.5961
 2308TIP3    H228340   2.456   4.142   4.319  1.2436  0.2864  2.2433
 2309TIP3   OH228341   4.746   2.440   0.317 -0.4693  0.7601  0.4145
 2309TIP3    H128342   4.757   2.345   0.320 -0.6617  0.6802 -0.9171
 2309TIP3    H228343   4.731   2.465   0.409 -2.8965 -0.7915  0.5379
 2310TIP3   OH228344   3.088   5.313   3.537  0.3774 -0.5188 -0.5398
 2310TIP3    H128345   3.002   5.308   3.496  0.9867 -3.8229 -1.6639
 2310TIP3    H228346   3.116   5.222   3.547  3.5122  0.4153  0.3174
 2311TIP3   OH228347   0.506   0.490  11.923 -0.5062 -0.1749 -0.1620
 2311TIP3    H128348   0.458   0.440  11.857 -1.7421  0.5237  0.1784
 2311TIP3    H228349   0.485   0.448  12.006 -1.2034  0.6113  0.0781
 2312TIP3   OH228350   0.374   2.865   1.224  0.5012  0.0683 -0.0207
 2312TIP3    H128351   0.435   2.844   1.294  0.5408  1.3753  0.3707
 2312TIP3    H228352   0.425   2.857   1.143  0.8604 -0.0163  0.2138
 2313TIP3   OH228353   5.526   1.910  13.542 -0.2626 -0.5803  0.1651
 2313TIP3    H128354   5.601   1.853  13.558 -0.1946 -0.8278 -0.9231
 2313TIP3    H228355   5.565   1.995  13.522 -0.2350 -0.8066 -0.7998
 2314TIP3   OH228356   2.392   1.636  14.400 -0.3635 -0.0771 -0.6915
 2314TIP3    H128357   2.478   1.648  14.359  0.6438 -2.7861  0.4069
 2314TIP3    H228358   2.412   1.610  14.490 -2.0224 -4.8193 -1.4136
 2315TIP3   OH228359   4.783   3.668  17.001 -0.2797 -0.1359  0.2585
 2315TIP3    H128360   4.711   3.606  16.989 -0.7977  0.5417 -0.2354
 2315TIP3    H228361   4.808   3.694  16.913  0.5645 -0.3505  0.4277
 2316TIP3   OH228362   0.718   2.050  14.327 -0.4642  0.0616  0.0412
 2316TIP3    H128363   0.727   2.135  14.370  1.2693  0.2564 -0.6137
 2316TIP3    H228364   0.698   1.989  14.398  0.5690  0.6597  0.8749
 2317TIP3   OH228365   2.780   3.605   5.574 -0.3316  0.3640 -0.3524
 2317TIP3    H128366   2.869   3.609   5.540 -0.8259 -1.7770 -2.1040
 2317TIP3    H228367   2.774   3.519   5.615 -1.3832  0.7894  0.4235
 2318TIP3   OH228368   3.964   1.747  14.946 -0.2663  0.7812 -0.0818
 2318TIP3    H128369   4.053   1.723  14.971 -0.5189 -0.0648  0.0438
 2318TIP3    H228370   3.975   1.812  14.876  0.4434  0.9422  0.1718
 2319TIP3   OH228371   6.715   4.260  14.916  0.1913 -0.6165 -0.2848
 2319TIP3    H128372   6.703   4.328  14.850  1.2865  0.0644  0.1950
 2319TIP3    H228373   6.626   4.238  14.944 -0.2362 -0.2701 -1.3332
 2320TIP3   OH228374   1.598   4.999  13.322  0.4439 -0.0381 -0.1213
 2320TIP3    H128375   1.580   5.092  13.305 -1.5074 -0.1556  1.0915
 2320TIP3    H228376   1.543   4.952  13.259  0.6667 -0.3859 -0.0585
 2321TIP3   OH228377   3.610   3.643   2.992  0.3472  0.0027 -0.7019
 2321TIP3    H128378   3.546   3.592   3.040 -1.5761  1.4114 -1.6391
 2321TIP3    H228379   3.596   3.619   2.900  0.4706  1.0281 -1.0030
 2322TIP3   OH228380   6.711   2.817   3.133 -0.1900 -0.3266 -0.6271
 2322TIP3    H128381   6.717   2.908   3.103  0.2435  0.2776  1.1493
 2322TIP3    H228382   6.775   2.811   3.204 -1.4002 -1.5580  0.4103
 2323TIP3   OH228383   2.743   5.186  12.314 -0.1221 -0.6396 -0.3240
 2323TIP3    H128384   2.761   5.145  12.398  0.0875  0.5441  0.2320
 2323TIP3    H228385   2.781   5.274  12.321 -3.4231  0.9294 -0.2012
 2324TIP3   OH228386   3.866   5.483  10.866  0.5081 -0.5111  0.0932
 2324TIP3    H128387   3.874   5.400  10.819 -1.5103 -0.4392 -0.4548
 2324TIP3    H228388   3.920   5.544  10.815  2.2202 -1.4973  0.6458
 2325TIP3   OH228389   2.324   3.644   5.009  0.1512 -0.1961 -1.0686
 2325TIP3    H128390   2.372   3.564   4.990  1.9529  0.6719 -0.3778
 2325TIP3    H228391   2.255   3.647   4.942  0.9706 -1.5591 -2.0233
 2326TIP3   OH228392   5.254   4.501   4.350 -0.1056 -0.7632  0.3406
 2326TIP3    H128393   5.209   4.517   4.433 -1.4835  1.1344 -0.7077
 2326TIP3    H228394   5.341   4.539   4.362 -1.0288  1.5090  0.2346
 2327TIP3   OH228395   4.857   4.668  13.477  0.8037 -0.6879 -0.0795
 2327TIP3    H128396   4.809   4.601  13.427  1.9094 -1.3065 -0.3326
 2327TIP3    H228397   4.949   4.644  13.468  1.1403  0.1869  0.8375
 2328TIP3   OH228398   2.813   5.309  10.940 -0.8137 -0.6376  0.4105
 2328TIP3    H128399   2.758   5.268  10.873 -2.1585  0.7017  0.6379
 2328TIP3    H228400   2.760   5.380  10.975  1.1349  0.8620  0.5275
 2329TIP3   OH228401   4.092   2.547   2.799  0.0729  0.5438  0.1534
 2329TIP3    H128402   4.116   2.458   2.772  0.2635  0.5776  0.2075
 2329TIP3    H228403   4.047   2.536   2.882  1.0138  0.5772  0.6869
 2330TIP3   OH228404   1.119   2.845  14.202 -0.1091 -0.1992  0.8128
 2330TIP3    H128405   1.078   2.799  14.276  1.1016 -1.2966  0.8235
 2330TIP3    H228406   1.067   2.818  14.126 -0.9092  0.3600  1.1400
 2331TIP3   OH228407   5.367   0.339  14.992 -0.1026  0.9568 -0.3761
 2331TIP3    H128408   5.459   0.341  15.020 -0.0808  1.8423 -0.4772
 2331TIP3    H228409   5.322   0.398  15.053 -0.3939  1.4125 -1.0113
 2332TIP3   OH228410   1.428   3.195   2.588 -0.0629  0.3929 -0.1022
 2332TIP3    H128411   1.426   3.107   2.551  0.2892 -0.0060  0.8035
 2332TIP3    H228412   1.521   3.215   2.597 -0.0643 -0.3973  2.5336
 2333TIP3   OH228413   0.378   1.413   2.102 -0.3233 -0.1182  0.2312
 2333TIP3    H128414   0.347   1.404   2.012  1.4554 -0.1335 -0.4195
 2333TIP3    H228415   0.339   1.494   2.134  0.4073  0.8150 -1.1707
 2334TIP3   OH228416   4.869   5.931   4.179 -0.3817 -0.1701  0.0782
 2334TIP3    H128417   4.958   5.928   4.213  0.7111  1.8901 -2.3044
 2334TIP3    H228418   4.814   5.910   4.255  2.0908 -2.8328  1.3290
 2335TIP3   OH228419   0.692   5.258   2.077 -0.1062 -0.0862 -0.0506
 2335TIP3    H128420   0.676   5.333   2.020  0.9903 -0.2660 -0.6196
 2335TIP3    H228421   0.714   5.297   2.162  1.0595  0.2605 -0.5020
 2336TIP3   OH228422   4.668   3.122  17.254 -0.3746 -0.0369 -0.1640
 2336TIP3    H128423   4.726   3.080  17.318  1.4477  1.1372 -0.9940
 2336TIP3    H228424   4.587   3.139  17.304  0.7709  0.3087  1.6770
 2337TIP3   OH228425   3.064   6.577  17.178 -0.2506  0.7286 -0.6274
 2337TIP3    H128426   3.146   6.590  17.227  0.3753 -1.1258 -1.1222
 2337TIP3    H228427   3.068   6.643  17.109 -0.7960  2.9024  1.2699
 2338TIP3   OH228428   0.080   3.530   4.988  0.0875  0.5381 -0.1047
 2338TIP3    H128429   0.101   3.548   5.080  0.4727  1.5915 -0.3826
 2338TIP3    H228430   0.049   3.614   4.954 -1.3121 -0.1511 -0.6088
 2339TIP3   OH228431   1.530   5.389   4.034  0.3670 -0.1120  0.4607
 2339TIP3    H128432   1.565   5.331   4.102  0.0589 -1.9247 -0.8608
 2339TIP3    H228433   1.556   5.348   3.952 -3.3997 -0.7113 -0.6109
 2340TIP3   OH228434   5.207   3.769   1.868 -0.2002 -0.3645  0.8194
 2340TIP3    H128435   5.266   3.723   1.928  1.9425  1.0545 -0.0781
 2340TIP3    H228436   5.244   3.755   1.781 -2.4709 -1.2297 -0.0969
 2341TIP3   OH228437   2.970   0.782  12.760 -0.0839  0.0367  0.1682
 2341TIP3    H128438   2.980   0.771  12.665  0.6414 -0.1199  0.2560
 2341TIP3    H228439   2.888   0.829  12.770 -0.4817 -0.4960 -0.5098
 2342TIP3   OH228440   3.573   2.954  12.173  0.0812  0.1765  1.0796
 2342TIP3    H128441   3.646   3.002  12.212 -0.2120  0.1856  1.6357
 2342TIP3    H228442   3.612   2.872  12.142  0.3318  0.1813  1.3710
 2343TIP3   OH228443   6.083   4.877   0.131 -0.4776  0.3785  0.4172
 2343TIP3    H128444   6.149   4.810   0.114  0.0993  0.9371  0.3823
 2343TIP3    H228445   6.122   4.958   0.098 -1.8606  0.4698 -1.0742
 2344TIP3   OH228446   5.838   4.972   0.109  0.2642  0.3883 -0.1293
 2344TIP3    H128447   5.831   5.030   0.185  0.9869  0.3796 -0.0434
 2344TIP3    H228448   5.918   4.922   0.126 -0.4448 -0.7541 -0.1204
 2345TIP3   OH228449   3.476   5.488  11.711  0.2142  0.5386 -0.0812
 2345TIP3    H128450   3.451   5.576  11.683 -0.1306  0.2294 -0.7602
 2345TIP3    H228451   3.481   5.438  11.630  0.8299  0.0333  0.2656
 2346TIP3   OH228452   2.578   2.304  17.036 -0.1393  0.0700  0.5286
 2346TIP3    H128453   2.514   2.265  16.976  1.0171 -0.7697 -0.2046
 2346TIP3    H228454   2.580   2.244  17.111  0.6548 -0.5848  0.0017
 2347TIP3   OH228455   5.147   6.155   1.308  0.2818 -0.3787  0.3547
 2347TIP3    H128456   5.141   6.129   1.217 -0.1835 -0.6306  0.4554
 2347TIP3    H228457   5.163   6.074   1.356  1.4891 -0.1272  0.4107
 2348TIP3   OH228458   2.979   1.077   3.024  0.2916  0.1457 -0.3935
 2348TIP3    H128459   2.963   1.150   3.084 -0.1021  0.6870 -1.1307
 2348TIP3    H228460   2.984   1.118   2.937 -0.3103 -0.7401 -0.8683
 2349TIP3   OH228461   5.939   1.140  13.179 -0.3646 -0.2291  0.3559
 2349TIP3    H128462   6.019   1.186  13.153 -1.3667  0.9185 -0.8355
 2349TIP3    H228463   5.912   1.184  13.260  0.4547 -0.9854  1.0790
 2350TIP3   OH228464   4.732   2.908  12.608  0.7656  0.0690  0.1648
 2350TIP3    H128465   4.824   2.903  12.633  1.1985 -2.3557 -1.4898
 2350TIP3    H228466   4.730   2.967  12.533  1.6109 -2.1494 -1.7498
 2351TIP3   OH228467   4.676   6.565  12.152 -0.1755 -0.1617 -0.2947
 2351TIP3    H128468   4.666   6.556  12.057  3.0728 -1.0214 -0.6492
 2351TIP3    H228469   4.714   6.652  12.164 -2.1366  0.6637  0.4613
 2352TIP3   OH228470   2.486   6.210  11.562 -0.0874  0.1637  0.0881
 2352TIP3    H128471   2.458   6.119  11.553 -0.3143 -0.0203  2.1569
 2352TIP3    H228472   2.477   6.229  11.656  2.4709  1.4871  0.1573
 2353TIP3   OH228473   6.002   4.276  15.842 -0.7043 -0.5507  0.2998
 2353TIP3    H128474   6.089   4.246  15.869 -0.4426  0.1091  0.2078
 2353TIP3    H228475   6.019   4.335  15.769 -1.1936 -0.0634  0.5766
 2354TIP3   OH228476   5.366   1.473   2.745 -0.1510  0.0785  0.1468
 2354TIP3    H128477   5.326   1.472   2.832  0.6250  1.0357  0.5298
 2354TIP3    H228478   5.318   1.541   2.698 -2.1669 -1.9919 -0.9982
 2355TIP3   OH228479   1.960   0.583   4.218  0.2143 -0.3855 -0.2548
 2355TIP3    H128480   1.915   0.632   4.149  1.1275 -2.6154 -2.5747
 2355TIP3    H228481   1.890   0.555   4.277 -0.5129  2.1510  0.2052
 2356TIP3   OH228482   1.335   5.610   3.231  0.1226 -0.3330  0.1745
 2356TIP3    H128483   1.372   5.554   3.163  1.5488  0.4619  0.2551
 2356TIP3    H228484   1.262   5.559   3.267 -0.0412 -1.1637 -1.2752
 2357TIP3   OH228485   5.939   4.522   3.596 -0.6421  0.4364  0.4109
 2357TIP3    H128486   5.978   4.458   3.656  0.9415 -0.1249 -1.1351
 2357TIP3    H228487   5.860   4.552   3.641 -0.2874 -1.0261  2.1184
 2358TIP3   OH228488   1.688   4.615   0.588 -0.2472  0.3448  0.6836
 2358TIP3    H128489   1.693   4.581   0.677  0.6491  0.5823  0.7319
 2358TIP3    H228490   1.767   4.582   0.546  0.1541  1.5833  0.4523
 2359TIP3   OH228491   4.399   4.977   1.542 -0.0813  0.3087 -0.1463
 2359TIP3    H128492   4.464   5.036   1.581 -0.7848  0.5868  0.6271
 2359TIP3    H228493   4.324   4.982   1.600  0.2958 -2.3710  0.7101
 2360TIP3   OH228494   2.288   2.151   3.842 -0.5716 -0.7237  0.3121
 2360TIP3    H128495   2.269   2.242   3.867  1.9481 -0.4530  1.6048
 2360TIP3    H228496   2.309   2.156   3.748  0.7271  0.2972  0.6196
 2361TIP3   OH228497   5.689   5.720  16.975 -0.2857 -0.0102 -0.0192
 2361TIP3    H128498   5.622   5.715  17.043 -0.3869  0.8036 -0.0516
 2361TIP3    H228499   5.730   5.633  16.976 -0.5222 -0.1264  0.8332
 2362TIP3   OH228500   1.755   1.885  12.916  0.8931  0.3881 -0.0446
 2362TIP3    H128501   1.769   1.791  12.922 -0.3055  0.1255 -0.9942
 2362TIP3    H228502   1.697   1.905  12.990 -1.4467 -0.2133 -1.6086
 2363TIP3   OH228503   4.934   4.734  17.328 -0.0476  0.6260 -0.5895
 2363TIP3    H128504   4.855   4.762  17.281 -0.7598 -0.6897 -0.2274
 2363TIP3    H228505   4.982   4.815  17.344 -2.2179  1.7562  0.7977
 2364TIP3   OH228506   3.248   0.185   1.624 -0.1729  0.4863 -0.4067
 2364TIP3    H128507   3.232   0.100   1.582  0.7724  1.4507 -2.8721
 2364TIP3    H228508   3.344   0.191   1.630 -0.2508  1.1039  0.3806
 2365TIP3   OH228509   5.725   2.898  10.716  1.0061 -0.3389  0.9213
 2365TIP3    H128510   5.700   2.981  10.675  1.0143 -0.4296  0.7295
 2365TIP3    H228511   5.821   2.897  10.712  0.9808 -0.7525  0.1208
 2366TIP3   OH228512   3.075   5.377  16.078 -0.9871 -0.5499 -0.2806
 2366TIP3    H128513   3.069   5.286  16.048  0.7143 -0.9270  0.4542
 2366TIP3    H228514   3.113   5.372  16.165 -0.3810  0.9013 -0.4313
 2367TIP3   OH228515   6.464   3.494   6.439  0.2915  0.6079 -0.1388
 2367TIP3    H128516   6.426   3.411   6.469  0.9904  0.4628  0.3802
 2367TIP3    H228517   6.509   3.472   6.358 -1.2727  0.9198 -1.1312
 2368TIP3   OH228518   5.836   3.814  10.603  0.2956 -0.1572  0.0869
 2368TIP3    H128519   5.764   3.874  10.583 -0.6714 -1.3771 -0.2143
 2368TIP3    H228520   5.813   3.778  10.688  0.0994 -1.1597 -0.3728
 2369TIP3   OH228521   6.138   1.239   5.150  0.4282  0.3397  0.0125
 2369TIP3    H128522   6.048   1.208   5.142  0.4202  0.1718  0.6758
 2369TIP3    H228523   6.134   1.309   5.215  0.8123  0.1575  0.2387
 2370TIP3   OH228524   4.909   1.356  15.546  0.5549  0.3412 -0.5813
 2370TIP3    H128525   4.879   1.444  15.569  0.0676 -0.4793  2.3501
 2370TIP3    H228526   4.838   1.319  15.493 -0.6341  0.7500  0.6567
 2371TIP3   OH228527   3.320   1.939  15.352  0.0424 -0.5737 -0.9964
 2371TIP3    H128528   3.343   2.031  15.362  0.6932 -0.6229 -1.8847
 2371TIP3    H228529   3.346   1.917  15.262  1.4958 -2.0564 -0.2698
 2372TIP3   OH228530   0.902   3.691   1.393  1.0727  0.0066  0.1920
 2372TIP3    H128531   0.846   3.664   1.466 -0.0258 -1.9086 -1.2705
 2372TIP3    H228532   0.984   3.643   1.407  0.5143 -1.1247 -0.3269
 2373TIP3   OH228533   4.814   4.623   2.507  0.6652  0.6397  0.6020
 2373TIP3    H128534   4.758   4.588   2.576 -2.0037  1.5145 -0.9414
 2373TIP3    H228535   4.769   4.601   2.426  1.9318  2.4686 -0.6932
 2374TIP3   OH228536   2.448   1.949  13.620 -0.4924 -0.0782 -1.0137
 2374TIP3    H128537   2.513   1.997  13.571  0.0453 -1.2303 -1.4673
 2374TIP3    H228538   2.450   1.861  13.583 -1.2070 -0.5460  0.0019
 2375TIP3   OH228539   3.875   5.750   0.277 -0.4171  0.3553  0.6257
 2375TIP3    H128540   3.787   5.758   0.314 -0.5302  1.0052  0.2301
 2375TIP3    H228541   3.867   5.783   0.188  0.3052  0.7364  0.6940
 2376TIP3   OH228542   3.215   4.205   3.326  0.1493  0.3050  0.3227
 2376TIP3    H128543   3.265   4.281   3.294  0.6132 -0.0257  0.2458
 2376TIP3    H228544   3.250   4.188   3.413 -2.1612  2.1419  1.6966
 2377TIP3   OH228545   4.588   4.991  15.717  0.1966 -0.1286  0.1301
 2377TIP3    H128546   4.518   5.015  15.778 -0.0483  0.5456 -0.4098
 2377TIP3    H228547   4.550   4.921  15.664 -0.2216  0.5239 -0.4399
 2378TIP3   OH228548   5.993   3.541   3.807  0.7593 -0.1870 -0.2503
 2378TIP3    H128549   5.979   3.455   3.847 -0.9367  0.1224 -0.1123
 2378TIP3    H228550   6.085   3.560   3.824  1.5510 -2.5137 -1.3892
 2379TIP3   OH228551   2.687   6.296   1.493  0.6656  0.3360 -0.7820
 2379TIP3    H128552   2.677   6.290   1.588 -0.7809 -0.8473 -0.9760
 2379TIP3    H228553   2.668   6.388   1.473  0.2585  0.4361  0.0117
 2380TIP3   OH228554   5.154   2.946  13.066  0.3102 -0.3332  0.2431
 2380TIP3    H128555   5.182   3.008  12.999 -0.8282  0.0789  0.1211
 2380TIP3    H228556   5.115   2.873  13.017 -0.8233  0.1199  0.4448
 2381TIP3   OH228557   4.027   4.311  17.106 -0.2201 -0.5781 -0.5667
 2381TIP3    H128558   4.057   4.277  17.191 -0.5390 -2.5100 -1.1633
 2381TIP3    H228559   3.960   4.249  17.079 -2.0359  1.4797 -1.0457
 2382TIP3   OH228560   6.554   6.304   5.395 -0.2613 -0.2372 -0.1302
 2382TIP3    H128561   6.546   6.323   5.489  2.4252 -0.4543  0.2352
 2382TIP3    H228562   6.465   6.284   5.367 -1.4050  1.3688  2.0067
 2383TIP3   OH228563   2.487   2.245   2.014  0.2697 -0.1202  0.3362
 2383TIP3    H128564   2.503   2.215   1.924 -0.7133 -0.4915  0.2787
 2383TIP3    H228565   2.465   2.165   2.062  0.8588  0.0692  0.9337
 2384TIP3   OH228566   4.868   5.071   5.519 -0.0378 -0.2175  0.7922
 2384TIP3    H128567   4.820   5.058   5.437 -0.9513  1.2991  1.0443
 2384TIP3    H228568   4.802   5.104   5.581  1.1229  1.1002  1.3968
 2385TIP3   OH228569   1.340   3.549   5.670  0.0017 -0.0325 -0.4631
 2385TIP3    H128570   1.340   3.640   5.641  0.5781  1.0849  2.6612
 2385TIP3    H228571   1.248   3.526   5.678 -0.2092  1.2122  1.1648
 2386TIP3   OH228572   0.176   1.057  12.289  0.2300  0.0003  0.1289
 2386TIP3    H128573   0.184   1.002  12.211 -0.5750 -0.2016  0.1805
 2386TIP3    H228574   0.183   1.146  12.256 -0.2040 -0.0816 -0.1986
 2387TIP3   OH228575   5.945   3.583   3.029 -0.4470 -0.7829  0.2761
 2387TIP3    H128576   5.976   3.581   2.939 -2.1562 -0.3227 -0.3495
 2387TIP3    H228577   5.860   3.625   3.025  0.1724  0.8460  2.3565
 2388TIP3   OH228578   1.585   5.845  13.353  0.2914  0.6014  0.1536
 2388TIP3    H128579   1.648   5.912  13.380 -0.9004  2.0906 -0.5933
 2388TIP3    H228580   1.501   5.875  13.389 -0.0664 -1.1933  0.9099
 2389TIP3   OH228581   0.096   5.609   4.378  0.1330  0.0111 -0.1690
 2389TIP3    H128582   0.179   5.612   4.425 -0.3973  0.2140  0.8005
 2389TIP3    H228583   0.062   5.699   4.385  0.5547  0.3388 -1.9401
 2390TIP3   OH228584   3.840   1.205   6.228  0.6088  0.5668  0.0323
 2390TIP3    H128585   3.754   1.246   6.227 -1.0033 -2.4903 -1.5114
 2390TIP3    H228586   3.870   1.213   6.319 -1.0950  2.0180  0.5237
 2391TIP3   OH228587   6.610   1.670  13.876 -0.2549 -0.3801  0.5048
 2391TIP3    H128588   6.552   1.747  13.877 -0.0446 -0.2228  1.1670
 2391TIP3    H228589   6.658   1.676  13.958  1.4664  0.0655 -0.4799
 2392TIP3   OH228590   6.175   0.081  15.118 -0.1939 -0.0139 -0.0711
 2392TIP3    H128591   6.241   0.052  15.055 -1.1152 -0.1983 -0.9750
 2392TIP3    H228592   6.211   0.160  15.157  1.7722 -1.5556  1.4311
 2393TIP3   OH228593   2.312   3.698  14.859  0.2984  0.1446  0.4893
 2393TIP3    H128594   2.315   3.609  14.825  1.0204 -0.0720  1.0951
 2393TIP3    H228595   2.308   3.753  14.781 -0.4737 -0.4220  0.1145
 2394TIP3   OH228596   6.723   5.796  12.166 -0.2353  0.1250  0.1095
 2394TIP3    H128597   6.717   5.856  12.241 -0.9923 -0.0773  0.2185
 2394TIP3    H228598   6.667   5.836  12.100 -0.6018 -0.3692  0.1198
 2395TIP3   OH228599   0.190   4.678   0.505  0.2218  0.3889 -0.6112
 2395TIP3    H128600   0.241   4.616   0.557 -0.5746 -0.3595 -0.7125
 2395TIP3    H228601   0.252   4.710   0.439  1.6927  2.4663  1.6042
 2396TIP3   OH228602   3.149   5.422  14.772  0.2562 -0.4800 -0.0761
 2396TIP3    H128603   3.168   5.444  14.864 -1.5351  0.1258  0.1842
 2396TIP3    H228604   3.094   5.494  14.741 -0.6953 -1.5808 -1.0473
 2397TIP3   OH228605   5.180   6.753   5.285  0.1366 -0.2775 -0.4181
 2397TIP3    H128606   5.136   6.823   5.236 -1.5619 -1.3933 -0.5704
 2397TIP3    H228607   5.186   6.681   5.222  2.8482  0.0061 -0.6132
 2398TIP3   OH228608   4.032   0.585  14.251  0.0576 -0.1198  0.4870
 2398TIP3    H128609   4.097   0.597  14.320  2.3219 -1.6141 -1.2636
 2398TIP3    H228610   3.968   0.524  14.288  2.1967 -2.3296  0.7616
 2399TIP3   OH228611   2.521   4.572  10.863 -0.1644 -0.3064  0.5006
 2399TIP3    H128612   2.578   4.545  10.790 -0.1511 -0.4781  0.5742
 2399TIP3    H228613   2.435   4.535  10.841  0.0802 -1.2622  1.0896
 2400TIP3   OH228614   2.510   3.910  13.539  0.0245 -0.3654 -0.3729
 2400TIP3    H128615   2.510   4.001  13.568 -0.5019 -0.6045  0.4192
 2400TIP3    H228616   2.431   3.902  13.486 -1.2202 -0.9096  1.4611
 2401TIP3   OH228617   3.744   0.834  13.263  0.3434  0.5567 -0.4637
 2401TIP3    H128618   3.653   0.810  13.245  0.4967  0.7731 -1.5953
 2401TIP3    H228619   3.741   0.928  13.281  0.3852  0.6153 -0.7703
 2402TIP3   OH228620   3.136   3.560  11.138  0.9562 -0.0251  0.1437
 2402TIP3    H128621   3.155   3.639  11.087  1.6524 -0.5212 -0.4120
 2402TIP3    H228622   3.175   3.576  11.223 -0.5610  0.9762  0.6873
 2403TIP3   OH228623   4.418   0.382  13.443 -0.1426 -0.0924 -0.1520
 2403TIP3    H128624   4.440   0.444  13.374 -1.0060  0.9000  0.4436
 2403TIP3    H228625   4.383   0.436  13.514  1.8624 -0.9317  1.5897
 2404TIP3   OH228626   5.140   3.079  12.639 -0.6038  0.0366 -0.2544
 2404TIP3    H128627   5.090   3.000  12.620  0.5367 -0.5349 -0.8982
 2404TIP3    H228628   5.224   3.067  12.596 -0.1835  1.3420  0.1365
 2405TIP3   OH228629   4.794   3.717  14.659 -0.1390  0.0533  0.0297
 2405TIP3    H128630   4.882   3.681  14.647 -0.8871 -1.4752 -1.1580
 2405TIP3    H228631   4.785   3.783  14.590 -0.8195 -1.6653 -1.6218
 2406TIP3   OH228632   3.517   1.159   6.005 -0.0846  0.2462 -0.0515
 2406TIP3    H128633   3.450   1.135   5.941 -0.7915  0.1696  0.7060
 2406TIP3    H228634   3.495   1.109   6.083  0.0131  1.3022  0.6713
 2407TIP3   OH228635   0.651   6.043   5.676 -0.2467 -0.1634  0.0709
 2407TIP3    H128636   0.604   6.021   5.595  2.7699 -1.2714 -1.5459
 2407TIP3    H228637   0.628   5.974   5.737 -1.7249  0.0722 -0.1964
 2408TIP3   OH228638   4.489   0.498  10.855  0.3123  0.4592 -0.3492
 2408TIP3    H128639   4.583   0.496  10.842 -0.0721  0.6766 -3.9842
 2408TIP3    H228640   4.455   0.425  10.803 -1.6408  1.5824 -0.7644
 2409TIP3   OH228641   6.394   2.005   2.364  0.0555  0.2185  0.3302
 2409TIP3    H128642   6.485   2.031   2.372  0.5449 -1.7544  2.0456
 2409TIP3    H228643   6.397   1.910   2.352 -1.7849 -0.0421  1.4879
 2410TIP3   OH228644   2.969   1.737  12.162  0.2492 -0.8488  0.1711
 2410TIP3    H128645   2.964   1.656  12.213 -1.3921 -0.5159  0.6066
 2410TIP3    H228646   2.986   1.805  12.227  0.1596 -0.6646  0.0007
 2411TIP3   OH228647   1.423   4.267   2.240 -0.1904 -1.2774 -0.0158
 2411TIP3    H128648   1.508   4.238   2.274  0.9700  1.1145 -0.6606
 2411TIP3    H228649   1.367   4.272   2.317  0.0672 -3.2709  0.3736
 2412TIP3   OH228650   5.123   4.537   1.175 -0.5481  0.2758 -0.2133
 2412TIP3    H128651   5.179   4.481   1.121 -1.0616 -0.1148 -0.3576
 2412TIP3    H228652   5.041   4.488   1.181 -0.9153  0.9013 -0.1219
 2413TIP3   OH228653   4.999   5.320  12.929 -0.2343  0.0952 -0.2851
 2413TIP3    H128654   5.034   5.409  12.917  1.3737  0.4253  4.5066
 2413TIP3    H228655   4.941   5.328  13.005 -1.6583 -2.6888 -0.9524
 2414TIP3   OH228656   0.963   3.174  16.667  0.2050 -0.0615 -0.1327
 2414TIP3    H128657   1.055   3.154  16.682  0.2960 -0.1224 -0.7309
 2414TIP3    H228658   0.946   3.253  16.719  0.3269 -0.6225  0.7683
 2415TIP3   OH228659   5.051   1.645   2.167 -0.1882 -0.0766  0.0866
 2415TIP3    H128660   5.001   1.612   2.093  0.1403  0.8036 -0.5354
 2415TIP3    H228661   4.993   1.632   2.243 -0.6514 -0.6727 -0.3608
 2416TIP3   OH228662   1.576   2.630   2.565  0.6169 -0.1127  0.1148
 2416TIP3    H128663   1.578   2.718   2.528  0.4215 -0.2812 -0.2995
 2416TIP3    H228664   1.660   2.621   2.610  1.6335 -0.5433 -1.7634
 2417TIP3   OH228665   0.720   1.600   4.521 -0.3074 -0.3130  0.2209
 2417TIP3    H128666   0.715   1.571   4.612  2.5648 -1.8038  0.0274
 2417TIP3    H228667   0.768   1.683   4.524 -2.3748  0.9359  0.2007
 2418TIP3   OH228668   0.074   4.485  13.133 -0.3048  0.2386  0.0891
 2418TIP3    H128669  -0.005   4.499  13.186 -0.8592 -0.3020 -0.5783
 2418TIP3    H228670   0.081   4.564  13.080 -1.4568 -0.4504 -1.1648
 2419TIP3   OH228671   2.260   1.319   1.905 -0.2270  0.1876  0.3873
 2419TIP3    H128672   2.315   1.390   1.872 -0.3528 -0.3053 -0.9188
 2419TIP3    H228673   2.243   1.343   1.997  0.4869  1.3635  0.2332
 2420TIP3   OH228674   0.512   5.540   2.414  0.4595  0.0843  0.1394
 2420TIP3    H128675   0.554   5.477   2.355  2.0099  0.7021  0.5167
 2420TIP3    H228676   0.518   5.624   2.367 -2.7518 -0.1766 -0.9383
 2421TIP3   OH228677   5.061   5.035  11.709 -0.0960  0.1211  0.0129
 2421TIP3    H128678   4.981   5.084  11.728 -0.5532 -0.5897 -0.0348
 2421TIP3    H228679   5.045   4.994  11.624  0.3904  0.1149 -0.0809
 2422TIP3   OH228680   2.510   4.266  14.644  0.1886 -0.7556  0.2415
 2422TIP3    H128681   2.456   4.311  14.710  2.2285  0.9268  0.8579
 2422TIP3    H228682   2.484   4.305  14.561 -0.3590 -0.7980  0.3890
 2423TIP3   OH228683   2.369   4.218  13.939  0.0658 -0.0645  0.3370
 2423TIP3    H128684   2.436   4.275  13.903 -0.8329  1.4389  0.9593
 2423TIP3    H228685   2.416   4.137  13.962  1.6817  0.9831  0.8932
 2424TIP3   OH228686   2.042   2.953  14.640 -0.2634  0.1588 -0.2390
 2424TIP3    H128687   1.975   2.974  14.575  0.0922  1.1558 -0.2866
 2424TIP3    H228688   2.093   2.883  14.600 -0.7504 -0.0264 -0.5512
 2425TIP3   OH228689   5.967   6.476   4.265  0.2090  0.2226  0.1597
 2425TIP3    H128690   5.969   6.513   4.353  1.9116 -0.9540  0.6756
 2425TIP3    H228691   5.970   6.381   4.278 -2.0610 -0.0981 -1.1546
 2426TIP3   OH228692   5.050   2.575  10.551  0.3535 -0.0099 -0.0239
 2426TIP3    H128693   4.977   2.636  10.563  1.3147  1.5506 -1.7366
 2426TIP3    H228694   5.123   2.616  10.598  0.4838 -0.9638  0.6458
 2427TIP3   OH228695   3.777   1.588   5.827  0.0347 -0.4631  0.0657
 2427TIP3    H128696   3.757   1.517   5.766 -0.0122  0.2537 -0.7692
 2427TIP3    H228697   3.857   1.627   5.793 -0.4456  0.4689 -0.0187
 2428TIP3   OH228698   1.172   3.433   4.045 -0.1181 -0.7928 -0.0995
 2428TIP3    H128699   1.173   3.358   3.986 -0.8090  0.3848 -1.6721
 2428TIP3    H228700   1.102   3.414   4.107 -1.7377 -0.5498 -1.7775
 2429TIP3   OH228701   1.308   0.910   0.235 -0.3666  0.0305  0.0344
 2429TIP3    H128702   1.288   0.831   0.185 -0.0604 -0.0457  0.0321
 2429TIP3    H228703   1.275   0.891   0.323 -0.9559  0.1863 -0.1488
 2430TIP3   OH228704   0.278   4.583  16.186  1.1256 -0.6782  0.4682
 2430TIP3    H128705   0.363   4.558  16.222 -0.2007 -3.6952  1.8317
 2430TIP3    H228706   0.286   4.567  16.092  2.8428  1.8037  0.0876
 2431TIP3   OH228707   0.372   5.109  11.995 -0.6703  0.3838  0.0476
 2431TIP3    H128708   0.324   5.189  12.017 -1.6160 -0.7681  2.4878
 2431TIP3    H228709   0.411   5.081  12.077 -0.6858 -1.8806 -0.6602
 2432TIP3   OH228710   1.997   3.889   5.594 -0.0833 -0.5328 -0.4596
 2432TIP3    H128711   1.951   3.844   5.665 -1.1870  2.2216  0.7310
 2432TIP3    H228712   2.063   3.826   5.565 -0.4207 -2.2714  2.1392
 2433TIP3   OH228713   1.972   2.931  13.300 -0.3145  0.0598  0.7259
 2433TIP3    H128714   1.898   2.871  13.312 -1.4769  1.5142  1.1725
 2433TIP3    H228715   1.953   2.975  13.217  0.4802 -0.0993  0.4487
 2434TIP3   OH228716   2.911   0.055  12.524  0.1859  0.1193 -0.3903
 2434TIP3    H128717   2.959   0.137  12.523 -0.4993  0.5638  0.6849
 2434TIP3    H228718   2.917   0.021  12.435  0.1192  1.5408 -0.9488
 2435TIP3   OH228719   4.946   3.620   2.844 -0.0964  0.2421  0.0941
 2435TIP3    H128720   4.912   3.709   2.839 -2.0014 -0.3642  1.0996
 2435TIP3    H228721   4.886   3.568   2.790  1.9092 -0.2303 -1.7704
 2436TIP3   OH228722   0.938   0.676   3.442  0.1157 -0.0652  0.6606
 2436TIP3    H128723   0.898   0.654   3.526 -1.6112 -0.7051 -0.2703
 2436TIP3    H228724   1.031   0.685   3.461 -0.0755 -1.2900  2.4261
 2437TIP3   OH228725   4.534   6.331  13.026  0.1744  0.1267 -0.4234
 2437TIP3    H128726   4.461   6.344  13.087  0.3164  0.1832 -0.2655
 2437TIP3    H228727   4.571   6.246  13.052 -1.3194 -1.0910 -2.0265
 2438TIP3   OH228728   3.448   4.051   5.496  0.7514 -0.1698  0.2428
 2438TIP3    H128729   3.384   4.071   5.428  0.5027 -0.5530  0.3654
 2438TIP3    H228730   3.413   4.091   5.576  1.2987  0.7389  0.0517
 2439TIP3   OH228731   1.112   6.362   5.881  0.2028 -0.0129  0.4994
 2439TIP3    H128732   1.196   6.323   5.905  0.0633 -0.5920  0.0547
 2439TIP3    H228733   1.094   6.426   5.951  1.3030  0.5580  0.2725
 2440TIP3   OH228734   4.962   0.545  14.859  0.9194  0.1546 -0.5143
 2440TIP3    H128735   4.986   0.542  14.767  1.7730 -1.9539 -0.2764
 2440TIP3    H228736   5.039   0.580  14.903  0.8428  0.2993 -0.4921
 2441TIP3   OH228737   2.577   0.431  16.029 -0.2174  0.2050 -0.1782
 2441TIP3    H128738   2.500   0.456  15.977  1.4816  2.4743 -1.8376
 2441TIP3    H228739   2.617   0.515  16.052  1.2077 -0.8943  1.5482
 2442TIP3   OH228740   1.344   0.911   4.440  0.2698  0.3479 -0.1203
 2442TIP3    H128741   1.371   0.823   4.466 -1.9397 -0.2748  0.2221
 2442TIP3    H228742   1.369   0.916   4.347 -0.6005 -1.0858 -0.4693
 2443TIP3   OH228743   2.970   2.962   5.965  0.6745 -0.7181  0.0638
 2443TIP3    H128744   2.930   2.921   5.888  0.8510 -0.1756 -0.3222
 2443TIP3    H228745   2.986   3.052   5.938  0.4449 -0.4370  0.8466
 2444TIP3   OH228746   5.678   5.092  11.794 -0.2209 -0.2330  0.2074
 2444TIP3    H128747   5.733   5.048  11.729  1.8255  1.4061  0.7331
 2444TIP3    H228748   5.618   5.023  11.825 -2.6616 -0.7204 -4.6388
 2445TIP3   OH228749   1.118   1.420   4.881  0.3597 -0.1534  0.0369
 2445TIP3    H128750   1.091   1.500   4.836  0.2166 -1.0663 -1.5909
 2445TIP3    H228751   1.093   1.349   4.821  3.3077 -1.2649 -0.0860
 2446TIP3   OH228752   4.570   4.402  15.576 -0.1276 -0.3623 -0.1833
 2446TIP3    H128753   4.594   4.427  15.666 -1.3117 -1.2791  0.4213
 2446TIP3    H228754   4.565   4.485  15.529 -3.8062  0.6951  1.6995
 2447TIP3   OH228755   3.674   6.223  12.535 -0.0242 -0.2840 -0.1123
 2447TIP3    H128756   3.710   6.310  12.520 -0.7700  0.0325 -0.1347
 2447TIP3    H228757   3.649   6.192  12.448 -2.8829  0.9005  0.1582
 2448TIP3   OH228758   0.880   4.673  16.396  0.1623  0.2094 -0.0063
 2448TIP3    H128759   0.850   4.662  16.306  0.1546  0.1640  0.0018
 2448TIP3    H228760   0.937   4.750  16.393 -1.4957  1.5138  0.3603
 2449TIP3   OH228761   1.053   1.952   1.742  0.0965  0.5632  0.9537
 2449TIP3    H128762   0.972   1.925   1.785  0.0002  1.5045  1.3767
 2449TIP3    H228763   1.028   2.027   1.688  0.5719  0.4979  0.6366
 2450TIP3   OH228764   5.185   0.213   5.132  0.2005 -0.2620  0.4429
 2450TIP3    H128765   5.162   0.240   5.043 -0.0978 -0.3114  0.5017
 2450TIP3    H228766   5.271   0.173   5.123 -0.0644 -0.7711  0.0767
 2451TIP3   OH228767   5.850   1.899   4.069 -0.1189  0.1297 -0.5567
 2451TIP3    H128768   5.932   1.928   4.109  0.9738  0.8372 -3.1685
 2451TIP3    H228769   5.806   1.851   4.140  1.2815  1.9772  1.7424
 2452TIP3   OH228770   0.010   0.817  17.176  0.0353 -0.0612 -0.1206
 2452TIP3    H128771   0.094   0.813  17.130  0.5424 -0.2449  0.8039
 2452TIP3    H228772  -0.028   0.900  17.148  0.7223  0.2288 -0.2171
 2453TIP3   OH228773   5.702   5.521   5.914 -1.0081  0.0051  0.3526
 2453TIP3    H128774   5.759   5.564   5.977 -0.7935  0.0012  0.1612
 2453TIP3    H228775   5.663   5.448   5.962  0.6178 -1.1739 -0.0488
 2454TIP3   OH228776   2.650   1.540  15.091 -0.3981 -0.1560 -0.2522
 2454TIP3    H128777   2.706   1.463  15.077  0.7432  0.8524 -1.5445
 2454TIP3    H228778   2.663   1.563  15.182 -2.3141 -2.6201  0.7820
 2455TIP3   OH228779   0.107   4.230  13.077 -0.2283 -0.0134 -0.1882
 2455TIP3    H128780   0.100   4.324  13.095  0.2088  0.0258 -0.2207
 2455TIP3    H228781   0.136   4.192  13.160 -1.0447 -0.2093  0.0165
 2456TIP3   OH228782   4.440   1.507   2.905 -0.0087  0.2370  0.0992
 2456TIP3    H128783   4.353   1.548   2.909 -0.7942 -1.0599 -2.1262
 2456TIP3    H228784   4.494   1.571   2.858  0.4626  1.2725  1.9294
 2457TIP3   OH228785   3.156   1.061  15.223 -0.1925 -0.2278 -1.0695
 2457TIP3    H128786   3.096   0.991  15.196  0.2461  0.0639 -2.9750
 2457TIP3    H228787   3.203   1.024  15.297 -0.0989 -1.9092 -1.9082
 2458TIP3   OH228788   6.736   1.045   4.976  0.0399  1.0015  0.0867
 2458TIP3    H128789   6.767   1.056   5.066 -0.1535 -1.1210  0.4618
 2458TIP3    H228790   6.810   1.003   4.931 -0.7079 -0.1100 -0.1273
 2459TIP3   OH228791   3.909   2.095  17.222  0.2902 -0.0983  0.0828
 2459TIP3    H128792   3.972   2.136  17.162  0.9615 -1.6033 -0.2851
 2459TIP3    H228793   3.829   2.087  17.170 -0.0862  1.3359  0.3848
 2460TIP3   OH228794   4.605   4.025  16.992  0.4754  0.1976 -0.5576
 2460TIP3    H128795   4.622   3.955  17.054  0.2974 -1.1647 -1.9877
 2460TIP3    H228796   4.606   4.105  17.045 -0.4140 -0.9623  1.2943
 2461TIP3   OH228797   6.625   1.469  11.708 -0.3779  0.2320  0.7799
 2461TIP3    H128798   6.669   1.501  11.786 -0.0513  2.0200 -0.0608
 2461TIP3    H228799   6.629   1.544  11.647 -2.4161 -0.3842 -0.1929
 2462TIP3   OH228800   3.902   2.362  17.296 -0.5768 -0.1298 -0.3433
 2462TIP3    H128801   3.948   2.411  17.365 -1.1516  0.5404 -0.4279
 2462TIP3    H228802   3.957   2.286  17.281 -0.3747 -0.2212  0.7668
 2463TIP3   OH228803   4.839   2.888  14.413  0.0576  0.3548  0.2269
 2463TIP3    H128804   4.916   2.943  14.397  0.2466  0.0784  0.1870
 2463TIP3    H228805   4.823   2.844  14.330  1.2199 -1.3124  0.8357
 2464TIP3   OH228806   2.997   1.272  15.516 -0.3333 -0.6990  0.1196
 2464TIP3    H128807   2.904   1.267  15.536 -0.4749 -0.3864 -0.4327
 2464TIP3    H228808   3.026   1.355  15.553 -0.9099  0.5780 -2.1169
 2465TIP3   OH228809   1.305   0.607   5.566  0.4982 -0.5043  0.3042
 2465TIP3    H128810   1.399   0.623   5.563  0.3563  0.2194 -1.0193
 2465TIP3    H228811   1.297   0.520   5.603  1.6843 -0.5608  0.4828
 2466TIP3   OH228812   1.965   4.636  10.926 -0.1816 -0.0585 -0.0085
 2466TIP3    H128813   1.993   4.555  10.883  0.9965 -0.7518  1.9614
 2466TIP3    H228814   1.874   4.648  10.896 -0.0947 -1.6094 -1.0232
 2467TIP3   OH228815   5.596   2.722  12.114  0.0177 -0.0582 -0.2756
 2467TIP3    H128816   5.685   2.688  12.098  0.6937  2.1718 -1.6846
 2467TIP3    H228817   5.543   2.677  12.048  0.5494  0.2209 -0.9145
 2468TIP3   OH228818   6.428   2.822   0.955 -0.0505 -0.1105  0.2379
 2468TIP3    H128819   6.492   2.823   0.884 -0.7173 -0.2627 -0.3827
 2468TIP3    H228820   6.474   2.858   1.030  1.3114 -1.8052  0.2784
 2469TIP3   OH228821   3.711   2.160   4.463 -0.2596 -0.1800  0.1520
 2469TIP3    H128822   3.722   2.248   4.500 -0.6473  0.1446 -0.4867
 2469TIP3    H228823   3.788   2.111   4.494  1.6170  1.2350 -1.9676
 2470TIP3   OH228824   2.030   3.802  17.052  0.1585  0.5160 -0.1156
 2470TIP3    H128825   1.959   3.825  16.992  0.3901  1.5690 -0.0077
 2470TIP3    H228826   2.049   3.883  17.099  0.4322 -0.1253  0.9182
 2471TIP3   OH228827   3.817   1.722   3.055 -0.5012 -0.1163 -0.2854
 2471TIP3    H128828   3.814   1.769   2.972 -0.2043  0.1944 -0.1209
 2471TIP3    H228829   3.905   1.684   3.059  0.0220  1.1326  0.5753
 2472TIP3   OH228830   4.728   5.840   1.393 -0.2600  0.3605  0.0757
 2472TIP3    H128831   4.737   5.886   1.476 -0.9256 -0.3726  0.5659
 2472TIP3    H228832   4.718   5.910   1.328  1.6640  0.9953  0.3941
 2473TIP3   OH228833   0.292   5.313   0.404  0.1030  0.6250  0.1871
 2473TIP3    H128834   0.200   5.318   0.428  0.3812  1.4517  1.1749
 2473TIP3    H228835   0.312   5.401   0.371  0.6498  0.5830  0.4063
 2474TIP3   OH228836   5.487   1.412   4.594  0.5860  0.2405  0.5677
 2474TIP3    H128837   5.490   1.448   4.505  0.0644 -0.5909  0.1934
 2474TIP3    H228838   5.441   1.328   4.583  2.8147 -1.1324  1.1701
 2475TIP3   OH228839   2.487   5.646  10.677  0.3280 -1.3303  0.5435
 2475TIP3    H128840   2.535   5.569  10.707  1.3409 -0.1337  2.1425
 2475TIP3    H228841   2.544   5.720  10.699 -0.8779 -0.0698 -0.3950
 2476TIP3   OH228842   6.657   1.248  13.816 -0.1282  0.5635  0.6324
 2476TIP3    H128843   6.636   1.204  13.733  1.1629  0.2163  0.4710
 2476TIP3    H228844   6.688   1.178  13.873  2.6347  1.2907  0.1471
 2477TIP3   OH228845   0.842   1.276  15.883 -0.0472 -0.2446 -0.7881
 2477TIP3    H128846   0.761   1.269  15.933 -0.2755  0.9623 -0.9564
 2477TIP3    H228847   0.815   1.266  15.792  0.1005 -0.5485 -0.8007
 2478TIP3   OH228848   6.336   3.342   3.483 -0.0626 -0.6306  0.3681
 2478TIP3    H128849   6.335   3.392   3.401  0.6731  3.0250  2.3593
 2478TIP3    H228850   6.423   3.304   3.487  0.2403 -0.0245 -0.1583
 2479TIP3   OH228851   5.967   0.837   3.512  0.2543  0.5061 -0.5736
 2479TIP3    H128852   5.878   0.803   3.505 -0.1281  1.2603  0.3238
 2479TIP3    H228853   6.015   0.795   3.441  0.1030 -2.7082  1.0342
 2480TIP3   OH228854   2.115   0.806   6.374 -0.0840 -0.2947  0.0063
 2480TIP3    H128855   2.068   0.780   6.295  1.0856  1.7491 -1.4833
 2480TIP3    H228856   2.204   0.773   6.361  0.0162 -0.3361  0.7194
 2481TIP3   OH228857   3.126   4.719   6.021  0.6204  0.1094  0.4599
 2481TIP3    H128858   3.038   4.729   6.057  0.5738  1.1420  0.0842
 2481TIP3    H228859   3.131   4.784   5.951  1.0541 -1.2049 -0.7604
 2482TIP3   OH228860   1.268   6.220   2.141 -0.1036 -0.4948 -0.5268
 2482TIP3    H128861   1.263   6.285   2.070  2.0630  0.0466 -0.2798
 2482TIP3    H228862   1.178   6.212   2.172 -0.2839  4.2951  1.0603
 2483TIP3   OH228863   3.884   1.378   4.089  0.1946  0.1058 -0.1232
 2483TIP3    H128864   3.852   1.378   4.180 -2.3129 -1.9261 -0.8802
 2483TIP3    H228865   3.970   1.336   4.094  0.2657  0.3461  1.3341
 2484TIP3   OH228866   5.517   4.609   1.971  0.1274  0.6916 -0.8943
 2484TIP3    H128867   5.551   4.694   1.944  0.1599  0.8513 -0.3638
 2484TIP3    H228868   5.517   4.612   2.067 -2.2047  1.0059 -0.8613
 2485TIP3   OH228869   0.543   1.546  14.547  0.1447  0.1027 -0.3591
 2485TIP3    H128870   0.600   1.485  14.593  0.1506  0.4525  0.0957
 2485TIP3    H228871   0.547   1.627  14.598 -2.5074 -0.5118  1.0190
 2486TIP3   OH228872   1.943   5.733  15.642 -0.6299 -0.0956 -0.1620
 2486TIP3    H128873   1.967   5.681  15.566 -0.7262  0.8732 -0.8744
 2486TIP3    H228874   1.847   5.740  15.637 -0.4958  1.4062 -0.9299
 2487TIP3   OH228875   4.159   2.764   1.875  0.2402  0.3242  0.1786
 2487TIP3    H128876   4.078   2.736   1.918  0.8763 -2.1736 -0.1077
 2487TIP3    H228877   4.139   2.758   1.781  0.2806  1.3147  0.0929
 2488TIP3   OH228878   3.770   2.433   4.550 -0.0612 -0.5097 -0.7334
 2488TIP3    H128879   3.860   2.465   4.543 -0.5303  0.7870 -0.9237
 2488TIP3    H228880   3.717   2.496   4.502 -1.3671  0.0015  1.2366
 2489TIP3   OH228881   1.415   2.064  14.133 -0.2002  0.3458 -0.2716
 2489TIP3    H128882   1.471   2.125  14.180  0.7417 -0.0304 -0.8797
 2489TIP3    H228883   1.336   2.058  14.187  1.7046 -1.8663  2.5622
 2490TIP3   OH228884   4.075   0.200   4.447  0.1423  0.2328  0.0576
 2490TIP3    H128885   4.167   0.179   4.462 -0.1800 -1.4491 -0.1243
 2490TIP3    H228886   4.037   0.118   4.415 -1.4199  0.8962  0.1503
 2491TIP3   OH228887   3.002   1.755   2.096  0.1716  0.0410 -0.0644
 2491TIP3    H128888   3.069   1.822   2.111  0.4221 -0.5080  1.4810
 2491TIP3    H228889   3.033   1.679   2.145 -0.8817 -0.7009 -0.5123
 2492TIP3   OH228890   1.961   2.018  12.395  0.3673  0.5329  0.0326
 2492TIP3    H128891   2.049   1.983  12.379 -0.1685 -0.2609 -1.3598
 2492TIP3    H228892   1.941   2.068  12.316 -0.0814  1.4688  0.7269
 2493TIP3   OH228893   1.786   0.852   0.940  0.4211 -0.4797  0.4538
 2493TIP3    H128894   1.796   0.783   0.874 -0.4462  0.4207 -0.6644
 2493TIP3    H228895   1.726   0.915   0.900  0.4428  0.4607  1.8276
 2494TIP3   OH228896   4.185   1.098  14.774 -0.3287 -0.1414  0.1410
 2494TIP3    H128897   4.159   1.051  14.695  0.5646 -0.9738  0.3396
 2494TIP3    H228898   4.153   1.044  14.847  1.6226 -1.0329  0.3886
 2495TIP3   OH228899   4.803   5.772   3.382 -0.2649 -0.0884  0.5253
 2495TIP3    H128900   4.732   5.832   3.360  0.6561  0.6505 -0.5978
 2495TIP3    H228901   4.882   5.826   3.373  0.6586 -1.6215 -1.3337
 2496TIP3   OH228902   2.721   1.967   5.141  0.4905 -0.5598 -0.2221
 2496TIP3    H128903   2.812   1.956   5.167  0.8407  1.5454 -0.4184
 2496TIP3    H228904   2.680   2.015   5.213 -0.1466 -0.3397 -0.7203
 2497TIP3   OH228905   6.149   4.651  16.955  0.3326  0.0631 -0.0178
 2497TIP3    H128906   6.133   4.709  17.030 -0.3723 -1.5530  1.1401
 2497TIP3    H228907   6.191   4.574  16.993 -1.1991 -1.3474 -1.0784
 2498TIP3   OH228908   1.882   6.472   4.861  0.7587 -0.2816  0.5350
 2498TIP3    H128909   1.838   6.508   4.784  0.0184 -0.1565  1.0074
 2498TIP3    H228910   1.943   6.408   4.826 -1.6702 -2.4501 -0.0330
 2499TIP3   OH228911   5.471   4.962   2.490  0.1730  0.1190 -0.4817
 2499TIP3    H128912   5.566   4.955   2.479  0.2782  1.5808 -0.7273
 2499TIP3    H228913   5.435   4.886   2.444  1.1726  0.2049 -1.4274
 2500TIP3   OH228914   2.171   5.474   6.029  1.0393 -0.4052  0.2995
 2500TIP3    H128915   2.091   5.444   6.072 -1.5097  1.0480 -2.9971
 2500TIP3    H228916   2.193   5.555   6.076 -0.7236  0.2952  0.0193
 2501TIP3   OH228917   2.811   3.825  15.501 -0.2192 -0.0450  0.0974
 2501TIP3    H128918   2.886   3.865  15.545  0.6563 -1.7217  0.2143
 2501TIP3    H228919   2.848   3.752  15.452 -1.7866 -0.9468  0.1885
 2502TIP3   OH228920   3.347   2.972  11.772 -0.3472  0.1952 -0.8870
 2502TIP3    H128921   3.351   3.042  11.707  0.7308 -1.0916 -2.2945
 2502TIP3    H228922   3.267   2.924  11.752 -1.8396  1.7641  0.9651
 2503TIP3   OH228923   4.773   1.842   0.699  0.1021  0.3809 -0.1397
 2503TIP3    H128924   4.788   1.785   0.773  2.8330 -0.6972 -1.3885
 2503TIP3    H228925   4.754   1.928   0.738 -0.1604 -0.4926  1.7538
 2504TIP3   OH228926   0.067   3.616  14.881 -0.3934 -0.1534  0.1617
 2504TIP3    H128927   0.104   3.529  14.897  1.5139  0.4992 -0.3261
 2504TIP3    H228928  -0.006   3.624  14.942  1.6154 -0.7415  2.8441
 2505TIP3   OH228929   6.130   6.175  17.058  0.5391  0.1685  0.3300
 2505TIP3    H128930   6.055   6.184  17.117  0.4184 -2.0690  0.5898
 2505TIP3    H228931   6.119   6.090  17.017  3.0024 -0.3000  0.4691
 2506TIP3   OH228932   6.437   3.516  16.030 -0.4686  0.8901  0.1832
 2506TIP3    H128933   6.505   3.510  15.963  0.0025  2.3966  0.4827
 2506TIP3    H228934   6.470   3.462  16.102 -1.0758 -0.9146 -0.8200
 2507TIP3   OH228935   0.117   4.680  14.043 -0.1321  0.5492 -0.3743
 2507TIP3    H128936   0.035   4.712  14.005 -0.5301  0.4671  0.4084
 2507TIP3    H228937   0.104   4.587  14.056 -0.3432  0.7342  0.8165
 2508TIP3   OH228938   1.640   2.125  15.367  0.2715 -0.0779  0.4583
 2508TIP3    H128939   1.666   2.200  15.313  0.3614  0.8978  1.8012
 2508TIP3    H228940   1.722   2.094  15.406  0.1770 -0.6272  0.2338
 2509TIP3   OH228941   4.760   1.925   4.205  0.1994  0.0622  0.0761
 2509TIP3    H128942   4.832   1.908   4.145 -0.9284 -0.8321 -1.0781
 2509TIP3    H228943   4.752   2.021   4.207 -1.2260  0.1229 -3.1187
 2510TIP3   OH228944   6.016   4.064  11.513  0.1513  0.6413 -0.0198
 2510TIP3    H128945   6.091   4.023  11.470  0.1332  0.1409  0.4130
 2510TIP3    H228946   5.949   3.996  11.515  0.3998  0.4206  1.4400
 2511TIP3   OH228947   5.364   2.307  10.741 -0.0075 -0.5200  0.5412
 2511TIP3    H128948   5.456   2.296  10.765  0.3572  0.1572 -0.4847
 2511TIP3    H228949   5.316   2.279  10.819  1.0592 -0.9123  1.0842
 2512TIP3   OH228950   4.980   0.405  12.158  0.0711 -0.1897 -0.0363
 2512TIP3    H128951   4.914   0.437  12.220 -0.2025 -1.0684  0.1440
 2512TIP3    H228952   5.063   0.418  12.202 -0.2069 -2.4490  1.3410
 2513TIP3   OH228953   0.673   6.129   0.445 -0.4762  0.1276  0.4694
 2513TIP3    H128954   0.716   6.174   0.518  0.9030  0.3701 -0.4512
 2513TIP3    H228955   0.695   6.037   0.457  0.5299  0.2785 -0.1258
 2514TIP3   OH228956   3.443   6.087   2.542  0.0055 -0.3751  0.0142
 2514TIP3    H128957   3.480   6.147   2.478  0.3758 -1.5679 -0.9170
 2514TIP3    H228958   3.418   6.009   2.492 -2.7258 -0.1014  0.7732
 2515TIP3   OH228959   2.601   4.785  17.359  0.6286 -0.7126  0.6423
 2515TIP3    H128960   2.626   4.800  17.268  0.9400 -0.5853  0.7481
 2515TIP3    H228961   2.637   4.698  17.379 -0.2081 -1.1329  0.3723
 2516TIP3   OH228962   0.381   4.393  14.298 -0.3435  0.0162  0.1964
 2516TIP3    H128963   0.432   4.357  14.225 -0.7856 -0.1498 -0.0366
 2516TIP3    H228964   0.444   4.403  14.369  0.3910  1.4514 -0.6283
 2517TIP3   OH228965   2.033   3.781  11.963  0.1079 -0.1745 -0.0097
 2517TIP3    H128966   2.013   3.841  12.035 -2.1202  0.0920 -0.7868
 2517TIP3    H228967   1.948   3.756  11.928  0.9964 -2.7806 -0.5765
 2518TIP3   OH228968   2.874   4.969  12.795  0.2224  0.2048 -0.1423
 2518TIP3    H128969   2.952   4.983  12.849  0.7751 -0.9892 -0.5970
 2518TIP3    H228970   2.819   4.909  12.846 -1.1597  2.2199  0.8691
 2519TIP3   OH228971   4.580   1.585   4.236  0.1085 -0.6479 -0.2591
 2519TIP3    H128972   4.563   1.606   4.144 -0.9391 -1.8503 -0.3688
 2519TIP3    H228973   4.666   1.543   4.235 -0.2488 -1.3976 -0.8260
 2520TIP3   OH228974   1.424   2.004  15.176 -0.2117  0.2067  0.0899
 2520TIP3    H128975   1.492   1.963  15.229 -0.8799  0.5843  1.2849
 2520TIP3    H228976   1.360   1.935  15.162 -0.8500  0.5273  1.2497
 2521TIP3   OH228977   3.580   2.382  12.899  0.1916 -0.2127  0.5600
 2521TIP3    H128978   3.493   2.357  12.870 -0.1675  0.4298  1.0757
 2521TIP3    H228979   3.639   2.340  12.836 -0.4576 -1.0948  0.5248
 2522TIP3   OH228980   4.326   6.684  15.793 -0.5507 -0.4027 -0.4733
 2522TIP3    H128981   4.416   6.652  15.792 -1.1129 -2.1033 -1.1406
 2522TIP3    H228982   4.333   6.777  15.776  1.0111 -0.7799 -2.2533
 2523TIP3   OH228983   2.179   0.111  16.510 -0.4623 -0.4718 -1.2711
 2523TIP3    H128984   2.199   0.023  16.480  0.5792 -1.0482  0.8818
 2523TIP3    H228985   2.103   0.138  16.458 -0.6916 -2.5592 -2.0939
 2524TIP3   OH228986   3.194   0.314   0.487  0.1272 -0.0511  0.0959
 2524TIP3    H128987   3.235   0.397   0.461  0.4943 -0.1635  0.3028
 2524TIP3    H228988   3.252   0.247   0.451  0.0951 -0.2135  0.3427
 2525TIP3   OH228989   2.341   5.152  16.602 -0.4186  0.3681 -0.2605
 2525TIP3    H128990   2.303   5.103  16.675 -2.3550  0.3709 -1.1978
 2525TIP3    H228991   2.348   5.087  16.531  0.7345  0.5437 -0.3325
 2526TIP3   OH228992   1.600   2.018  16.251 -0.2517  0.2252  0.1934
 2526TIP3    H128993   1.589   2.113  16.251 -0.5537  0.1988 -1.0236
 2526TIP3    H228994   1.571   1.990  16.165  1.4225 -0.7940 -0.0857
 2527TIP3   OH228995   6.556   3.443   5.352  0.3219  1.0433 -0.0953
 2527TIP3    H128996   6.506   3.408   5.426  1.4899  0.8018  0.6026
 2527TIP3    H228997   6.561   3.370   5.290 -1.0960  1.4003 -0.6750
 2528TIP3   OH228998   4.104   1.309  15.754 -0.0497 -0.1171  0.3240
 2528TIP3    H128999   4.027   1.350  15.715  1.2665  1.9396 -0.2566
 2528TIP3    H229000   4.176   1.330  15.695  1.0910 -1.4745  1.1495
 2529TIP3   OH229001   4.561   2.491  12.862  0.0768  0.3574 -0.0239
 2529TIP3    H129002   4.533   2.571  12.817 -1.1381 -0.7043 -1.2210
 2529TIP3    H229003   4.589   2.432  12.791 -0.7848 -0.9369  0.6794
 2530TIP3   OH229004   5.270   0.508  14.333  0.4415  0.4430 -0.2461
 2530TIP3    H129005   5.319   0.511  14.415 -1.6806 -0.2908  1.1421
 2530TIP3    H229006   5.290   0.591  14.290  1.5071  0.9081  1.0737
 2531TIP3   OH229007   1.203   3.023   0.455  0.1242 -0.1988  0.6812
 2531TIP3    H129008   1.208   2.952   0.392  0.0047 -0.2622  0.7429
 2531TIP3    H229009   1.287   3.021   0.501 -0.3656 -1.1394  1.5868
 2532TIP3   OH229010   3.056   2.392   0.171 -0.2382 -0.4092 -0.0290
 2532TIP3    H129011   3.077   2.361   0.260  1.0253 -1.4094 -0.6352
 2532TIP3    H229012   3.118   2.463   0.155 -1.3395  0.6666  0.3510
 2533TIP3   OH229013   6.428   2.226   3.416 -0.7402 -0.1156 -0.1032
 2533TIP3    H129014   6.362   2.282   3.375 -0.4307 -0.4307 -1.0704
 2533TIP3    H229015   6.495   2.288   3.447 -0.5589  0.0815 -0.8674
 2534TIP3   OH229016   1.268   5.058  17.091 -0.3505  0.6614  0.0949
 2534TIP3    H129017   1.278   5.095  17.004 -1.4389 -1.0601 -0.8221
 2534TIP3    H229018   1.179   5.079  17.117 -0.8667 -0.9010 -0.2917
 2535TIP3   OH229019   2.107   0.802  15.046  0.1839 -0.2175 -0.4873
 2535TIP3    H129020   2.156   0.879  15.077 -0.5029  0.3218 -0.7062
 2535TIP3    H229021   2.055   0.835  14.972 -0.1004 -0.9002 -0.5985
 2536TIP3   OH229022   6.512   1.193   1.073  0.2358 -0.3629 -0.8445
 2536TIP3    H129023   6.436   1.146   1.108  1.1992 -1.7583 -0.5366
 2536TIP3    H229024   6.480   1.281   1.056 -1.0508 -0.4809  0.7447
 2537TIP3   OH229025   3.117   5.228   5.308  0.3836 -0.1329 -0.5370
 2537TIP3    H129026   3.197   5.280   5.317  0.2113  0.1306 -0.4963
 2537TIP3    H229027   3.106   5.217   5.214 -0.6389  1.6034 -0.6663
 2538TIP3   OH229028   2.237   1.042   0.582 -0.4944  0.1313 -0.2849
 2538TIP3    H129029   2.210   1.033   0.491 -0.0673  0.9471 -0.5031
 2538TIP3    H229030   2.305   0.976   0.593 -0.8408 -0.2529 -0.4381
 2539TIP3   OH229031   4.811   0.523   4.991  0.3051  0.1926  0.1945
 2539TIP3    H129032   4.860   0.446   5.018 -0.8885 -0.5887  0.2058
 2539TIP3    H229033   4.875   0.594   4.991  1.2110 -0.6014  1.1316
 2540TIP3   OH229034   3.583   0.423   4.125 -0.1185  0.1185  0.1299
 2540TIP3    H129035   3.595   0.484   4.052  1.6574  0.4550  0.6781
 2540TIP3    H229036   3.632   0.345   4.100  0.3063  0.1450  0.8579
 2541TIP3   OH229037   6.223   0.987  15.583  0.6813 -0.6531 -0.3415
 2541TIP3    H129038   6.181   1.006  15.499 -0.3577 -0.1185  0.2764
 2541TIP3    H229039   6.174   1.040  15.646  1.5224 -0.9635  0.5822
 2542TIP3   OH229040   3.836   1.072   5.005 -0.2259  0.0187  0.3609
 2542TIP3    H129041   3.741   1.066   4.998 -0.5530  2.1288  1.9767
 2542TIP3    H229042   3.852   1.101   5.095  1.9178  0.3790 -0.0658
 2543TIP3   OH229043   6.029   1.164  16.314 -0.1023 -0.0012 -0.3344
 2543TIP3    H129044   5.942   1.174  16.275 -0.1544  1.5906  0.0999
 2543TIP3    H229045   6.084   1.225  16.265 -0.0677  1.6976  1.6974
 2544TIP3   OH229046   4.293   1.234   1.820  0.6991  0.1496  0.2405
 2544TIP3    H129047   4.302   1.284   1.739 -0.1196  0.6239  0.4329
 2544TIP3    H229048   4.381   1.230   1.855  0.9626  0.4796 -0.3562
 2545TIP3   OH229049   0.694   4.775  11.804 -0.2494 -0.3264 -1.0101
 2545TIP3    H129050   0.730   4.707  11.861 -1.9194 -1.1922 -0.9362
 2545TIP3    H229051   0.607   4.792  11.839  0.5333  2.8104 -0.2247
 2546TIP3   OH229052   6.710   0.800  15.138  0.7005 -0.6542  0.7354
 2546TIP3    H129053   6.679   0.729  15.082 -0.7372 -0.6254  1.4537
 2546TIP3    H229054   6.672   0.782  15.224 -1.0998  1.8165  0.5680
 2547TIP3   OH229055   0.838   0.355   0.285 -0.7768 -0.1142  0.1326
 2547TIP3    H129056   0.773   0.332   0.218  0.6121  0.1820 -1.3726
 2547TIP3    H229057   0.877   0.271   0.309 -0.4832 -0.1057 -0.2948
 2548TIP3   OH229058   0.134   2.555   4.386  0.4425 -0.1559  0.7659
 2548TIP3    H129059   0.055   2.598   4.352  1.2935  0.0988 -1.0125
 2548TIP3    H229060   0.143   2.476   4.334  2.1639  0.5798 -0.1557
 2549TIP3   OH229061   6.533   4.535   1.881 -0.2339  0.5282  0.1628
 2549TIP3    H129062   6.623   4.508   1.861 -0.4365  0.9106 -1.4685
 2549TIP3    H229063   6.498   4.464   1.934  0.9527  0.2596  0.6197
 2550TIP3   OH229064   2.933   4.359   1.369 -0.1426  0.7325 -0.5148
 2550TIP3    H129065   2.859   4.394   1.319 -0.2549  0.1155 -0.8021
 2550TIP3    H229066   2.921   4.264   1.364  0.2626  0.6507  0.0655
 2551TIP3   OH229067   3.845   3.296  14.417  0.4943 -0.4856  0.0780
 2551TIP3    H129068   3.813   3.279  14.328  2.0695  2.6302 -1.2451
 2551TIP3    H229069   3.935   3.262  14.417  0.9445  0.6786  0.0129
 2552TIP3   OH229070   1.561   4.673  11.718  0.4490  0.4209  0.9981
 2552TIP3    H129071   1.480   4.628  11.693 -0.6994  2.2739  1.2011
 2552TIP3    H229072   1.561   4.752  11.664  1.0420  1.4720  2.4757
 2553TIP3   OH229073   3.694   3.789  12.663 -0.2091  0.3392  0.0352
 2553TIP3    H129074   3.731   3.702  12.652 -0.0293  0.5471 -1.1092
 2553TIP3    H229075   3.600   3.775  12.672 -0.0594 -0.0528  1.1134
 2554TIP3   OH229076   1.581   3.748  16.759 -0.0669  0.2735  0.2698
 2554TIP3    H129077   1.523   3.780  16.690 -1.0269  0.5934  1.1981
 2554TIP3    H229078   1.575   3.653  16.753 -0.1519  0.2997 -0.0711
 2555TIP3   OH229079   2.605   0.028   3.489 -0.4907 -0.0487  0.1070
 2555TIP3    H129080   2.563  -0.010   3.566  1.0235  1.0607  1.5366
 2555TIP3    H229081   2.699   0.017   3.504 -0.0675  2.2521 -0.4375
 2556TIP3   OH229082   1.833   2.295  15.661  0.3590 -0.4612  0.1952
 2556TIP3    H129083   1.909   2.294  15.604  1.5565  2.5312  1.5249
 2556TIP3    H229084   1.783   2.372  15.634 -1.3840 -1.4586  0.4062
 2557TIP3   OH229085   5.693   6.480  13.641 -0.1374 -0.4378 -0.0101
 2557TIP3    H129086   5.658   6.466  13.729  1.0048  1.7217  0.8757
 2557TIP3    H229087   5.725   6.570  13.643  1.1983 -0.8025 -2.2038
 2558TIP3   OH229088   5.158   4.600   4.980 -0.3607  0.3114 -0.4112
 2558TIP3    H129089   5.243   4.643   4.993  0.4209 -0.9314 -1.2311
 2558TIP3    H229090   5.097   4.653   5.031  1.1953  0.2416  1.6568
 2559TIP3   OH229091   6.203   4.282  12.140  0.2989  0.0800  0.7649
 2559TIP3    H129092   6.271   4.219  12.165  1.4373  0.9861  0.0449
 2559TIP3    H229093   6.178   4.323  12.223  1.9851  1.0249  0.8660
 2560TIP3   OH229094   6.148   2.065  16.551  0.7341 -0.6622  0.5385
 2560TIP3    H129095   6.098   2.134  16.594  0.6515 -1.4146  1.6774
 2560TIP3    H229096   6.132   2.078  16.457 -0.5660 -0.1195  0.8250
 2561TIP3   OH229097   4.357   5.371   4.255  0.4131  0.1409 -0.2772
 2561TIP3    H129098   4.358   5.385   4.350 -0.4028  0.0144 -0.2394
 2561TIP3    H229099   4.434   5.317   4.238  0.6055  0.2222  0.2988
 2562TIP3   OH229100   2.896   5.213   2.842  0.1129  0.0105 -0.3044
 2562TIP3    H129101   2.949   5.199   2.920 -0.0348  0.0898 -0.1886
 2562TIP3    H229102   2.897   5.129   2.796 -0.5975 -0.3268  0.2778
 2563TIP3   OH229103   4.219   4.244   0.891 -0.4729  0.0786 -0.3845
 2563TIP3    H129104   4.160   4.265   0.818 -1.5154 -0.1847  0.3548
 2563TIP3    H229105   4.203   4.312   0.956  1.1484  0.8638 -0.7492
 2564TIP3   OH229106   6.348   2.697  15.186  0.5131 -0.2800  0.1846
 2564TIP3    H129107   6.259   2.725  15.209 -0.0131 -2.2788  0.8102
 2564TIP3    H229108   6.348   2.694  15.091  0.3583  1.0532  0.1301
 2565TIP3   OH229109   1.057   5.320   5.408 -0.0889  0.4203  0.1769
 2565TIP3    H129110   1.134   5.375   5.423 -0.8324  1.3202  0.7910
 2565TIP3    H229111   1.070   5.245   5.466 -0.3974  1.3159  1.4415
 2566TIP3   OH229112   6.191   2.843  14.955  0.7302 -0.2014  0.1224
 2566TIP3    H129113   6.141   2.763  14.937 -0.9115  1.0314 -1.0930
 2566TIP3    H229114   6.126   2.905  14.989  1.8259  0.8397  0.3852
 2567TIP3   OH229115   6.324   6.755  14.900  0.4468  0.2690 -0.2286
 2567TIP3    H129116   6.355   6.795  14.819 -0.2156 -1.3618 -1.3522
 2567TIP3    H229117   6.306   6.664  14.876 -0.3896 -0.0969  1.6051
 2568TIP3   OH229118   3.479   4.911  14.045  0.1492 -0.2596 -0.1691
 2568TIP3    H129119   3.504   4.982  14.104 -0.2915 -0.7230  0.5943
 2568TIP3    H229120   3.460   4.837  14.103  2.4485 -1.6219 -1.0250
 2569TIP3   OH229121   4.363   5.059   3.034  0.1532  0.0523 -0.2367
 2569TIP3    H129122   4.268   5.064   3.024  0.2499  1.0454 -0.8241
 2569TIP3    H229123   4.377   5.049   3.129 -0.6042 -3.5078 -0.3860
 2570TIP3   OH229124   3.816   0.803  14.342  0.7377  0.7781 -0.4493
 2570TIP3    H129125   3.755   0.745  14.389  2.6673 -0.6705  0.4029
 2570TIP3    H229126   3.899   0.792  14.389  2.0074  1.6096 -2.4152
 2571TIP3   OH229127   4.713   0.762  11.879  0.1562 -0.1955 -0.2020
 2571TIP3    H129128   4.771   0.814  11.823 -0.6170 -1.7873 -2.6031
 2571TIP3    H229129   4.735   0.671  11.859 -2.1526 -0.8379 -0.1133
 2572TIP3   OH229130   4.846   1.074   0.726  0.1893 -0.1382 -0.1023
 2572TIP3    H129131   4.926   1.075   0.673  0.9237 -1.9851  0.8850
 2572TIP3    H229132   4.871   1.118   0.807  0.5647 -1.5626  0.6006
 2573TIP3   OH229133   6.029   5.027   1.317  0.0636 -0.9177 -0.0041
 2573TIP3    H129134   6.024   5.058   1.407 -0.2131  0.7980 -0.5673
 2573TIP3    H229135   6.121   5.009   1.302  0.4826  1.1113 -0.0812
 2574TIP3   OH229136   5.430   0.445  16.801  0.0014  0.1326  0.5565
 2574TIP3    H129137   5.352   0.476  16.756 -0.0931  1.3008  1.4723
 2574TIP3    H229138   5.496   0.438  16.732 -0.4612  0.7223  0.0420
 2575TIP3   OH229139   6.629   1.336   1.299 -0.4321 -0.9430  0.1723
 2575TIP3    H129140   6.623   1.302   1.210  0.7795 -2.6673  0.7033
 2575TIP3    H229141   6.649   1.260   1.354 -1.1792  0.0609  1.9485
 2576TIP3   OH229142   5.735   0.567   1.954  0.5110 -0.1654 -0.0573
 2576TIP3    H129143   5.767   0.528   1.873  1.3863  1.1887 -0.4071
 2576TIP3    H229144   5.648   0.530   1.966  0.1686 -0.0343 -1.8832
 2577TIP3   OH229145   2.636   1.499  12.528 -0.0255 -0.6324 -0.2751
 2577TIP3    H129146   2.660   1.520  12.438 -2.4309 -2.5423 -1.4617
 2577TIP3    H229147   2.670   1.410  12.542  1.4210  0.0946  1.2021
 2578TIP3   OH229148   4.005   6.188  11.610  0.1445  0.3603  0.0911
 2578TIP3    H129149   4.068   6.140  11.663 -1.0604  0.5850  1.7902
 2578TIP3    H229150   3.946   6.120  11.576  0.2141  0.3352  0.0207
 2579TIP3   OH229151   3.457   0.256  15.123  0.0174 -0.0275  0.1014
 2579TIP3    H129152   3.368   0.221  15.131 -0.6428  1.4764 -0.3333
 2579TIP3    H229153   3.509   0.200  15.180 -1.8499  1.2671  3.3340
 2580TIP3   OH229154   6.213   5.775   5.629 -0.4081  0.0192 -0.0226
 2580TIP3    H129155   6.179   5.856   5.590  2.3669  0.6197 -1.5222
 2580TIP3    H229156   6.138   5.735   5.673 -2.5192  2.0298 -1.5625
 2581TIP3   OH229157   0.510   4.214   4.980  0.1396 -0.5092  0.0584
 2581TIP3    H129158   0.455   4.291   4.969  0.3577 -0.6555 -2.5741
 2581TIP3    H229159   0.581   4.242   5.037  0.3022  1.3067 -0.9833
 2582TIP3   OH229160   2.229   5.308   1.178  0.1855 -0.3240 -0.3824
 2582TIP3    H129161   2.162   5.375   1.190  0.6754  0.0148  0.6716
 2582TIP3    H229162   2.189   5.244   1.120 -1.2945 -0.4533  0.7254
 2583TIP3   OH229163   0.795   4.305   5.962  0.4772  0.7153  0.3075
 2583TIP3    H129164   0.822   4.279   5.874  0.5232  1.4494  0.0988
 2583TIP3    H229165   0.707   4.269   5.972  0.5914  0.3717  0.0757
 2584TIP3   OH229166   5.334   1.926   3.295 -0.1043 -0.0853 -0.3214
 2584TIP3    H129167   5.365   1.849   3.344 -0.0430  0.0500 -0.1475
 2584TIP3    H229168   5.343   1.901   3.203  0.2538 -0.1532 -0.2686
 2585TIP3   OH229169   0.356   5.672  13.490  0.0946 -0.0723 -0.0665
 2585TIP3    H129170   0.352   5.601  13.426 -0.3074 -0.3338  0.2377
 2585TIP3    H229171   0.268   5.674  13.529 -0.2298  1.2672 -0.7838
 2586TIP3   OH229172   2.970   4.383   3.444 -0.1563 -0.1110 -0.6010
 2586TIP3    H129173   3.051   4.385   3.392  0.0346 -0.2748 -0.3075
 2586TIP3    H229174   2.945   4.475   3.451 -0.2426 -0.0915 -1.0726
 2587TIP3   OH229175   3.928   1.927   5.081  0.4196  0.6879  0.4972
 2587TIP3    H129176   3.898   1.944   5.170  1.9364  0.8753  0.9861
 2587TIP3    H229177   3.996   1.861   5.090  0.9375  1.0655 -0.4738
 2588TIP3   OH229178   0.888   1.911  11.348 -0.3587 -0.2344 -0.5662
 2588TIP3    H129179   0.865   1.961  11.269 -0.9664  0.0614 -0.2006
 2588TIP3    H229180   0.842   1.828  11.338 -3.8820  1.2641  1.3727
 2589TIP3   OH229181   3.028   3.123  14.849 -0.3160  0.5143 -0.0056
 2589TIP3    H129182   3.023   3.108  14.944 -0.2786  0.5843  0.0072
 2589TIP3    H229183   3.122   3.123  14.830 -0.3213  0.6013 -0.0277
 2590TIP3   OH229184   4.998   2.923  16.721 -0.2642 -0.4076  0.2160
 2590TIP3    H129185   4.909   2.893  16.700 -0.5581  0.6663 -0.1452
 2590TIP3    H229186   5.000   3.014  16.690  0.7995 -0.2621  0.6858
 2591TIP3   OH229187   3.236   2.286  15.255  0.3200  0.5178  0.1997
 2591TIP3    H129188   3.183   2.364  15.237 -0.6906 -0.3296 -0.6702
 2591TIP3    H229189   3.285   2.272  15.173 -1.2959 -1.0895 -0.5482
 2592TIP3   OH229190   3.317   3.814  16.481 -0.1850 -0.6493 -0.2198
 2592TIP3    H129191   3.341   3.790  16.391  1.6217 -1.9757  0.5443
 2592TIP3    H229192   3.242   3.759  16.502 -1.1221  0.2356 -1.1490
 2593TIP3   OH229193   0.241   2.003   2.282 -0.4445  0.3854  0.4743
 2593TIP3    H129194   0.269   1.965   2.198 -2.1481 -0.2797  0.1519
 2593TIP3    H229195   0.249   2.098   2.269 -1.6531  0.3489 -0.8655
 2594TIP3   OH229196   5.588   4.563   1.098 -0.3486  0.5515  0.3928
 2594TIP3    H129197   5.638   4.605   1.168  2.5228 -1.2827 -0.3788
 2594TIP3    H229198   5.617   4.608   1.018 -0.2437 -0.2399 -0.0290
 2595TIP3   OH229199   5.555   5.267   3.532 -0.2018  0.1530 -0.0456
 2595TIP3    H129200   5.494   5.295   3.601 -0.2301 -2.3413  1.0714
 2595TIP3    H229201   5.641   5.284   3.569 -0.2212  0.0821  0.0339
 2596TIP3   OH229202   2.367   6.402  10.982  0.5278 -0.4357 -0.2427
 2596TIP3    H129203   2.424   6.463  10.935 -1.2714  0.6695 -1.1092
 2596TIP3    H229204   2.299   6.379  10.918 -0.6153 -0.8554  1.0740
 2597TIP3   OH229205   5.015   4.541   2.811 -0.4514 -0.1374  0.3165
 2597TIP3    H129206   5.039   4.461   2.858 -1.9286 -2.0185 -1.8949
 2597TIP3    H229207   4.919   4.537   2.805 -0.4333  0.9412 -1.2282
 2598TIP3   OH229208   4.655   0.664   5.191 -0.2674 -0.7228 -0.1356
 2598TIP3    H129209   4.709   0.624   5.122  0.4881  1.2917 -0.7904
 2598TIP3    H229210   4.601   0.728   5.145 -0.4972 -0.0579  1.0181
 2599TIP3   OH229211   5.282   1.697   4.310  0.7668  0.3303 -0.8918
 2599TIP3    H129212   5.229   1.618   4.298 -0.6607  1.1444 -0.2037
 2599TIP3    H229213   5.240   1.762   4.253  0.8999  1.0443 -0.1900
 2600TIP3   OH229214   4.650   0.981   2.442  0.3643 -0.2668  0.3202
 2600TIP3    H129215   4.564   1.022   2.453  0.9277  1.4779 -1.2858
 2600TIP3    H229216   4.696   1.001   2.523  0.4419  1.9678 -0.2019
 2601TIP3   OH229217   4.985   1.482   4.123 -0.3369  0.1454  0.1161
 2601TIP3    H129218   4.919   1.532   4.170 -2.2843 -2.0831 -0.0421
 2601TIP3    H229219   4.935   1.429   4.061  1.6564 -1.2590 -0.3919
 2602TIP3   OH229220   1.924   6.506   0.394 -0.0910  0.2068  0.2168
 2602TIP3    H129221   1.853   6.534   0.452  1.0745  1.5001  1.0829
 2602TIP3    H229222   1.947   6.419   0.424  0.1288  0.6434  1.3592
 2603TIP3   OH229223   4.433   3.516   0.115 -0.5666 -0.1034  0.6428
 2603TIP3    H129224   4.432   3.475   0.201 -0.2725 -1.0096  0.2259
 2603TIP3    H229225   4.420   3.610   0.133 -1.0161 -0.3406  1.6237
 2604TIP3   OH229226   6.013   5.607   3.794 -0.2449 -0.3395  0.4452
 2604TIP3    H129227   6.071   5.645   3.860 -0.5835  0.0936  0.4956
 2604TIP3    H229228   6.057   5.625   3.710 -0.1280 -0.3345  0.5076
 2605TIP3   OH229229   0.583   1.045  13.536 -0.5657 -0.3558 -0.0360
 2605TIP3    H129230   0.527   1.097  13.595 -0.8837 -1.0112  0.2549
 2605TIP3    H229231   0.633   0.988  13.595  1.0608  0.8157 -0.2307
 2606TIP3   OH229232   6.352   0.475  12.745 -0.3194  1.0206 -0.6000
 2606TIP3    H129233   6.444   0.461  12.765 -0.9144 -1.0091  1.2543
 2606TIP3    H229234   6.346   0.467  12.650  1.0060 -2.4566 -0.5433
 2607TIP3   OH229235   5.252   4.645   1.844 -0.0387  0.0346  0.4597
 2607TIP3    H129236   5.326   4.603   1.888 -0.2344 -2.7712 -1.5929
 2607TIP3    H229237   5.290   4.721   1.801  0.4937  1.8050  3.7665
 2608TIP3   OH229238   2.679   3.762   6.001 -0.2199  0.4131 -0.0091
 2608TIP3    H129239   2.708   3.852   5.985  0.4613  0.1652 -0.2207
 2608TIP3    H229240   2.650   3.763   6.092  0.8759  0.5840  0.3599
 2609TIP3   OH229241   4.878   4.729  11.768 -0.2461 -0.1528  0.2277
 2609TIP3    H129242   4.962   4.708  11.728 -0.7316 -0.5707 -0.5966
 2609TIP3    H229243   4.813   4.710  11.700 -1.0362 -0.1977  0.9720
 2610TIP3   OH229244   5.246   2.785  12.799 -0.0476 -0.2406  0.6533
 2610TIP3    H129245   5.249   2.728  12.722 -1.5231 -0.5819  0.8189
 2610TIP3    H229246   5.319   2.845  12.787 -0.4458 -0.0515 -1.2191
 2611TIP3   OH229247   6.731   3.333  10.813  0.4759  0.0408 -0.0386
 2611TIP3    H129248   6.792   3.397  10.778  0.1829  0.0345 -0.5682
 2611TIP3    H229249   6.782   3.252  10.821  0.0985 -0.4822 -2.2450
 2612TIP3   OH229250   4.267   0.827   0.600  0.1731 -0.4003  0.1421
 2612TIP3    H129251   4.335   0.856   0.661 -0.8051  3.1871 -0.2237
 2612TIP3    H229252   4.185   0.848   0.644 -0.6073 -0.8821 -1.0435
 2613TIP3   OH229253   5.103   4.370   3.012  0.2551  0.7873 -0.5730
 2613TIP3    H129254   5.133   4.283   3.038  1.4289  0.9301 -1.3622
 2613TIP3    H229255   5.182   4.415   2.983 -0.5298  1.6539 -1.4565
 2614TIP3   OH229256   5.421   3.421  11.467  0.2240  0.0853  0.1402
 2614TIP3    H129257   5.381   3.447  11.384 -1.9386 -1.9978  0.4295
 2614TIP3    H229258   5.380   3.478  11.532 -0.0949 -0.0712  0.0800
 2615TIP3   OH229259   0.021   3.290  12.923 -0.2607  0.3973 -0.0636
 2615TIP3    H129260   0.067   3.225  12.870  0.0290 -0.3906  1.1130
 2615TIP3    H229261   0.085   3.319  12.988 -1.4150 -0.8613  1.7328
 2616TIP3   OH229262   6.728   5.034  12.940  0.0284  0.1500 -0.0766
 2616TIP3    H129263   6.803   5.039  12.999  1.0644 -1.5044 -1.1759
 2616TIP3    H229264   6.746   5.101  12.873 -1.2578  2.1840  1.4965
 2617TIP3   OH229265   6.689   1.895   5.836 -0.4945 -0.7395 -0.7936
 2617TIP3    H129266   6.617   1.878   5.775 -1.3766 -3.1237  0.7874
 2617TIP3    H229267   6.651   1.882   5.923  1.3922 -0.1342  0.1780
 2618TIP3   OH229268   0.353   3.915  10.608 -0.2391  0.6602 -0.2271
 2618TIP3    H129269   0.435   3.956  10.636 -0.9507  2.2881 -0.4289
 2618TIP3    H229270   0.285   3.960  10.658 -0.9594 -1.5226  0.8828
 2619TIP3   OH229271   0.856   5.857   3.470 -0.0605  0.1055  1.2227
 2619TIP3    H129272   0.876   5.919   3.540  3.3107  0.1134  0.3812
 2619TIP3    H229273   0.865   5.908   3.390  0.5953 -0.9583  0.6056
 2620TIP3   OH229274   2.983   2.299   4.393 -0.3983 -0.3328  0.2378
 2620TIP3    H129275   2.923   2.255   4.332 -1.4839 -1.2300  1.8762
 2620TIP3    H229276   2.937   2.297   4.477  0.9980  0.9739  1.0740
 2621TIP3   OH229277   3.457   0.945  16.628 -0.1460  0.4536 -0.3692
 2621TIP3    H129278   3.375   0.963  16.675 -0.7542 -1.0605 -0.8023
 2621TIP3    H229279   3.439   0.865  16.578  1.9165 -0.4600  0.2801
 2622TIP3   OH229280   1.487   0.726   0.705 -0.3285 -0.4129  0.2214
 2622TIP3    H129281   1.522   0.640   0.728 -2.0217 -1.6372 -1.5413
 2622TIP3    H229282   1.501   0.733   0.611 -0.6466  1.0580  0.2593
 2623TIP3   OH229283   4.549   3.304  15.136  0.2447 -0.4615 -0.2576
 2623TIP3    H129284   4.609   3.315  15.062  1.9318  0.1552  1.1122
 2623TIP3    H229285   4.469   3.269  15.098  0.7425  0.6742 -2.4807
 2624TIP3   OH229286   1.121   0.128  16.181  0.4719  0.6276 -0.2483
 2624TIP3    H129287   1.192   0.083  16.136  1.0680 -0.0794  1.3377
 2624TIP3    H229288   1.058   0.058  16.201 -2.1811  1.5929 -4.1153
 2625TIP3   OH229289   5.701   2.822  13.661 -0.2808  0.4129 -0.1465
 2625TIP3    H129290   5.700   2.778  13.746  1.0538  1.2228  0.3164
 2625TIP3    H229291   5.765   2.774  13.609  0.3596  1.1111 -0.0140
 2626TIP3   OH229292   4.350   5.626  16.686 -0.2933  0.6820 -0.8231
 2626TIP3    H129293   4.388   5.569  16.753 -0.0701  1.2654 -0.4451
 2626TIP3    H229294   4.290   5.570  16.637  0.1937  0.0318 -0.6906
 2627TIP3   OH229295   6.295   1.033   2.904  0.3425  0.0966 -0.1178
 2627TIP3    H129296   6.254   0.968   2.848  1.4080  1.0848 -2.1345
 2627TIP3    H229297   6.281   1.000   2.993 -2.4892 -0.8933 -0.8348
 2628TIP3   OH229298   1.114   1.404   1.085 -0.0413 -0.7693 -0.3254
 2628TIP3    H129299   1.156   1.339   1.028 -0.8978 -0.9439 -0.7651
 2628TIP3    H229300   1.123   1.487   1.037  1.4007 -0.4563  0.4111
 2629TIP3   OH229301   1.515   1.284   1.216 -0.2256 -0.7257 -0.1307
 2629TIP3    H129302   1.443   1.221   1.209  0.4708 -1.8553  1.9188
 2629TIP3    H229303   1.590   1.231   1.245  0.5092  0.9356  1.1753
 2630TIP3   OH229304   2.065   0.658   2.783  0.9763 -0.3327  0.2880
 2630TIP3    H129305   2.035   0.747   2.800 -2.2459 -1.1576 -0.3857
 2630TIP3    H229306   2.107   0.663   2.697  1.7329  0.6754  0.6949
 2631TIP3   OH229307   1.687   5.121   0.384 -0.1924 -0.2296  0.1485
 2631TIP3    H129308   1.636   5.198   0.357  0.3859 -0.1351 -0.7253
 2631TIP3    H229309   1.678   5.061   0.310  2.0518  0.3240 -0.6650
 2632TIP3   OH229310   4.812   0.204   3.317 -0.3877  0.2599  0.4121
 2632TIP3    H129311   4.742   0.143   3.293 -0.0192 -0.1752  0.4273
 2632TIP3    H229312   4.859   0.159   3.387 -0.4550  0.8081  0.8125
 2633TIP3   OH229313   5.315   2.929  14.333 -0.0263 -0.6145 -0.0567
 2633TIP3    H129314   5.344   2.859  14.391 -0.4470 -1.4042 -0.7657
 2633TIP3    H229315   5.270   2.883  14.262  0.6648  0.3162 -1.1131
 2634TIP3   OH229316   1.179   0.898  14.281 -0.7853 -0.2798  0.3260
 2634TIP3    H129317   1.086   0.921  14.288 -0.7832  0.1504 -0.8605
 2634TIP3    H229318   1.209   0.892  14.372 -1.7680  0.4338  0.7127
 2635TIP3   OH229319   6.696   3.644  11.846 -0.1808  0.3744 -0.5927
 2635TIP3    H129320   6.615   3.594  11.858 -0.2024  0.2744 -1.1075
 2635TIP3    H229321   6.766   3.579  11.853 -0.0433  0.6734  1.2282
 2636TIP3   OH229322   5.061   5.613   0.170 -0.3727 -0.3930  0.0422
 2636TIP3    H129323   5.034   5.561   0.094  0.0107 -1.2094  0.4459
 2636TIP3    H229324   5.153   5.635   0.152 -0.5267  0.1406 -0.1151
 2637TIP3   OH229325   0.469   4.347  12.765 -0.0382 -0.1518 -0.2204
 2637TIP3    H129326   0.392   4.404  12.757  0.0662  0.4735  2.2501
 2637TIP3    H229327   0.442   4.280  12.828  0.8378 -1.0750 -0.8096
 2638TIP3   OH229328   3.132   1.429  16.941  0.0899 -0.0634 -0.3492
 2638TIP3    H129329   3.193   1.426  17.015  0.8534 -0.5325 -0.9770
 2638TIP3    H229330   3.128   1.338  16.909  0.2591  0.2365 -1.2606
 2639TIP3   OH229331   5.487   0.458   2.018 -0.0525 -0.2070  0.0535
 2639TIP3    H129332   5.447   0.459   2.105 -0.5427  0.8687 -0.1743
 2639TIP3    H229333   5.437   0.392   1.970  0.2567 -0.8484  0.5890
 2640TIP3   OH229334   0.877   4.470   0.602 -0.1698  0.0423 -0.6061
 2640TIP3    H129335   0.835   4.532   0.543 -0.9591  1.2384  1.1184
 2640TIP3    H229336   0.854   4.384   0.567 -0.5400  0.6965 -2.0565
 2641TIP3   OH229337   6.739   0.731   5.960  0.4589 -0.0501  0.0603
 2641TIP3    H129338   6.786   0.678   6.023  2.6669  1.0000 -0.5959
 2641TIP3    H229339   6.752   0.686   5.876 -0.3590 -0.1356 -0.0280
 2642TIP3   OH229340   2.737   2.114   0.700  0.0629  0.0495  0.3523
 2642TIP3    H129341   2.731   2.060   0.621 -1.2757  0.4427  0.1724
 2642TIP3    H229342   2.725   2.052   0.772  0.9523 -0.2552  0.2550
 2643TIP3   OH229343   3.712   6.681   2.502 -0.0108 -0.4541  0.1422
 2643TIP3    H129344   3.640   6.622   2.476 -0.2020  0.0117 -0.4113
 2643TIP3    H229345   3.789   6.645   2.458 -0.3635  0.4251 -1.2647
 2644TIP3   OH229346   5.107   0.419   6.837 -0.5611  0.1169 -0.4375
 2644TIP3    H129347   5.028   0.366   6.832 -0.3895 -0.0444 -1.8968
 2644TIP3    H229348   5.155   0.398   6.757  1.4912 -0.6131  0.9087
 2645TIP3   OH229349   1.723   5.171  13.529  0.3464 -0.4995  0.5759
 2645TIP3    H129350   1.758   5.148  13.615 -0.3497 -0.4103  0.8861
 2645TIP3    H229351   1.667   5.097  13.505 -1.6118  0.6331  1.4175
 2646TIP3   OH229352   2.608   2.541   0.211 -0.3615  0.2566  0.2835
 2646TIP3    H129353   2.590   2.496   0.293 -2.4316  1.2941  0.4564
 2646TIP3    H229354   2.548   2.501   0.148  0.5088  0.1494 -0.5022
 2647TIP3   OH229355   0.308   0.079   4.918 -0.3650  0.8063  0.1863
 2647TIP3    H129356   0.371   0.078   4.846 -1.4980  1.7248 -0.8521
 2647TIP3    H229357   0.361   0.099   4.996  0.7467  0.6283 -0.5069
 2648TIP3   OH229358   2.679   2.771   5.560 -0.3757  0.1625  0.0821
 2648TIP3    H129359   2.672   2.808   5.471  0.9382  0.7760  0.2014
 2648TIP3    H229360   2.605   2.712   5.568 -0.9180  0.6413 -1.1757
 2649TIP3   OH229361   2.420   3.330  15.727  0.2556  0.6616 -0.0337
 2649TIP3    H129362   2.406   3.319  15.633 -0.1485  0.4877  0.0448
 2649TIP3    H229363   2.385   3.250  15.765  1.5855  0.1391  0.1668
 2650TIP3   OH229364   0.752   1.868  14.508  0.8962 -0.2107 -1.0188
 2650TIP3    H129365   0.742   1.807  14.581 -1.2981  0.0699 -0.9920
 2650TIP3    H229366   0.738   1.815  14.430 -1.1775  0.2060 -0.9887
 2651TIP3   OH229367   0.222   5.373  14.193  0.2691 -0.1299  0.3618
 2651TIP3    H129368   0.175   5.377  14.110  0.5694  3.3064  0.2149
 2651TIP3    H229369   0.168   5.424  14.253  2.1199  1.1164  1.0625
 2652TIP3   OH229370   4.536   3.508  11.561  0.1362 -0.5742  0.5970
 2652TIP3    H129371   4.623   3.489  11.527  0.6987 -1.5940  2.4590
 2652TIP3    H229372   4.527   3.603  11.549  0.3944 -0.7933 -1.9467
 2653TIP3   OH229373   1.909   2.488  15.205 -0.1158  0.8169  0.1867
 2653TIP3    H129374   1.942   2.552  15.142 -1.9327  1.2048 -0.4442
 2653TIP3    H229375   1.952   2.406  15.180  1.0646  1.4686  0.0237
 2654TIP3   OH229376   6.447   4.861  16.597 -0.2554 -0.2999 -0.0135
 2654TIP3    H129377   6.415   4.951  16.584  2.3758  1.0053  1.6204
 2654TIP3    H229378   6.523   4.854  16.539  0.3247 -1.0096  0.8042
 2655TIP3   OH229379   4.529   1.724   6.539  0.7572  0.1617  0.4729
 2655TIP3    H129380   4.543   1.794   6.476 -0.8122 -0.8508 -1.0874
 2655TIP3    H229381   4.480   1.764   6.610 -0.6399  0.5566 -0.6779
 2656TIP3   OH229382   1.502   1.179  16.490 -0.3999 -0.3711 -0.2141
 2656TIP3    H129383   1.588   1.146  16.516 -0.8403 -2.6100 -1.4139
 2656TIP3    H229384   1.441   1.140  16.553 -0.7407 -0.2232 -0.4493
 2657TIP3   OH229385   2.070   3.713  12.606 -0.2174 -0.1183  0.4727
 2657TIP3    H129386   2.015   3.723  12.684 -1.0848 -0.3832 -0.0977
 2657TIP3    H229387   2.090   3.803  12.579 -2.0635  0.0324 -0.4892
 2658TIP3   OH229388   0.625   1.110   4.210 -0.7658 -0.2711 -0.7440
 2658TIP3    H129389   0.697   1.171   4.224  2.3084 -3.7272 -0.0152
 2658TIP3    H229390   0.589   1.134   4.124  1.8188  1.0926 -1.5509
 2659TIP3   OH229391   0.163   1.761   1.160 -0.1873  0.4188  0.4352
 2659TIP3    H129392   0.212   1.824   1.213 -0.8863  1.6745 -0.3530
 2659TIP3    H229393   0.133   1.812   1.084 -0.1478 -1.0564 -0.6053
 2660TIP3   OH229394   6.278   6.492  14.808  0.1577 -0.0253  0.2706
 2660TIP3    H129395   6.191   6.453  14.799  0.2666  0.1327 -2.1262
 2660TIP3    H229396   6.330   6.425  14.854 -1.4762  0.3849  2.8782
 2661TIP3   OH229397   1.296   0.967   1.540 -0.1649 -0.3164 -0.2598
 2661TIP3    H129398   1.385   0.941   1.515  0.1447 -0.5157  0.9666
 2661TIP3    H229399   1.308   1.047   1.591 -0.5921 -0.7814  0.6026
 2662TIP3   OH229400   4.135   6.088  13.599 -0.5075 -1.0122  0.1194
 2662TIP3    H129401   4.082   6.125  13.529 -0.4241  0.3942  0.7508
 2662TIP3    H229402   4.172   6.165  13.643 -0.4769 -1.8620  1.6330
 2663TIP3   OH229403   2.694   5.752  11.664  0.1371 -0.1818  0.6800
 2663TIP3    H129404   2.686   5.701  11.584 -1.5938  0.0594  0.6683
 2663TIP3    H229405   2.711   5.842  11.634  1.4451 -0.4167  0.6600
 2664TIP3   OH229406   5.255   3.062   1.289 -0.5952 -0.0573 -0.2034
 2664TIP3    H129407   5.248   3.120   1.214 -1.1512  0.0973 -0.0423
 2664TIP3    H229408   5.337   3.086   1.331  0.5750 -1.2733 -1.6762
 2665TIP3   OH229409   6.582   4.123  11.610  0.3116 -0.2404  0.0873
 2665TIP3    H129410   6.616   4.053  11.554  1.9415 -0.7290  1.6122
 2665TIP3    H229411   6.613   4.204  11.570  0.5380 -0.5236 -0.3146
 2666TIP3   OH229412   2.492   5.660  13.438  0.2673  0.4448 -0.2425
 2666TIP3    H129413   2.514   5.667  13.345 -1.2541  0.7107 -0.6123
 2666TIP3    H229414   2.491   5.750  13.470 -1.0957  0.5227 -0.4562
 2667TIP3   OH229415   3.305   2.483   3.372 -0.0385  0.0191  0.1066
 2667TIP3    H129416   3.221   2.455   3.409  0.0440  0.2164  0.4450
 2667TIP3    H229417   3.280   2.537   3.297 -0.1972 -1.3720 -0.8893
 2668TIP3   OH229418   5.647   6.560  15.172 -0.3920 -0.1257 -0.6900
 2668TIP3    H129419   5.663   6.487  15.113  1.4717  0.1552 -0.5899
 2668TIP3    H229420   5.583   6.526  15.235 -0.7952 -1.1164 -1.5991
 2669TIP3   OH229421   6.549   1.028   2.183 -0.5014  0.3358  0.0971
 2669TIP3    H129422   6.456   1.019   2.202 -0.6016  0.4567 -0.3303
 2669TIP3    H229423   6.553   1.064   2.095 -0.0622  1.1131  0.4190
 2670TIP3   OH229424   0.157   0.031   0.087  0.0254  0.2106 -0.4360
 2670TIP3    H129425   0.234  -0.023   0.070  0.3124  0.7143 -0.7841
 2670TIP3    H229426   0.183   0.119   0.059  0.0154  0.8031  1.2615
 2671TIP3   OH229427   1.013   3.700  14.263  0.2305  0.6318  0.0524
 2671TIP3    H129428   0.987   3.618  14.221  3.2726 -0.3387 -0.1861
 2671TIP3    H229429   0.930   3.742  14.287 -1.5684 -0.6995 -3.1618
 2672TIP3   OH229430   2.772   0.794   2.167  0.2182  0.3779  0.5521
 2672TIP3    H129431   2.745   0.762   2.080 -0.3141  0.9572  0.5007
 2672TIP3    H229432   2.773   0.889   2.159  1.0323  0.4146  0.9357
 2673TIP3   OH229433   1.817   0.992   1.400  0.0236  0.3040  0.0488
 2673TIP3    H129434   1.795   1.071   1.352 -1.6021  0.3233  0.7558
 2673TIP3    H229435   1.843   0.929   1.332  1.8257  1.5289 -0.4816
 2674TIP3   OH229436   6.261   6.296   4.634  0.5757  0.1220  0.3191
 2674TIP3    H129437   6.198   6.267   4.569 -0.1742 -0.0120  1.0882
 2674TIP3    H229438   6.253   6.232   4.705  0.4479  0.9875  1.0992
 2675TIP3   OH229439   4.009   2.704  14.526  0.0787  0.0392  0.0617
 2675TIP3    H129440   3.948   2.714  14.598 -0.5281  0.9525 -0.5563
 2675TIP3    H229441   4.038   2.613  14.531 -0.8011 -0.2126  0.7777
 2676TIP3   OH229442   5.313   4.910  14.093 -0.6008  0.1120  0.0052
 2676TIP3    H129443   5.238   4.858  14.122 -1.0721  0.6030 -0.3257
 2676TIP3    H229444   5.287   4.944  14.008 -0.4570  1.2164  0.3921
 2677TIP3   OH229445   2.059   5.620  10.359  0.7490 -0.3435 -0.3182
 2677TIP3    H129446   2.146   5.630  10.396  0.1855  0.3988  0.8925
 2677TIP3    H229447   2.015   5.702  10.380 -0.4098 -0.9166 -0.4179
 2678TIP3   OH229448   1.481   5.457  11.323 -0.4253  0.1222  0.2856
 2678TIP3    H129449   1.505   5.549  11.336 -0.2188  0.2064 -0.6068
 2678TIP3    H229450   1.550   5.407  11.368 -1.3740  0.3911  2.1357
 2679TIP3   OH229451   0.119   3.734  16.011 -0.1451 -0.3582  0.1195
 2679TIP3    H129452   0.130   3.768  16.099  1.0181  0.0449 -0.1602
 2679TIP3    H229453   0.080   3.806  15.962  1.6083  0.3589 -0.2896
 2680TIP3   OH229454   4.900   1.172  12.540 -0.2798 -0.3199 -0.4209
 2680TIP3    H129455   4.951   1.164  12.620  0.8930 -0.8525 -1.1808
 2680TIP3    H229456   4.827   1.111  12.551 -1.3309  1.1427  1.0724
 2681TIP3   OH229457   0.940   5.140  12.079 -0.6271  0.5372 -0.1503
 2681TIP3    H129458   0.931   5.046  12.094 -2.0368  0.7067  0.2451
 2681TIP3    H229459   0.920   5.152  11.986  1.4139  0.2675 -0.6794
 2682TIP3   OH229460   0.216   1.569   6.595  0.4912 -0.6848  0.0027
 2682TIP3    H129461   0.288   1.506   6.588  0.9963 -0.0326 -0.8905
 2682TIP3    H229462   0.228   1.627   6.520  0.1408  0.6032  0.9097
 2683TIP3   OH229463   4.232   1.429   5.144  0.0580 -0.0853  0.6202
 2683TIP3    H129464   4.142   1.419   5.111  0.1751  2.7933 -0.9596
 2683TIP3    H229465   4.221   1.439   5.239 -1.1995 -0.4932  0.5410
 2684TIP3   OH229466   4.546   5.033   3.517 -0.3792  0.2395  0.2488
 2684TIP3    H129467   4.633   5.021   3.557 -0.7281  0.3491  1.0566
 2684TIP3    H229468   4.486   4.987   3.575 -0.7074 -1.1268 -1.1039
 2685TIP3   OH229469   5.865   1.558  15.457  0.4143 -0.2834 -0.2658
 2685TIP3    H129470   5.912   1.641  15.467  1.0466 -0.7048  0.3718
 2685TIP3    H229471   5.776   1.578  15.486  0.4133  0.3058 -0.6453
 2686TIP3   OH229472   2.579   0.116  13.003  0.1588 -0.5868  0.4489
 2686TIP3    H129473   2.585   0.021  12.992 -1.6962 -0.6001 -1.0793
 2686TIP3    H229474   2.613   0.133  13.091  0.4404 -2.6755  0.7821
 2687TIP3   OH229475   5.007   3.255  14.909 -0.0966 -0.1523 -0.1084
 2687TIP3    H129476   5.102   3.250  14.902 -0.1617 -1.4937 -0.1817
 2687TIP3    H229477   4.979   3.166  14.928 -1.2370  0.4694  1.3886
 2688TIP3   OH229478   0.381   3.341   5.236  0.0726 -0.1872  0.8726
 2688TIP3    H129479   0.412   3.427   5.264  2.8055 -1.4171  2.0130
 2688TIP3    H229480   0.362   3.351   5.143  0.4234  1.5925  0.9572
 2689TIP3   OH229481   1.403   1.625  14.512  0.6240  0.1398 -0.4948
 2689TIP3    H129482   1.327   1.626  14.453 -0.5886  1.4495  1.0144
 2689TIP3    H229483   1.365   1.620  14.600  2.2966  0.6377  0.2946
 2690TIP3   OH229484   4.279   1.240  13.192 -0.3501 -0.4492 -0.4081
 2690TIP3    H129485   4.250   1.244  13.101  0.3344  2.9272 -0.6255
 2690TIP3    H229486   4.200   1.255  13.244 -0.6124 -1.6474 -0.4210
 2691TIP3   OH229487   0.888   3.198   1.726 -0.1848  0.8081 -0.3587
 2691TIP3    H129488   0.861   3.152   1.647 -1.3561 -0.2308  0.6042
 2691TIP3    H229489   0.965   3.149   1.756  0.4473  1.3885 -0.9913
 2692TIP3   OH229490   2.683   0.695  13.902  0.1190 -0.4508 -0.2490
 2692TIP3    H129491   2.644   0.613  13.874 -0.4872  0.0426 -0.8823
 2692TIP3    H229492   2.681   0.692  13.997 -1.2292 -0.5447 -0.2714
 2693TIP3   OH229493   6.615   1.999   2.529  0.2051 -0.0010  0.0001
 2693TIP3    H129494   6.564   1.929   2.571 -0.0589 -0.2475 -0.7061
 2693TIP3    H229495   6.653   2.048   2.602 -0.5350 -0.1924  0.5331
 2694TIP3   OH229496   3.512   4.003  16.535  0.7525  0.2135 -0.0354
 2694TIP3    H129497   3.554   3.956  16.607  1.8448  2.1809  0.7001
 2694TIP3    H229498   3.453   3.939  16.495  0.4213 -1.0811  2.3413
 2695TIP3   OH229499   1.750   0.829   2.466  0.0289  0.3290 -0.2214
 2695TIP3    H129500   1.820   0.819   2.401 -0.1549  0.1337 -0.3881
 2695TIP3    H229501   1.695   0.899   2.431  2.2582  3.3204  1.7572
 2696TIP3   OH229502   5.446   6.273   0.238  0.5709  0.0920  0.6038
 2696TIP3    H129503   5.427   6.190   0.195  2.3999  0.4012 -0.9120
 2696TIP3    H229504   5.501   6.250   0.313  0.3317 -0.1463  0.7041
 2697TIP3   OH229505   1.425   5.128  12.140  0.3305  0.3401  0.2630
 2697TIP3    H129506   1.348   5.095  12.093  0.5011  0.1185  0.1364
 2697TIP3    H229507   1.391   5.197  12.196 -0.1961 -0.6529  1.2180
 2698TIP3   OH229508   0.706   5.026  17.280 -0.2135 -0.3404  0.2735
 2698TIP3    H129509   0.751   4.987  17.355  1.6803 -0.1174 -0.7074
 2698TIP3    H229510   0.691   4.953  17.221  0.3633 -0.1313 -0.1302
 2699TIP3   OH229511   3.148   4.080  17.125 -0.2674  0.0438 -0.0311
 2699TIP3    H129512   3.066   4.078  17.174  0.0308 -1.3475  0.4609
 2699TIP3    H229513   3.122   4.098  17.035 -1.0293  0.4195  0.2583
 2700TIP3   OH229514   1.665   6.308  16.418 -0.7286  0.0032 -0.3698
 2700TIP3    H129515   1.611   6.244  16.464 -0.5735 -0.9297 -1.4456
 2700TIP3    H229516   1.750   6.264  16.407 -0.8495  0.0852 -1.7768
 2701TIP3   OH229517   1.478   5.080  10.638 -0.2474  0.3880  0.0496
 2701TIP3    H129518   1.560   5.126  10.656 -0.3612  0.5208  0.2424
 2701TIP3    H229519   1.410   5.145  10.658 -0.3922  1.4890 -3.3880
 2702TIP3   OH229520   6.046   2.918  12.177  0.0134 -0.1348 -0.0371
 2702TIP3    H129521   6.101   2.982  12.132 -0.7827 -0.1127 -1.0111
 2702TIP3    H229522   6.049   2.840  12.123 -1.0263 -0.0807 -0.1881
 2703TIP3   OH229523   4.911   6.245   5.436 -0.0307  0.5437  0.0392
 2703TIP3    H129524   4.966   6.270   5.510 -0.5960  0.0248  0.6503
 2703TIP3    H229525   4.833   6.300   5.445 -1.3519 -1.4075  1.4791
 2704TIP3   OH229526   6.045   6.191  11.136 -0.0046 -0.2552 -0.2295
 2704TIP3    H129527   6.046   6.117  11.075 -0.2099  0.2002 -0.7948
 2704TIP3    H229528   6.113   6.250  11.103 -0.5018  0.2560 -0.3531
 2705TIP3   OH229529   3.699   5.952   1.318 -0.0943 -0.0399 -0.2329
 2705TIP3    H129530   3.669   5.970   1.407  0.4664  1.3850 -0.3083
 2705TIP3    H229531   3.794   5.937   1.327  0.0807  0.7581 -0.6566
 2706TIP3   OH229532   6.447   4.296  13.275  0.7986 -0.4232  0.0511
 2706TIP3    H129533   6.530   4.286  13.322  0.2391  0.1986  1.2052
 2706TIP3    H229534   6.434   4.390  13.267  1.2949 -0.4732 -2.1782
 2707TIP3   OH229535   1.562   0.090   4.407  0.4295  0.4961  0.3021
 2707TIP3    H129536   1.519   0.124   4.329 -0.6651 -0.0407  0.6469
 2707TIP3    H229537   1.653   0.121   4.400  0.5164 -0.0569 -1.4762
 2708TIP3   OH229538   6.604   3.876   0.108  0.4573 -0.2473 -0.1859
 2708TIP3    H129539   6.529   3.837   0.062 -0.1462  1.0240 -0.3354
 2708TIP3    H229540   6.631   3.809   0.170 -0.8795 -0.7046 -0.0542
 2709TIP3   OH229541   2.931   3.413  15.048  0.2860  0.2189  0.1542
 2709TIP3    H129542   3.010   3.383  15.004 -0.5360  0.5816 -1.6676
 2709TIP3    H229543   2.881   3.332  15.064 -0.2040  0.2027 -1.2704
 2710TIP3   OH229544   2.659   3.916   4.159 -0.6531  0.5738  0.0970
 2710TIP3    H129545   2.680   3.847   4.223 -3.9809 -0.5428  0.1464
 2710TIP3    H229546   2.624   3.988   4.212 -0.0326  1.1156 -0.2112
 2711TIP3   OH229547   2.516   3.256   6.185  0.0347  0.1807 -0.0161
 2711TIP3    H129548   2.517   3.286   6.276 -0.2887 -0.8714  0.3611
 2711TIP3    H229549   2.446   3.191   6.183  0.0535  0.1820 -1.0197
 2712TIP3   OH229550   5.729   3.000   3.192 -0.1036  0.1912  0.7940
 2712TIP3    H129551   5.757   3.046   3.113 -1.1661  0.0059  0.2970
 2712TIP3    H229552   5.809   2.958   3.225  0.4023  0.4878 -0.0296
 2713TIP3   OH229553   4.003   4.374  14.234 -0.5038  0.3079 -0.1919
 2713TIP3    H129554   4.045   4.346  14.315 -0.1446  0.7749 -0.2127
 2713TIP3    H229555   3.915   4.336  14.238  0.4358 -2.1880 -0.9296
 2714TIP3   OH229556   4.440   0.451  14.943  0.1179  0.2781 -0.4670
 2714TIP3    H129557   4.534   0.461  14.932  0.1687 -0.7256 -1.0416
 2714TIP3    H229558   4.430   0.389  15.015 -0.1174  0.8547  0.0045
 2715TIP3   OH229559   4.804   1.892  14.982 -0.5869  0.6054  0.0660
 2715TIP3    H129560   4.867   1.959  14.955  0.0582 -0.1967 -0.4499
 2715TIP3    H229561   4.839   1.810  14.947 -2.2980  0.2290 -0.8808
 2716TIP3   OH229562   5.338   3.342   1.411  0.3491 -0.5306  0.2294
 2716TIP3    H129563   5.327   3.264   1.466  0.4647 -0.8067 -0.1332
 2716TIP3    H229564   5.253   3.386   1.414  1.0177  0.7198  2.5120
 2717TIP3   OH229565   3.356   3.082  14.285 -0.1896 -0.9294 -0.4226
 2717TIP3    H129566   3.367   3.162  14.234 -0.4211 -0.7059 -0.1289
 2717TIP3    H229567   3.271   3.047  14.257  0.2949 -1.5354 -1.1728
 2718TIP3   OH229568   5.334   3.191  16.131 -0.0205  0.7848 -0.1924
 2718TIP3    H129569   5.253   3.194  16.183  1.2452 -0.0151  1.9654
 2718TIP3    H229570   5.397   3.242  16.181  1.2651  0.0250 -0.9725
 2719TIP3   OH229571   0.255   1.678  13.875 -0.3770 -0.8352 -0.3417
 2719TIP3    H129572   0.260   1.706  13.966 -0.3502 -1.1614 -0.2406
 2719TIP3    H229573   0.255   1.759  13.825  0.1023 -0.6675 -0.0741
 2720TIP3   OH229574   3.398   4.257   6.419 -0.0668  0.0353 -0.0443
 2720TIP3    H129575   3.441   4.307   6.349 -0.9529 -1.6001 -1.8424
 2720TIP3    H229576   3.305   4.272   6.406 -0.3096 -1.3527 -0.0824
 2721TIP3   OH229577   4.982   4.912  11.477  0.0781  0.0057  0.4204
 2721TIP3    H129578   4.939   4.826  11.475  1.3731 -0.6650 -0.1063
 2721TIP3    H229579   4.936   4.962  11.409  0.2577 -0.7709 -0.3078
 2722TIP3   OH229580   4.700   0.706  14.814  0.5587  0.3853 -0.0141
 2722TIP3    H129581   4.689   0.669  14.727 -1.5084 -0.4294  0.5296
 2722TIP3    H229582   4.741   0.637  14.865  0.0605  0.1621  0.0944
 2723TIP3   OH229583   4.228   3.140   5.759  0.0596 -0.1411  0.6344
 2723TIP3    H129584   4.268   3.069   5.708 -1.9590  0.7826 -2.5101
 2723TIP3    H229585   4.275   3.218   5.730  0.5244  0.1497  2.1169
 2724TIP3   OH229586   4.012   4.241   4.000  0.4572 -0.2893  0.4760
 2724TIP3    H129587   3.995   4.153   3.966  0.5346  0.6462 -2.2317
 2724TIP3    H229588   4.003   4.298   3.924  2.4024  1.8366  1.7097
 2725TIP3   OH229589   1.678   5.252   5.916 -0.4017 -0.4715 -0.3042
 2725TIP3    H129590   1.665   5.212   6.002  0.9058 -0.0445  0.1254
 2725TIP3    H229591   1.724   5.334   5.934  0.4380 -0.6587 -1.4454
 2726TIP3   OH229592   5.715   5.031   4.699 -0.1350  0.2418  0.0254
 2726TIP3    H129593   5.647   4.985   4.650  0.5558 -0.5719 -0.1894
 2726TIP3    H229594   5.671   5.064   4.777 -0.6594 -0.7015  0.1315
 2727TIP3   OH229595   0.046   0.668  14.362  0.2680  0.0987 -0.3922
 2727TIP3    H129596   0.013   0.668  14.452 -1.4202  0.4152 -0.9735
 2727TIP3    H229597   0.045   0.575  14.337  1.5651 -0.0916  0.1654
 2728TIP3   OH229598   2.591   5.352   3.800  0.1413  0.1409 -0.2718
 2728TIP3    H129599   2.580   5.382   3.710 -0.3930  0.6455 -0.0485
 2728TIP3    H229600   2.659   5.286   3.795  2.1843  2.1596 -0.6099
 2729TIP3   OH229601   4.140   0.805   5.024  0.2037 -0.1360 -0.1945
 2729TIP3    H129602   4.220   0.785   5.072 -0.1032  0.9893  0.8287
 2729TIP3    H229603   4.141   0.900   5.014 -0.7559 -0.1610 -0.6391
 2730TIP3   OH229604   1.850   6.357  15.646 -0.3631  0.4745 -0.2152
 2730TIP3    H129605   1.841   6.286  15.709  0.5084  1.6171  1.2805
 2730TIP3    H229606   1.764   6.400  15.646  0.1888  1.7773  1.9470
 2731TIP3   OH229607   5.664   6.340  12.320  0.5849 -0.1995  0.3533
 2731TIP3    H129608   5.679   6.253  12.358 -0.8317 -1.0523 -0.9491
 2731TIP3    H229609   5.611   6.385  12.386 -2.9266 -2.0957 -0.9073
 2732TIP3   OH229610   1.033   6.463  13.969 -0.9430  0.4195 -0.1132
 2732TIP3    H129611   0.953   6.508  13.944  0.0316  2.4566  0.2095
 2732TIP3    H229612   1.074   6.439  13.885 -2.5502 -2.0539 -0.2904
 2733TIP3   OH229613   0.151   5.575  11.616 -0.2714  0.5468 -0.2659
 2733TIP3    H129614   0.143   5.533  11.530  1.7121 -0.8654  0.1474
 2733TIP3    H229615   0.086   5.530  11.670 -0.7241  0.6235 -0.7324
 2734TIP3   OH229616   0.784   0.199  17.259  0.1861  0.5543  0.2460
 2734TIP3    H129617   0.814   0.268  17.200 -0.6897  0.7202 -0.0280
 2734TIP3    H229618   0.715   0.154  17.210  1.5657 -1.3213 -0.0645
 2735TIP3   OH229619   4.153   0.994   0.411 -0.1314  0.1723 -0.3780
 2735TIP3    H129620   4.243   0.970   0.432  0.0147  0.5695 -0.5511
 2735TIP3    H229621   4.159   1.043   0.330 -0.4680  0.4996 -0.2092
 2736TIP3   OH229622   5.383   5.809   0.303  0.0535  0.2014  0.2666
 2736TIP3    H129623   5.350   5.882   0.250  0.3981  0.7078  0.7476
 2736TIP3    H229624   5.468   5.839   0.335 -0.0444 -0.2003  0.9058
 2737TIP3   OH229625   4.099   5.443   4.172 -0.1607  0.0527  0.1457
 2737TIP3    H129626   4.044   5.470   4.246  1.7969  0.8324  1.3814
 2737TIP3    H229627   4.179   5.409   4.213  1.6235  1.9143 -1.5736
 2738TIP3   OH229628   6.277   4.975   2.881 -0.2632  0.7008  0.2397
 2738TIP3    H129629   6.263   4.931   2.796 -0.0859  1.6914 -0.3170
 2738TIP3    H229630   6.191   4.976   2.922 -0.8989  2.4089 -1.0287
 2739TIP3   OH229631   3.369   5.836  11.064  0.9162 -0.7303 -0.6969
 2739TIP3    H129632   3.283   5.863  11.098 -0.0487 -2.8670 -1.2624
 2739TIP3    H229633   3.368   5.865  10.972  2.7302  3.2821  0.3542
 2740TIP3   OH229634   2.334   0.838  17.139  0.1308  0.3123 -0.6427
 2740TIP3    H129635   2.311   0.859  17.048  1.6157  2.7803 -0.5500
 2740TIP3    H229636   2.408   0.895  17.158 -0.0864 -0.2017  2.1301
 2741TIP3   OH229637   4.754   4.808  17.120  0.3558  0.2914 -0.1388
 2741TIP3    H129638   4.795   4.872  17.062  1.0017 -0.2182 -0.2530
 2741TIP3    H229639   4.718   4.742  17.062  0.9083 -0.1644  0.0325
 2742TIP3   OH229640   4.818   6.288   3.488  0.2986 -0.3047  0.1371
 2742TIP3    H129641   4.754   6.264   3.421  0.4681 -1.0910  0.2452
 2742TIP3    H229642   4.899   6.245   3.460  0.3079 -0.8523  0.9809
 2743TIP3   OH229643   0.691   6.446   4.619 -0.2205  0.3570 -0.3895
 2743TIP3    H129644   0.629   6.506   4.662 -0.6372 -0.8518  0.7536
 2743TIP3    H229645   0.640   6.405   4.549 -0.3452  0.3003 -0.2661
 2744TIP3   OH229646   2.213   4.685   2.093 -0.6994 -0.0614  0.1701
 2744TIP3    H129647   2.285   4.623   2.097 -0.4930  0.0831 -1.0284
 2744TIP3    H229648   2.142   4.637   2.051 -1.2890 -0.1777  1.2725
 2745TIP3   OH229649   2.156   0.907   1.894  0.5484 -0.3574 -0.4011
 2745TIP3    H129650   2.182   0.967   1.824 -0.4855  1.5765  0.8043
 2745TIP3    H229651   2.069   0.936   1.920  0.8758 -1.0477  1.6526
 2746TIP3   OH229652   1.725   4.169  13.321  0.0416  0.3514  0.2665
 2746TIP3    H129653   1.742   4.168  13.227 -0.1066  3.0900  0.1150
 2746TIP3    H229654   1.635   4.139  13.330  0.6684 -1.8519 -0.1945
 2747TIP3   OH229655   2.830   6.214   6.235  0.0747 -0.2166  0.3340
 2747TIP3    H129656   2.895   6.205   6.165 -0.1050  2.9597 -0.3542
 2747TIP3    H229657   2.872   6.269   6.301 -1.4822  0.9788  0.3794
 2748TIP3   OH229658   4.264   3.187  12.897  0.2409 -0.4956  0.5373
 2748TIP3    H129659   4.314   3.260  12.861  1.5108 -0.4146  2.3129
 2748TIP3    H229660   4.173   3.211  12.884  0.6391  0.9554  0.2368
 2749TIP3   OH229661   2.883   3.052  10.697 -0.3311 -0.1752  0.0325
 2749TIP3    H129662   2.933   2.980  10.659 -1.0918  0.1864 -1.7792
 2749TIP3    H229663   2.802   3.055  10.645 -1.4089  0.4399  1.6548
 2750TIP3   OH229664   5.987   0.739   6.858 -0.3440 -0.0257 -0.1847
 2750TIP3    H129665   6.036   0.771   6.783 -2.5299  1.1411 -1.2056
 2750TIP3    H229666   6.009   0.801   6.929 -0.2392  0.4116 -0.5914
 2751TIP3   OH229667   4.059   3.969  13.597 -0.0340  0.7643  0.9274
 2751TIP3    H129668   3.994   3.935  13.537 -0.6587  0.4797  1.7430
 2751TIP3    H229669   4.126   3.901  13.601 -0.7839  0.0495  1.7730
 2752TIP3   OH229670   4.769   2.144   5.142  0.4619  0.2980  0.0897
 2752TIP3    H129671   4.692   2.087   5.143  0.8858 -0.2901  0.1368
 2752TIP3    H229672   4.787   2.159   5.049 -0.2818  1.2398  0.0891
 2753TIP3   OH229673   1.724   5.636  11.610 -0.1794 -0.8224 -0.1112
 2753TIP3    H129674   1.766   5.587  11.540  1.8577 -1.6318  1.6012
 2753TIP3    H229675   1.757   5.726  11.599 -2.4880 -0.1025 -2.1245
 2754TIP3   OH229676   5.227   3.801   3.129  0.3879 -0.6672  0.3434
 2754TIP3    H129677   5.317   3.821   3.104  0.8838 -3.3222 -0.2044
 2754TIP3    H229678   5.178   3.881   3.106  2.4934  0.7103  0.3466
 2755TIP3   OH229679   6.002   6.490   3.771  0.8103 -0.6019  0.0742
 2755TIP3    H129680   6.051   6.558   3.724  1.5923  0.3478  2.1661
 2755TIP3    H229681   6.060   6.414   3.770 -0.0121 -1.2810 -2.1601
 2756TIP3   OH229682   3.491   6.078   3.681 -0.8007 -0.3971  0.2626
 2756TIP3    H129683   3.510   6.027   3.760  1.5488 -1.3392 -0.8216
 2756TIP3    H229684   3.499   6.015   3.609 -2.9431  0.4292 -0.7694
 2757TIP3   OH229685   2.398   5.899   2.652 -0.2790 -0.3294 -0.2371
 2757TIP3    H129686   2.467   5.846   2.610 -1.7943 -1.8010 -0.9705
 2757TIP3    H229687   2.433   5.989   2.649  2.6198 -1.2426  1.5365
 2758TIP3   OH229688   0.672   6.668   5.295  0.0661  0.2069  0.5451
 2758TIP3    H129689   0.740   6.730   5.323  0.4541 -0.6744  1.6188
 2758TIP3    H229690   0.695   6.586   5.338 -1.3181 -0.2869  0.3934
 2759TIP3   OH229691   2.159   5.014   2.871 -0.1765 -0.2419 -0.5728
 2759TIP3    H129692   2.121   4.941   2.920  0.6952 -1.8253 -2.1317
 2759TIP3    H229693   2.183   5.078   2.939  0.5762 -2.1221  1.0609
 2760TIP3   OH229694   3.503   2.128  12.084  0.3618  0.4729 -0.3867
 2760TIP3    H129695   3.485   2.221  12.091 -2.1347 -0.0790  2.5851
 2760TIP3    H229696   3.544   2.105  12.168 -0.7570 -1.3418 -0.2691
 2761TIP3   OH229697   0.884   2.571   1.062 -0.5297 -0.2867 -0.0682
 2761TIP3    H129698   0.876   2.588   1.156  0.9853 -2.2668  0.4865
 2761TIP3    H229699   0.979   2.568   1.046 -0.6929  2.1452 -2.1503
 2762TIP3   OH229700   5.614   4.789  15.999 -0.1129  0.6647 -0.7411
 2762TIP3    H129701   5.683   4.732  15.965  0.4640  0.2200  1.0952
 2762TIP3    H229702   5.534   4.736  15.995  0.5018 -0.5049  1.3876
 2763TIP3   OH229703   1.950   0.954  12.572  0.0706  0.8141  0.1300
 2763TIP3    H129704   2.017   0.990  12.513 -0.7310  2.0576 -0.0564
 2763TIP3    H229705   1.975   0.987  12.659 -0.5795  1.7264 -0.0183
 2764TIP3   OH229706   2.529   2.999   4.817 -0.0803  0.6497 -0.7768
 2764TIP3    H129707   2.543   2.926   4.757  0.3871 -0.3198  0.4648
 2764TIP3    H229708   2.434   3.008   4.823 -0.2838 -1.7730  1.2098
 2765TIP3   OH229709   0.650   1.948   5.921  0.1733  0.2716  0.0722
 2765TIP3    H129710   0.629   1.854   5.923 -1.3017  0.5545 -0.7499
 2765TIP3    H229711   0.566   1.991   5.913  0.6232  1.8410  2.7775
 2766TIP3   OH229712   0.854   2.421  13.701 -0.6013  0.4429 -0.3594
 2766TIP3    H129713   0.814   2.408  13.615  2.0218 -0.0779 -1.5836
 2766TIP3    H229714   0.844   2.337  13.745  0.7391 -0.2977 -1.3933
 2767TIP3   OH229715   5.178   6.114   2.894 -0.4083  0.3601  0.2655
 2767TIP3    H129716   5.111   6.169   2.854 -1.2881 -1.4692 -0.9461
 2767TIP3    H229717   5.177   6.139   2.987 -1.7282  1.3928  0.0101
 2768TIP3   OH229718   2.054   3.690  13.845 -0.1205  0.5032 -0.1891
 2768TIP3    H129719   2.014   3.606  13.867 -0.3779  0.8263  0.6479
 2768TIP3    H229720   2.125   3.669  13.786  1.5837 -0.6348  2.1050
 2769TIP3   OH229721   1.553   0.332   2.613 -0.4563 -0.0466 -0.0160
 2769TIP3    H129722   1.507   0.318   2.696 -0.5594 -1.4929 -0.2885
 2769TIP3    H229723   1.640   0.364   2.640 -0.3658 -0.8301  0.6893
 2770TIP3   OH229724   4.771   2.729  12.887 -0.0786 -0.0784  0.3506
 2770TIP3    H129725   4.827   2.656  12.861  0.9483  1.2540 -1.4212
 2770TIP3    H229726   4.682   2.696  12.877  0.3621 -1.5162  0.9763
 2771TIP3   OH229727   3.623   1.538   3.151 -0.0758  0.5829 -0.0986
 2771TIP3    H129728   3.542   1.589   3.154 -1.5327 -1.5410 -0.6204
 2771TIP3    H229729   3.691   1.602   3.128 -1.7972  2.2366 -0.9037
 2772TIP3   OH229730   5.185   5.571   4.264 -0.3276 -0.2329 -0.1042
 2772TIP3    H129731   5.166   5.634   4.195  1.1119  0.7552  0.3508
 2772TIP3    H229732   5.276   5.545   4.247 -0.5024 -1.2444  0.4508
 2773TIP3   OH229733   0.845   4.480  12.240  1.1213  0.4865 -0.3711
 2773TIP3    H129734   0.868   4.517  12.155 -0.4951  0.8490 -0.6850
 2773TIP3    H229735   0.920   4.427  12.265  2.2146  1.5174 -1.3554
 2774TIP3   OH229736   2.146   4.171  16.940 -0.3478 -0.0580 -0.1863
 2774TIP3    H129737   2.115   4.112  16.872 -0.3421 -0.2600 -0.0151
 2774TIP3    H229738   2.241   4.177  16.926 -0.0820 -1.4062  0.8003
 2775TIP3   OH229739   4.047   6.137  13.042 -0.5793 -0.7260  0.2814
 2775TIP3    H129740   4.027   6.045  13.026 -2.7973 -0.3708  0.7457
 2775TIP3    H229741   4.078   6.170  12.957  1.8940 -2.2362  0.5187
 2776TIP3   OH229742   4.302   3.043   4.173  0.3219 -0.8150  0.0271
 2776TIP3    H129743   4.369   3.104   4.206  1.3171 -1.6904 -0.3094
 2776TIP3    H229744   4.221   3.073   4.214  0.8468  0.4749  0.2026
 2777TIP3   OH229745   5.677   1.317  12.338 -0.1516  0.2706 -0.6573
 2777TIP3    H129746   5.693   1.272  12.421 -0.2695 -0.5023 -1.0456
 2777TIP3    H229747   5.734   1.273  12.276  0.2448  1.1194 -0.9142
 2778TIP3   OH229748   3.918   5.182  12.850 -0.4394  0.5847 -0.5203
 2778TIP3    H129749   3.921   5.237  12.772 -2.0415  1.5467  0.0503
 2778TIP3    H229750   3.843   5.124  12.835  0.7797 -0.9924 -0.7837
 2779TIP3   OH229751   5.538   1.595  11.722 -0.3223 -0.1851 -0.0076
 2779TIP3    H129752   5.609   1.538  11.695 -0.5840  0.2761 -1.8223
 2779TIP3    H229753   5.538   1.665  11.657 -0.1765  1.7696  1.9825
 2780TIP3   OH229754   4.026   0.006   2.963  0.2277 -0.3382 -0.9140
 2780TIP3    H129755   4.063   0.095   2.965  0.1406 -0.2729 -1.8592
 2780TIP3    H229756   4.068  -0.038   3.037 -1.3905  1.1149  1.0132
 2781TIP3   OH229757   6.126   0.116   4.380  0.0911  0.0763  0.0763
 2781TIP3    H129758   6.216   0.117   4.413  1.1040 -1.2023 -2.3762
 2781TIP3    H229759   6.101   0.024   4.382 -0.0860  0.0355 -1.7855
 2782TIP3   OH229760   3.714   3.441   3.872 -0.1850  0.1110 -0.1675
 2782TIP3    H129761   3.642   3.381   3.852  0.4706 -0.4321 -0.9906
 2782TIP3    H229762   3.759   3.453   3.789  1.5757 -0.7879  0.5915
 2783TIP3   OH229763   5.840   5.482   6.469 -0.0614  0.1300 -0.0905
 2783TIP3    H129764   5.896   5.436   6.406  0.4618 -0.2942  0.6741
 2783TIP3    H229765   5.775   5.527   6.414  0.6054  0.0756 -0.9571
 2784TIP3   OH229766   4.582   4.006  16.403  0.6915  0.6338  0.4543
 2784TIP3    H129767   4.586   4.055  16.321 -0.1816  0.0613  0.0583
 2784TIP3    H229768   4.495   4.026  16.438  0.6130 -0.0566  0.6566
 2785TIP3   OH229769   5.841   3.945  10.930 -0.3640  0.0792 -0.2918
 2785TIP3    H129770   5.749   3.969  10.924  0.3309  2.7051 -2.0218
 2785TIP3    H229771   5.872   3.990  11.009  0.0391  1.7645 -1.3551
 2786TIP3   OH229772   6.609   3.860   6.393 -0.5193 -0.2785  0.2795
 2786TIP3    H129773   6.595   3.805   6.470 -0.2138 -0.3129  0.3094
 2786TIP3    H229774   6.570   3.945   6.418 -2.3212 -0.8848 -0.3099
 2787TIP3   OH229775   5.887   2.679  15.127  0.1970 -0.3495 -0.3663
 2787TIP3    H129776   5.947   2.728  15.184 -0.4501 -1.6790  1.5412
 2787TIP3    H229777   5.945   2.623  15.075  0.8284  1.2371 -1.4737
 2788TIP3   OH229778   1.387   5.003   2.970  0.4237  0.0165  0.1544
 2788TIP3    H129779   1.318   4.956   2.924  0.2569  1.2111 -0.8922
 2788TIP3    H229780   1.462   4.943   2.970  0.0230 -0.4940 -0.5739
 2789TIP3   OH229781   4.547   2.361   3.729  0.0938 -0.1472  0.0611
 2789TIP3    H129782   4.519   2.345   3.639 -0.0635 -2.1641  0.4298
 2789TIP3    H229783   4.642   2.354   3.727  0.0253 -1.4530  0.2317
 2790TIP3   OH229784   6.162   1.538  14.467  0.1612 -0.3342 -0.5574
 2790TIP3    H129785   6.095   1.589  14.513  0.6314  1.9145 -2.1901
 2790TIP3    H229786   6.241   1.551  14.518  0.3222  0.8127 -1.0620
 2791TIP3   OH229787   4.544   3.580   4.204 -0.1001  0.1682 -0.2904
 2791TIP3    H129788   4.460   3.589   4.248 -0.1579 -0.9984 -0.1367
 2791TIP3    H229789   4.596   3.655   4.236 -1.1393  1.0293 -0.5739
 2792TIP3   OH229790   4.767   2.401   5.252  0.1945  0.6773 -0.3931
 2792TIP3    H129791   4.768   2.323   5.196 -0.1310 -1.5735  2.5028
 2792TIP3    H229792   4.749   2.473   5.192 -4.8445 -2.0051 -2.7124
 2793TIP3   OH229793   3.452   3.703  14.590 -0.3711  0.0102  0.1905
 2793TIP3    H129794   3.523   3.751  14.631 -0.6017 -0.8591  1.6753
 2793TIP3    H229795   3.451   3.734  14.499  0.8806  1.1619  0.5424
 2794TIP3   OH229796   1.176   0.214   0.219  0.9761  0.1486 -0.3095
 2794TIP3    H129797   1.098   0.168   0.188  0.7744  0.2272  0.0644
 2794TIP3    H229798   1.247   0.150   0.211  0.7131 -0.2097  0.1374
 2795TIP3   OH229799   2.140   5.787   5.772  0.3884 -0.0058 -0.3561
 2795TIP3    H129800   2.091   5.737   5.707  0.3642 -0.4657  0.0132
 2795TIP3    H229801   2.188   5.722   5.821  1.2091  0.4265 -0.5708
 2796TIP3   OH229802   1.038   1.562  15.219  0.4120  0.0807  0.2817
 2796TIP3    H129803   1.089   1.511  15.281  1.5062 -0.4448 -1.0040
 2796TIP3    H229804   1.016   1.500  15.149 -1.2066  0.5264  0.3440
 2797TIP3   OH229805   0.437   5.583   5.588  0.3957 -0.2727  0.0346
 2797TIP3    H129806   0.507   5.628   5.539  0.9426 -0.7017  0.4124
 2797TIP3    H229807   0.364   5.579   5.527  0.5266  0.6411 -0.1936
 2798TIP3   OH229808   2.111   5.774   6.436 -0.2603  0.5605  0.7579
 2798TIP3    H129809   2.057   5.707   6.394 -1.5431  0.4138  2.5564
 2798TIP3    H229810   2.118   5.843   6.370 -0.2290 -0.6573 -0.5526
 2799TIP3   OH229811   4.830   3.818   1.727 -0.0814 -0.3226  0.3058
 2799TIP3    H129812   4.873   3.756   1.786  0.3481 -1.8012 -1.4686
 2799TIP3    H229813   4.789   3.763   1.660 -1.6519  1.2296 -0.0868
 2800TIP3   OH229814   5.026   0.984   3.056  0.0137  0.6534  0.2582
 2800TIP3    H129815   5.071   1.061   3.021 -0.5643  0.8174 -0.1345
 2800TIP3    H229816   5.002   0.933   2.979 -1.9439  1.3964  0.3227
 2801TIP3   OH229817   0.663   0.209   4.059  0.0915 -0.3530  0.5733
 2801TIP3    H129818   0.602   0.194   4.132  0.1175 -1.2401  0.4247
 2801TIP3    H229819   0.607   0.237   3.986 -0.1160 -0.9075  0.5136
 2802TIP3   OH229820   4.372   1.590  16.017 -0.3070  0.1563  0.0045
 2802TIP3    H129821   4.412   1.504  16.007 -1.4614 -0.5111  0.8599
 2802TIP3    H229822   4.337   1.590  16.106 -1.1329  1.1590 -0.3013
 2803TIP3   OH229823   6.525   4.806  14.563  0.1526 -0.1636  0.6411
 2803TIP3    H129824   6.539   4.787  14.655 -0.9732 -0.3343  0.7929
 2803TIP3    H229825   6.430   4.808  14.553  0.2398 -1.2053 -0.7304
 2804TIP3   OH229826   2.536   5.021   1.779  0.8459 -0.0661 -0.6863
 2804TIP3    H129827   2.511   5.097   1.727  1.8211  0.8919  0.1576
 2804TIP3    H229828   2.630   5.034   1.796  0.9573 -1.2918 -0.2485
 2805TIP3   OH229829   5.327   1.957  16.532  0.2813 -0.3813  0.5404
 2805TIP3    H129830   5.325   2.046  16.567  0.2075 -0.5719  1.0276
 2805TIP3    H229831   5.372   1.965  16.448  3.0117 -0.3345  1.8809
 2806TIP3   OH229832   3.958   6.101  16.377  0.4374 -0.2717 -0.5330
 2806TIP3    H129833   4.047   6.125  16.403 -0.3911 -0.4378  2.9174
 2806TIP3    H229834   3.956   6.006  16.387 -0.2090 -0.2297 -0.2527
 2807TIP3   OH229835   4.333   1.093  12.333 -0.1712  0.8544 -0.1539
 2807TIP3    H129836   4.302   1.029  12.396  1.1948  1.6648  1.4116
 2807TIP3    H229837   4.331   1.047  12.249 -1.0511 -0.5906  0.6237
 2808TIP3   OH229838   3.364   0.538   0.465  0.5766 -0.3899 -0.1635
 2808TIP3    H129839   3.428   0.552   0.395 -1.8265  1.8374 -2.1254
 2808TIP3    H229840   3.359   0.623   0.509  0.0962 -0.9971  0.9836
 2809TIP3   OH229841   0.050   1.823   2.821 -0.3689 -0.0576 -0.5547
 2809TIP3    H129842   0.114   1.804   2.751 -1.5667 -0.4746 -1.5716
 2809TIP3    H229843   0.031   1.916   2.811 -3.0403 -0.7175 -3.0727
 2810TIP3   OH229844   2.051   4.888  10.887 -0.0754  0.4799 -0.2073
 2810TIP3    H129845   2.021   4.802  10.859 -0.8331  0.4051  0.7642
 2810TIP3    H229846   1.998   4.950  10.836 -2.1681  0.3475  1.6761
 2811TIP3   OH229847   6.042   1.792   3.154 -0.3414 -0.3007  0.7525
 2811TIP3    H129848   6.128   1.800   3.194  0.1372  0.1127 -0.3214
 2811TIP3    H229849   5.988   1.750   3.221  0.4966  0.1225  1.7139
 2812TIP3   OH229850   6.167   2.084   5.349  0.4619  0.1318 -0.3572
 2812TIP3    H129851   6.145   2.177   5.351  1.9470  0.5048  0.7676
 2812TIP3    H229852   6.244   2.079   5.292  1.3905 -0.1447  0.8901
 2813TIP3   OH229853   0.508   2.529   1.089  0.6930 -0.4985 -0.5326
 2813TIP3    H129854   0.459   2.502   1.011  1.2667  1.8361 -1.7887
 2813TIP3    H229855   0.577   2.586   1.056  2.3788 -1.2387  1.5065
 2814TIP3   OH229856   5.468   3.586   5.710  0.1827 -0.4278  0.0408
 2814TIP3    H129857   5.433   3.579   5.621 -0.0812 -0.0327  0.1088
 2814TIP3    H229858   5.402   3.545   5.765 -0.0036 -0.0226  0.1279
 2815TIP3   OH229859   0.582   6.555  11.436  0.0239  0.6880 -0.2182
 2815TIP3    H129860   0.562   6.480  11.380  0.1024  0.8086 -0.4072
 2815TIP3    H229861   0.678   6.555  11.443  0.1186  1.5880 -1.3480
 2816TIP3   OH229862   2.774   6.551  11.546  0.3017 -0.7007  0.0171
 2816TIP3    H129863   2.808   6.540  11.456  1.0560 -2.1920  0.4396
 2816TIP3    H229864   2.717   6.475  11.558 -2.9419  1.4785 -0.4839
 2817TIP3   OH229865   2.561   0.118   7.071  0.0443 -0.0827  0.2327
 2817TIP3    H129866   2.616   0.195   7.080  0.2417 -0.1854 -0.0958
 2817TIP3    H229867   2.572   0.090   6.980 -1.0594  0.2880 -0.0399
 2818TIP3   OH229868   2.707   0.316   0.238 -0.0855  0.3422 -0.0682
 2818TIP3    H129869   2.716   0.410   0.254  1.0400  0.3421 -0.5875
 2818TIP3    H229870   2.671   0.281   0.319 -0.3950  1.2000  0.1804
 2819TIP3   OH229871   5.704   4.787  11.062  0.0061  0.0400 -0.5055
 2819TIP3    H129872   5.629   4.733  11.087 -1.1167  1.4883 -0.6368
 2819TIP3    H229873   5.781   4.735  11.087 -0.9471 -2.5639 -2.5892
 2820TIP3   OH229874   2.092   3.340  14.588  0.1791 -0.0413  0.6562
 2820TIP3    H129875   2.117   3.306  14.502  2.2163  0.1327  1.1519
 2820TIP3    H229876   2.006   3.380  14.573  0.1068 -0.7534 -1.0945
 2821TIP3   OH229877   3.594   0.148   6.264  0.2672 -0.1545  0.3599
 2821TIP3    H129878   3.621   0.206   6.335 -0.2027  1.7230 -0.8948
 2821TIP3    H229879   3.662   0.160   6.197 -0.4918 -0.0919 -0.4109
 2822TIP3   OH229880   4.224   0.725   1.333  0.1086  0.6152  0.5410
 2822TIP3    H129881   4.190   0.813   1.314  1.3960  0.7922 -1.1842
 2822TIP3    H229882   4.318   0.731   1.315  0.2027 -1.1545  0.2495
 2823TIP3   OH229883   5.376   4.391  15.590 -0.1877  0.2252  0.5140
 2823TIP3    H129884   5.437   4.318  15.596  2.0940  2.0706  1.2184
 2823TIP3    H229885   5.342   4.401  15.679  0.3284  0.6722  0.6637
 2824TIP3   OH229886   4.559   4.815  11.780  0.5629 -0.5330  0.3639
 2824TIP3    H129887   4.548   4.849  11.869 -0.9239 -1.8037  0.7154
 2824TIP3    H229888   4.567   4.893  11.725 -1.8476  0.4312  1.2342
 2825TIP3   OH229889   5.021   6.613  17.071 -0.0072  0.3575  0.9858
 2825TIP3    H129890   5.039   6.704  17.052  0.4876  0.2837  1.0834
 2825TIP3    H229891   5.019   6.570  16.986 -1.9292  0.7375  0.7847
 2826TIP3   OH229892   1.547   2.955  15.829  0.1578 -0.5061  0.2414
 2826TIP3    H129893   1.536   3.003  15.911 -0.7347 -0.6810  0.2338
 2826TIP3    H229894   1.470   2.898  15.823  1.4129 -2.2996  0.4688
 2827TIP3   OH229895   3.999   1.617   1.597  0.5724  0.3968 -0.4064
 2827TIP3    H129896   4.037   1.575   1.675 -0.7769 -0.2476 -0.0711
 2827TIP3    H229897   3.977   1.706   1.627 -2.6920 -0.7163  0.9427
 2828TIP3   OH229898   1.151   5.303   2.270 -0.4894 -0.1613 -0.2292
 2828TIP3    H129899   1.173   5.393   2.247 -0.1616 -0.2807 -0.3886
 2828TIP3    H229900   1.156   5.255   2.188  0.2134 -0.4952  0.0021
 2829TIP3   OH229901   6.443   6.480   1.066  0.4108  0.0083 -0.2283
 2829TIP3    H129902   6.359   6.482   1.113 -0.8942 -1.0096 -2.3481
 2829TIP3    H229903   6.419   6.463   0.975  3.0339 -3.6503 -0.4801
 2830TIP3   OH229904   5.908   0.385  11.122  0.2302 -0.4767 -0.6086
 2830TIP3    H129905   5.852   0.351  11.052 -0.8288  0.2893 -0.1567
 2830TIP3    H229906   5.890   0.479  11.124 -1.0572 -0.7019  1.7894
 2831TIP3   OH229907   5.672   4.248   3.808 -0.1729  0.5268 -0.2150
 2831TIP3    H129908   5.584   4.239   3.845  0.1913  1.6617  1.0108
 2831TIP3    H229909   5.665   4.322   3.747 -0.5076 -0.6352 -1.6302
 2832TIP3   OH229910   3.791   4.315  14.989 -0.3496  0.1206  0.3282
 2832TIP3    H129911   3.752   4.242  15.037 -0.0722  0.4975  1.1357
 2832TIP3    H229912   3.796   4.386  15.052 -0.8994  0.9521 -0.5288
 2833TIP3   OH229913   4.748   0.965   2.706 -0.4710  0.9443  0.0147
 2833TIP3    H129914   4.780   0.880   2.677  1.3702  1.1818  1.1882
 2833TIP3    H229915   4.777   0.972   2.797 -1.9998  2.1662  0.4561
 2834TIP3   OH229916   2.169   5.523  12.115 -0.7225 -0.1791 -0.1336
 2834TIP3    H129917   2.187   5.559  12.028 -1.7846 -0.3410 -0.4317
 2834TIP3    H229918   2.250   5.537  12.163 -0.0046 -0.3694 -1.2429
 2835TIP3   OH229919   4.041   2.165  13.976 -0.1890 -0.4394 -0.4411
 2835TIP3    H129920   4.100   2.092  13.992 -0.7858 -1.3225 -1.9803
 2835TIP3    H229921   4.099   2.242  13.968  0.5721 -0.9668 -0.0907
 2836TIP3   OH229922   0.282   2.652  16.925 -0.2012 -0.2660  0.2444
 2836TIP3    H129923   0.224   2.587  16.965  0.8814 -0.2435  1.9632
 2836TIP3    H229924   0.294   2.718  16.994 -0.0977  1.0072 -0.9505
 2837TIP3   OH229925   5.595   1.360  16.787 -0.6758 -0.5832 -0.0801
 2837TIP3    H129926   5.663   1.412  16.744 -0.1533 -1.6601 -0.6021
 2837TIP3    H229927   5.600   1.386  16.879 -0.3751  0.2282 -0.3183
 2838TIP3   OH229928   1.620   5.981  10.833 -0.0730  0.3823 -0.3344
 2838TIP3    H129929   1.620   6.054  10.895  1.5199  0.1069  0.0476
 2838TIP3    H229930   1.690   6.002  10.771  1.2804 -1.3648  0.5133
 2839TIP3   OH229931   3.324   3.444   5.055 -0.3569 -0.4774 -0.6137
 2839TIP3    H129932   3.264   3.428   5.128  0.6693  1.3280  0.7134
 2839TIP3    H229933   3.408   3.408   5.084  0.3543  1.2951 -0.3198
 2840TIP3   OH229934   3.176   2.519   4.037 -0.0813 -0.1596  1.1309
 2840TIP3    H129935   3.152   2.561   4.120  0.5106  0.4148  1.0202
 2840TIP3    H229936   3.126   2.566   3.970 -1.4950 -1.4087  1.2549
 2841TIP3   OH229937   3.763   5.973   4.838  0.5741  0.3943 -0.3923
 2841TIP3    H129938   3.731   6.042   4.895 -0.1186  0.2386 -0.5813
 2841TIP3    H229939   3.690   5.957   4.777  0.6103 -0.7030 -0.1616
 2842TIP3   OH229940   1.837   2.258   4.699  0.4060 -0.2801  0.7094
 2842TIP3    H129941   1.847   2.229   4.609 -2.0347 -0.3051  0.3897
 2842TIP3    H229942   1.919   2.304   4.719  0.1449  1.7064 -2.2590
 2843TIP3   OH229943   0.920   5.130  13.405  0.3540 -0.5773  0.1810
 2843TIP3    H129944   0.997   5.076  13.385  0.8767  0.2039  0.0182
 2843TIP3    H229945   0.939   5.214  13.362 -0.2618 -0.1416  0.7592
 2844TIP3   OH229946   5.787   1.393  13.098  0.2398 -0.2806  0.6574
 2844TIP3    H129947   5.816   1.304  13.121 -0.4771 -1.4781 -2.4677
 2844TIP3    H229948   5.709   1.379  13.044 -0.3755  2.3317  0.7461
 2845TIP3   OH229949   6.589   1.138   2.479  0.9404  0.0220  0.3601
 2845TIP3    H129950   6.585   1.064   2.419  0.8212  0.1996  0.1436
 2845TIP3    H229951   6.517   1.123   2.540  2.4706 -1.3779  1.9223
 2846TIP3   OH229952   1.326   4.058   0.100 -0.0768  0.0418 -0.0513
 2846TIP3    H129953   1.324   3.968   0.067 -0.4536  1.3683 -4.2378
 2846TIP3    H229954   1.375   4.052   0.182  1.1814 -3.7666 -0.8554
 2847TIP3   OH229955   5.124   1.969   0.178 -0.2132 -0.8907 -0.3143
 2847TIP3    H129956   5.033   1.946   0.157 -0.8950 -1.3009  2.5868
 2847TIP3    H229957   5.133   2.059   0.148 -2.0113 -0.4096  0.4189
 2848TIP3   OH229958   1.944   3.577  13.339  0.2214  0.3260  0.5626
 2848TIP3    H129959   1.927   3.647  13.402 -0.3540  0.1604  0.5952
 2848TIP3    H229960   1.874   3.586  13.274 -0.5091 -0.8910  1.1479
 2849TIP3   OH229961   1.682   6.251   5.114 -0.1245 -0.1074  0.8062
 2849TIP3    H129962   1.736   6.207   5.179  2.1268  1.2314 -0.0335
 2849TIP3    H229963   1.662   6.336   5.154  0.8336  0.5150  0.0154
 2850TIP3   OH229964   3.005   1.510  12.359  0.0932  0.3832 -0.6766
 2850TIP3    H129965   3.089   1.465  12.355 -0.0487 -0.0912  1.0339
 2850TIP3    H229966   2.997   1.539  12.450 -0.9875  1.6236 -1.1283
 2851TIP3   OH229967   6.080   5.221  16.643  0.2065 -0.9220  0.9043
 2851TIP3    H129968   6.131   5.297  16.618 -0.2890 -0.5007  1.1563
 2851TIP3    H229969   6.056   5.180  16.560  1.4554 -1.4760  0.7929
 2852TIP3   OH229970   4.820   5.278  12.471 -0.1919 -0.3183  0.3210
 2852TIP3    H129971   4.873   5.351  12.438  1.0350 -0.9489  0.8300
 2852TIP3    H229972   4.861   5.254  12.554  0.6305 -2.7819 -0.6874
 2853TIP3   OH229973   0.698   1.502  16.215  0.7279  0.5717 -0.4686
 2853TIP3    H129974   0.604   1.491  16.203  0.9109 -0.2457 -1.3041
 2853TIP3    H229975   0.733   1.501  16.125  1.2917  3.4237 -0.3836
 2854TIP3   OH229976   2.880   3.888   1.077  0.0312 -0.1792  0.1787
 2854TIP3    H129977   2.947   3.824   1.052 -0.8888 -1.4053  0.7517
 2854TIP3    H229978   2.854   3.929   0.995  1.8518  0.7240 -0.0007
 2855TIP3   OH229979   3.283   2.615  12.300  0.2499 -0.0820 -0.4883
 2855TIP3    H129980   3.338   2.600  12.377  0.2167  0.5025 -0.3437
 2855TIP3    H229981   3.195   2.628  12.335  0.6204  2.7110 -0.3534
 2856TIP3   OH229982   1.362   0.140   4.966 -0.2854  0.4457 -0.4793
 2856TIP3    H129983   1.380   0.111   4.877  1.1032  1.8077 -0.6823
 2856TIP3    H229984   1.387   0.066   5.022  0.9188  0.3656 -1.1032
 2857TIP3   OH229985   3.773   2.547  14.454 -0.3372  0.0612 -0.3465
 2857TIP3    H129986   3.825   2.626  14.440  0.3750 -0.3480 -0.0643
 2857TIP3    H229987   3.698   2.576  14.507 -0.7779  0.7835 -1.3394
 2858TIP3   OH229988   4.969   2.605   0.764  0.3234  0.5484 -0.4869
 2858TIP3    H129989   4.925   2.555   0.832  0.1519  0.4609 -0.6597
 2858TIP3    H229990   5.062   2.583   0.774  0.4678  1.5856  0.5737
 2859TIP3   OH229991   3.115   0.633  12.196  0.2056 -0.6482 -0.3262
 2859TIP3    H129992   3.090   0.542  12.181  0.5702 -0.7093 -0.5790
 2859TIP3    H229993   3.196   0.644  12.147  1.1394 -0.6996  1.1271
 2860TIP3   OH229994   6.752   4.765  15.717 -0.1299 -0.2859  0.3018
 2860TIP3    H129995   6.833   4.790  15.762  0.1131 -0.9748  0.2529
 2860TIP3    H229996   6.768   4.675  15.688 -0.7724 -0.2895 -0.0378
 2861TIP3   OH229997   2.429   1.238  13.188  0.5024 -0.4933  0.5184
 2861TIP3    H129998   2.414   1.169  13.123  1.0246  0.9986 -1.3039
 2861TIP3    H229999   2.525   1.244  13.194  0.4677  0.1443  0.5368
 2862TIP3   OH230000   1.365   3.888  11.854  0.0287  0.7088  0.3440
 2862TIP3    H130001   1.330   3.945  11.922 -0.7599 -0.8133  1.2742
 2862TIP3    H230002   1.414   3.821  11.901  1.3240  0.8584 -0.7487
 2863TIP3   OH230003   2.528   4.871   4.272 -0.0598  0.1678  0.2550
 2863TIP3    H130004   2.582   4.915   4.337  0.5246 -0.9281  0.5350
 2863TIP3    H230005   2.438   4.879   4.305  0.0954  0.7008  0.5474
 2864TIP3   OH230006   5.408   2.587  15.545 -0.3766 -0.0006 -0.2051
 2864TIP3    H130007   5.413   2.630  15.630 -1.5936  0.1543 -0.1936
 2864TIP3    H230008   5.498   2.588  15.512 -0.1108  1.0727  0.5138
 2865TIP3   OH230009   6.447   0.196   6.561 -0.1707  0.0779  0.1181
 2865TIP3    H130010   6.424   0.238   6.644  0.2804  1.3468 -0.3690
 2865TIP3    H230011   6.367   0.199   6.509 -0.3467 -0.3562  0.3685
 2866TIP3   OH230012   1.696   3.524  11.662 -0.4163  0.0928  0.0870
 2866TIP3    H130013   1.612   3.552  11.697 -0.4016  0.4962 -0.1933
 2866TIP3    H230014   1.693   3.428  11.664 -0.1961  0.0930  1.7127
 2867TIP3   OH230015   1.286   5.446   5.498 -0.5498 -0.5343  0.0230
 2867TIP3    H130016   1.363   5.420   5.548  0.0354 -1.0817 -1.1250
 2867TIP3    H230017   1.236   5.500   5.558  0.5069 -0.5364  0.9409
 2868TIP3   OH230018   0.768   6.621   3.751 -0.1926  0.1416  0.4870
 2868TIP3    H130019   0.782   6.660   3.838 -0.7227  0.5874  0.3747
 2868TIP3    H230020   0.749   6.696   3.694  2.0862  0.1075 -0.4480
 2869TIP3   OH230021   6.282   1.779  12.620  0.1152  0.9898 -0.1372
 2869TIP3    H130022   6.240   1.786  12.705  2.2841 -0.7261  1.1592
 2869TIP3    H230023   6.300   1.870  12.595  1.0751  1.4838  2.1125
 2870TIP3   OH230024   4.675   5.292  16.146 -0.2419 -0.1374  0.3106
 2870TIP3    H130025   4.647   5.262  16.060  0.2463 -2.2224  0.8350
 2870TIP3    H230026   4.664   5.387  16.142 -0.0836 -0.1507 -2.0809
 2871TIP3   OH230027   6.692   5.552  16.961  0.0194  0.0221  0.0939
 2871TIP3    H130028   6.679   5.637  17.003 -1.5641 -0.5464  0.8008
 2871TIP3    H230029   6.609   5.535  16.916  0.4722 -0.9805 -0.3783
 2872TIP3   OH230030   6.547   6.318   1.541  1.1036 -0.5645  0.0010
 2872TIP3    H130031   6.598   6.243   1.573 -0.4081 -2.0434 -0.9217
 2872TIP3    H230032   6.534   6.300   1.448  0.8565  0.9692 -0.2903
 2873TIP3   OH230033   1.854   4.795   5.068  0.4403 -0.4087  0.2016
 2873TIP3    H130034   1.810   4.879   5.076 -0.0237 -0.4869 -1.2433
 2873TIP3    H230035   1.784   4.730   5.069  0.4963 -0.5581 -1.7264
 2874TIP3   OH230036   2.539   3.161  16.820 -0.1024 -0.3541 -0.6017
 2874TIP3    H130037   2.535   3.065  16.821 -1.2667 -0.3203  0.7982
 2874TIP3    H230038   2.530   3.186  16.912  0.1138  1.1146 -0.9621
 2875TIP3   OH230039   2.948   1.181   5.049  0.2254  0.2294 -0.0090
 2875TIP3    H130040   2.856   1.159   5.060 -0.0038  0.9194 -0.4498
 2875TIP3    H230041   2.949   1.276   5.038  0.9752  0.2159 -0.1449
 2876TIP3   OH230042   3.715   3.617   6.052 -0.4703  0.0243 -0.3076
 2876TIP3    H130043   3.692   3.535   6.008  0.2699  0.1146 -0.8847
 2876TIP3    H230044   3.795   3.646   6.009 -0.1134  0.4862  0.6333
 2877TIP3   OH230045   3.674   5.459   1.757  0.6432  0.2671  0.2925
 2877TIP3    H130046   3.746   5.397   1.750  0.0093 -0.3537 -1.0190
 2877TIP3    H230047   3.647   5.475   1.667  0.2169  1.7840  0.6588
 2878TIP3   OH230048   0.524   4.921   3.186 -0.0662  0.2011 -0.0122
 2878TIP3    H130049   0.512   4.953   3.097 -0.5530 -0.3039 -0.1317
 2878TIP3    H230050   0.608   4.875   3.185 -0.1218  0.1056 -0.2392
 2879TIP3   OH230051   5.143   5.012   5.532 -0.5824 -0.1451  0.2254
 2879TIP3    H130052   5.055   5.049   5.547 -0.1506  0.5916  1.0682
 2879TIP3    H230053   5.165   5.038   5.443 -0.5545  1.1262  0.5781
 2880TIP3   OH230054   6.152   2.821   0.915  0.6245 -0.2042 -0.3153
 2880TIP3    H130055   6.180   2.752   0.854  1.0036 -1.3015  1.0421
 2880TIP3    H230056   6.224   2.828   0.978 -0.6442 -0.6582  1.2534
 2881TIP3   OH230057   1.893   2.794  11.744 -0.2497  0.0021  0.4357
 2881TIP3    H130058   1.872   2.739  11.819 -0.7401 -0.5103 -0.0645
 2881TIP3    H230059   1.814   2.846  11.729  0.1384  0.7051  0.7789
 2882TIP3   OH230060   1.688   2.552   2.839 -0.2919 -0.7831  0.1917
 2882TIP3    H130061   1.628   2.534   2.912 -0.8062 -1.1213 -0.3097
 2882TIP3    H230062   1.739   2.628   2.869 -1.2212 -0.2522  0.4747
 2883TIP3   OH230063   2.078   0.708  17.184  0.0667 -0.5582  0.0375
 2883TIP3    H130064   2.039   0.698  17.097  0.7640 -1.7790 -0.1636
 2883TIP3    H230065   2.171   0.724  17.166  0.5430 -2.4786  0.5387
 2884TIP3   OH230066   2.992   5.633  15.753 -0.4758 -0.0643  0.3182
 2884TIP3    H130067   2.965   5.541  15.762 -0.6003  0.0540  1.3651
 2884TIP3    H230068   3.070   5.630  15.699 -1.9801 -0.5194 -1.9904
 2885TIP3   OH230069   1.629   5.926   0.260  0.4943  0.0970 -0.5881
 2885TIP3    H130070   1.624   5.841   0.304  0.3415 -0.3919 -1.5370
 2885TIP3    H230071   1.599   5.909   0.171  1.5857  0.9031 -1.1300
 2886TIP3   OH230072   4.737   1.647   3.582 -0.4188 -0.3704  0.7956
 2886TIP3    H130073   4.830   1.625   3.584 -0.5429 -1.0896 -0.3887
 2886TIP3    H230074   4.709   1.625   3.493 -1.2581  1.7750  0.4813
 2887TIP3   OH230075   2.610   5.849  12.627 -0.0862 -0.4746  0.5086
 2887TIP3    H130076   2.665   5.786  12.581  1.5969  0.0305  1.7133
 2887TIP3    H230077   2.569   5.901  12.557  1.1988 -0.7040 -0.4554
 2888TIP3   OH230078   3.521   5.919  16.687  0.2486 -0.3220 -0.3402
 2888TIP3    H130079   3.570   5.963  16.757  2.4753 -0.0550 -1.9743
 2888TIP3    H230080   3.491   5.991  16.631 -1.8108 -0.5125  0.4175
 2889TIP3   OH230081   0.792   5.835   1.006  0.4278  0.1694 -0.6073
 2889TIP3    H130082   0.755   5.782   1.077  0.5470  0.2218 -0.5051
 2889TIP3    H230083   0.784   5.780   0.928  1.1341 -0.2511 -0.3905
 2890TIP3   OH230084   3.990   0.397   5.092 -0.2841 -0.5331  0.3899
 2890TIP3    H130085   3.928   0.470   5.087 -2.0079 -1.9481  0.2645
 2890TIP3    H230086   4.063   0.432   5.142  0.9539  2.6335 -3.1487
 2891TIP3   OH230087   0.221   0.700  15.387  0.8606 -0.0948 -0.0837
 2891TIP3    H130088   0.258   0.778  15.428 -0.0570  1.1464 -1.5385
 2891TIP3    H230089   0.295   0.640  15.380  1.9416  1.2153 -0.2900
 2892TIP3   OH230090   4.664   0.604   3.327  0.1673 -0.1763 -0.4964
 2892TIP3    H130091   4.595   0.546   3.296  0.3880 -0.0969 -1.1465
 2892TIP3    H230092   4.744   0.552   3.323 -0.0343 -0.6988  1.5221
 2893TIP3   OH230093   4.890   5.518  11.555  0.3895 -0.2517  0.0335
 2893TIP3    H130094   4.901   5.531  11.649 -0.7458  0.5057  0.0859
 2893TIP3    H230095   4.868   5.425  11.546 -0.2558 -0.1639  0.6148
 2894TIP3   OH230096   4.947   0.733   3.815  0.1032  0.1155  0.3888
 2894TIP3    H130097   4.868   0.784   3.799 -1.5082 -2.3612  0.0320
 2894TIP3    H230098   5.013   0.798   3.840 -1.8880  2.3003  0.2270
 2895TIP3   OH230099   5.520   1.485   0.376  0.5746  0.0812 -0.2352
 2895TIP3    H130100   5.480   1.540   0.443  0.4062  1.0802 -1.1173
 2895TIP3    H230101   5.608   1.468   0.408  1.1151  2.0356 -0.5244
 2896TIP3   OH230102   2.777   1.300  15.084 -0.2871 -0.2317  0.6516
 2896TIP3    H130103   2.845   1.256  15.136  0.6701  0.5612  0.0989
 2896TIP3    H230104   2.725   1.229  15.047  1.4233 -0.9506 -0.4897
 2897TIP3   OH230105   3.718   6.104  15.927 -0.0615 -0.0118 -0.2042
 2897TIP3    H130106   3.673   6.150  15.856  0.2741  2.3976  1.0140
 2897TIP3    H230107   3.744   6.174  15.987  3.7626 -1.4081  0.0366
 2898TIP3   OH230108   3.680   4.722  13.872  0.7006 -0.2585  0.7120
 2898TIP3    H130109   3.734   4.774  13.813 -1.7894  0.6947 -0.8917
 2898TIP3    H230110   3.635   4.786  13.927  0.6087 -0.9652  1.4752
 2899TIP3   OH230111   0.326   3.233   0.206 -0.5215 -0.5064 -0.7096
 2899TIP3    H130112   0.369   3.281   0.135 -0.7925 -1.7980 -1.7903
 2899TIP3    H230113   0.294   3.153   0.165 -0.2973 -1.5157  0.9713
 2900TIP3   OH230114   4.811   5.315   0.422  0.4828  0.1485 -0.9105
 2900TIP3    H130115   4.789   5.391   0.368  3.0267  0.2529 -1.9776
 2900TIP3    H230116   4.905   5.323   0.438  0.4460 -1.6941  0.7356
 2901TIP3   OH230117   3.838   4.755   0.946 -0.0163  0.0618  0.1071
 2901TIP3    H130118   3.850   4.715   0.860  0.1584 -0.7972  0.5238
 2901TIP3    H230119   3.918   4.805   0.960  1.2209 -2.0052  0.9248
 2902TIP3   OH230120   2.463   2.334  11.124  0.6088  0.1397 -0.0066
 2902TIP3    H130121   2.545   2.349  11.077  1.7373 -1.3796  1.3683
 2902TIP3    H230122   2.395   2.358  11.062  2.0619  2.8291 -0.7252
 2903TIP3   OH230123   5.184   3.226  12.293 -0.3983 -0.0654  0.2839
 2903TIP3    H130124   5.194   3.143  12.247 -1.2914 -0.5025  0.8307
 2903TIP3    H230125   5.227   3.212  12.377 -0.2075  0.1595  0.2230
 2904TIP3   OH230126   3.800   3.074   5.129  0.5348  0.3470  0.1250
 2904TIP3    H130127   3.732   3.097   5.192  0.3373  1.8479 -0.5947
 2904TIP3    H230128   3.769   3.110   5.046  1.3615 -0.5454 -0.5919
 2905TIP3   OH230129   2.933   5.519   1.337 -0.2149  0.3252  0.3321
 2905TIP3    H130130   2.876   5.448   1.367  1.2765 -1.5655 -1.0951
 2905TIP3    H230131   2.948   5.501   1.245  1.8438  1.3529  0.3987
 2906TIP3   OH230132   5.542   3.090  10.625 -0.0999 -0.3341  0.4461
 2906TIP3    H130133   5.581   3.175  10.601  2.2586 -1.0713  1.3138
 2906TIP3    H230134   5.490   3.109  10.702 -0.8109  0.5636 -0.2278
 2907TIP3   OH230135   1.190   4.301  16.270  0.2789  0.3392 -0.0122
 2907TIP3    H130136   1.144   4.352  16.337 -0.8394  1.5629 -1.6174
 2907TIP3    H230137   1.168   4.345  16.188  1.1471 -1.4284 -1.2518
 2908TIP3   OH230138   3.194   2.671  16.711  0.4611  0.0665 -0.4311
 2908TIP3    H130139   3.115   2.724  16.696 -0.0365 -0.7913 -0.8978
 2908TIP3    H230140   3.160   2.586  16.740  1.2116 -0.3434 -0.7431
 2909TIP3   OH230141   1.435   1.784   4.131  0.4338  0.1873  0.2066
 2909TIP3    H130142   1.524   1.814   4.149 -0.0818  0.8853  1.7748
 2909TIP3    H230143   1.445   1.691   4.111  1.7229  0.6936 -1.7674
 2910TIP3   OH230144   1.380   3.803  16.563  0.4409 -0.0150 -0.2063
 2910TIP3    H130145   1.384   3.875  16.500 -0.4071  0.2994  0.0793
 2910TIP3    H230146   1.305   3.751  16.536  0.2502 -0.0428  0.3623
 2911TIP3   OH230147   3.538   2.880  16.208 -0.3267  0.1273 -0.3616
 2911TIP3    H130148   3.560   2.909  16.297 -3.2552 -1.3171  0.9798
 2911TIP3    H230149   3.527   2.961  16.159  2.8129  0.9505  0.0808
 2912TIP3   OH230150   5.492   2.499   4.138 -0.1327 -0.3789  0.0585
 2912TIP3    H130151   5.501   2.419   4.188 -0.5718 -0.3082  0.2584
 2912TIP3    H230152   5.414   2.542   4.174  0.4245  0.4239  0.3513
 2913TIP3   OH230153   4.223   6.149   4.062  0.2867  0.1936  0.2284
 2913TIP3    H130154   4.285   6.075   4.061 -0.6119 -0.5779  0.4108
 2913TIP3    H230155   4.268   6.217   4.113  0.5364 -0.7747  1.3666
 2914TIP3   OH230156   0.287   2.502  13.420 -0.8188 -0.5682  0.2749
 2914TIP3    H130157   0.346   2.517  13.493  0.6605 -1.5869 -0.6685
 2914TIP3    H230158   0.213   2.455  13.459 -0.0496 -1.1094  1.1180
 2915TIP3   OH230159   4.977   5.142  14.555 -0.1611 -0.5823 -0.3291
 2915TIP3    H130160   5.009   5.165  14.468 -3.0653  0.0267 -1.3528
 2915TIP3    H230161   4.892   5.102  14.540 -0.0171 -2.0889  2.1790
 2916TIP3   OH230162   1.731   1.700  16.584 -0.0279  0.2313 -0.6300
 2916TIP3    H130163   1.707   1.715  16.676  2.3486 -0.0321  0.0909
 2916TIP3    H230164   1.709   1.783  16.541  0.0982  0.8619  0.4633
 2917TIP3   OH230165   1.400   2.792  12.096  0.3710  0.1523 -0.0487
 2917TIP3    H130166   1.370   2.737  12.023  2.5732 -1.0637 -0.1262
 2917TIP3    H230167   1.485   2.756  12.120  1.0707  2.4019  1.1654
 2918TIP3   OH230168   0.802   4.985   4.651 -0.3112  0.2184 -0.0061
 2918TIP3    H130169   0.859   4.960   4.578  0.7868  0.8985  0.5845
 2918TIP3    H230170   0.770   5.072   4.628 -1.9152 -0.5434 -0.7798
 2919TIP3   OH230171   4.929   6.247  14.468 -0.4706 -0.5824 -0.0591
 2919TIP3    H130172   5.012   6.200  14.459 -0.9698 -1.3723 -0.6870
 2919TIP3    H230173   4.885   6.235  14.384 -0.8169  0.6443 -0.0768
 2920TIP3   OH230174   5.361   4.380  16.741  0.0236  0.2582  0.5590
 2920TIP3    H130175   5.282   4.405  16.790  0.2686  1.5956  0.3042
 2920TIP3    H230176   5.365   4.285  16.750 -1.4164  0.2046  0.8893
 2921TIP3   OH230177   4.479   5.114   2.719 -0.2801 -0.2009 -1.1954
 2921TIP3    H130178   4.431   5.033   2.702  2.3157 -1.8949 -0.9454
 2921TIP3    H230179   4.545   5.090   2.784  0.1951  2.2922 -0.6360
 2922TIP3   OH230180   2.265   4.009  12.282 -0.2243 -0.2957 -0.1441
 2922TIP3    H130181   2.322   4.070  12.235 -0.0383  0.2944  0.8217
 2922TIP3    H230182   2.290   3.922  12.250  1.7540 -0.1210  0.8148
 2923TIP3   OH230183   1.183   3.552   3.455  0.2343 -0.1219  0.4870
 2923TIP3    H130184   1.236   3.472   3.447 -0.2889 -0.6459  1.7862
 2923TIP3    H230185   1.214   3.609   3.386  1.5479 -0.9462  0.3584
 2924TIP3   OH230186   2.601   1.590  16.381  0.2237 -0.1933 -0.2469
 2924TIP3    H130187   2.519   1.636  16.365  0.9730  1.7617  1.2282
 2924TIP3    H230188   2.654   1.607  16.303  0.6457  1.8778  0.4511
 2925TIP3   OH230189   0.487   1.895  16.611 -0.0704  0.2157  0.1347
 2925TIP3    H130190   0.537   1.972  16.638 -0.9617  0.3227  1.5817
 2925TIP3    H230191   0.467   1.850  16.694 -1.5382 -0.3261 -0.4839
 2926TIP3   OH230192   5.167   4.526  13.363  0.0477  0.0047  0.1493
 2926TIP3    H130193   5.198   4.597  13.418  1.1219 -1.4873  1.5709
 2926TIP3    H230194   5.246   4.488  13.326 -0.5661  0.0305 -1.2412
 2927TIP3   OH230195   1.213   2.976  16.829  0.9004 -0.6224 -0.6245
 2927TIP3    H130196   1.203   2.982  16.924  2.6240  2.3288 -0.4881
 2927TIP3    H230197   1.211   2.883  16.809 -1.6091 -1.2523  2.0041
 2928TIP3   OH230198   1.518   6.474  12.963 -0.3623 -0.0112 -0.6016
 2928TIP3    H130199   1.562   6.475  13.048 -0.2115  0.0550 -0.6793
 2928TIP3    H230200   1.512   6.381  12.940  1.2040  0.0304 -1.3369
 2929TIP3   OH230201   3.418   0.154   2.148  0.3415 -0.7879  0.0838
 2929TIP3    H130202   3.362   0.084   2.180  0.0415 -0.3134  0.6207
 2929TIP3    H230203   3.489   0.160   2.212 -0.1272 -0.0012  0.5560
 2930TIP3   OH230204   3.360   3.858   2.484  0.1217 -0.7363  0.1675
 2930TIP3    H130205   3.428   3.793   2.464  0.3684 -0.7657  1.0697
 2930TIP3    H230206   3.297   3.848   2.413  1.9784  0.6505 -1.8149
 2931TIP3   OH230207   1.698   2.233  11.502  0.2815 -0.9069  0.0658
 2931TIP3    H130208   1.672   2.237  11.411  0.0520 -1.2023  0.1170
 2931TIP3    H230209   1.770   2.169  11.504  0.6746 -0.4703  0.0033
 2932TIP3   OH230210   3.690   6.329  13.782  0.0378 -0.2707 -0.1167
 2932TIP3    H130211   3.773   6.337  13.829 -0.0157  1.7019 -0.2861
 2932TIP3    H230212   3.676   6.234  13.775  1.3964 -0.6375  1.4325
 2933TIP3   OH230213   1.478   3.915   4.341  0.2049  0.0246  0.1229
 2933TIP3    H130214   1.487   3.840   4.400  0.5874 -0.0957 -0.0823
 2933TIP3    H230215   1.555   3.910   4.285 -0.5279 -0.3179 -0.8901
 2934TIP3   OH230216   6.088   3.029   4.561 -0.3624  0.3135  0.1888
 2934TIP3    H130217   6.007   3.062   4.522 -0.4883 -0.1197  0.0844
 2934TIP3    H230218   6.146   3.105   4.563 -0.5730  0.4904 -0.2589
 2935TIP3   OH230219   3.982   0.027  16.857  0.3617 -0.9283 -0.5060
 2935TIP3    H130220   4.060  -0.003  16.903  1.7729  2.6046 -0.3302
 2935TIP3    H230221   3.972   0.118  16.882 -2.1536 -0.4116 -2.8351
 2936TIP3   OH230222   2.280   6.717   3.392 -0.9636 -0.3533 -0.1796
 2936TIP3    H130223   2.258   6.715   3.485 -1.3397 -2.9668 -0.2332
 2936TIP3    H230224   2.342   6.790   3.383 -1.2036  0.1860  2.0302
 2937TIP3   OH230225   1.407   5.818  16.776 -0.0705  0.6881  0.2129
 2937TIP3    H130226   1.375   5.874  16.706  2.7556  0.3192 -1.5046
 2937TIP3    H230227   1.382   5.730  16.750 -1.1095  0.7391  0.9544
 2938TIP3   OH230228   0.990   1.515  12.003  0.1683 -0.3498 -0.2645
 2938TIP3    H130229   0.900   1.525  12.033  0.3467  2.6435 -0.3682
 2938TIP3    H230230   1.039   1.582  12.052  2.0222 -0.8333 -1.3504
 2939TIP3   OH230231   5.431   1.593   0.613 -0.0746 -0.9807 -0.0487
 2939TIP3    H130232   5.451   1.684   0.638 -2.1371 -0.4815  0.0166
 2939TIP3    H230233   5.503   1.542   0.649  2.6311  0.8602 -2.3929
 2940TIP3   OH230234   3.943   5.210   3.148 -0.4137 -0.7560 -0.4708
 2940TIP3    H130235   4.011   5.178   3.207  0.5910 -0.9718 -1.7091
 2940TIP3    H230236   3.978   5.195   3.060 -0.2865  2.7656 -1.1798
 2941TIP3   OH230237   1.963   3.869  14.062  0.3180  0.6378 -0.8466
 2941TIP3    H130238   1.993   3.813  13.991  0.3054  2.1806 -2.1165
 2941TIP3    H230239   2.043   3.897  14.106  0.5025  1.4863 -1.6900
 2942TIP3   OH230240   4.152   6.596   3.133  1.0140  0.2634  0.3282
 2942TIP3    H130241   4.228   6.582   3.075  0.5621  0.9915 -0.4502
 2942TIP3    H230242   4.189   6.639   3.210  1.0451  3.2900 -1.2279
 2943TIP3   OH230243   2.311   4.058   4.730 -0.0469  0.3535  0.3722
 2943TIP3    H130244   2.283   4.078   4.641 -1.2154  0.0725  0.6481
 2943TIP3    H230245   2.320   3.963   4.731  0.4592  0.3998  0.4235
 2944TIP3   OH230246   3.351   0.309   6.816  0.1381  0.0555 -0.0832
 2944TIP3    H130247   3.387   0.267   6.894  2.2407  0.5421 -0.7238
 2944TIP3    H230248   3.278   0.253   6.790  0.0710 -0.7045  1.5943
 2945TIP3   OH230249   1.700   0.117   5.125 -0.2267  0.3294 -0.2425
 2945TIP3    H130250   1.765   0.108   5.055  0.5680 -0.0704  0.5182
 2945TIP3    H230251   1.694   0.211   5.140  0.1747  0.3720 -0.3278
 2946TIP3   OH230252   4.689   2.705   3.222 -0.3685 -0.1683 -0.3921
 2946TIP3    H130253   4.695   2.749   3.137  1.5829 -0.0171 -0.2319
 2946TIP3    H230254   4.767   2.735   3.269 -1.4960 -0.0988  1.5398
 2947TIP3   OH230255   0.523   3.360   0.603 -0.0559 -0.1531 -0.2718
 2947TIP3    H130256   0.553   3.369   0.693 -0.1570 -1.3522 -0.1048
 2947TIP3    H230257   0.590   3.404   0.550 -0.1711  0.8597  0.3897
 2948TIP3   OH230258   4.495   2.620  11.722  0.1215 -0.3910 -0.2980
 2948TIP3    H130259   4.551   2.565  11.776 -0.4469  1.5909  2.4966
 2948TIP3    H230260   4.530   2.708  11.732 -2.1454  0.5770 -0.2038
 2949TIP3   OH230261   0.667   3.957  15.523  0.4683  0.4206 -0.4631
 2949TIP3    H130262   0.715   3.945  15.441 -0.0095 -2.7207 -0.3828
 2949TIP3    H230263   0.735   3.969  15.589  0.9177  0.9125 -0.9972
 2950TIP3   OH230264   4.806   0.470  10.908  0.2657 -0.1284 -0.1072
 2950TIP3    H130265   4.809   0.454  10.814 -3.2058  0.4094 -0.4592
 2950TIP3    H230266   4.852   0.552  10.920  0.4343 -0.0084 -1.4190
 2951TIP3   OH230267   2.238   5.720   2.989  0.1954 -0.9123  0.2853
 2951TIP3    H130268   2.224   5.772   3.068  0.3811 -0.4947  0.0502
 2951TIP3    H230269   2.240   5.785   2.918 -1.8964 -1.4387 -0.3247
 2952TIP3   OH230270   0.334   6.254  16.463  0.5013 -0.0853  0.0612
 2952TIP3    H130271   0.289   6.283  16.384  1.5534 -1.0698 -0.9452
 2952TIP3    H230272   0.426   6.246  16.437  1.0009  0.2788  1.5955
 2953TIP3   OH230273   3.687   6.330   2.520 -0.3101 -0.4112 -0.2478
 2953TIP3    H130274   3.719   6.261   2.579  2.4699  1.8438  1.1299
 2953TIP3    H230275   3.763   6.387   2.506 -2.4710  2.5160 -1.1051
 2954TIP3   OH230276   1.012   0.261  10.918  0.0707 -0.1720 -0.3704
 2954TIP3    H130277   1.032   0.168  10.914 -1.7363 -0.6178  0.1697
 2954TIP3    H230278   1.033   0.286  11.008 -1.6375 -0.6253  0.1789
 2955TIP3   OH230279   2.400   3.234   1.619  0.3467 -0.0591  0.3638
 2955TIP3    H130280   2.359   3.201   1.699 -0.1034 -0.9888 -0.2386
 2955TIP3    H230281   2.395   3.330   1.627  2.4682 -0.0278  2.5642
 2956TIP3   OH230282   5.631   1.108   3.360 -0.4094  0.3517  0.0321
 2956TIP3    H130283   5.557   1.062   3.398 -0.9495  0.6905 -0.5922
 2956TIP3    H230284   5.665   1.049   3.294 -0.9750  0.7425 -0.6255
 2957TIP3   OH230285   3.743   5.153  13.779  0.2702 -0.8180 -0.1936
 2957TIP3    H130286   3.779   5.195  13.701  2.1397 -0.9210  0.5533
 2957TIP3    H230287   3.649   5.144  13.761  0.1849  1.5656 -1.3167
 2958TIP3   OH230288   6.189   3.070  13.105  0.5246 -0.2654  0.2952
 2958TIP3    H130289   6.239   3.003  13.152  0.4599 -0.1192  0.5728
 2958TIP3    H230290   6.248   3.144  13.097  0.1351  0.1620  1.2274
 2959TIP3   OH230291   6.110   2.356  11.413  0.5004  0.4636 -0.2125
 2959TIP3    H130292   6.046   2.428  11.419  0.1544  0.0240  3.0592
 2959TIP3    H230293   6.058   2.281  11.383  0.2069  0.8822 -0.7627
 2960TIP3   OH230294   2.087   0.253   6.797  0.2499  0.1947 -0.1173
 2960TIP3    H130295   2.169   0.257   6.846  1.0618 -0.0813 -1.4114
 2960TIP3    H230296   2.076   0.341   6.760  0.0816  0.1700 -0.1308
 2961TIP3   OH230297   5.370   0.544  12.880 -0.4686 -0.1016  0.3295
 2961TIP3    H130298   5.368   0.618  12.820 -1.2228 -1.5453 -1.5008
 2961TIP3    H230299   5.366   0.584  12.967  0.2949  2.0326 -0.5499
 2962TIP3   OH230300   2.979   3.306   6.125 -0.2870 -0.0633  0.1528
 2962TIP3    H130301   2.942   3.389   6.153 -0.0542 -0.3808  1.4818
 2962TIP3    H230302   2.903   3.247   6.116 -0.4214  0.2010 -0.5087
 2963TIP3   OH230303   4.204   5.950   1.870 -0.2410 -0.3423  0.1738
 2963TIP3    H130304   4.132   6.008   1.892 -1.2426 -1.9579  1.3316
 2963TIP3    H230305   4.178   5.909   1.787  0.4475  0.7588 -0.6220
 2964TIP3   OH230306   2.708   2.976   3.587  0.1267  0.0697  0.1769
 2964TIP3    H130307   2.757   3.009   3.512 -0.2937 -1.2772 -0.7131
 2964TIP3    H230308   2.709   2.881   3.577 -0.1127 -0.1283  1.7774
 2965TIP3   OH230309   4.055   5.674   0.819 -0.0440 -0.1970  0.0167
 2965TIP3    H130310   3.996   5.681   0.744 -0.6959  2.0712  0.6608
 2965TIP3    H230311   4.113   5.749   0.811  0.5189 -0.4717  1.2508
 2966TIP3   OH230312   3.284   3.214   0.641  0.1194 -0.5102  0.0694
 2966TIP3    H130313   3.212   3.247   0.694 -0.3560 -0.0884 -0.8058
 2966TIP3    H230314   3.273   3.257   0.556  1.9005  0.2265  0.1589
 2967TIP3   OH230315   4.062   1.727  11.168  0.1252  0.1182 -0.3459
 2967TIP3    H130316   3.986   1.705  11.223  0.9696  1.1750  1.3294
 2967TIP3    H230317   4.084   1.817  11.194  2.8447 -0.6565  0.3271
 2968TIP3   OH230318   1.276   4.159   4.824 -0.6526  0.2087 -0.4026
 2968TIP3    H130319   1.251   4.250   4.838  0.5485  0.3916  0.6772
 2968TIP3    H230320   1.365   4.162   4.791  0.4880 -0.5870  2.2709
 2969TIP3   OH230321   4.920   4.798  16.544  0.0026  0.1434  0.0437
 2969TIP3    H130322   4.863   4.797  16.467  0.4895  0.5184 -0.3290
 2969TIP3    H230323   4.860   4.815  16.617 -0.4073  0.2278 -0.3038
 2970TIP3   OH230324   4.813   0.729   5.481  0.4075  0.3530  0.0906
 2970TIP3    H130325   4.862   0.804   5.446  2.1555 -0.3063  1.0160
 2970TIP3    H230326   4.848   0.716   5.569  0.9742 -2.1995 -0.4106
 2971TIP3   OH230327   4.613   1.136   5.251 -0.3323 -0.0645  0.2153
 2971TIP3    H130328   4.703   1.136   5.219 -0.1641  0.9125  0.6692
 2971TIP3    H230329   4.573   1.061   5.207  0.3948  0.1400 -0.8456
 2972TIP3   OH230330   4.094   5.585   2.156 -0.2452  0.1095  0.2960
 2972TIP3    H130331   4.142   5.659   2.118  0.1836 -0.8933 -1.2387
 2972TIP3    H230332   4.160   5.536   2.206 -0.4800  0.6275  1.1283
 2973TIP3   OH230333   1.639   4.090   3.254  0.3076 -0.4926 -0.2686
 2973TIP3    H130334   1.733   4.110   3.254  0.7144 -2.1681  0.8239
 2973TIP3    H230335   1.629   4.024   3.322 -1.7177 -0.2146 -0.2456
 2974TIP3   OH230336   3.050   0.628   3.574 -0.7785 -0.4074 -0.5512
 2974TIP3    H130337   2.965   0.664   3.598 -0.4506  0.5703 -0.8275
 2974TIP3    H230338   3.113   0.691   3.607 -0.2559  0.2359 -2.6005
 2975TIP3   OH230339   0.800   5.461  17.019  0.6494 -0.1152  0.4032
 2975TIP3    H130340   0.791   5.408  17.098  0.2407 -1.9880 -0.8411
 2975TIP3    H230341   0.863   5.413  16.965  0.7722  1.0268 -0.5117
 2976TIP3   OH230342   2.257   6.457   1.931  0.8338  0.1223 -0.4691
 2976TIP3    H130343   2.219   6.463   2.018  0.0747 -1.5056 -0.6539
 2976TIP3    H230344   2.264   6.363   1.914  0.1796  0.3873 -2.5029
 2977TIP3   OH230345   3.491   5.145  12.161  0.6361 -0.3293  0.0166
 2977TIP3    H130346   3.571   5.137  12.213 -0.4497 -0.9107  1.6996
 2977TIP3    H230347   3.446   5.062  12.175 -0.0074 -0.2350 -1.3678
 2978TIP3   OH230348   6.300   0.329   3.740 -0.0459  0.0174  0.2731
 2978TIP3    H130349   6.264   0.363   3.821 -1.6697 -0.2843 -0.2957
 2978TIP3    H230350   6.233   0.270   3.706  1.5177 -1.6205 -0.1710
 2979TIP3   OH230351   0.478   5.647   1.376 -0.2899  0.3697 -0.4203
 2979TIP3    H130352   0.491   5.603   1.460 -0.1378  1.6045  0.2292
 2979TIP3    H230353   0.426   5.586   1.325 -0.6554 -0.2789  0.6869
 2980TIP3   OH230354   5.768   3.967  13.931  0.0404 -0.5372 -0.6171
 2980TIP3    H130355   5.735   3.891  13.883 -0.0585 -0.6882 -0.3118
 2980TIP3    H230356   5.849   3.990  13.887 -1.4641  1.1382 -2.7313
 2981TIP3   OH230357   0.264   3.385  14.701  0.4082 -0.2983 -0.0085
 2981TIP3    H130358   0.229   3.452  14.643  1.4892 -0.8598 -1.3431
 2981TIP3    H230359   0.202   3.312  14.693  0.6193 -0.4206 -0.5620
 2982TIP3   OH230360   0.440   3.512  16.719 -0.9351 -0.3252 -0.9466
 2982TIP3    H130361   0.363   3.512  16.775  0.6146 -1.1450  1.3493
 2982TIP3    H230362   0.431   3.434  16.664 -1.1579 -1.1282  0.2111
 2983TIP3   OH230363   5.882   5.239  13.389  0.4019 -0.4724 -0.2207
 2983TIP3    H130364   5.828   5.262  13.313 -1.0408 -3.6660 -0.3516
 2983TIP3    H230365   5.818   5.210  13.455  1.6344  1.8804  2.1867
 2984TIP3   OH230366   5.034   2.473  14.941  0.6654 -0.4412 -0.1044
 2984TIP3    H130367   4.980   2.551  14.929 -2.0747 -2.0386  0.8077
 2984TIP3    H230368   5.045   2.465  15.036  3.4677  0.3574 -0.2846
 2985TIP3   OH230369   6.583   5.737  14.113 -0.0373 -0.2810  0.4425
 2985TIP3    H130370   6.571   5.709  14.204 -0.9478  4.2131  1.9354
 2985TIP3    H230371   6.495   5.735  14.075 -0.1803  0.7555  0.6900
 2986TIP3   OH230372   6.521   4.563  13.286 -0.3803  0.4827 -0.0834
 2986TIP3    H130373   6.591   4.629  13.282  0.4658 -0.3544  0.4183
 2986TIP3    H230374   6.445   4.611  13.319  0.6423  0.9019  1.8127
 2987TIP3   OH230375   4.923   2.872  12.102  0.3347 -0.5347 -0.9922
 2987TIP3    H130376   4.852   2.865  12.165  1.6559  1.6096  0.8434
 2987TIP3    H230377   4.881   2.906  12.023 -0.5988  1.5169  0.3091
 2988TIP3   OH230378   4.680   1.102  13.745  1.0840  0.1969  0.3842
 2988TIP3    H130379   4.630   1.171  13.787  0.4968  0.3804 -0.5945
 2988TIP3    H230380   4.760   1.095  13.798  0.6748  0.8759  1.1159
 2989TIP3   OH230381   3.206   2.507   1.065 -0.1021 -0.1407  0.2544
 2989TIP3    H130382   3.258   2.519   0.985  1.4285 -0.8928  1.0878
 2989TIP3    H230383   3.131   2.455   1.037 -0.7414  1.4054 -1.0961
 2990TIP3   OH230384   1.181   6.042  15.103  0.2160 -0.2351  0.4809
 2990TIP3    H130385   1.182   5.982  15.029 -0.8141  0.9689 -0.5438
 2990TIP3    H230386   1.194   6.129  15.065 -0.1954  0.4025  1.7189
 2991TIP3   OH230387   1.223   0.962   1.874 -0.0654 -0.1987  0.1721
 2991TIP3    H130388   1.235   1.043   1.824  1.8925 -1.4720 -1.6011
 2991TIP3    H230389   1.135   0.932   1.852  0.0262  0.3200 -0.9562
 2992TIP3   OH230390   0.035   4.992  14.392  0.0233  0.8762  0.2108
 2992TIP3    H130391   0.008   4.904  14.415 -0.5011  0.8396 -0.5127
 2992TIP3    H230392  -0.004   5.048  14.459 -3.5620  1.0507 -1.7669
 2993TIP3   OH230393   0.594   1.910  16.211 -0.4895 -0.5219 -0.3145
 2993TIP3    H130394   0.622   1.993  16.249 -1.8420 -0.6520  1.0583
 2993TIP3    H230395   0.672   1.876  16.167  0.9117  0.0771  1.5933
 2994TIP3   OH230396   5.541   5.984   0.588 -0.3644  0.0606  0.9187
 2994TIP3    H130397   5.587   6.031   0.519 -0.0492 -0.6032  0.6623
 2994TIP3    H230398   5.449   5.988   0.563 -0.0590 -2.5387 -1.0954
 2995TIP3   OH230399   6.382   5.521  14.544 -0.4100  0.1738  0.1665
 2995TIP3    H130400   6.347   5.547  14.629 -0.1743 -0.3233  0.4187
 2995TIP3    H230401   6.306   5.521  14.485 -1.2489 -2.6032  1.0751
 2996TIP3   OH230402   2.961   4.309  10.839  0.2013  0.5249 -0.1474
 2996TIP3    H130403   2.970   4.402  10.820  0.9363  0.6952  0.9115
 2996TIP3    H230404   3.050   4.275  10.835 -0.2795 -0.6535 -2.8313
 2997TIP3   OH230405   3.414   1.976  12.915 -0.2180  0.2582  0.8478
 2997TIP3    H130406   3.341   2.006  12.970 -0.6959 -0.3012  0.5214
 2997TIP3    H230407   3.376   1.911  12.857  0.4109  0.4228  0.2339
 2998TIP3   OH230408   5.899   5.338  12.485  0.1261  0.0553 -0.6120
 2998TIP3    H130409   5.930   5.271  12.424  0.1717 -0.2801 -0.2256
 2998TIP3    H230410   5.968   5.404  12.486 -0.2689  0.5120 -1.5979
 2999TIP3   OH230411   2.583   4.420  14.257  0.1932 -0.4721  0.8561
 2999TIP3    H130412   2.499   4.383  14.232 -0.6124  1.4933  0.4530
 2999TIP3    H230413   2.566   4.465  14.340  0.5483  0.8202  0.2575
 3000TIP3   OH230414   2.865   5.706  14.260 -0.3126 -0.2563 -0.3536
 3000TIP3    H130415   2.797   5.697  14.326  0.2857 -0.4966  0.2424
 3000TIP3    H230416   2.818   5.719  14.178 -1.0957 -1.3658 -0.0987
 3001TIP3   OH230417   6.194   5.227  11.155 -0.0836  0.4242  0.1152
 3001TIP3    H130418   6.159   5.211  11.242 -2.4302 -0.2435 -0.8722
 3001TIP3    H230419   6.248   5.150  11.136  2.1358  1.4874  1.6771
 3002TIP3   OH230420   4.388   6.117   1.653  0.1861  0.2202 -0.1545
 3002TIP3    H130421   4.413   6.101   1.744  1.1526  0.0752 -0.4368
 3002TIP3    H230422   4.377   6.029   1.615  0.0698  0.2792 -0.2620
 3003TIP3   OH230423   0.563   5.135   4.209 -0.1578  0.1241 -0.1478
 3003TIP3    H130424   0.480   5.183   4.205 -1.0263 -1.3002 -0.0777
 3003TIP3    H230425   0.556   5.082   4.289 -0.4242 -2.1108 -1.5642
 3004TIP3   OH230426   3.280   1.326   0.052  0.2754  0.4528 -0.7094
 3004TIP3    H130427   3.331   1.407   0.058  0.0455  0.5042  1.5096
 3004TIP3    H230428   3.345   1.256   0.050  0.4608  0.6286 -0.8041
 3005TIP3   OH230429   0.012   1.858   2.340 -0.0428  0.0258  0.0157
 3005TIP3    H130430   0.103   1.889   2.334 -0.5445  1.3243 -1.3321
 3005TIP3    H230431  -0.027   1.910   2.409 -0.0957  0.3720 -0.2713
 3006TIP3   OH230432   6.585   0.472   0.251 -0.4153 -0.2848 -0.9585
 3006TIP3    H130433   6.664   0.523   0.270 -1.1972  0.1238  1.5911
 3006TIP3    H230434   6.608   0.382   0.276 -0.5942 -0.2394 -0.6149
 3007TIP3   OH230435   3.455   5.115  13.851 -0.8247  0.1636  0.8510
 3007TIP3    H130436   3.425   5.044  13.794  0.5593  0.8569 -0.8187
 3007TIP3    H230437   3.445   5.080  13.939 -1.0819 -1.7583  0.1102
 3008TIP3   OH230438   4.949   1.203  11.459 -0.2477 -0.1211  0.6017
 3008TIP3    H130439   4.931   1.236  11.547  1.9895 -1.3074  1.5736
 3008TIP3    H230440   4.930   1.110  11.464 -0.7454 -0.0808 -0.3798
 3009TIP3   OH230441   3.439   0.587   1.491 -0.3604 -0.6333 -0.3597
 3009TIP3    H130442   3.430   0.493   1.473 -0.2767 -0.3584 -2.0103
 3009TIP3    H230443   3.530   0.607   1.468 -0.2954 -0.1874  0.2602
 3010TIP3   OH230444   4.099   4.703   5.192  0.5780 -0.1606 -0.4453
 3010TIP3    H130445   4.037   4.629   5.198 -0.6321  0.8840  0.6067
 3010TIP3    H230446   4.095   4.744   5.278  2.3920  0.2453 -0.5308
 3011TIP3   OH230447   4.623   3.547   6.060 -0.4766 -0.4955 -0.0289
 3011TIP3    H130448   4.533   3.566   6.087 -0.6862 -1.3385 -0.0996
 3011TIP3    H230449   4.615   3.467   6.008  0.3360 -0.6689  0.1064
 3012TIP3   OH230450   6.673   3.574  15.830 -0.0443 -0.4327 -0.6738
 3012TIP3    H130451   6.665   3.666  15.808 -2.0576 -0.2336  0.6107
 3012TIP3    H230452   6.744   3.570  15.894 -0.7390  0.4489  0.1877
 3013TIP3   OH230453   1.692   4.570   3.263  0.0723 -0.2540  0.3241
 3013TIP3    H130454   1.649   4.485   3.264 -1.8281  0.6734  0.8939
 3013TIP3    H230455   1.723   4.580   3.173 -0.7767 -1.0171 -0.0651
 3014TIP3   OH230456   0.969   2.979   3.135 -0.1327  0.5280  0.1129
 3014TIP3    H130457   0.883   2.956   3.099  0.4633 -1.4559 -0.2008
 3014TIP3    H230458   0.981   3.071   3.112 -1.1087  0.1736 -2.0887
 3015TIP3   OH230459   2.786   3.572  12.575  0.2268 -0.1331 -0.5802
 3015TIP3    H130460   2.724   3.538  12.511 -0.7297 -0.7799  0.6357
 3015TIP3    H230461   2.767   3.523  12.655  0.7816  1.2347  0.4356
 3016TIP3   OH230462   4.985   1.020   6.088 -0.2031  0.1399 -0.4341
 3016TIP3    H130463   4.982   0.925   6.103  0.9309  0.2392  0.5266
 3016TIP3    H230464   5.060   1.033   6.030 -0.8026  0.3900 -1.1680
 3017TIP3   OH230465   1.664   1.206   0.546 -0.2238 -0.5843  0.1470
 3017TIP3    H130466   1.606   1.130   0.554 -0.2706 -0.5070  0.6336
 3017TIP3    H230467   1.716   1.190   0.468  0.4846 -1.6069  0.8122
 3018TIP3   OH230468   1.840   2.880   4.022  0.3017 -0.0458  0.0694
 3018TIP3    H130469   1.849   2.853   3.931  0.8758  1.4109 -0.3325
 3018TIP3    H230470   1.898   2.821   4.071 -0.2207 -1.0109 -0.4668
 3019TIP3   OH230471   5.423   4.700   5.020  0.2036 -0.2562 -0.3549
 3019TIP3    H130472   5.479   4.778   5.022 -0.9852  0.6607 -1.5453
 3019TIP3    H230473   5.435   4.661   5.106 -1.3056  2.7873  1.3989
 3020TIP3   OH230474   4.128   0.631  13.279 -0.4857 -0.2917  0.2893
 3020TIP3    H130475   4.065   0.665  13.215 -0.3134 -0.6993 -0.1043
 3020TIP3    H230476   4.080   0.631  13.362 -0.4985  0.8859  0.3091
 3021TIP3   OH230477   2.802   4.634   3.596  0.4376 -0.1224  0.1866
 3021TIP3    H130478   2.800   4.637   3.691 -2.3116  0.7215  0.1695
 3021TIP3    H230479   2.767   4.547   3.574  1.8764 -0.6633 -0.0950
 3022TIP3   OH230480   0.871   6.518  11.384 -0.3826 -0.0869 -0.4798
 3022TIP3    H130481   0.888   6.434  11.341  2.7721 -0.0084  0.3787
 3022TIP3    H230482   0.904   6.506  11.473  0.0311  2.0116 -0.3141
 3023TIP3   OH230483   3.081   6.700   4.157 -0.3471  0.9778 -0.2717
 3023TIP3    H130484   3.033   6.770   4.201 -0.2249  1.2841 -0.6201
 3023TIP3    H230485   3.121   6.742   4.081 -0.9014  0.3733 -0.9208
 3024TIP3   OH230486   1.599   2.242   2.215 -0.0635 -0.1897  0.7598
 3024TIP3    H130487   1.612   2.256   2.309  1.8531 -0.0455  0.5225
 3024TIP3    H230488   1.663   2.299   2.174 -0.6741 -0.4759 -0.6350
 3025TIP3   OH230489   4.792   1.089   3.142  0.5064  0.1677 -0.4928
 3025TIP3    H130490   4.706   1.048   3.136  0.8586 -0.6801  0.1821
 3025TIP3    H230491   4.854   1.018   3.128  1.1177  0.8654 -1.5510
 3026TIP3   OH230492   2.401   5.420   5.904 -0.4285 -0.7699 -0.3480
 3026TIP3    H130493   2.329   5.440   5.964  1.8975  0.0160  2.4298
 3026TIP3    H230494   2.406   5.497   5.847 -0.6562  0.0239  0.6638
 3027TIP3   OH230495   1.862   0.304  17.173  0.6486 -0.8038  0.5294
 3027TIP3    H130496   1.796   0.286  17.240  0.9679 -0.7031  0.8732
 3027TIP3    H230497   1.944   0.274  17.211  0.7448 -1.2908 -0.0549
 3028TIP3   OH230498   0.535   0.518   2.309 -0.4169  0.3749  0.2412
 3028TIP3    H130499   0.610   0.575   2.298  1.3089 -1.3100  2.3354
 3028TIP3    H230500   0.492   0.517   2.223  2.4221  0.7749 -1.2855
 3029TIP3   OH230501   1.753   5.747   1.624 -0.7403 -0.2083  0.2244
 3029TIP3    H130502   1.703   5.752   1.706 -1.0257 -0.0170  0.0412
 3029TIP3    H230503   1.806   5.668   1.633 -1.4681 -0.7037  0.1994
 3030TIP3   OH230504   4.065   0.625  11.882 -0.2182  0.3452 -0.1369
 3030TIP3    H130505   3.975   0.658  11.871 -0.0038  0.4245 -2.0037
 3030TIP3    H230506   4.054   0.532  11.900 -0.6836  0.3330 -0.4549
 3031TIP3   OH230507   2.425   5.860  10.944  0.1426  0.2573  0.1733
 3031TIP3    H130508   2.413   5.771  10.976 -0.7247  0.4967  0.5373
 3031TIP3    H230509   2.494   5.853  10.879 -0.8294 -0.9209 -0.7819
 3032TIP3   OH230510   0.674   0.463   4.262 -0.0679  0.1308  0.4322
 3032TIP3    H130511   0.730   0.521   4.313  1.3030  0.8393 -1.7112
 3032TIP3    H230512   0.593   0.513   4.249 -0.1205  0.2542  1.2337
 3033TIP3   OH230513   4.108   1.749   2.645 -0.3872 -0.1884 -0.2366
 3033TIP3    H130514   4.108   1.815   2.576 -0.2314 -0.9583 -1.0048
 3033TIP3    H230515   4.032   1.770   2.699 -0.2592  0.6862 -0.3905
 3034TIP3   OH230516   5.288   2.541  12.662  0.0794  0.8193 -0.2681
 3034TIP3    H130517   5.247   2.461  12.695 -0.1306  0.1385 -2.0546
 3034TIP3    H230518   5.260   2.546  12.571  4.3099 -0.0498 -1.8569
 3035TIP3   OH230519   0.908   0.798  11.993 -0.3585  0.0350  0.0030
 3035TIP3    H130520   0.843   0.808  11.924 -0.1632  2.8520  0.1418
 3035TIP3    H230521   0.857   0.774  12.071 -0.9551  0.0735 -0.3737
 3036TIP3   OH230522   0.976   4.978   1.641  0.3803 -0.0815 -0.0688
 3036TIP3    H130523   0.979   4.883   1.632 -1.4675 -0.3513  1.5387
 3036TIP3    H230524   0.985   5.011   1.552 -0.7082 -1.8286 -0.8729
 3037TIP3   OH230525   1.827   4.197  16.561 -0.1373  0.2918 -0.0273
 3037TIP3    H130526   1.747   4.149  16.583  0.0930  0.7097  1.9208
 3037TIP3    H230527   1.826   4.273  16.619  1.8797  0.0701  0.3986
 3038TIP3   OH230528   1.441   4.162  13.313  0.5388  0.3481 -0.2791
 3038TIP3    H130529   1.396   4.084  13.345 -0.7456  1.0411 -0.3444
 3038TIP3    H230530   1.408   4.233  13.368  0.9749  1.0023 -0.8405
 3039TIP3   OH230531   5.468   2.042  16.309 -0.7731  0.3342 -0.2994
 3039TIP3    H130532   5.485   2.111  16.245  1.7319 -0.1596 -0.2629
 3039TIP3    H230533   5.512   2.072  16.388 -1.9503 -0.1090  0.5603
 3040TIP3   OH230534   2.860   3.480  16.631 -0.4965 -0.0717  0.0327
 3040TIP3    H130535   2.897   3.401  16.670  0.3209  0.9845  1.4546
 3040TIP3    H230536   2.872   3.548  16.697 -1.1613  1.2656 -1.1702
 3041TIP3   OH230537   1.822   2.999  14.486  0.3947 -0.5373  0.2073
 3041TIP3    H130538   1.776   3.082  14.476  1.3190 -0.0956 -0.6675
 3041TIP3    H230539   1.753   2.932  14.486 -0.2555  0.0820 -1.2857
 3042TIP3   OH230540   0.113   5.622  16.287  0.3425  0.2748 -0.2088
 3042TIP3    H130541   0.042   5.683  16.269 -0.4861 -0.1751  1.3445
 3042TIP3    H230542   0.154   5.655  16.367  0.1149 -0.9570  0.4555
 3043TIP3   OH230543   1.834   1.919  16.187  0.6311 -0.2516 -0.0992
 3043TIP3    H130544   1.746   1.948  16.213  1.1711  0.5217  0.9642
 3043TIP3    H230545   1.870   1.993  16.139  0.9411 -0.3096  0.0439
 3044TIP3   OH230546   2.475   5.574   1.675  0.4408  0.0301 -0.7321
 3044TIP3    H130547   2.402   5.577   1.737  0.7531 -0.3765 -0.3330
 3044TIP3    H230548   2.506   5.664   1.669  0.0792  0.1605 -0.7047
 3045TIP3   OH230549   0.703   5.835  13.350  0.1778  0.4869  0.3595
 3045TIP3    H130550   0.739   5.912  13.306 -1.1064  0.6133 -0.5263
 3045TIP3    H230551   0.626   5.868  13.396 -0.3155 -0.2310  0.0684
 3046TIP3   OH230552   6.608   6.116   0.221  0.1077  0.4117 -0.1629
 3046TIP3    H130553   6.565   6.201   0.217  1.6002  1.3289  1.6807
 3046TIP3    H230554   6.701   6.136   0.228  0.5626 -1.4040 -0.4128
 3047TIP3   OH230555   5.508   0.573   2.600  0.4023 -0.0981 -0.5005
 3047TIP3    H130556   5.547   0.519   2.532  6.5134  1.9546  0.7582
 3047TIP3    H230557   5.529   0.528   2.682 -1.6693  0.3521  0.3649
 3048TIP3   OH230558   4.687   2.309  13.794 -0.1652 -0.2059  0.2249
 3048TIP3    H130559   4.739   2.241  13.751 -0.5562 -0.5753  0.3320
 3048TIP3    H230560   4.748   2.352  13.853  0.1436 -0.3117 -0.0134
 3049TIP3   OH230561   0.314   1.205  12.918 -0.3174 -0.0613 -0.1298
 3049TIP3    H130562   0.347   1.270  12.980  1.0320 -1.4715  0.7029
 3049TIP3    H230563   0.309   1.251  12.834  0.4468  1.1490  0.4654
 3050TIP3   OH230564   3.948   3.010   1.761  0.4333 -0.0678  0.2643
 3050TIP3    H130565   3.996   2.927   1.753  0.0508 -0.4674  1.8689
 3050TIP3    H230566   3.909   3.007   1.848  0.2554  1.7274  0.2755
 3051TIP3   OH230567   1.106   3.064   1.845  0.4017 -0.0317  0.4287
 3051TIP3    H130568   1.185   3.089   1.892  1.0857  0.3207 -0.8727
 3051TIP3    H230569   1.041   3.047   1.914  1.4025  0.3414  1.4839
 3052TIP3   OH230570   4.108   3.188  12.522 -0.7020  0.1893  0.3322
 3052TIP3    H130571   4.139   3.192  12.612  2.1376  0.3085 -0.5570
 3052TIP3    H230572   4.140   3.104  12.489  1.1874  1.5079 -1.4513
 3053TIP3   OH230573   6.278   4.619  16.648  0.1305 -0.2747 -0.5567
 3053TIP3    H130574   6.187   4.618  16.616 -0.6816 -0.8167  1.5630
 3053TIP3    H230575   6.314   4.701  16.615 -1.8132  0.9719  0.2042
 3054TIP3   OH230576   0.463   5.674  15.959 -0.1088  0.1616  0.3334
 3054TIP3    H130577   0.541   5.727  15.976  0.8539 -1.2843  0.5276
 3054TIP3    H230578   0.469   5.601  16.021 -0.2779 -1.3515 -1.3716
 3055TIP3   OH230579   1.748   3.327   4.280 -0.3776  0.5157  0.2402
 3055TIP3    H130580   1.727   3.234   4.281 -2.7890  1.0093  0.0604
 3055TIP3    H230581   1.800   3.341   4.360  0.4617 -1.0429 -0.0027
 3056TIP3   OH230582   5.660   0.471  14.348 -0.0740 -0.1406  0.5233
 3056TIP3    H130583   5.753   0.455  14.330 -0.0752 -0.0325  0.4188
 3056TIP3    H230584   5.654   0.566  14.361  0.2839 -0.3945  3.1219
 3057TIP3   OH230585   4.609   3.045  16.667 -0.0396 -0.1614  0.1020
 3057TIP3    H130586   4.652   3.110  16.611 -0.8180  0.6231  0.4065
 3057TIP3    H230587   4.648   2.961  16.640 -1.0118  0.0561 -2.2427
 3058TIP3   OH230588   4.155   6.280  12.139  0.4308 -0.3715 -0.0822
 3058TIP3    H130589   4.215   6.319  12.203 -0.8936  1.1783  0.2725
 3058TIP3    H230590   4.127   6.353  12.084 -2.2315 -0.6851  0.6883
 3059TIP3   OH230591   1.056   6.522  15.007  0.3815  0.0756 -0.1848
 3059TIP3    H130592   0.990   6.591  15.013  0.8706  0.4632  0.8238
 3059TIP3    H230593   1.005   6.441  15.003 -0.1978  0.4613 -1.4172
 3060TIP3   OH230594   6.466   6.174   1.305 -0.3955  0.4215  0.1848
 3060TIP3    H130595   6.417   6.242   1.259  0.5049 -0.1081 -1.6173
 3060TIP3    H230596   6.399   6.124   1.352 -1.2964  1.2107 -0.2320
 3061TIP3   OH230597   0.476   0.405  12.747  0.4202 -0.4753 -0.1688
 3061TIP3    H130598   0.453   0.457  12.824  2.2415 -2.9099  2.2122
 3061TIP3    H230599   0.442   0.318  12.767 -0.0695 -0.9349 -2.7247
 3062TIP3   OH230600   6.524   5.450   1.221  0.2946 -0.2623  0.0686
 3062TIP3    H130601   6.550   5.394   1.148  2.8873 -0.0685  0.7444
 3062TIP3    H230602   6.569   5.412   1.297 -0.2825  1.0235  1.0847
 3063TIP3   OH230603   4.177   1.418  15.391 -0.3593  0.3479 -1.3378
 3063TIP3    H130604   4.211   1.361  15.322 -1.2037  1.0468 -2.3711
 3063TIP3    H230605   4.136   1.491  15.344  0.6866  1.8314 -0.0714
 3064TIP3   OH230606   2.462   4.315  17.240  0.5372 -0.3960  0.0319
 3064TIP3    H130607   2.513   4.235  17.227  0.9255  0.0964 -1.6228
 3064TIP3    H230608   2.384   4.302  17.185  0.5317  0.2916 -0.1272
 3065TIP3   OH230609   4.866   3.471   4.417 -0.2751  0.8733 -0.4126
 3065TIP3    H130610   4.918   3.511   4.487  0.0428 -1.2086  0.6406
 3065TIP3    H230611   4.918   3.396   4.389 -0.6238  1.3958 -2.6026
 3066TIP3   OH230612   3.683   6.057  13.474  0.1541  0.2888 -0.4305
 3066TIP3    H130613   3.594   6.069  13.440 -0.2768  1.9539  1.1083
 3066TIP3    H230614   3.672   6.062  13.569  1.6499 -1.5080 -0.1218
 3067TIP3   OH230615   2.639   0.236  11.929  0.2702  0.0406 -0.3791
 3067TIP3    H130616   2.701   0.196  11.869  0.9414 -1.2070  1.1033
 3067TIP3    H230617   2.560   0.249  11.877  1.7208  1.7341 -2.3325
 3068TIP3   OH230618   4.920   1.384   5.696  0.2751  0.7233  0.0210
 3068TIP3    H130619   4.880   1.361   5.780  0.5200  0.4248  0.0592
 3068TIP3    H230620   5.012   1.400   5.717  0.3717  0.4890 -0.2153
 3069TIP3   OH230621   1.738   0.214  14.860 -0.1693  0.0002  0.3630
 3069TIP3    H130622   1.772   0.296  14.823 -0.5089  0.5228  1.1903
 3069TIP3    H230623   1.810   0.152  14.849  0.6515  0.7951  1.0743
 3070TIP3   OH230624   1.363   0.260   6.176 -0.7575 -0.3003  0.2979
 3070TIP3    H130625   1.309   0.308   6.240 -0.8095  0.8026 -0.5398
 3070TIP3    H230626   1.379   0.324   6.107 -1.7479 -1.8345 -1.4163
 3071TIP3   OH230627   2.996   5.270  15.089 -0.0198 -0.3020 -0.5439
 3071TIP3    H130628   3.072   5.212  15.089 -0.5611 -1.1014  1.5734
 3071TIP3    H230629   2.921   5.212  15.077 -0.3958  0.3794 -1.6816
 3072TIP3   OH230630   2.379   1.585  15.809  0.2211 -0.6758 -0.4134
 3072TIP3    H130631   2.302   1.631  15.776  0.4085 -1.7779 -2.5208
 3072TIP3    H230632   2.449   1.651  15.809 -0.7641  0.4849  2.0418
 3073TIP3   OH230633   1.065   5.595  14.264 -0.4148  0.4570  0.1555
 3073TIP3    H130634   1.041   5.672  14.317 -0.2199 -0.6137  1.8702
 3073TIP3    H230635   1.025   5.521  14.310  2.5477 -0.9089  0.7199
 3074TIP3   OH230636   2.323   3.736   0.084 -0.2665 -0.0746 -0.2747
 3074TIP3    H130637   2.414   3.743   0.113 -0.2316  0.1046 -0.4311
 3074TIP3    H230638   2.296   3.648   0.113 -0.2443  0.1149  0.3327
 3075TIP3   OH230639   5.118   3.940   2.042  0.1617 -0.2384  0.2392
 3075TIP3    H130640   5.191   3.982   2.087 -0.8967  1.5491  0.3969
 3075TIP3    H230641   5.157   3.896   1.967  1.3500  1.1185  0.0241
 3076TIP3   OH230642   1.981   5.681  17.129  0.0976  0.2168 -0.3953
 3076TIP3    H130643   1.904   5.643  17.173 -0.2281  1.6013  0.2560
 3076TIP3    H230644   1.946   5.714  17.046  0.3797 -0.8577 -0.9572
 3077TIP3   OH230645   2.023   6.543   5.465  0.5227 -0.1720 -0.4362
 3077TIP3    H130646   1.954   6.577   5.408  2.2020  1.3751 -1.6672
 3077TIP3    H230647   2.104   6.570   5.423  1.8879  0.7203  2.4788
 3078TIP3   OH230648   5.533   2.456   1.169  0.4705  0.4143 -0.0846
 3078TIP3    H130649   5.586   2.384   1.203  0.2983  0.3443  0.0419
 3078TIP3    H230650   5.595   2.516   1.129  0.4837 -0.7251 -1.9048
 3079TIP3   OH230651   1.003   1.376  11.334 -0.1744  0.6474 -0.1546
 3079TIP3    H130652   0.998   1.448  11.272  0.7829  1.6738  0.9139
 3079TIP3    H230653   1.057   1.409  11.405  0.8834 -1.3685  0.0535
 3080TIP3   OH230654   4.838   6.595  12.504  0.0810  0.3970  0.6884
 3080TIP3    H130655   4.900   6.602  12.431 -0.1931 -0.7026  0.3413
 3080TIP3    H230656   4.858   6.672  12.559  0.2223  1.2896 -0.5689
 3081TIP3   OH230657   1.755   5.092   0.634 -0.0425 -0.0801  0.0269
 3081TIP3    H130658   1.849   5.107   0.621  0.5075 -4.0123 -1.9880
 3081TIP3    H230659   1.720   5.087   0.545 -2.1856  1.0705  0.7471
 3082TIP3   OH230660   2.561   6.649   6.155 -0.2066  0.1252  0.1986
 3082TIP3    H130661   2.528   6.674   6.069 -3.1554 -1.3877  0.7755
 3082TIP3    H230662   2.519   6.710   6.215 -0.1183 -0.3601  0.7635
 3083TIP3   OH230663   6.601   1.692  16.869  0.0229 -0.3257 -0.2970
 3083TIP3    H130664   6.536   1.758  16.894 -1.1782 -1.6341  0.1543
 3083TIP3    H230665   6.574   1.663  16.782  0.0438 -0.8246 -0.1425
 3084TIP3   OH230666   6.099   1.867   1.452  0.5540 -0.3371  0.2516
 3084TIP3    H130667   6.064   1.843   1.366  0.3449 -0.0922  0.2707
 3084TIP3    H230668   6.179   1.814   1.460  0.8799  0.0457 -0.3320
 3085TIP3   OH230669   0.181   1.343  12.173 -0.1696 -0.0106  0.0829
 3085TIP3    H130670   0.206   1.418  12.118  0.3476  0.5944  1.1070
 3085TIP3    H230671   0.127   1.381  12.242  2.8121  0.0944  2.5948
 3086TIP3   OH230672   0.566   5.423   2.676  0.2781 -0.5025 -0.2300
 3086TIP3    H130673   0.580   5.334   2.643 -0.7364 -0.2484 -1.4241
 3086TIP3    H230674   0.580   5.480   2.600  1.2254  0.4016  0.5915
 3087TIP3   OH230675   2.336   2.493  14.453 -0.2211  0.2623  0.1539
 3087TIP3    H130676   2.303   2.413  14.495  1.0547 -0.5710 -0.3530
 3087TIP3    H230677   2.388   2.536  14.520  1.3212 -0.7602 -0.3301
 3088TIP3   OH230678   1.923   1.864   0.789  0.2320 -0.6048  0.2434
 3088TIP3    H130679   2.000   1.898   0.744  0.5487 -0.4036  0.9201
 3088TIP3    H230680   1.949   1.859   0.881 -0.7189 -0.0703  0.5548
 3089TIP3   OH230681   4.597   0.940  14.040 -0.0945  0.0745  0.0792
 3089TIP3    H130682   4.611   0.987  14.122 -0.1876  0.4664 -0.1228
 3089TIP3    H230683   4.681   0.899  14.021  0.2262  0.8076 -0.1375
 3090TIP3   OH230684   4.753   0.353  12.810  0.2650  0.6967 -0.0047
 3090TIP3    H130685   4.736   0.299  12.887  0.4355  2.6886  1.5194
 3090TIP3    H230686   4.809   0.424  12.843 -0.1532  1.9298 -1.8266
 3091TIP3   OH230687   0.271   2.279   2.222 -0.3233 -0.1502  0.3424
 3091TIP3    H130688   0.328   2.355   2.209 -2.7787  1.8999  0.9402
 3091TIP3    H230689   0.203   2.288   2.156 -0.2085 -2.3766 -0.1607
 3092TIP3   OH230690   0.173   0.357   1.653  0.5473 -0.0829 -0.9912
 3092TIP3    H130691   0.098   0.343   1.595 -2.4579  1.4516  2.1749
 3092TIP3    H230692   0.165   0.288   1.719  2.3206 -0.2218 -0.8898
 3093TIP3   OH230693   0.422   2.265  11.833 -0.0487  0.2055 -0.2724
 3093TIP3    H130694   0.453   2.254  11.743 -1.0285 -1.6898 -0.4241
 3093TIP3    H230695   0.470   2.198  11.882  0.5031  1.2490  0.6581
 3094TIP3   OH230696   6.057   4.732  10.751  0.2285  0.5466 -0.3609
 3094TIP3    H130697   5.977   4.784  10.738 -0.8572 -1.1641 -0.9186
 3094TIP3    H230698   6.030   4.663  10.811  1.7452  0.8043  0.6617
 3095TIP3   OH230699   2.658   5.658   3.242 -0.4283 -0.0489 -0.0775
 3095TIP3    H130700   2.583   5.607   3.210 -1.8907  0.9253  1.6412
 3095TIP3    H230701   2.624   5.747   3.251  0.8844  0.3709  0.9853
 3096TIP3   OH230702   4.267   6.220  14.479 -0.2537 -0.0826 -0.0660
 3096TIP3    H130703   4.361   6.237  14.474 -0.2687 -0.2428 -0.9260
 3096TIP3    H230704   4.260   6.150  14.544  0.4849 -1.8743 -1.8088
 3097TIP3   OH230705   3.389   5.192   0.808 -0.2727 -0.3599 -0.4130
 3097TIP3    H130706   3.479   5.208   0.837  0.5819 -0.2057 -2.8860
 3097TIP3    H230707   3.396   5.187   0.713 -3.1495  1.3475 -0.8162
 3098TIP3   OH230708   4.025   0.066  12.563  0.2627 -0.3766 -0.2211
 3098TIP3    H130709   4.070   0.016  12.630 -1.8817 -0.7609  1.0455
 3098TIP3    H230710   3.936   0.078  12.598  0.0211  2.2973 -1.5177
 3099TIP3   OH230711   4.167   1.472   4.286 -0.4851 -0.5065 -0.3751
 3099TIP3    H130712   4.244   1.428   4.322 -0.9877 -0.6041  0.6220
 3099TIP3    H230713   4.168   1.450   4.193  1.4644  0.6564 -0.6787
 3100TIP3   OH230714   2.590   4.968   2.258 -0.2740 -0.6997 -0.1434
 3100TIP3    H130715   2.609   4.949   2.350 -0.6973  0.8750  0.2953
 3100TIP3    H230716   2.677   4.971   2.216  0.0640  0.4102  0.6005
 3101TIP3   OH230717   1.609   3.029  16.296  0.8975 -0.4559  0.5468
 3101TIP3    H130718   1.652   3.103  16.340  0.9777  0.3235 -0.7589
 3101TIP3    H230719   1.546   2.996  16.359  3.2399 -1.5138  2.4772
 3102TIP3   OH230720   3.413   5.920  14.869 -0.5356  0.2851 -0.0726
 3102TIP3    H130721   3.381   5.990  14.812  2.6573  0.3851 -2.0147
 3102TIP3    H230722   3.396   5.840  14.821 -0.0320  0.1414 -0.0140
 3103TIP3   OH230723   3.442   5.580   2.198 -0.3884  0.3967 -0.4048
 3103TIP3    H130724   3.473   5.538   2.278 -0.1390  0.1924 -0.6102
 3103TIP3    H230725   3.516   5.577   2.138 -0.8201 -0.1480 -0.9138
 3104TIP3   OH230726   6.527   1.745   5.062 -0.0111 -0.0728 -0.1155
 3104TIP3    H130727   6.443   1.780   5.091  1.3397  1.7938  1.8368
 3104TIP3    H230728   6.575   1.821   5.028  1.2366 -0.9220 -0.3279
 3105TIP3   OH230729   3.441   3.568   0.890 -0.4341  0.8663  0.0987
 3105TIP3    H130730   3.448   3.569   0.986 -1.0159 -0.3464  0.1661
 3105TIP3    H230731   3.497   3.641   0.862  0.4371  0.7006  1.3124
 3106TIP3   OH230732   2.262   3.156   2.347  0.3274  0.5693 -0.2927
 3106TIP3    H130733   2.298   3.070   2.372  0.5587  0.4262 -1.0865
 3106TIP3    H230734   2.176   3.136   2.310  0.4708  0.6497 -0.6783
 3107TIP3   OH230735   1.171   0.913   3.330  0.3684  0.1794  0.6973
 3107TIP3    H130736   1.095   0.926   3.274  0.2757 -0.8848  0.5426
 3107TIP3    H230737   1.170   0.819   3.349  0.6876  0.4380  2.0758
 3108TIP3   OH230738   1.126   4.877   2.558  0.0742 -0.0163  0.1196
 3108TIP3    H130739   1.174   4.952   2.522 -1.1556  0.7133 -0.0373
 3108TIP3    H230740   1.129   4.890   2.653  0.4711 -0.1714  0.1339
 3109TIP3   OH230741   2.745   2.084   4.517  0.5048  0.8873 -0.0563
 3109TIP3    H130742   2.691   2.136   4.458 -0.1508  2.0049  1.4886
 3109TIP3    H230743   2.735   1.994   4.486 -1.3068  1.2188 -0.5116
 3110TIP3   OH230744   4.670   6.264   4.230  0.0974  0.9346  0.2033
 3110TIP3    H130745   4.594   6.299   4.276  0.8352  1.1508  1.3226
 3110TIP3    H230746   4.709   6.340   4.187 -1.4043  0.4933 -2.0718
 3111TIP3   OH230747   2.374   0.657  15.313 -0.4007  0.2141 -0.2006
 3111TIP3    H130748   2.391   0.569  15.344  0.1538  0.2859 -0.2937
 3111TIP3    H230749   2.342   0.645  15.223 -1.3576  0.0513  0.1430
 3112TIP3   OH230750   0.060   0.163   0.965  0.2152 -0.1015  0.1436
 3112TIP3    H130751   0.094   0.098   0.904 -0.2654 -2.4623  2.2331
 3112TIP3    H230752  -0.026   0.129   0.991  0.8481  0.1618  2.9111
 3113TIP3   OH230753   2.896   3.307  15.298 -0.0109  0.1568 -0.3581
 3113TIP3    H130754   2.983   3.289  15.333 -0.1010 -2.0019 -1.0729
 3113TIP3    H230755   2.903   3.394  15.258  1.9659 -0.1996 -0.8723
 3114TIP3   OH230756   0.077   1.085   5.482  0.0832 -0.7673 -0.3023
 3114TIP3    H130757   0.148   1.074   5.546  0.5045 -0.6654 -0.7523
 3114TIP3    H230758   0.093   1.170   5.442 -1.8328  0.5526  1.5024
 3115TIP3   OH230759   6.204   4.362   3.635  0.2435 -0.6803  0.1546
 3115TIP3    H130760   6.218   4.446   3.680  0.3388 -0.0903 -0.9283
 3115TIP3    H230761   6.278   4.308   3.660  0.9706  0.0843 -0.2776
 3116TIP3   OH230762   2.482   6.565   1.807  0.5194 -0.3580 -0.1051
 3116TIP3    H130763   2.465   6.599   1.719  1.1437  1.1075  0.3199
 3116TIP3    H230764   2.399   6.526   1.834  0.2674 -0.6677 -1.2596
 3117TIP3   OH230765   4.406   6.357   2.188 -0.3003 -0.0943 -0.3479
 3117TIP3    H130766   4.328   6.333   2.238 -0.2766 -3.1697 -1.5668
 3117TIP3    H230767   4.477   6.354   2.253 -0.9152  0.8643  0.3894
 3118TIP3   OH230768   5.471   3.670   0.048  0.3183 -0.0743 -0.2355
 3118TIP3    H130769   5.476   3.608   0.120  1.2960 -0.1919 -0.3987
 3118TIP3    H230770   5.510   3.750   0.083  1.9051 -0.4834 -0.9885
 3119TIP3   OH230771   2.903   6.033  14.550 -0.1716 -0.0595  1.1274
 3119TIP3    H130772   2.879   6.030  14.642 -0.2936  0.4380  1.1112
 3119TIP3    H230773   2.828   5.995  14.504  0.4907 -1.7136  1.3315
 3120TIP3   OH230774   3.409   0.616   2.759 -0.4581  0.5566 -0.0255
 3120TIP3    H130775   3.484   0.599   2.816 -0.3967  1.2700  0.1047
 3120TIP3    H230776   3.381   0.529   2.730  2.4307  0.3670 -2.6867
 3121TIP3   OH230777   0.779   6.266   0.659  0.0964 -0.0898  0.0794
 3121TIP3    H130778   0.873   6.253   0.665  0.1863  0.8861  1.0568
 3121TIP3    H230779   0.769   6.360   0.642 -0.6442 -0.5284 -2.3183
 3122TIP3   OH230780   6.550   3.340   2.120 -0.8653 -0.4461 -0.3080
 3122TIP3    H130781   6.490   3.381   2.182  0.3089 -2.7150  2.5561
 3122TIP3    H230782   6.632   3.331   2.167  0.5773 -1.0340 -2.7274
 3123TIP3   OH230783   3.462   4.754  12.836  0.1258  0.6426  0.1970
 3123TIP3    H130784   3.557   4.758  12.838  0.1486  0.0624  0.3753
 3123TIP3    H230785   3.435   4.773  12.926  0.1423 -0.7421  0.5091
 3124TIP3   OH230786   1.108   1.910   4.452 -0.4693  0.7262 -0.4555
 3124TIP3    H130787   1.160   1.836   4.484  0.6512  2.3810  1.8035
 3124TIP3    H230788   1.159   1.945   4.379  0.3645  0.8311  0.1598
 3125TIP3   OH230789   2.706   1.584  14.822  0.4309  0.6032  0.8144
 3125TIP3    H130790   2.707   1.571  14.917 -0.2910 -0.2670  0.7198
 3125TIP3    H230791   2.701   1.495  14.786  1.3452  0.8860 -0.0650
 3126TIP3   OH230792   6.688   2.747  12.274 -0.1208 -0.2710  0.1219
 3126TIP3    H130793   6.777   2.730  12.244  0.1682  0.7093  0.4015
 3126TIP3    H230794   6.661   2.665  12.316  0.7325 -0.5019  0.2354
 3127TIP3   OH230795   0.370   6.715  13.802  0.7852  0.3454 -0.2791
 3127TIP3    H130796   0.421   6.694  13.724  1.9604  4.1886 -0.7566
 3127TIP3    H230797   0.326   6.797  13.780 -1.6188 -0.2161  1.9645
 3128TIP3   OH230798   5.385   0.157   5.380 -0.0948  0.1008 -0.4980
 3128TIP3    H130799   5.321   0.100   5.337  1.1668 -2.0285  0.3305
 3128TIP3    H230800   5.469   0.131   5.343  0.4129  2.6693 -1.3707
 3129TIP3   OH230801   4.070   3.918  14.250 -0.8657  0.0477  0.1252
 3129TIP3    H130802   3.996   3.953  14.300 -0.4820  0.2234  0.5824
 3129TIP3    H230803   4.074   3.973  14.171 -1.1093  0.1535  0.1876
 3130TIP3   OH230804   2.235   2.525  16.017 -0.1276 -0.1261  0.0896
 3130TIP3    H130805   2.142   2.545  16.032  0.1200 -0.0180  1.7669
 3130TIP3    H230806   2.260   2.473  16.094  1.1035 -0.4741 -0.5340
 3131TIP3   OH230807   2.373   2.572  12.221 -0.7218 -0.0061  0.0522
 3131TIP3    H130808   2.290   2.530  12.243 -0.1116 -0.9905  0.5867
 3131TIP3    H230809   2.398   2.619  12.301 -1.8569  2.2297 -0.8367
 3132TIP3   OH230810   4.923   3.147   0.260 -0.1036  0.3133 -0.4597
 3132TIP3    H130811   4.915   3.214   0.328  0.2940  1.0299 -1.1048
 3132TIP3    H230812   4.833   3.127   0.235 -0.2378  0.3071  0.0302
 3133TIP3   OH230813   1.541   5.442   0.057  0.2791  0.3828 -0.7022
 3133TIP3    H130814   1.501   5.523   0.027  0.0693  0.9257  0.9476
 3133TIP3    H230815   1.504   5.427   0.143  0.8794 -1.0824 -0.6643
 3134TIP3   OH230816   5.960   3.297   3.885  0.0543  0.0129  0.3705
 3134TIP3    H130817   5.880   3.266   3.926  0.8136 -0.8484  1.2572
 3134TIP3    H230818   6.029   3.276   3.948  0.7910  2.3910  0.4520
 3135TIP3   OH230819   1.625   3.900  15.679  0.2434  0.1691 -0.7583
 3135TIP3    H130820   1.588   3.987  15.665 -0.0768  0.5517  1.9729
 3135TIP3    H230821   1.719   3.912  15.662  0.1048  0.8847 -1.0642
 3136TIP3   OH230822   2.313   6.061  12.231 -0.1669  0.3135 -0.3344
 3136TIP3    H130823   2.260   6.130  12.271  0.4814 -0.2828  1.6671
 3136TIP3    H230824   2.251   5.989  12.217 -0.5858  0.8414 -1.2763
 3137TIP3   OH230825   2.771   1.857   2.735 -0.3929  0.0851 -0.6621
 3137TIP3    H130826   2.684   1.893   2.748 -0.4337 -0.0089 -0.6758
 3137TIP3    H230827   2.793   1.879   2.644 -0.8873 -0.9213 -1.0452
 3138TIP3   OH230828   5.234   2.258   4.549  0.0246  0.1108  0.7714
 3138TIP3    H130829   5.197   2.259   4.637 -2.3660 -1.6011 -0.1090
 3138TIP3    H230830   5.272   2.346   4.538 -2.1045  1.3396  2.4899
 3139TIP3   OH230831   5.114   6.732   5.548 -0.7099  0.4228  0.0606
 3139TIP3    H130832   5.140   6.752   5.458 -1.0433  1.4800  0.1922
 3139TIP3    H230833   5.063   6.651   5.540  0.3120 -0.1924 -0.5321
 3140TIP3   OH230834   3.168   4.535   2.445 -0.3647 -0.6107  0.4930
 3140TIP3    H130835   3.133   4.502   2.362  0.5568 -2.2598  0.7267
 3140TIP3    H230836   3.148   4.467   2.509  0.5662 -0.2030  1.2411
 3141TIP3   OH230837   0.508   6.733   1.408 -0.5220  0.1720 -0.0830
 3141TIP3    H130838   0.507   6.677   1.330  0.9877  0.6558 -0.4822
 3141TIP3    H230839   0.559   6.683   1.472  0.7824  1.0278 -0.4230
 3142TIP3   OH230840   4.759   6.537  14.062  0.2520  0.2696  0.3420
 3142TIP3    H130841   4.747   6.474  13.990  1.3472 -0.9010  1.1477
 3142TIP3    H230842   4.670   6.566  14.082 -0.2918 -1.0165 -0.0651
 3143TIP3   OH230843   1.633   6.136   1.179 -0.4138 -0.0139  0.0812
 3143TIP3    H130844   1.706   6.083   1.147 -1.7904 -1.2903 -1.0960
 3143TIP3    H230845   1.674   6.199   1.238  1.8433  0.3739 -1.7495
 3144TIP3   OH230846   2.300   4.866   3.087 -0.2650  0.1636  0.3196
 3144TIP3    H130847   2.315   4.814   3.166  1.9330 -1.8589 -1.2952
 3144TIP3    H230848   2.345   4.949   3.104  0.0307 -0.1772  1.2729
 3145TIP3   OH230849   1.053   2.017  17.146  0.0503 -0.2499 -0.4398
 3145TIP3    H130850   1.081   1.982  17.061 -1.0076 -1.1132 -0.4459
 3145TIP3    H230851   0.958   2.023  17.140 -0.1623 -1.5089  1.1208
 3146TIP3   OH230852   6.588   0.265   5.138 -0.6178 -0.6592 -0.9081
 3146TIP3    H130853   6.676   0.281   5.105 -0.3832 -0.3478 -0.1672
 3146TIP3    H230854   6.599   0.197   5.204 -0.9504 -0.7077 -0.8994
 3147TIP3   OH230855   2.587   1.149   1.345 -0.2552  0.3673 -0.2506
 3147TIP3    H130856   2.629   1.220   1.393  1.8225 -1.2496  0.4572
 3147TIP3    H230857   2.653   1.120   1.282 -1.3728 -0.3793 -1.1345
 3148TIP3   OH230858   3.043   0.299  16.683  0.0857  0.2203 -0.0707
 3148TIP3    H130859   3.132   0.304  16.716 -0.0440  0.2040  0.2833
 3148TIP3    H230860   3.023   0.205  16.682 -0.3260  0.2932  0.9246
 3149TIP3   OH230861   5.934   4.390  13.452 -0.5261  0.0679 -0.1320
 3149TIP3    H130862   5.914   4.359  13.363 -0.1209  0.0318 -0.2112
 3149TIP3    H230863   6.026   4.366  13.466 -0.3429  0.8029 -0.0112
 3150TIP3   OH230864   4.534   4.548  13.302 -0.2919  0.8603 -0.2261
 3150TIP3    H130865   4.526   4.637  13.267 -1.3603  0.7544 -0.3092
 3150TIP3    H230866   4.449   4.508  13.281 -0.4220  0.3358  1.2390
 3151TIP3   OH230867   1.921   5.363  17.269 -0.3595 -0.5482  0.7466
 3151TIP3    H130868   1.911   5.313  17.350  0.1499 -2.7763 -0.5096
 3151TIP3    H230869   1.838   5.352  17.223  0.6546 -2.5007 -0.7188
 3152TIP3   OH230870   1.619   1.343   5.281  0.3005 -0.2480  0.0837
 3152TIP3    H130871   1.698   1.290   5.295  0.2932  0.0559  1.4250
 3152TIP3    H230872   1.593   1.324   5.191  2.1998  0.0537 -0.5743
 3153TIP3   OH230873   3.397   5.659  14.766  0.0583 -0.3453 -0.0082
 3153TIP3    H130874   3.404   5.576  14.813 -1.4971 -0.1549  0.6160
 3153TIP3    H230875   3.307   5.660  14.733  0.0704  1.0638 -0.0495
 3154TIP3   OH230876   4.035   3.568  14.887 -0.2774  0.6639  0.1594
 3154TIP3    H130877   3.943   3.558  14.864  0.2433  0.9227 -2.3452
 3154TIP3    H230878   4.081   3.511  14.825  1.3320  1.8023  0.2577
 3155TIP3   OH230879   4.873   0.174   0.779  0.2950  0.0630 -0.0700
 3155TIP3    H130880   4.834   0.203   0.696  1.5575 -0.4500 -0.8693
 3155TIP3    H230881   4.809   0.113   0.816 -0.8103  1.1710 -0.0688
 3156TIP3   OH230882   2.144   1.287  14.064  0.1014 -0.4045 -0.4893
 3156TIP3    H130883   2.173   1.239  14.142 -0.1797  0.7217  0.3329
 3156TIP3    H230884   2.081   1.228  14.022 -0.9557 -0.4070  1.0111
 3157TIP3   OH230885   0.795   5.625  15.810  0.2944  0.2665  0.0307
 3157TIP3    H130886   0.780   5.703  15.863  0.8933  0.8522 -0.6319
 3157TIP3    H230887   0.881   5.641  15.770 -0.5210  0.2603 -1.8053
 3158TIP3   OH230888   1.417   2.546  11.492  0.6686  0.1569  0.3236
 3158TIP3    H130889   1.345   2.577  11.437  1.9415  0.1639 -1.4570
 3158TIP3    H230890   1.378   2.530  11.577 -1.1089  1.5998 -0.1642
 3159TIP3   OH230891   5.827   1.748  11.479  0.2562  0.0056 -0.5014
 3159TIP3    H130892   5.775   1.734  11.400 -0.3169 -0.1009 -0.1061
 3159TIP3    H230893   5.892   1.677  11.478 -0.2973 -0.5064 -0.4321
 3160TIP3   OH230894   2.093   2.662  14.755  0.4043 -0.5569  0.6449
 3160TIP3    H130895   2.033   2.623  14.819  1.0807  0.3015  1.8327
 3160TIP3    H230896   2.048   2.652  14.671 -0.5006 -1.7164  1.2412
 3161TIP3   OH230897   2.387   2.131   1.225  0.1031 -0.0841 -0.4305
 3161TIP3    H130898   2.441   2.196   1.180  1.8006 -2.1666 -1.6088
 3161TIP3    H230899   2.405   2.146   1.318  1.7212  0.1431 -0.7424
 3162TIP3   OH230900   5.515   2.382  14.638 -0.1714  0.4062  0.0970
 3162TIP3    H130901   5.484   2.342  14.558 -0.1596  0.2371  0.1773
 3162TIP3    H230902   5.438   2.426  14.675 -0.4550 -0.4870  0.5884
 3163TIP3   OH230903   3.299   6.024   5.473  0.3339 -0.6872  0.0761
 3163TIP3    H130904   3.344   6.037   5.389  0.8356 -1.4861  0.2103
 3163TIP3    H230905   3.323   5.935   5.499  2.7454  0.5496  2.5632
 3164TIP3   OH230906   4.021   5.409   2.878 -0.1641 -0.5674 -0.8023
 3164TIP3    H130907   3.944   5.353   2.874  0.0814 -1.1310  1.2689
 3164TIP3    H230908   4.018   5.448   2.965  2.2306 -1.1274 -0.4027
 3165TIP3   OH230909   5.649   2.928   2.664 -0.5680 -0.1650 -0.5973
 3165TIP3    H130910   5.594   2.854   2.641 -0.6184  0.3126 -2.1142
 3165TIP3    H230911   5.632   2.993   2.595  1.7722  0.0583 -1.0458
 3166TIP3   OH230912   0.692   2.057   4.394 -0.2614 -0.4291  0.1396
 3166TIP3    H130913   0.633   2.032   4.323 -1.7395 -1.3591  1.6233
 3166TIP3    H230914   0.701   2.152   4.385 -1.9966 -0.2483 -0.1624
 3167TIP3   OH230915   6.256   3.109   4.878  0.1508  0.1181  0.4022
 3167TIP3    H130916   6.165   3.089   4.855 -0.0047  1.4235 -0.2329
 3167TIP3    H230917   6.251   3.192   4.924  0.9372 -0.3087  1.2762
 3168TIP3   OH230918   0.164   1.573  16.691  0.2245  0.0025 -0.0883
 3168TIP3    H130919   0.239   1.581  16.631  0.7266 -1.8667  0.2291
 3168TIP3    H230920   0.203   1.553  16.776 -0.5795  0.6725  0.4477
 3169TIP3   OH230921   1.014   2.321   1.940 -0.0905 -0.5927 -0.3385
 3169TIP3    H130922   0.983   2.317   2.031 -0.1146 -0.4946 -0.3427
 3169TIP3    H230923   0.935   2.305   1.888 -0.5760  1.7298 -0.4146
 3170TIP3   OH230924   4.016   1.032   6.879 -0.5206 -0.9118 -0.4633
 3170TIP3    H130925   4.003   1.035   6.784  0.3445 -0.6861 -0.5861
 3170TIP3    H230926   3.980   0.948   6.906 -0.0647 -1.3293 -1.1196
 3171TIP3   OH230927   4.037   0.889   2.834  0.0323 -0.2386  0.0056
 3171TIP3    H130928   3.960   0.860   2.785  1.0649 -3.5263  0.0956
 3171TIP3    H230929   4.002   0.918   2.918 -1.3972  1.9329 -1.2474
 3172TIP3   OH230930   1.470   2.779   4.249  0.2480  0.0692 -0.3941
 3172TIP3    H130931   1.375   2.779   4.259  0.3343  1.6597  0.9897
 3172TIP3    H230932   1.498   2.698   4.291 -0.3656  0.8588  1.7198
 3173TIP3   OH230933   3.872   4.116  17.004  0.2116 -0.0184 -0.8979
 3173TIP3    H130934   3.796   4.113  17.063  0.8190 -0.7462 -0.1377
 3173TIP3    H230935   3.907   4.027  17.005  1.0804  0.3074 -1.2433
 3174TIP3   OH230936   5.060   5.950   3.676 -0.0628  0.0390  0.4350
 3174TIP3    H130937   5.073   5.874   3.733  2.9714  1.2174  1.5012
 3174TIP3    H230938   5.115   5.932   3.600 -1.5206 -0.0326 -0.6374
 3175TIP3   OH230939   1.685   4.350  11.936  0.0939  0.1637 -0.5646
 3175TIP3    H130940   1.631   4.419  11.974  0.9742  1.6568 -1.8871
 3175TIP3    H230941   1.759   4.343  11.996 -1.1214 -1.3390  0.8322
 3176TIP3   OH230942   6.214   5.525  17.366  0.2441  0.5423 -0.0398
 3176TIP3    H130943   6.148   5.580  17.408 -1.4858 -2.4520  1.4906
 3176TIP3    H230944   6.165   5.474  17.302  1.7118  0.4435 -1.1314
 3177TIP3   OH230945   4.118   1.829  11.593  0.1044 -0.2643 -0.2441
 3177TIP3    H130946   4.047   1.789  11.544  2.3746 -2.5920 -1.8178
 3177TIP3    H230947   4.141   1.765  11.660  1.2020  0.1250 -0.2225
 3178TIP3   OH230948   6.028   4.629  16.515 -0.2375 -0.5776 -0.3300
 3178TIP3    H130949   5.965   4.562  16.492  0.9916 -1.0608 -2.6748
 3178TIP3    H230950   6.042   4.678  16.433 -0.4481  2.0225  1.0651
 3179TIP3   OH230951   6.543   2.055  17.062 -0.0903 -0.4586  0.2117
 3179TIP3    H130952   6.512   2.045  16.971  0.2966 -0.7133  0.1043
 3179TIP3    H230953   6.559   1.965  17.091  2.0017 -0.2849 -0.2427
 3180TIP3   OH230954   3.603   3.393  11.405 -0.2494 -0.1948 -0.3557
 3180TIP3    H130955   3.617   3.487  11.416 -1.4119  0.0081 -0.4766
 3180TIP3    H230956   3.558   3.365  11.485 -0.1644 -0.5911 -0.4411
 3181TIP3   OH230957   6.204   3.949  15.513  0.8075  0.1279 -0.1714
 3181TIP3    H130958   6.185   3.958  15.606 -1.3997  0.6918 -0.6307
 3181TIP3    H230959   6.220   3.856  15.501  1.3163  0.0758  0.7857
 3182TIP3   OH230960   6.004   1.956   0.595  0.1621 -0.1012 -0.1393
 3182TIP3    H130961   6.062   1.888   0.560  1.5050  1.1818 -0.5106
 3182TIP3    H230962   6.048   1.986   0.675  0.0726  0.9359 -0.4606
 3183TIP3   OH230963   3.926   0.451  17.181  0.4679  0.1145  0.0969
 3183TIP3    H130964   3.985   0.392  17.133  0.2455 -2.1235  2.3554
 3183TIP3    H230965   3.980   0.528  17.199  1.7450 -0.6111 -0.4242
 3184TIP3   OH230966   2.698   4.203   1.063 -0.0331 -0.1181 -0.3535
 3184TIP3    H130967   2.665   4.199   1.152 -1.5260 -0.2158 -0.8818
 3184TIP3    H230968   2.697   4.112   1.033  1.6382 -0.2576 -0.0935
 3185TIP3   OH230969   1.133   1.041   2.344 -0.2118  0.1977  0.8130
 3185TIP3    H130970   1.134   1.026   2.438 -1.5264  0.2478  0.8604
 3185TIP3    H230971   1.224   1.060   2.321 -0.1285  1.9041  2.3444
 3186TIP3   OH230972   5.589   5.289   2.378 -0.4686  0.7845 -0.1620
 3186TIP3    H130973   5.633   5.359   2.330  1.0895  0.5402  0.8541
 3186TIP3    H230974   5.533   5.246   2.313 -0.5916  2.2462 -1.0552
 3187TIP3   OH230975   0.724   1.365   5.944  0.4100 -0.1294  0.4442
 3187TIP3    H130976   0.632   1.347   5.963  0.4459 -0.9073 -0.0819
 3187TIP3    H230977   0.725   1.389   5.851  0.7153  0.0929  0.5037
 3188TIP3   OH230978   4.347   1.419  14.421 -0.2127  0.6416  0.4876
 3188TIP3    H130979   4.304   1.355  14.365  0.0185  1.5871 -0.8004
 3188TIP3    H230980   4.418   1.455  14.368 -1.4349  3.2540  0.4490
 3189TIP3   OH230981   3.545   2.358   5.026  0.6897 -0.7700  0.2502
 3189TIP3    H130982   3.552   2.388   4.935  0.7562  0.9001  0.7628
 3189TIP3    H230983   3.493   2.425   5.069  0.1151 -1.8703  1.3192
 3190TIP3   OH230984   5.300   0.700  12.530  0.0775  0.3028 -0.3541
 3190TIP3    H130985   5.347   0.765  12.583 -2.2958  0.3972  1.8217
 3190TIP3    H230986   5.263   0.751  12.458  0.5394  0.8445 -0.2183
 3191TIP3   OH230987   3.272   4.540  14.542  0.3070 -0.3171 -0.6514
 3191TIP3    H130988   3.269   4.500  14.629 -1.4023 -0.3376 -0.6801
 3191TIP3    H230989   3.339   4.490  14.495 -0.6443 -2.1224 -0.1719
 3192TIP3   OH230990   3.330   5.297   3.122 -0.0910  0.2775 -0.4708
 3192TIP3    H130991   3.340   5.379   3.074 -0.6300  0.0547 -0.9713
 3192TIP3    H230992   3.363   5.230   3.063  0.1971  0.1084 -0.1265
 3193TIP3   OH230993   0.882   5.432  12.689  0.0969 -0.3814 -0.3028
 3193TIP3    H130994   0.975   5.452  12.704  0.2144  0.6404 -2.0072
 3193TIP3    H230995   0.835   5.507  12.726 -0.1919 -1.5521  1.8144
 3194TIP3   OH230996   5.580   4.717   2.364 -0.6292  0.2627 -0.4952
 3194TIP3    H130997   5.581   4.628   2.328 -1.8659  0.5053 -1.1999
 3194TIP3    H230998   5.630   4.711   2.445  0.7605 -0.6958 -1.3809
 3195TIP3   OH230999   3.937   6.318   0.525 -0.4560 -0.0542 -0.1583
 3195TIP3    H131000   3.916   6.364   0.606 -0.4031 -1.9217  0.9805
 3195TIP3    H231001   3.857   6.322   0.473 -1.2496 -0.7362  0.9651
 3196TIP3   OH231002   4.357   3.943  14.324  0.1613 -0.1006  0.2338
 3196TIP3    H131003   4.268   3.908  14.335 -0.7634  1.7510 -0.9402
 3196TIP3    H231004   4.366   4.007  14.394  0.7610 -0.6076  0.6272
 3197TIP3   OH231005   4.916   4.418   6.523 -0.4771 -0.6216 -0.3051
 3197TIP3    H131006   4.939   4.330   6.494  0.9949 -0.0108 -1.1186
 3197TIP3    H231007   4.871   4.457   6.448 -0.4173 -0.4243 -0.2402
 3198TIP3   OH231008   4.001   2.458  16.266 -0.1436  0.9034  0.0930
 3198TIP3    H131009   4.024   2.380  16.316 -0.9518  0.2500 -0.5191
 3198TIP3    H231010   4.054   2.451  16.186 -1.6378 -0.0903 -0.8691
 3199TIP3   OH231011   2.243   4.132   4.101  0.2703 -0.2969  0.0992
 3199TIP3    H131012   2.318   4.124   4.043 -0.2153 -0.0383 -0.5870
 3199TIP3    H231013   2.193   4.051   4.088  0.7904 -0.8022  1.1038
 3200TIP3   OH231014   4.634   3.598   2.010 -1.1402 -0.2526 -0.1044
 3200TIP3    H131015   4.621   3.573   1.919  0.3007 -0.3766 -0.2937
 3200TIP3    H231016   4.729   3.603   2.021 -1.2958  0.5250  1.1825
 3201TIP3   OH231017   1.687   6.527   1.900 -0.5711  0.4675 -0.2972
 3201TIP3    H131018   1.775   6.495   1.884 -0.2743  1.2219 -0.1906
 3201TIP3    H231019   1.632   6.448   1.899  0.2502 -0.1429  0.7257
 3202TIP3   OH231020   6.755   4.720  14.390  0.1423  0.3929  0.1603
 3202TIP3    H131021   6.847   4.693  14.391 -0.4100 -1.6568  0.1290
 3202TIP3    H231022   6.723   4.700  14.478 -1.6034 -4.2913 -1.2514
 3203TIP3   OH231023   0.318   6.159  11.945 -0.2586  0.5910 -0.3596
 3203TIP3    H131024   0.328   6.109  12.027 -1.0014  2.3062  0.8343
 3203TIP3    H231025   0.228   6.143  11.918 -0.4980  1.2701  0.0267
 3204TIP3   OH231026   2.121   5.779   4.896  0.1909 -0.6666 -0.3225
 3204TIP3    H131027   2.074   5.848   4.942  0.6568 -1.2687  1.1280
 3204TIP3    H231028   2.059   5.744   4.833 -0.7312 -0.3256  0.3866
 3205TIP3   OH231029   1.420   5.891   1.045 -0.1874 -0.0738  0.4109
 3205TIP3    H131030   1.464   5.919   0.964 -0.2697 -1.4645 -0.1451
 3205TIP3    H231031   1.327   5.895   1.024 -0.1892 -1.1568  0.1694
 3206TIP3   OH231032   3.906   1.178   7.113  0.4854  0.6388 -0.3405
 3206TIP3    H131033   3.959   1.149   7.188  0.1024 -0.5568 -0.5146
 3206TIP3    H231034   3.947   1.138   7.037 -0.4558 -0.0439 -0.5123
 3207TIP3   OH231035   6.754   5.273   2.300 -0.0055  0.4346 -0.2565
 3207TIP3    H131036   6.830   5.327   2.322  1.5584 -1.4916 -0.6069
 3207TIP3    H231037   6.746   5.213   2.374  0.7513 -1.3399 -1.5402
 3208TIP3   OH231038   5.460   2.409  15.858 -0.1118 -0.4667  0.1392
 3208TIP3    H131039   5.508   2.403  15.776  1.8824 -1.0869  1.3000
 3208TIP3    H231040   5.426   2.498  15.860  1.3509  0.1337 -0.5473
 3209TIP3   OH231041   6.345   0.315   6.794  0.0758  0.2551 -0.0488
 3209TIP3    H131042   6.349   0.343   6.886  0.3947 -0.9726  0.3275
 3209TIP3    H231043   6.290   0.381   6.752 -1.2103  0.1081  1.3024
 3210TIP3   OH231044   2.854   2.739   3.031  0.1489  0.8757 -0.1287
 3210TIP3    H131045   2.759   2.743   3.020  0.1646 -0.6187 -1.0634
 3210TIP3    H231046   2.888   2.798   2.964 -0.0962  0.5359 -0.5589
 3211TIP3   OH231047   2.689   0.015  10.762 -0.0410  0.1209 -0.0405
 3211TIP3    H131048   2.721  -0.016  10.677 -0.4711  0.5982 -0.3768
 3211TIP3    H231049   2.768   0.021  10.815  0.1767 -0.6284 -0.2559
 3212TIP3   OH231050   4.466   4.247   5.625 -0.1041 -0.2294 -1.2376
 3212TIP3    H131051   4.468   4.278   5.534 -0.0194 -1.5177 -1.6921
 3212TIP3    H231052   4.547   4.196   5.634 -1.4963 -2.5590 -1.3517
 3213TIP3   OH231053   0.840   4.530  13.814  0.1783 -0.2732 -0.1591
 3213TIP3    H131054   0.887   4.594  13.761  0.2374  0.2380  0.4855
 3213TIP3    H231055   0.748   4.542  13.791  0.3665 -1.4594 -1.6172
 3214TIP3   OH231056   0.673   2.546  13.863  0.1767 -0.0601  0.3546
 3214TIP3    H131057   0.747   2.503  13.822  0.9966 -2.0970  3.6012
 3214TIP3    H231058   0.685   2.639  13.843  2.3356 -0.5835 -1.0648
 3215TIP3   OH231059   1.668   3.742   2.137 -0.0241 -0.0207  0.0566
 3215TIP3    H131060   1.733   3.810   2.116  0.9450 -0.9598 -0.0663
 3215TIP3    H231061   1.714   3.660   2.120 -0.9479 -0.7201  0.8879
 3216TIP3   OH231062   0.695   6.053  11.370  0.0405  0.2041  0.3130
 3216TIP3    H131063   0.731   5.978  11.418 -0.9599 -1.0562 -0.8090
 3216TIP3    H231064   0.634   6.094  11.430  0.4166 -0.0340  0.8638
 3217TIP3   OH231065   1.728   4.037   1.749 -0.5154  0.5695 -0.0951
 3217TIP3    H131066   1.797   4.069   1.691 -2.0078 -0.1037 -2.3635
 3217TIP3    H231067   1.742   4.084   1.831  2.8292  0.1927 -0.3128
 3218TIP3   OH231068   2.144   2.439  15.463  0.7187 -0.5194  0.3791
 3218TIP3    H131069   2.089   2.516  15.456  2.4140  0.8045  0.9957
 3218TIP3    H231070   2.176   2.439  15.553  1.4832 -1.4245  0.1315
 3219TIP3   OH231071   5.477   5.704   6.731 -0.0401 -0.7536  0.3569
 3219TIP3    H131072   5.392   5.745   6.747  0.8097  1.2058  0.2318
 3219TIP3    H231073   5.461   5.640   6.662 -1.3554 -0.2286  0.1530
 3220TIP3   OH231074   5.066   4.099  13.903 -0.5217  0.0020  0.2438
 3220TIP3    H131075   5.144   4.078  13.955  0.4428  0.4555 -0.9786
 3220TIP3    H231076   4.997   4.111  13.968  1.1642  2.9884  1.7344
 3221TIP3   OH231077   1.710   6.304   4.067  0.6020 -0.1028  0.1227
 3221TIP3    H131078   1.798   6.339   4.049  0.4355 -0.1164 -0.7838
 3221TIP3    H231079   1.711   6.217   4.026  0.6541 -0.7391  1.4195
 3222TIP3   OH231080   2.358   1.569  13.595  0.1417 -0.1572  0.4528
 3222TIP3    H131081   2.401   1.502  13.543 -0.8411 -0.8418  0.4843
 3222TIP3    H231082   2.370   1.650  13.545  1.7546 -0.2454  0.6538
 3223TIP3   OH231083   1.595   5.377  11.696  0.3957 -0.0733 -0.1359
 3223TIP3    H131084   1.565   5.466  11.715  1.2961  0.1480  0.3185
 3223TIP3    H231085   1.604   5.336  11.783  2.8150  0.3601 -0.0996
 3224TIP3   OH231086   0.865   0.024  11.877 -0.3319 -0.7077 -0.2537
 3224TIP3    H131087   0.846  -0.028  11.799  0.8836 -0.3176 -0.8270
 3224TIP3    H231088   0.925   0.092  11.847 -2.2690  1.4112  0.3381
 3225TIP3   OH231089   2.115   5.523  16.259 -0.1207  0.1332 -0.2355
 3225TIP3    H131090   2.074   5.525  16.173  2.2592 -0.8015 -1.4872
 3225TIP3    H231091   2.185   5.587  16.254  1.1602 -1.1577  0.3550
 3226TIP3   OH231092   5.182   2.737  16.422  0.2143 -0.4567  0.0161
 3226TIP3    H131093   5.204   2.681  16.496 -1.2355  0.4064  1.1673
 3226TIP3    H231094   5.109   2.693  16.378  0.1397 -0.2687 -0.0510
 3227TIP3   OH231095   0.460   5.118   1.029  0.1181 -0.1748  0.3673
 3227TIP3    H131096   0.503   5.092   1.110  0.7619  1.2250  0.5073
 3227TIP3    H231097   0.389   5.054   1.017  0.6122 -0.9573  1.5145
 3228TIP3   OH231098   6.522   4.008   5.486 -0.0777 -0.2956  0.3053
 3228TIP3    H131099   6.603   3.985   5.441  0.8066  0.9747  1.1631
 3228TIP3    H231100   6.492   3.926   5.526  1.3058 -0.6157  0.7459
 3229TIP3   OH231101   3.119   1.540   2.222  0.1462  0.8491  0.4105
 3229TIP3    H131102   3.142   1.459   2.178 -0.6821  0.5089  0.5809
 3229TIP3    H231103   3.177   1.543   2.298 -2.3280 -1.5856  2.6127
 3230TIP3   OH231104   4.277   3.285   3.172 -0.0789  0.0895  0.1590
 3230TIP3    H131105   4.341   3.345   3.135  0.1424 -0.2862 -0.0694
 3230TIP3    H231106   4.300   3.200   3.135 -0.5550 -0.0887  0.2695
 3231TIP3   OH231107   6.666   1.703   6.296  0.2089  0.6243  0.6369
 3231TIP3    H131108   6.747   1.672   6.255  0.6133  1.7056  0.5662
 3231TIP3    H231109   6.691   1.721   6.387  0.1693  1.3402  0.5168
 3232TIP3   OH231110   3.705   2.543   3.742 -0.1318  0.1505  0.0872
 3232TIP3    H131111   3.754   2.461   3.734  0.1540  0.2148  1.0721
 3232TIP3    H231112   3.615   2.521   3.718  0.0716 -0.3127 -0.2433
 3233TIP3   OH231113   2.172   2.348   4.374  0.0253  0.5836 -0.1508
 3233TIP3    H131114   2.126   2.413   4.427  1.4640  1.2146  0.3662
 3233TIP3    H231115   2.224   2.399   4.313  1.1385 -0.0619  0.2240
 3234TIP3   OH231116   4.231   5.990  11.493  0.3423  0.3064  0.5717
 3234TIP3    H131117   4.166   6.026  11.433  1.6310  2.3759  0.3200
 3234TIP3    H231118   4.255   5.905  11.456 -2.1104 -0.4949  0.6453
 3235TIP3   OH231119   3.116   2.759   1.524  0.2797 -0.0521 -0.1253
 3235TIP3    H131120   3.110   2.698   1.597 -0.3234  1.6233  1.2904
 3235TIP3    H231121   3.052   2.828   1.544  0.0286  0.4257 -2.2801
 3236TIP3   OH231122   0.844   4.148  16.705  0.5409  0.6309  0.2611
 3236TIP3    H131123   0.763   4.105  16.733  0.9665 -1.2651 -1.2117
 3236TIP3    H231124   0.855   4.220  16.766 -1.9954  0.6437  0.8121
 3237TIP3   OH231125   6.598   5.722  13.488 -0.0156  1.1924 -0.2147
 3237TIP3    H131126   6.686   5.722  13.450  0.6145  0.8664  1.1589
 3237TIP3    H231127   6.566   5.632  13.476  1.8496 -0.1958  3.4852
 3238TIP3   OH231128   6.626   0.525   1.989 -0.0166  0.0567 -0.2424
 3238TIP3    H131129   6.600   0.611   1.956 -0.5839  0.3182  0.8760
 3238TIP3    H231130   6.545   0.475   1.993 -0.3445  0.6504  2.5667
 3239TIP3   OH231131   4.217   2.302  13.175  0.3805 -0.3255 -0.2379
 3239TIP3    H131132   4.296   2.355  13.168 -0.4245  1.1839  1.4225
 3239TIP3    H231133   4.246   2.213  13.155  2.7051  0.0159  1.2714
 3240TIP3   OH231134   6.608   0.758   5.563 -0.0120  0.1289  0.1888
 3240TIP3    H131135   6.699   0.729   5.560 -0.3570 -0.9762 -1.9086
 3240TIP3    H231136   6.610   0.841   5.611  2.3429  0.9552 -1.1832
 3241TIP3   OH231137   2.096   5.000  11.900  0.2107 -0.8780  0.6273
 3241TIP3    H131138   2.072   4.910  11.925 -0.5336 -0.8330  0.1071
 3241TIP3    H231139   2.121   4.994  11.808 -1.3792 -0.3144  0.1135
 3242TIP3   OH231140   3.005   2.279   3.967 -0.4422 -0.4097 -0.0553
 3242TIP3    H131141   3.021   2.373   3.977  1.2583 -0.7370  0.7063
 3242TIP3    H231142   2.939   2.273   3.899 -1.0485  1.3613  0.3230
 3243TIP3   OH231143   2.861   5.740   0.644 -0.4473  0.3864  0.5143
 3243TIP3    H131144   2.872   5.791   0.724  0.2717  0.4465  0.3851
 3243TIP3    H231145   2.839   5.652   0.675 -2.3055  0.8891  0.7276
 3244TIP3   OH231146   0.274   4.373  17.124  0.1733 -0.4096 -0.4132
 3244TIP3    H131147   0.300   4.456  17.082  0.8569 -0.2205  0.3471
 3244TIP3    H231148   0.344   4.312  17.102  0.1279 -0.5316 -0.2249
 3245TIP3   OH231149   4.523   0.710   1.327 -0.0355 -0.2215  0.1163
 3245TIP3    H131150   4.574   0.789   1.314  0.6147 -0.1964  2.4096
 3245TIP3    H231151   4.509   0.705   1.421 -2.1576 -1.5653 -0.1802
 3246TIP3   OH231152   0.281   4.659  14.367  0.0425 -0.1167 -0.5439
 3246TIP3    H131153   0.279   4.575  14.321  2.5087 -0.4311 -0.1713
 3246TIP3    H231154   0.353   4.708  14.327 -0.4734  1.2995  0.1585
 3247TIP3   OH231155   0.004   4.383   4.302  0.3598  0.2566 -1.1086
 3247TIP3    H131156  -0.077   4.427   4.276  0.0413 -0.6086 -1.6101
 3247TIP3    H231157   0.032   4.336   4.224  0.4271 -0.8315 -0.4530
 3248TIP3   OH231158   1.299   2.143  12.619 -0.0799  0.5103  0.2939
 3248TIP3    H131159   1.316   2.193  12.540 -0.0563 -1.6267 -1.1362
 3248TIP3    H231160   1.375   2.158  12.675  0.2958  1.4001 -0.4433
 3249TIP3   OH231161   6.360   1.928  13.681  0.2804 -0.4181  0.0594
 3249TIP3    H131162   6.312   1.848  13.659 -0.4090 -0.0960  0.3468
 3249TIP3    H231163   6.400   1.955  13.599 -0.8812 -0.1480 -0.4478
 3250TIP3   OH231164   3.143   3.919   0.036  0.0059  0.6518 -0.4843
 3250TIP3    H131165   3.183   3.984   0.093  2.3154 -0.1223 -1.1142
 3250TIP3    H231166   3.077   3.967  -0.014  0.7774  2.2147 -0.0461
 3251TIP3   OH231167   0.267   6.367  12.305  0.5949  0.2417 -0.1153
 3251TIP3    H131168   0.269   6.430  12.233 -0.1231  0.3663 -0.0344
 3251TIP3    H231169   0.193   6.310  12.285  1.0077 -0.3452  0.0089
 3252TIP3   OH231170   5.569   3.146   2.491  0.0851  0.2942 -0.0786
 3252TIP3    H131171   5.509   3.180   2.424  0.3774  0.8725 -0.0466
 3252TIP3    H231172   5.522   3.156   2.573  0.8934  2.4097  0.1749
 3253TIP3   OH231173   2.644   4.338   4.631  0.3326 -0.1572 -0.1853
 3253TIP3    H131174   2.582   4.386   4.576  2.6379  2.4885 -0.7176
 3253TIP3    H231175   2.724   4.334   4.579  2.0022  0.6356  2.1351
 3254TIP3   OH231176   4.503   5.403   6.557  0.1928 -0.0641  0.0372
 3254TIP3    H131177   4.518   5.483   6.507 -1.5276 -0.5209 -1.3529
 3254TIP3    H231178   4.589   5.362   6.565  1.0869  1.8334  0.6937
 3255TIP3   OH231179   5.051   0.588  12.526 -0.1483  0.7735 -0.3304
 3255TIP3    H131180   5.142   0.618  12.517 -0.5475  1.7663 -1.2292
 3255TIP3    H231181   5.026   0.614  12.614 -0.0642  1.9579 -0.6399
 3256TIP3   OH231182   0.393   0.991   1.037 -0.0597 -0.4518  0.1675
 3256TIP3    H131183   0.351   1.074   1.059 -0.5367 -0.6055 -0.1421
 3256TIP3    H231184   0.408   0.947   1.121 -2.1535 -1.1829  0.1996
 3257TIP3   OH231185   0.600   3.674  11.189 -0.0514  0.2711  0.4856
 3257TIP3    H131186   0.602   3.591  11.140  0.2941  0.3840  0.3040
 3257TIP3    H231187   0.650   3.656  11.269 -0.8100  0.0207  0.9070
 3258TIP3   OH231188   6.449   3.833  11.517 -0.4484 -0.2067 -0.0574
 3258TIP3    H131189   6.495   3.840  11.434 -0.0887  3.8601  0.2952
 3258TIP3    H231190   6.517   3.813  11.581 -0.2691 -0.5806 -0.3609
 3259TIP3   OH231191   4.628   5.663   0.105 -0.2436 -0.1512 -0.2395
 3259TIP3    H131192   4.555   5.697   0.156 -0.7532 -0.2700 -0.8748
 3259TIP3    H231193   4.680   5.612   0.167 -0.0142  0.9490  0.4950
 3260TIP3   OH231194   2.493   3.246   0.350  0.8918 -0.0226  0.6178
 3260TIP3    H131195   2.516   3.290   0.268  0.4241 -1.6221 -0.4059
 3260TIP3    H231196   2.403   3.218   0.338  2.0351 -3.8905 -0.0434
 3261TIP3   OH231197   3.641   6.061  15.612  0.1678  0.1947 -0.2478
 3261TIP3    H131198   3.602   6.149  15.612 -0.1236  0.0651 -0.7384
 3261TIP3    H231199   3.643   6.036  15.520 -1.7118 -1.1993  0.0575
 3262TIP3   OH231200   2.008   2.702  12.143 -0.1546  0.2257 -0.3189
 3262TIP3    H131201   2.050   2.706  12.057  1.0082  0.1143  0.2364
 3262TIP3    H231202   2.024   2.613  12.174 -0.6400  0.2396 -0.0056
 3263TIP3   OH231203   2.322   5.715  14.267  0.3428  0.2774 -0.1849
 3263TIP3    H131204   2.264   5.760  14.206 -1.5641  2.0901  2.6625
 3263TIP3    H231205   2.379   5.784  14.302 -1.4236  0.3466  2.9735
 3264TIP3   OH231206   5.716   1.047   1.205 -0.1862  0.0849 -0.2382
 3264TIP3    H131207   5.681   0.959   1.191 -0.2649 -0.0007  0.4430
 3264TIP3    H231208   5.772   1.063   1.129 -0.6501 -0.3085 -0.6665
 3265TIP3   OH231209   1.358   6.228  14.283 -0.3838 -0.1313 -0.5732
 3265TIP3    H131210   1.277   6.216  14.234 -0.4700 -1.4765 -0.1418
 3265TIP3    H231211   1.347   6.312  14.327 -0.3847  1.0193 -2.6601
 3266TIP3   OH231212   1.675   4.017  13.647 -0.5205 -0.0418  0.4653
 3266TIP3    H131213   1.682   4.061  13.731  0.6258  0.9961 -0.1484
 3266TIP3    H231214   1.729   4.069  13.587  1.2959 -2.4816 -0.2105
 3267TIP3   OH231215   1.646   6.586   3.779 -0.0984 -0.0845  0.2791
 3267TIP3    H131216   1.627   6.558   3.689  1.2048 -1.2021  0.3316
 3267TIP3    H231217   1.575   6.548   3.831  0.9284 -2.3241  0.1576
 3268TIP3   OH231218   3.578   2.692  14.598  0.0723 -0.3304 -0.6857
 3268TIP3    H131219   3.499   2.641  14.616  0.1123 -0.8843 -1.9878
 3268TIP3    H231220   3.549   2.760  14.537  0.3861  0.1401 -0.3215
 3269TIP3   OH231221   4.072   3.541   3.373 -0.3666 -0.5990 -0.5810
 3269TIP3    H131222   4.035   3.609   3.429 -0.0389 -0.6636 -0.2798
 3269TIP3    H231223   4.100   3.472   3.434  2.5311  0.4923 -0.5315
 3270TIP3   OH231224   2.618   4.614   6.657 -0.0119  0.1572  0.1239
 3270TIP3    H131225   2.574   4.532   6.678  1.6105 -0.7165  0.2980
 3270TIP3    H231226   2.582   4.677   6.719  0.2708 -0.9632  1.4940
 3271TIP3   OH231227   3.483   3.407   5.994  0.1054  0.1382  0.5678
 3271TIP3    H131228   3.434   3.423   6.074 -1.7998 -0.4439 -0.4061
 3271TIP3    H231229   3.506   3.314   5.998  1.1058  0.3882  0.9786
 3272TIP3   OH231230   4.540   4.366   4.950 -0.1724  0.8300  0.2411
 3272TIP3    H131231   4.548   4.458   4.923  1.8362  1.3941  2.4380
 3272TIP3    H231232   4.451   4.358   4.983 -0.4417  1.9233 -0.1782
 3273TIP3   OH231233   6.048   6.149   5.257 -0.2879 -0.1669 -0.0240
 3273TIP3    H131234   6.082   6.098   5.183  0.6179 -0.1855  0.3904
 3273TIP3    H231235   5.957   6.120   5.267 -0.3160 -0.4018 -0.9195
 3274TIP3   OH231236   0.447   3.888   2.590 -0.0493  0.1681 -0.2142
 3274TIP3    H131237   0.450   3.957   2.656 -1.0679 -0.5972  0.6659
 3274TIP3    H231238   0.407   3.814   2.635 -1.9763  0.0102 -2.0273
 3275TIP3   OH231239   6.225   3.076  16.200  0.0870  0.1005  0.1367
 3275TIP3    H131240   6.267   2.996  16.233  1.2532  1.0369  1.0102
 3275TIP3    H231241   6.271   3.095  16.119 -1.5827 -1.2109 -1.1923
 3276TIP3   OH231242   3.204   6.308   1.130 -0.0889 -0.5081  0.5956
 3276TIP3    H131243   3.228   6.295   1.222  1.0413  1.6055  0.6577
 3276TIP3    H231244   3.287   6.302   1.082 -0.7346 -2.2158 -0.4315
 3277TIP3   OH231245   5.403   0.479  14.580  0.2315  0.0534 -0.1043
 3277TIP3    H131246   5.475   0.542  14.576 -0.3930  0.7870  0.0345
 3277TIP3    H231247   5.444   0.398  14.609  1.0027  0.4587 -0.0277
 3278TIP3   OH231248   0.157   2.468  12.479  0.3679  0.0708  0.1134
 3278TIP3    H131249   0.063   2.483  12.477 -0.3240 -3.4319 -0.6192
 3278TIP3    H231250   0.186   2.478  12.388  0.4403 -0.0817  0.1181
 3279TIP3   OH231251   5.549   4.286  13.724 -0.7630 -0.0048 -0.4793
 3279TIP3    H131252   5.593   4.231  13.659  0.1354  0.2295 -0.0746
 3279TIP3    H231253   5.532   4.227  13.798  0.5858  0.3432  0.1284
 3280TIP3   OH231254   4.178   5.404  12.959  0.3985 -0.4536 -0.3036
 3280TIP3    H131255   4.141   5.331  13.008  0.0295 -0.6583 -0.8740
 3280TIP3    H231256   4.255   5.431  13.010 -0.0542 -0.5642  0.4524
 3281TIP3   OH231257   3.313   3.788  12.351  0.7972  0.7026  0.3787
 3281TIP3    H131258   3.305   3.844  12.274 -0.9827  1.1362  0.8390
 3281TIP3    H231259   3.387   3.730  12.332 -0.3975 -0.0963 -2.2387
 3282TIP3   OH231260   4.734   6.693   3.266  0.0923  0.0403 -0.1836
 3282TIP3    H131261   4.678   6.645   3.326  2.0352 -0.9669  0.9342
 3282TIP3    H231262   4.717   6.654   3.180  0.2184 -1.3492  0.4016
 3283TIP3   OH231263   1.990   3.939  16.302 -0.5540 -1.0126  0.0669
 3283TIP3    H131264   1.911   3.955  16.251 -0.7887 -1.7771  0.1735
 3283TIP3    H231265   2.050   3.897  16.241 -1.2050 -2.8786  0.6309
 3284TIP3   OH231266   6.734   4.286   1.276  0.2728 -0.1971 -0.2641
 3284TIP3    H131267   6.718   4.296   1.370  1.8256  0.9905 -0.0896
 3284TIP3    H231268   6.814   4.335   1.260  4.1363 -5.7294 -0.9315
 3285TIP3   OH231269   4.673   5.024   5.727 -0.3683 -0.6896 -0.0708
 3285TIP3    H131270   4.667   4.995   5.819  1.0009 -1.3007 -0.1469
 3285TIP3    H231271   4.717   5.109   5.732 -0.8963 -0.4125 -0.1197
 3286TIP3   OH231272   5.778   2.615   0.050  0.3603 -0.1341  0.0340
 3286TIP3    H131273   5.729   2.595  -0.029 -1.4143  0.6356  0.8892
 3286TIP3    H231274   5.819   2.700   0.032 -0.5554  0.3403  0.1618
 3287TIP3   OH231275   2.995   0.005  16.635  0.1980 -0.1145  0.0163
 3287TIP3    H131276   2.990   0.054  16.554 -1.1134 -0.1296  0.0638
 3287TIP3    H231277   2.916   0.030  16.684  0.8693 -0.2276  1.2168
 3288TIP3   OH231278   5.498   0.322  13.525 -0.3432  0.3601 -0.5701
 3288TIP3    H131279   5.507   0.337  13.619  0.7137  2.8044 -0.9706
 3288TIP3    H231280   5.558   0.250  13.507 -0.6566 -0.2252  0.6466
 3289TIP3   OH231281   4.283   0.830   2.099 -0.0602  0.2559 -0.2178
 3289TIP3    H131282   4.250   0.843   2.011 -0.7960  1.5757  0.2245
 3289TIP3    H231283   4.352   0.896   2.109 -0.0090  0.1454  0.1994
 3290TIP3   OH231284   2.174   3.517  13.218 -0.0185 -0.0760  0.0618
 3290TIP3    H131285   2.183   3.422  13.214  0.7300  0.0257 -0.9616
 3290TIP3    H231286   2.090   3.531  13.263 -0.8826 -1.2467 -1.1086
 3291TIP3   OH231287   1.807   3.272  14.270  0.5103  0.5006  0.2343
 3291TIP3    H131288   1.776   3.238  14.354 -1.0634  0.6295 -0.2586
 3291TIP3    H231289   1.801   3.197  14.211  0.9471  0.5915  0.0726
 3292TIP3   OH231290   0.280   6.044  11.622  0.1929  0.1267 -0.0182
 3292TIP3    H131291   0.217   6.003  11.563 -1.8510 -1.0643  2.7693
 3292TIP3    H231292   0.254   6.136  11.625 -0.4265 -0.0390 -0.1090
 3293TIP3   OH231293   1.900   5.953  14.260 -0.1031 -0.4861 -0.4847
 3293TIP3    H131294   1.867   5.949  14.170 -0.9033  1.7320 -0.3421
 3293TIP3    H231295   1.993   5.933  14.252 -0.1617 -0.3475 -1.8057
 3294TIP3   OH231296   3.257   4.116   0.178  0.1824 -0.5270  0.0323
 3294TIP3    H131297   3.242   4.209   0.160  1.3895 -0.1855  0.7111
 3294TIP3    H231298   3.314   4.115   0.254  0.2398 -1.8360 -0.0047
 3295TIP3   OH231299   0.041   0.525   5.386  0.5986 -0.3408 -0.0456
 3295TIP3    H131300  -0.052   0.526   5.361 -0.1047 -0.2664  2.2990
 3295TIP3    H231301   0.057   0.612   5.423  1.2174 -0.7972  0.7934
 3296TIP3   OH231302   6.685   3.226   6.590 -0.1632  0.1411  0.0449
 3296TIP3    H131303   6.697   3.216   6.495 -0.0424 -1.5462  0.2076
 3296TIP3    H231304   6.591   3.242   6.600 -0.2858 -0.3170 -0.3235
 3297TIP3   OH231305   6.022   6.648  15.483  0.3482  0.0157 -0.3216
 3297TIP3    H131306   5.942   6.689  15.518  1.0550  1.1497  0.0197
 3297TIP3    H231307   5.991   6.597  15.408 -0.8154 -0.2615  0.3221
 3298TIP3   OH231308   0.036   4.225  16.471  0.6366  0.1263  0.4929
 3298TIP3    H131309   0.036   4.250  16.564  0.8188  0.3596  0.4306
 3298TIP3    H231310  -0.024   4.287  16.430  1.2946  0.6391  0.2924
 3299TIP3   OH231311   0.574   1.917  11.524  0.7409  0.1479 -0.1488
 3299TIP3    H131312   0.575   1.860  11.447 -0.9594  0.2242 -0.2761
 3299TIP3    H231313   0.490   1.962  11.518  0.5231  0.0694  1.8078
 3300TIP3   OH231314   5.471   4.587  12.573 -0.4832 -0.3777 -0.1382
 3300TIP3    H131315   5.389   4.542  12.554 -1.7538  0.6168  2.5025
 3300TIP3    H231316   5.444   4.675  12.601  1.4895  0.0562  0.5449
 3301TIP3   OH231317   3.047   2.485  15.189 -0.7267  0.4675  0.7962
 3301TIP3    H131318   2.962   2.520  15.162 -0.0310 -0.0104 -2.5442
 3301TIP3    H231319   3.109   2.556  15.173 -0.1569 -0.1111  0.3570
 3302TIP3   OH231320   0.078   2.331   5.601 -0.3480 -0.3404  0.0966
 3302TIP3    H131321   0.114   2.275   5.670 -1.2494  0.6145  1.3634
 3302TIP3    H231322  -0.009   2.354   5.631  0.1895  2.2307 -0.1112
 3303TIP3   OH231323   3.556   0.540   3.851  0.6828 -0.1164  0.0751
 3303TIP3    H131324   3.604   0.607   3.901 -0.2902  0.4283  0.3086
 3303TIP3    H231325   3.620   0.506   3.789  0.9810  1.6541 -0.6463
 3304TIP3   OH231326   0.261   6.155   0.066 -0.2244  0.6623  0.1699
 3304TIP3    H131327   0.212   6.142   0.147 -1.5990  0.6829 -0.6343
 3304TIP3    H231328   0.206   6.116  -0.002  0.8671  0.7128 -0.7698
 3305TIP3   OH231329   5.261   0.122  13.227  0.5030  0.3676  0.0270
 3305TIP3    H131330   5.296   0.033  13.220  0.0578  0.2226 -0.4499
 3305TIP3    H231331   5.262   0.155  13.137  2.9420  1.7563  0.4652
 3306TIP3   OH231332   3.813   5.916  13.074 -0.4351 -0.2750  0.1859
 3306TIP3    H131333   3.862   5.846  13.117  0.9343  1.1882  1.0968
 3306TIP3    H231334   3.726   5.912  13.114 -0.0912 -0.8632  0.8946
 3307TIP3   OH231335   1.852   4.113  11.332 -0.4019  0.4223 -0.1212
 3307TIP3    H131336   1.782   4.058  11.367 -0.5808  1.8202  1.8821
 3307TIP3    H231337   1.850   4.192  11.386  1.3224  1.4220 -1.4194
 3308TIP3   OH231338   4.398   4.790   0.284 -0.1544  0.1184 -0.4445
 3308TIP3    H131339   4.450   4.837   0.349  0.5266 -0.8395 -0.2766
 3308TIP3    H231340   4.316   4.839   0.279 -0.5781 -0.2462  1.7565
 3309TIP3   OH231341   1.452   5.008  11.737  0.0898  0.0906 -0.0722
 3309TIP3    H131342   1.422   5.069  11.671  1.5691  0.8219 -0.1056
 3309TIP3    H231343   1.538   5.040  11.762 -0.0134 -0.7464  1.4872
 3310TIP3   OH231344   5.811   4.638   1.643  0.5914 -0.1176  0.0699
 3310TIP3    H131345   5.869   4.567   1.672  0.8720 -0.4009 -1.1226
 3310TIP3    H231346   5.826   4.643   1.549 -0.1083  0.9277  0.0061
 3311TIP3   OH231347   5.222   6.089   1.043  0.1027 -0.6854 -0.4058
 3311TIP3    H131348   5.209   6.114   0.952 -0.3306 -2.2139 -0.7812
 3311TIP3    H231349   5.308   6.048   1.045  1.9648  2.8514  0.6880
 3312TIP3   OH231350   3.173   6.200  10.582 -0.4380  0.3724 -0.1870
 3312TIP3    H131351   3.129   6.154  10.511  2.3010 -1.1951 -0.9862
 3312TIP3    H231352   3.266   6.197  10.560  0.2051  3.2929  1.5266
 3313TIP3   OH231353   4.395   5.557  11.520  0.1397  0.2974  0.1190
 3313TIP3    H131354   4.480   5.601  11.525 -0.1236  0.7473  0.7381
 3313TIP3    H231355   4.384   5.516  11.605  0.0008 -0.2694 -0.1678
 3314TIP3   OH231356   4.192   6.348  13.753  0.0811  0.3699  0.0688
 3314TIP3    H131357   4.187   6.373  13.661  0.7864  1.4460  0.3100
 3314TIP3    H231358   4.183   6.430  13.801  1.0491  0.0042  0.9163
 3315TIP3   OH231359   4.135   1.898   5.566 -0.2795  0.0369 -0.7184
 3315TIP3    H131360   4.104   1.979   5.527 -1.0902  0.0510 -0.0585
 3315TIP3    H231361   4.061   1.838   5.560  0.2351 -0.5869 -0.9893
 3316TIP3   OH231362   5.021   5.269   4.299  0.4878 -0.3320 -0.4020
 3316TIP3    H131363   5.039   5.340   4.361  0.2804 -0.3300 -0.3458
 3316TIP3    H231364   5.025   5.311   4.213  0.8426 -0.3482 -0.3954
 3317TIP3   OH231365   3.687   1.789   2.509  0.4591  0.3649 -0.0894
 3317TIP3    H131366   3.616   1.838   2.551 -0.5281 -0.3425 -0.9020
 3317TIP3    H231367   3.758   1.789   2.574 -0.1649  1.3346  0.6143
 3318TIP3   OH231368   1.255   3.456  17.317  0.5115 -0.1329 -0.0175
 3318TIP3    H131369   1.270   3.362  17.333  0.4991  0.0171  0.9076
 3318TIP3    H231370   1.160   3.465  17.318  0.5306  0.0851  1.1326
 3319TIP3   OH231371   1.118   3.507   1.380 -0.2068  0.1083 -0.4466
 3319TIP3    H131372   1.110   3.416   1.411  2.4287 -0.1517 -0.3111
 3319TIP3    H231373   1.153   3.499   1.292  1.5052  0.9706  0.1099
 3320TIP3   OH231374   4.671   2.698   3.960 -0.1224 -0.5487  0.2112
 3320TIP3    H131375   4.600   2.647   3.998 -1.2465 -0.3731 -1.5591
 3320TIP3    H231376   4.637   2.787   3.957  1.5719  0.3037  2.6573
 3321TIP3   OH231377   5.013   2.449   2.041  0.5092 -0.0219  0.1932
 3321TIP3    H131378   4.990   2.357   2.033 -0.6974  0.1630  1.1727
 3321TIP3    H231379   5.095   2.458   1.992  0.1276 -1.3964 -0.7609
 3322TIP3   OH231380   5.379   3.125   4.317 -0.6433 -0.4633 -0.1354
 3322TIP3    H131381   5.309   3.093   4.373 -0.2067  1.5794  1.7297
 3322TIP3    H231382   5.337   3.188   4.258 -0.7587 -1.1044 -0.7545
 3323TIP3   OH231383   5.724   4.645  16.695  0.4722 -0.1823  0.2199
 3323TIP3    H131384   5.729   4.643  16.600  0.7145  2.5172  0.1073
 3323TIP3    H231385   5.799   4.592  16.724  1.9276  1.0382 -1.1330
 3324TIP3   OH231386   4.709   5.146   2.568 -0.2790 -0.3031 -0.4529
 3324TIP3    H131387   4.643   5.202   2.608  0.0746 -0.3566  0.2147
 3324TIP3    H231388   4.667   5.061   2.559 -0.0250 -0.5859  0.8047
 3325TIP3   OH231389   1.690   2.929  15.591  0.1418 -0.3198  0.1281
 3325TIP3    H131390   1.636   2.851  15.600 -0.1232 -0.3150 -1.2707
 3325TIP3    H231391   1.686   2.971  15.677 -1.3056 -0.8055  0.3192
 3326TIP3   OH231392   3.399   2.204   6.605 -0.2612  0.2188 -0.1681
 3326TIP3    H131393   3.327   2.265   6.619 -0.3955 -0.0212  0.2064
 3326TIP3    H231394   3.477   2.252   6.633 -0.0958  0.9326 -1.7537
 3327TIP3   OH231395   3.720   4.249   4.867 -0.6801 -0.2307  0.1825
 3327TIP3    H131396   3.790   4.218   4.925 -0.5174 -0.8911 -0.3465
 3327TIP3    H231397   3.759   4.321   4.818 -0.4019 -0.5061 -0.0088
 3328TIP3   OH231398   6.160   1.739   6.031 -0.1286  0.1386  0.0588
 3328TIP3    H131399   6.198   1.724   6.118 -0.3141 -2.3617 -0.2084
 3328TIP3    H231400   6.150   1.834   6.025 -2.0618  0.3469  3.6257
 3329TIP3   OH231401   3.436   1.985  14.061 -0.0646  0.3659  0.1540
 3329TIP3    H131402   3.493   1.957  13.990  1.4985 -0.2957  1.5857
 3329TIP3    H231403   3.479   2.063  14.097 -1.3799  1.3009 -0.2381
 3330TIP3   OH231404   1.481   2.511  15.637 -0.5716 -0.5132  0.6364
 3330TIP3    H131405   1.463   2.603  15.616  0.6089 -0.6316 -1.0438
 3330TIP3    H231406   1.408   2.463  15.600 -0.2857 -0.4008 -0.0837
 3331TIP3   OH231407   2.817   5.165  11.192  0.0345 -0.0221 -0.3602
 3331TIP3    H131408   2.854   5.200  11.112 -1.3173  0.7634 -0.6842
 3331TIP3    H231409   2.855   5.077  11.201  2.7512  1.0838 -0.0620
 3332TIP3   OH231410   1.378   5.155  13.755 -0.0555 -1.0406  0.3192
 3332TIP3    H131411   1.391   5.237  13.707 -0.9264  0.1879  2.0558
 3332TIP3    H231412   1.455   5.102  13.733 -0.9988 -1.1656 -3.3878
 3333TIP3   OH231413   2.416   0.685   3.247  0.0568 -0.1359  0.2094
 3333TIP3    H131414   2.457   0.757   3.296  1.0246 -0.3603 -0.2541
 3333TIP3    H231415   2.469   0.676   3.168  0.2406 -1.6505  0.4657
 3334TIP3   OH231416   3.172   5.662  11.305 -0.2335  0.1546  0.2018
 3334TIP3    H131417   3.264   5.642  11.319 -0.3927 -3.4522 -2.5072
 3334TIP3    H231418   3.172   5.749  11.265  2.1062 -0.0659 -0.4325
 3335TIP3   OH231419   6.119   4.859   1.020 -0.5238 -0.1023  1.0877
 3335TIP3    H131420   6.189   4.872   1.083 -0.6292 -0.7534  1.3427
 3335TIP3    H231421   6.081   4.774   1.042 -0.6212 -0.3045  0.2087
 3336TIP3   OH231422   2.275   2.842   5.076  0.1652 -0.2634 -0.0871
 3336TIP3    H131423   2.365   2.811   5.081  0.3232  0.1131 -0.5343
 3336TIP3    H231424   2.223   2.762   5.067  0.4482 -0.4830  0.1825
 3337TIP3   OH231425   3.866   2.471   5.467 -0.1141 -0.1457  0.2799
 3337TIP3    H131426   3.858   2.381   5.436 -0.8290  0.6993 -2.2032
 3337TIP3    H231427   3.943   2.505   5.423 -0.1380  0.6079  0.8097
 3338TIP3   OH231428   2.436   2.017  16.497 -0.6742 -0.7973 -0.9059
 3338TIP3    H131429   2.379   2.009  16.574 -0.2360  2.7324 -0.0327
 3338TIP3    H231430   2.517   1.974  16.524 -0.3896  0.7180  0.8501
 3339TIP3   OH231431   1.194   4.491  14.523 -0.0717  0.2302  0.9437
 3339TIP3    H131432   1.249   4.436  14.467 -1.0250  1.7304 -1.6394
 3339TIP3    H231433   1.204   4.579  14.488 -1.8511  1.0245  2.2471
 3340TIP3   OH231434   1.570   6.438  14.546 -0.0633  0.0601 -0.8939
 3340TIP3    H131435   1.599   6.355  14.509 -0.8587 -2.4143  3.3939
 3340TIP3    H231436   1.649   6.477  14.583 -0.1890 -0.7172  0.2738
 3341TIP3   OH231437   5.553   3.081  15.955 -0.0638 -0.3604 -0.0667
 3341TIP3    H131438   5.464   3.085  15.991  0.4375 -1.2999  1.3723
 3341TIP3    H231439   5.597   3.158  15.991 -0.7008  1.0217 -2.0853
 3342TIP3   OH231440   5.786   3.391  14.792 -0.5718 -0.0918 -0.1649
 3342TIP3    H131441   5.743   3.329  14.851 -2.0918  0.5564 -0.5447
 3342TIP3    H231442   5.838   3.337  14.733  0.8167 -0.7667  1.5938
 3343TIP3   OH231443   4.700   4.133   3.406  0.0060  0.3057  0.1075
 3343TIP3    H131444   4.646   4.181   3.343 -0.8503 -1.0583 -0.2494
 3343TIP3    H231445   4.681   4.174   3.490  0.0446  1.2105 -0.3166
 3344TIP3   OH231446   1.326   1.124  16.722  0.2036  0.0650  0.0186
 3344TIP3    H131447   1.347   1.030  16.725 -2.6452 -0.6837 -0.8600
 3344TIP3    H231448   1.266   1.137  16.796 -0.0376  1.0289 -0.3439
 3345TIP3   OH231449   4.082   5.049   5.218 -0.4409 -0.2427 -0.2007
 3345TIP3    H131450   4.022   5.085   5.152 -0.8009 -0.9750 -0.2814
 3345TIP3    H231451   4.064   5.101   5.297 -0.6511  0.0378 -0.4295
 3346TIP3   OH231452   6.210   6.188  12.678  0.3384 -0.3305  0.2373
 3346TIP3    H131453   6.305   6.185  12.676  0.4364  0.3767  1.9689
 3346TIP3    H231454   6.189   6.276  12.709 -0.7835 -1.2005  2.1317
 3347TIP3   OH231455   3.792   0.871  16.616  0.3282 -0.4432 -0.1061
 3347TIP3    H131456   3.703   0.904  16.629 -0.2927 -1.9481 -0.3090
 3347TIP3    H231457   3.827   0.924  16.544 -0.3874  0.2083  0.0170
 3348TIP3   OH231458   2.142   3.245   6.511  0.2188  0.2044  0.0327
 3348TIP3    H131459   2.087   3.175   6.548 -0.0494 -0.1934 -1.0892
 3348TIP3    H231460   2.213   3.199   6.467  2.4344  0.7241  2.7846
 3349TIP3   OH231461   6.591   6.562   2.631 -0.3443  0.2800 -0.2895
 3349TIP3    H131462   6.676   6.565   2.674 -0.2953  0.8978 -0.4079
 3349TIP3    H231463   6.594   6.633   2.566 -0.4112 -0.6234 -1.3220
 3350TIP3   OH231464   2.865   0.250   1.303  0.1230 -0.3059 -0.4310
 3350TIP3    H131465   2.838   0.241   1.211 -0.1452 -0.0382 -0.3808
 3350TIP3    H231466   2.902   0.165   1.325  2.3650  0.3341 -1.4765
 3351TIP3   OH231467   0.489   3.909   4.607  0.4623  0.0872 -0.1255
 3351TIP3    H131468   0.563   3.883   4.662 -1.1229  0.3430  2.2513
 3351TIP3    H231469   0.466   3.996   4.637 -1.2999 -0.3048 -0.2515
 3352TIP3   OH231470   4.914   0.970   5.456 -0.0867 -0.3967 -0.3827
 3352TIP3    H131471   4.959   0.983   5.540 -1.0666  0.7698 -0.0154
 3352TIP3    H231472   4.910   1.058   5.417  0.3573 -0.9218 -1.6681
 3353TIP3   OH231473   5.822   4.379   4.569  0.0156 -0.3801  0.2177
 3353TIP3    H131474   5.828   4.471   4.542  3.3816  0.2226  2.4111
 3353TIP3    H231475   5.811   4.331   4.487 -1.1671  1.8998 -1.0494
 3354TIP3   OH231476   4.629   0.204   6.029  0.0740 -0.1095  0.7998
 3354TIP3    H131477   4.565   0.164   5.970  0.3322 -0.0849  0.5014
 3354TIP3    H231478   4.577   0.233   6.104 -0.0263 -1.6863  1.3937
 3355TIP3   OH231479   3.347   1.610   5.544 -0.3118  0.4948  0.2146
 3355TIP3    H131480   3.370   1.570   5.627  0.8098  0.1577 -0.2362
 3355TIP3    H231481   3.404   1.688   5.538 -1.5328  1.4350  0.4875
 3356TIP3   OH231482   5.409   3.433  12.441  0.2036  0.3401  0.4257
 3356TIP3    H131483   5.346   3.467  12.377 -0.1278 -1.9377 -0.5398
 3356TIP3    H231484   5.479   3.498  12.443 -1.3520  2.1146  0.2868
 3357TIP3   OH231485   3.441   5.521  11.357  0.4354 -0.0514  0.2501
 3357TIP3    H131486   3.444   5.520  11.261  0.0200 -2.3963  0.2063
 3357TIP3    H231487   3.494   5.598  11.382  0.7933  0.4318 -1.8281
 3358TIP3   OH231488   1.453   4.814   4.741 -0.3599  0.4683  0.1939
 3358TIP3    H131489   1.414   4.827   4.828  0.6777 -0.1679  0.7816
 3358TIP3    H231490   1.395   4.752   4.697 -0.3794  0.0317  0.8166
 3359TIP3   OH231491   6.699   1.146   0.582  0.5716  0.0161 -0.1756
 3359TIP3    H131492   6.627   1.168   0.641 -1.5369 -3.1204 -1.3130
 3359TIP3    H231493   6.729   1.060   0.611  1.0957 -0.5274 -2.1309
 3360TIP3   OH231494   1.498   1.481   4.138 -0.3525  0.5370  0.1862
 3360TIP3    H131495   1.524   1.473   4.230 -2.7976 -2.3965  0.8021
 3360TIP3    H231496   1.563   1.429   4.090  0.1824  0.9747  0.4358
 3361TIP3   OH231497   6.680   2.179   3.836 -0.4634 -0.2592 -1.1730
 3361TIP3    H131498   6.748   2.240   3.807 -0.5040  0.6783  0.5431
 3361TIP3    H231499   6.728   2.104   3.871 -0.2595  0.3602 -0.0545
 3362TIP3   OH231500   3.250   4.388  14.786  0.1191 -0.4886 -0.1041
 3362TIP3    H131501   3.311   4.442  14.836  2.2232 -1.2988 -1.6537
 3362TIP3    H231502   3.277   4.298  14.803  1.6080 -0.8092 -3.2786
 3363TIP3   OH231503   3.371   6.181   2.976  0.0488 -0.2589  0.1844
 3363TIP3    H131504   3.304   6.134   3.025 -0.8631  0.6472 -0.1468
 3363TIP3    H231505   3.343   6.173   2.885  0.2247  0.3767  0.0731
 3364TIP3   OH231506   0.738   2.530  12.089  0.3342 -0.2480  0.3520
 3364TIP3    H131507   0.772   2.461  12.146  0.2877 -0.4928  0.0879
 3364TIP3    H231508   0.647   2.505  12.073  0.1826  0.1218  0.6257
 3365TIP3   OH231509   1.008   2.789   1.618  0.2996 -0.2999  0.0999
 3365TIP3    H131510   0.937   2.774   1.680 -0.4703  1.3537 -0.3232
 3365TIP3    H231511   0.974   2.855   1.557  1.7688 -0.3552 -0.8483
 3366TIP3   OH231512   3.192   1.956  13.579  0.0814  0.0244 -0.3318
 3366TIP3    H131513   3.257   1.949  13.649 -1.3942  1.9018  1.3470
 3366TIP3    H231514   3.201   2.045  13.546 -1.9069  0.5182  0.3040
 3367TIP3   OH231515   2.927   3.625  17.299 -0.4047 -0.1464 -0.3308
 3367TIP3    H131516   2.855   3.586  17.350 -0.3099 -0.8188 -0.6958
 3367TIP3    H231517   2.917   3.719  17.311 -0.0679 -0.2975  1.3591
 3368TIP3   OH231518   4.503   3.904   4.993  0.2158 -0.1571 -0.3490
 3368TIP3    H131519   4.413   3.913   4.962 -0.1055 -0.1867  0.5421
 3368TIP3    H231520   4.495   3.885   5.087  1.0939 -2.0869 -0.6203
 3369TIP3   OH231521   6.423   5.978   1.873  0.7081  0.2881  0.6509
 3369TIP3    H131522   6.386   5.890   1.865 -0.7403  0.7103  2.1315
 3369TIP3    H231523   6.454   5.983   1.963  1.4438  1.0799  0.3737
 3370TIP3   OH231524   0.013   0.715   2.818  0.8243  0.0063  0.0642
 3370TIP3    H131525  -0.066   0.662   2.810  0.6051  0.2678  0.4942
 3370TIP3    H231526   0.016   0.766   2.737  1.0525 -0.6769 -0.3644
 3371TIP3   OH231527   1.919   0.614   0.149 -0.3218 -0.8860 -0.3742
 3371TIP3    H131528   1.999   0.636   0.102  0.7066 -1.5535  0.9956
 3371TIP3    H231529   1.888   0.534   0.107 -1.5432  0.5157 -2.3421
 3372TIP3   OH231530   4.477   0.113  14.845 -0.4821  0.0415  0.2444
 3372TIP3    H131531   4.535   0.102  14.920  0.2293  2.1453  0.0878
 3372TIP3    H231532   4.392   0.133  14.883 -0.1747  0.8787  0.5199
 3373TIP3   OH231533   4.520   4.154  16.187  0.1927 -0.0716 -0.7464
 3373TIP3    H131534   4.579   4.134  16.115  0.2905 -1.2474 -0.3611
 3373TIP3    H231535   4.448   4.203  16.146 -0.1760 -1.4493 -1.8157
 3374TIP3   OH231536   2.339   2.971  15.134 -0.4887 -0.0895  0.1215
 3374TIP3    H131537   2.315   2.879  15.138 -0.1982 -0.3064 -2.0220
 3374TIP3    H231538   2.262   3.017  15.169 -1.2476 -1.0670 -0.2023
 3375TIP3   OH231539   3.287   1.029   2.255 -0.2810  0.5858  0.1665
 3375TIP3    H131540   3.197   0.998   2.248 -0.3758  0.6420  1.0105
 3375TIP3    H231541   3.315   1.044   2.164 -1.1061  0.5378 -0.1020
 3376TIP3   OH231542   3.481   0.332   5.395  0.6738 -0.2101 -0.3667
 3376TIP3    H131543   3.398   0.297   5.427  0.6028 -0.2240 -0.5645
 3376TIP3    H231544   3.502   0.279   5.318  0.3909  0.3997 -0.8715
 3377TIP3   OH231545   3.311   6.635  16.845  0.3331 -0.7491  0.3049
 3377TIP3    H131546   3.326   6.685  16.925 -0.0843 -1.7517  1.0360
 3377TIP3    H231547   3.228   6.669  16.811  1.2662  0.7435 -0.5636
 3378TIP3   OH231548   4.371   4.481   1.299  0.3027  0.5567 -0.2089
 3378TIP3    H131549   4.405   4.420   1.234 -0.4417 -0.4711  0.3470
 3378TIP3    H231550   4.327   4.426   1.364 -0.9483  1.7176 -0.0159
 3379TIP3   OH231551   3.350   1.697   1.264 -0.3016  0.1768  0.2914
 3379TIP3    H131552   3.315   1.608   1.257 -0.4498  0.2051  0.6617
 3379TIP3    H231553   3.445   1.685   1.262 -0.3199  0.1324 -1.0867
 3380TIP3   OH231554   0.459   3.888   0.610 -0.3994  0.2967  0.0682
 3380TIP3    H131555   0.369   3.872   0.582 -1.0029  0.9842  1.5114
 3380TIP3    H231556   0.462   3.856   0.700  1.6558 -2.4740 -0.8324
 3381TIP3   OH231557   1.245   4.898   2.057  0.0270 -0.2742 -0.1924
 3381TIP3    H131558   1.302   4.887   1.982 -0.2558 -0.9689 -0.3121
 3381TIP3    H231559   1.260   4.821   2.111 -0.4665 -0.2458 -0.0043
 3382TIP3   OH231560   0.045   1.626  17.049 -0.2715 -0.9721  0.2371
 3382TIP3    H131561  -0.036   1.650  17.004 -0.7719 -1.9580  0.5821
 3382TIP3    H231562   0.042   1.530  17.052 -0.1636 -0.9399  2.2094
 3383TIP3   OH231563   5.293   1.380  11.542  0.2875  0.1297 -0.2405
 3383TIP3    H131564   5.248   1.437  11.605  1.1006  0.9627 -0.3845
 3383TIP3    H231565   5.291   1.430  11.460 -1.4316 -1.2677 -1.1148
 3384TIP3   OH231566   2.961   2.178   3.421  0.0139  0.2410  0.6151
 3384TIP3    H131567   3.042   2.169   3.472  0.6110  0.0274 -0.3371
 3384TIP3    H231568   2.911   2.099   3.441  0.0297  0.3739  1.2086
 3385TIP3   OH231569   1.559   5.513   6.363 -0.1081  0.6192 -0.1348
 3385TIP3    H131570   1.506   5.479   6.289 -1.2236  2.5064 -0.2608
 3385TIP3    H231571   1.646   5.477   6.347 -0.6656 -0.2488 -1.5425
 3386TIP3   OH231572   3.846   1.962  15.687 -0.5644  0.2024  0.0377
 3386TIP3    H131573   3.938   1.977  15.705 -0.6694 -1.1646  2.1133
 3386TIP3    H231574   3.808   1.943  15.773 -2.7462  0.5548 -0.7875
 3387TIP3   OH231575   1.795   0.057  11.735 -0.0613 -0.0636 -0.2325
 3387TIP3    H131576   1.808   0.009  11.653  2.1487 -1.5390  0.8847
 3387TIP3    H231577   1.729   0.123  11.714 -0.1837 -0.9346 -2.9546
 3388TIP3   OH231578   4.235   2.252  11.737 -0.4582  0.4121 -0.5173
 3388TIP3    H131579   4.141   2.244  11.718 -1.1045  1.2790  1.9144
 3388TIP3    H231580   4.239   2.274  11.830  2.1192  1.7172 -0.8352
 3389TIP3   OH231581   3.671   3.516  15.238 -0.2717  0.5276  0.3614
 3389TIP3    H131582   3.639   3.555  15.156 -0.9359 -0.5683  0.0806
 3389TIP3    H231583   3.738   3.577  15.268 -1.9113  2.4022  0.4406
 3390TIP3   OH231584   5.486   6.437  12.069 -0.2405  0.3140 -0.3708
 3390TIP3    H131585   5.402   6.427  12.114 -0.5718  0.3589 -0.9700
 3390TIP3    H231586   5.515   6.526  12.090 -1.5408  1.2131 -2.1387
 3391TIP3   OH231587   6.419   3.998  13.601 -0.0496 -0.4655 -0.1218
 3391TIP3    H131588   6.356   3.956  13.542 -0.9241  1.4466 -0.6171
 3391TIP3    H231589   6.471   3.925  13.635 -1.2204 -1.9012 -1.2347
 3392TIP3   OH231590   3.627   1.494  11.096 -0.7029  0.3233 -0.8042
 3392TIP3    H131591   3.686   1.420  11.084 -0.1005  0.7449 -0.4467
 3392TIP3    H231592   3.621   1.534  11.009 -0.1393  0.5192 -0.7565
 3393TIP3   OH231593   4.956   5.855  11.858  0.7592 -1.2714  0.3129
 3393TIP3    H131594   5.034   5.805  11.884  1.0030 -0.5767  0.9429
 3393TIP3    H231595   4.971   5.875  11.765  2.2928  0.5196  0.8836
 3394TIP3   OH231596   4.690   5.806  13.772  0.0166  0.1305  0.1508
 3394TIP3    H131597   4.646   5.785  13.855  0.9992 -2.6347  0.0908
 3394TIP3    H231598   4.782   5.786  13.789  0.4882  1.1068 -1.1469
 3395TIP3   OH231599   0.734   2.566   3.599  0.5913 -0.1590 -0.1023
 3395TIP3    H131600   0.719   2.649   3.554 -2.8828 -0.0296  0.9890
 3395TIP3    H231601   0.738   2.501   3.528 -2.8639  0.2886 -0.8907
 3396TIP3   OH231602   0.983   5.355  11.812 -0.0152  0.4648 -0.0917
 3396TIP3    H131603   0.914   5.309  11.861  2.1459 -2.4281  0.4872
 3396TIP3    H231604   1.052   5.370  11.877  1.6574 -0.7075 -1.4984
 3397TIP3   OH231605   6.054   5.955  16.701  0.3940  0.2772  0.3901
 3397TIP3    H131606   6.119   6.020  16.673  0.5396  0.0996  0.3094
 3397TIP3    H231607   6.038   5.903  16.623  1.8347 -1.1032  0.9559
 3398TIP3   OH231608   3.349   5.388   4.897  0.0711 -0.3863  0.1867
 3398TIP3    H131609   3.310   5.395   4.984 -0.2312  1.4803 -0.0482
 3398TIP3    H231610   3.360   5.479   4.869  1.3531 -0.9282 -1.2076
 3399TIP3   OH231611   1.026   3.960  10.492  0.0496  0.1040 -0.1135
 3399TIP3    H131612   0.977   3.881  10.467  1.2507 -0.1312 -1.9652
 3399TIP3    H231613   1.024   4.014  10.413  0.1036  1.5070  0.8176
 3400TIP3   OH231614   3.484   4.093   2.609 -0.4292 -0.2860 -0.0215
 3400TIP3    H131615   3.421   4.044   2.557  0.1712 -0.4882 -0.5740
 3400TIP3    H231616   3.532   4.026   2.658  0.0260 -0.2208 -0.3657
 3401TIP3   OH231617   5.325   5.540   3.937  0.2420 -0.2182 -0.6640
 3401TIP3    H131618   5.420   5.550   3.935  0.1908  0.5064 -3.3546
 3401TIP3    H231619   5.292   5.620   3.896 -1.3584 -1.5072 -2.0209
 3402TIP3   OH231620   0.895   4.390  14.507  0.2553 -0.4878  0.3321
 3402TIP3    H131621   0.989   4.407  14.506  0.6510 -2.4327  0.0532
 3402TIP3    H231622   0.856   4.474  14.526  2.1003  0.1710  1.4791
 3403TIP3   OH231623   2.756   6.154  15.959 -0.4010  0.3266 -0.4646
 3403TIP3    H131624   2.789   6.238  15.990  0.4072 -0.3231  0.5267
 3403TIP3    H231625   2.811   6.132  15.884  1.7949 -0.8959  1.3600
 3404TIP3   OH231626   5.680   4.745  14.471 -0.2417 -0.0231  0.3580
 3404TIP3    H131627   5.685   4.827  14.521 -0.6830  1.1477 -1.4131
 3404TIP3    H231628   5.759   4.745  14.418  0.6259 -1.6549  1.5639
 3405TIP3   OH231629   2.067   3.156  14.995  0.0966 -0.2911  0.0534
 3405TIP3    H131630   2.013   3.226  14.957  0.6196 -0.7349 -1.5766
 3405TIP3    H231631   2.148   3.199  15.021  0.7304 -0.3688 -1.6562
 3406TIP3   OH231632   4.646   2.553   1.289 -0.0053  0.4689 -0.5450
 3406TIP3    H131633   4.652   2.538   1.195 -0.4889  0.0701 -0.5129
 3406TIP3    H231634   4.662   2.647   1.299  3.4839  0.0535 -0.7116
 3407TIP3   OH231635   0.582   0.722  14.930 -0.2328  0.3315  0.0443
 3407TIP3    H131636   0.624   0.637  14.912 -1.4520  0.0900 -1.9111
 3407TIP3    H231637   0.563   0.719  15.024  0.2290 -1.3424  0.1311
 3408TIP3   OH231638   3.032   6.555  11.658  0.1163 -0.1617  0.0788
 3408TIP3    H131639   3.064   6.507  11.734  0.4183 -1.9148 -1.1081
 3408TIP3    H231640   2.942   6.526  11.647 -0.3665  1.0958  0.5253
 3409TIP3   OH231641   4.932   5.080   0.237  0.1647 -0.2446  0.3500
 3409TIP3    H131642   4.965   5.095   0.325  0.8800  0.4128 -0.0189
 3409TIP3    H231643   4.914   4.986   0.234 -1.3983 -0.0458  1.6930
 3410TIP3   OH231644   0.514   6.431   0.619 -0.1713  0.5745  0.4100
 3410TIP3    H131645   0.540   6.339   0.620  0.6895  0.7931 -0.4073
 3410TIP3    H231646   0.428   6.431   0.575 -0.6895  0.0603  1.3875
 3411TIP3   OH231647   0.517   0.785  14.493  0.0798  1.0351  0.1173
 3411TIP3    H131648   0.595   0.768  14.545 -0.5758 -1.2737  0.4620
 3411TIP3    H231649   0.534   0.741  14.409 -0.1753  1.9748 -0.4447
 3412TIP3   OH231650   0.903   2.380   4.656  0.1881  0.6256  0.0449
 3412TIP3    H131651   0.813   2.409   4.672  1.0390  2.2053  2.6916
 3412TIP3    H231652   0.957   2.456   4.681  2.2706 -0.2703 -1.4552
 3413TIP3   OH231653   3.034   0.848   2.237  0.4570  0.4037  0.2612
 3413TIP3    H131654   2.948   0.820   2.205  0.7217 -1.0892  0.7718
 3413TIP3    H231655   3.096   0.811   2.174  0.9549 -2.1651  2.1332
 3414TIP3   OH231656   0.144   1.211   6.334 -0.0336  0.6108  0.1170
 3414TIP3    H131657   0.228   1.175   6.363 -1.1949 -1.9917  0.5296
 3414TIP3    H231658   0.143   1.197   6.239  0.1287  0.9870  0.0567
 3415TIP3   OH231659   4.471   2.022  12.896  0.4342  0.8330 -0.4459
 3415TIP3    H131660   4.501   1.936  12.922  0.1609  0.3169 -1.7712
 3415TIP3    H231661   4.424   2.055  12.973  0.8459 -0.0458  0.1945
 3416TIP3   OH231662   5.252   1.664   5.318 -0.5330 -0.1089 -0.1287
 3416TIP3    H131663   5.163   1.664   5.355 -0.9108  0.3306 -0.9992
 3416TIP3    H231664   5.285   1.752   5.334 -0.9954  0.3395 -1.4708
 3417TIP3   OH231665   1.838   6.110  13.860  0.4328 -1.0029  0.0505
 3417TIP3    H131666   1.826   6.031  13.913 -1.4238  0.2307  1.5975
 3417TIP3    H231667   1.819   6.082  13.771  0.8679 -2.5172  0.3993
 3418TIP3   OH231668   2.075   4.875   2.593  0.3965  0.3012 -0.4070
 3418TIP3    H131669   2.003   4.814   2.584  0.9007 -0.4532  0.5246
 3418TIP3    H231670   2.033   4.961   2.604 -0.3582 -0.1643  0.4272
 3419TIP3   OH231671   0.733   3.856   2.787 -0.4932 -0.1421  0.1810
 3419TIP3    H131672   0.726   3.951   2.785  0.2150  0.0238  2.6441
 3419TIP3    H231673   0.818   3.837   2.748 -0.1100  0.3498  0.7529
 3420TIP3   OH231674   2.319   6.550   4.959  0.2293  0.0304  0.2054
 3420TIP3    H131675   2.349   6.508   4.878  1.8829  1.7290 -0.1310
 3420TIP3    H231676   2.260   6.619   4.929 -0.8000 -0.6413  0.6214
 3421TIP3   OH231677   2.214   0.196  10.911  0.0354 -0.0966 -0.0110
 3421TIP3    H131678   2.187   0.252  10.839  1.4883  0.9665  0.2191
 3421TIP3    H231679   2.267   0.253  10.968  1.6204 -1.6843  0.2120
 3422TIP3   OH231680   6.485   4.031  14.976  0.5043 -0.1481 -0.3483
 3422TIP3    H131681   6.408   4.086  14.986  0.8526  0.4664 -0.9625
 3422TIP3    H231682   6.451   3.944  14.957 -0.0367  0.0973 -0.5061
 3423TIP3   OH231683   0.670   0.595  17.087  0.0325 -0.1974  0.0977
 3423TIP3    H131684   0.616   0.629  17.158  1.0381 -2.2503  1.9926
 3423TIP3    H231685   0.760   0.612  17.115  0.4440  0.0932 -1.3291
 3424TIP3   OH231686   3.421   1.773  13.359  0.1620 -0.2410  0.1150
 3424TIP3    H131687   3.476   1.839  13.317 -0.6553 -0.1874 -0.9204
 3424TIP3    H231688   3.404   1.808  13.446 -1.4156  1.6735 -0.8605
 3425TIP3   OH231689   0.578   5.262  10.732 -0.1735  0.1390 -0.0808
 3425TIP3    H131690   0.620   5.177  10.743  1.0118  0.7884  0.6848
 3425TIP3    H231691   0.613   5.315  10.803 -0.0801  1.5772 -1.1548
 3426TIP3   OH231692   1.476   0.789   2.310  0.1493 -0.0027 -0.0198
 3426TIP3    H131693   1.407   0.758   2.369  0.4523 -0.6899 -0.0150
 3426TIP3    H231694   1.460   0.883   2.301  0.1597  0.1275  1.2260
 3427TIP3   OH231695   2.934   2.275   2.791 -1.1211  0.6871 -0.4397
 3427TIP3    H131696   2.990   2.330   2.847  1.7498 -1.9326 -0.4799
 3427TIP3    H231697   2.855   2.261   2.842  0.0239  1.1254  1.5485
 3428TIP3   OH231698   5.874   0.866  13.752  0.2413 -0.2142  0.2556
 3428TIP3    H131699   5.891   0.862  13.658  2.9008  1.2827  0.5623
 3428TIP3    H231700   5.813   0.794  13.769  2.0575 -2.4864 -2.1277
 3429TIP3   OH231701   1.515   5.725  10.276 -0.3702  0.1002 -0.2749
 3429TIP3    H131702   1.598   5.772  10.267 -0.1435 -0.4975 -1.4785
 3429TIP3    H231703   1.537   5.633  10.263 -1.1333 -0.1294 -0.0225
 3430TIP3   OH231704   2.677   0.445  14.764 -0.3143 -0.3520  0.3182
 3430TIP3    H131705   2.725   0.394  14.829 -0.3003 -1.7619 -0.7682
 3430TIP3    H231706   2.598   0.394  14.747  0.6851 -1.1688 -2.3352
 3431TIP3   OH231707   0.466   3.391   3.276  0.4704  0.5047 -0.6630
 3431TIP3    H131708   0.394   3.428   3.225  0.0539 -0.5144 -0.8328
 3431TIP3    H231709   0.545   3.433   3.241  0.0353  1.0443 -1.0080
 3432TIP3   OH231710   2.413   3.680  13.917  0.2915  0.8234  0.1381
 3432TIP3    H131711   2.348   3.620  13.878  0.2786  1.5912 -1.0910
 3432TIP3    H231712   2.485   3.681  13.854  1.3484  0.2938  1.2999
 3433TIP3   OH231713   4.084   0.778   3.756  0.0927  0.1913  0.2528
 3433TIP3    H131714   4.147   0.819   3.697  0.4105 -1.6933 -0.8089
 3433TIP3    H231715   4.017   0.845   3.771  1.9500  1.9942  0.8495
 3434TIP3   OH231716   1.542   1.716  15.862  0.0545 -0.1826  0.0284
 3434TIP3    H131717   1.558   1.782  15.795  1.1238  2.0897  2.3621
 3434TIP3    H231718   1.608   1.648  15.845  0.2885  0.3168 -1.1943
 3435TIP3   OH231719   3.452   2.983   0.187 -0.2632 -0.3052  0.1641
 3435TIP3    H131720   3.366   2.945   0.204 -0.1229 -0.4340  0.5888
 3435TIP3    H231721   3.489   2.928   0.118 -0.4041 -0.4280  0.1858
 3436TIP3   OH231722   5.449   5.725   0.727  0.6671 -0.8193  0.1342
 3436TIP3    H131723   5.378   5.765   0.777  0.4986 -2.3011  1.1743
 3436TIP3    H231724   5.510   5.797   0.710 -0.8746  0.4058 -0.4627
 3437TIP3   OH231725   4.926   4.762  12.239  0.6662  1.0870  0.1003
 3437TIP3    H131726   4.942   4.798  12.152 -0.2471  1.1043 -0.0698
 3437TIP3    H231727   4.847   4.709  12.228 -0.2517  2.1637  1.2023
 3438TIP3   OH231728   6.644   1.926  12.992  0.0709  0.0672 -0.5312
 3438TIP3    H131729   6.557   1.964  12.999 -0.5848 -1.4455  0.0261
 3438TIP3    H231730   6.635   1.838  13.029  1.6270 -0.4423 -1.2638
 3439TIP3   OH231731   1.448   5.991   1.310 -0.0332  0.8743  0.2597
 3439TIP3    H131732   1.400   5.949   1.239  0.0010  1.2837 -0.0106
 3439TIP3    H231733   1.518   6.039   1.267  1.5961 -0.9621  0.7531
 3440TIP3   OH231734   5.144   5.149   1.312  0.0737  0.4141 -0.2803
 3440TIP3    H131735   5.093   5.123   1.235  1.5334  0.5417 -1.3332
 3440TIP3    H231736   5.216   5.087   1.315  0.5820  1.0262  0.3857
 3441TIP3   OH231737   6.679   3.069   6.821 -0.1916  0.4591  0.5227
 3441TIP3    H131738   6.668   3.157   6.785 -0.4447  0.7197  1.2218
 3441TIP3    H231739   6.642   3.011   6.754 -0.3012  0.9093  0.1926
 3442TIP3   OH231740   4.174   1.835   0.170 -0.5443  0.4808  0.2940
 3442TIP3    H131741   4.094   1.870   0.130 -1.0832  0.5520  1.4002
 3442TIP3    H231742   4.197   1.899   0.238  1.6192  1.5294 -1.3005
 3443TIP3   OH231743   1.133   6.285  16.433  0.2180 -0.0842  0.3795
 3443TIP3    H131744   1.082   6.347  16.486  0.9885  2.2151 -1.4300
 3443TIP3    H231745   1.210   6.265  16.487 -0.5511 -0.3554  1.4182
 3444TIP3   OH231746   1.249   3.232  16.677  0.3874 -0.3108  0.2653
 3444TIP3    H131747   1.293   3.314  16.658  3.0640 -1.4629  1.0438
 3444TIP3    H231748   1.224   3.238  16.769  0.3892 -0.2844  0.2634
 3445TIP3   OH231749   3.083   2.983  11.651  0.0227 -0.2749 -0.0195
 3445TIP3    H131750   3.122   3.070  11.648 -0.6930  0.0346 -0.5515
 3445TIP3    H231751   3.019   2.987  11.722 -1.8303  0.4375 -1.6487
 3446TIP3   OH231752   0.532   5.493  10.534  0.9315  0.4426 -0.3817
 3446TIP3    H131753   0.539   5.403  10.565  0.6476  1.0609  1.5910
 3446TIP3    H231754   0.615   5.508  10.488  1.6047 -0.3994  0.4944
 3447TIP3   OH231755   2.475   5.223   5.199  0.0710 -0.0056 -0.3837
 3447TIP3    H131756   2.389   5.234   5.240  0.1153  2.2709 -0.7506
 3447TIP3    H231757   2.502   5.135   5.223 -2.6408 -1.0622 -0.7775
 3448TIP3   OH231758   6.185   1.998  16.256 -0.0524  0.0495  0.0808
 3448TIP3    H131759   6.150   2.044  16.179  0.4321 -0.7234 -0.6143
 3448TIP3    H231760   6.279   1.995  16.241  0.3142  1.6604  1.6963
 3449TIP3   OH231761   0.584   6.669   2.289 -0.0462 -0.0416 -0.0661
 3449TIP3    H131762   0.620   6.580   2.280  2.3928  0.9222 -0.5600
 3449TIP3    H231763   0.541   6.686   2.205  1.6278  0.0949 -0.9402
 3450TIP3   OH231764   0.140   2.967  11.033  0.5116 -0.0360 -0.5584
 3450TIP3    H131765   0.156   2.928  11.119 -1.6347 -0.0666 -0.1257
 3450TIP3    H231766   0.194   2.916  10.973  2.3993  0.2675  0.7801
 3451TIP3   OH231767   4.993   4.686  11.178  0.2212 -0.0885 -0.5569
 3451TIP3    H131768   4.904   4.709  11.202  0.4383 -0.6468  0.9116
 3451TIP3    H231769   5.015   4.745  11.106 -0.4823  1.7232  0.6385
 3452TIP3   OH231770   3.453   6.544   2.290 -0.2068  0.7537 -0.3016
 3452TIP3    H131771   3.403   6.568   2.212  0.3820  2.5045 -0.1859
 3452TIP3    H231772   3.407   6.588   2.362  0.2346  0.5638  0.0963
 3453TIP3   OH231773   5.563   6.732   1.733  0.2727  0.2852  0.3058
 3453TIP3    H131774   5.571   6.804   1.671  0.9797 -0.6347 -0.7195
 3453TIP3    H231775   5.599   6.656   1.686 -1.5972 -1.0260  0.8744
 3454TIP3   OH231776   2.808   4.424   1.811 -0.5408 -0.6351 -0.5183
 3454TIP3    H131777   2.878   4.377   1.857 -1.3359 -0.1914  1.2079
 3454TIP3    H231778   2.853   4.496   1.767  0.4373 -1.9031 -1.6964
 3455TIP3   OH231779   1.931   0.426   6.035  0.2474 -0.2164 -0.1253
 3455TIP3    H131780   2.024   0.442   6.018  0.9624 -1.8630  1.8576
 3455TIP3    H231781   1.892   0.514   6.037  1.4137  0.4516 -2.4434
 3456TIP3   OH231782   1.766   1.815   3.715  0.1880  0.6107  0.6443
 3456TIP3    H131783   1.785   1.878   3.784  0.4484  0.7281  0.4662
 3456TIP3    H231784   1.755   1.732   3.761 -1.4987  1.0222  1.0243
 3457TIP3   OH231785   4.579   0.262  16.780 -0.3555  0.0228  0.1165
 3457TIP3    H131786   4.641   0.247  16.709 -0.6707  2.9977 -0.9220
 3457TIP3    H231787   4.566   0.175  16.819  2.6078 -1.0973 -1.0918
 3458TIP3   OH231788   5.999   2.197  14.883  0.5160  0.3796 -0.4998
 3458TIP3    H131789   5.912   2.161  14.904  1.9332 -1.7384  2.5554
 3458TIP3    H231790   6.017   2.164  14.795 -0.8908 -1.1140 -0.2914
 3459TIP3   OH231791   6.161   5.662   6.537  0.5505 -0.2052 -0.0723
 3459TIP3    H131792   6.133   5.751   6.518 -0.9569 -0.6145  0.0597
 3459TIP3    H231793   6.095   5.628   6.597  1.3416 -1.2692  0.2374
 3460TIP3   OH231794   0.635   0.611  10.516  0.1472 -0.2899  0.1337
 3460TIP3    H131795   0.643   0.541  10.581 -1.2086 -0.3124  0.3079
 3460TIP3    H231796   0.718   0.658  10.522  0.9262 -1.6161  0.3051
 3461TIP3   OH231797   4.792   4.665  11.499 -0.1336  0.0480  0.4416
 3461TIP3    H131798   4.708   4.708  11.484  0.7224  1.7755  0.2654
 3461TIP3    H231799   4.782   4.578  11.462 -1.7249  0.3545  0.0912
 3462TIP3   OH231800   6.177   0.701  13.492 -0.1344 -0.2025  0.7602
 3462TIP3    H131801   6.137   0.698  13.580  0.4437 -0.0819  1.0312
 3462TIP3    H231802   6.141   0.624  13.448 -0.0348 -0.5575  1.2808
 3463TIP3   OH231803   6.747   3.923  11.910  0.0266  0.5840  0.4906
 3463TIP3    H131804   6.666   3.909  11.860  1.6695 -1.3340 -1.8509
 3463TIP3    H231805   6.772   3.836  11.940  2.5559  0.6049 -1.1879
 3464TIP3   OH231806   0.380   4.175  11.579  0.9180  0.1420  0.5000
 3464TIP3    H131807   0.411   4.155  11.667  0.9557  1.2106  0.7429
 3464TIP3    H231808   0.460   4.184  11.527  0.9320  0.6162  0.6054
 3465TIP3   OH231809   0.072   6.472  15.127  0.3726 -0.2535 -0.4574
 3465TIP3    H131810   0.142   6.407  15.130 -0.3997 -1.0906  1.7755
 3465TIP3    H231811   0.112   6.553  15.159  0.0557 -1.1435  2.5570
 3466TIP3   OH231812   5.150   4.539   4.635 -0.7114  0.4923  0.5488
 3466TIP3    H131813   5.140   4.631   4.659 -1.0896 -0.0401  2.6943
 3466TIP3    H231814   5.189   4.499   4.713 -0.9889 -1.2425 -0.1677
 3467TIP3   OH231815   3.594   5.705  10.709  0.6705  0.0425  0.0412
 3467TIP3    H131816   3.688   5.720  10.698  0.6604  1.2293  1.4207
 3467TIP3    H231817   3.588   5.611  10.729  1.4528 -0.2540 -0.9807
 3468TIP3   OH231818   5.022   2.729   2.897 -0.1248 -0.3592 -0.1422
 3468TIP3    H131819   5.072   2.704   2.974 -0.7294  0.5897  0.5705
 3468TIP3    H231820   4.942   2.676   2.901 -1.1281  1.1640  1.0457
 3469TIP3   OH231821   0.512   1.743   3.990  0.1085 -0.1327  0.2233
 3469TIP3    H131822   0.576   1.790   4.043  0.0542 -0.9274  1.0217
 3469TIP3    H231823   0.493   1.664   4.040 -0.5795 -0.5011 -0.5913
 3470TIP3   OH231824   5.557   1.755  11.944 -0.9196  0.0431  0.1210
 3470TIP3    H131825   5.473   1.792  11.917 -0.8536 -0.4759 -0.8073
 3470TIP3    H231826   5.591   1.710  11.867 -0.7466 -1.5166  1.0490
 3471TIP3   OH231827   0.215   2.897  11.277 -0.0712 -0.1789  0.1353
 3471TIP3    H131828   0.295   2.920  11.324 -0.1471 -0.3547  0.3515
 3471TIP3    H231829   0.173   2.831  11.332 -0.3767 -0.0703  0.0316
 3472TIP3   OH231830   6.173   3.857   4.640 -0.6332  0.1885 -0.1501
 3472TIP3    H131831   6.155   3.875   4.732 -2.6968  0.0097 -0.4638
 3472TIP3    H231832   6.196   3.765   4.637 -3.4877 -0.6321 -0.0750
 3473TIP3   OH231833   0.147   0.339  13.904  0.5412  0.2472 -0.2781
 3473TIP3    H131834   0.204   0.370  13.834  2.3748 -3.5669 -0.7560
 3473TIP3    H231835   0.182   0.253  13.927 -3.0676 -0.8779  1.8415
 3474TIP3   OH231836   6.513   1.089  14.637  0.0289 -0.3857  0.1156
 3474TIP3    H131837   6.496   1.123  14.725  0.8885  0.4527 -0.0285
 3474TIP3    H231838   6.608   1.097  14.625  0.4239 -3.4872  0.3106
 3475TIP3   OH231839   6.174   4.485   3.061 -0.2531  0.0673  0.6508
 3475TIP3    H131840   6.206   4.396   3.077  0.4583  0.0808 -0.5652
 3475TIP3    H231841   6.083   4.473   3.034 -0.0502 -0.3253  0.1280
 3476TIP3   OH231842   4.120   2.412   3.243  0.0489  0.3981  0.3136
 3476TIP3    H131843   4.165   2.364   3.174 -1.8594  0.8488 -1.3334
 3476TIP3    H231844   4.166   2.496   3.248  1.1602 -0.2160  0.7079
 3477TIP3   OH231845   0.189   4.464  11.715  0.1286 -0.0935 -0.2276
 3477TIP3    H131846   0.214   4.416  11.793  0.7385  0.0179 -0.3473
 3477TIP3    H231847   0.192   4.556  11.741 -1.7136 -0.1234  0.1975
 3478TIP3   OH231848   3.111   0.442   2.148  0.0286  0.4929  0.3861
 3478TIP3    H131849   3.058   0.501   2.201  0.4466  0.3619  0.9618
 3478TIP3    H231850   3.167   0.397   2.211 -0.5538 -0.8099  0.0178
 3479TIP3   OH231851   6.542   3.035  11.384  0.1760  0.4376  0.5236
 3479TIP3    H131852   6.490   3.103  11.342 -1.8494 -0.7240  1.0132
 3479TIP3    H231853   6.562   3.070  11.471 -0.4167  0.5939  0.5965
 3480TIP3   OH231854   6.686   1.976   0.669 -0.5010 -0.6360 -0.5562
 3480TIP3    H131855   6.662   1.972   0.577 -0.3612 -0.9070 -0.5812
 3480TIP3    H231856   6.731   1.893   0.686  0.3762 -0.1611 -0.4964
 3481TIP3   OH231857   0.385   3.458   1.566 -0.0579 -0.7258 -0.4700
 3481TIP3    H131858   0.356   3.381   1.614 -2.1270 -0.6318 -1.4440
 3481TIP3    H231859   0.458   3.428   1.512  0.1601 -1.6059  0.2974
 3482TIP3   OH231860   4.459   3.905   6.279 -0.1093  0.2533  0.0452
 3482TIP3    H131861   4.489   3.850   6.352  0.9926  0.9463  0.1332
 3482TIP3    H231862   4.408   3.846   6.224  3.5200 -1.7584 -1.5231
 3483TIP3   OH231863   0.663   3.774   6.237 -0.2518  0.3809  0.2363
 3483TIP3    H131864   0.747   3.759   6.194 -1.2295  0.0480 -1.6297
 3483TIP3    H231865   0.637   3.688   6.269 -0.9300  0.0070 -1.2307
 3484TIP3   OH231866   2.489   3.013  14.493 -0.1178 -0.7009  0.1762
 3484TIP3    H131867   2.537   2.943  14.536  0.1175 -0.6293  0.0359
 3484TIP3    H231868   2.410   3.025  14.546 -0.2106 -1.1399  0.1402
 3485TIP3   OH231869   4.258   0.287   1.226 -0.2370 -0.7002  0.2966
 3485TIP3    H131870   4.281   0.280   1.133  1.8769  1.9905  0.5017
 3485TIP3    H231871   4.199   0.362   1.231  0.8608  0.1260  1.2596
 3486TIP3   OH231872   2.408   6.081  16.397  0.5374 -0.3314 -0.5822
 3486TIP3    H131873   2.334   6.056  16.452  1.8697  0.7967  1.8719
 3486TIP3    H231874   2.475   6.109  16.458  2.3788  0.4081 -2.8000
 3487TIP3   OH231875   3.573   5.805  13.189  0.0477  0.1305  0.2604
 3487TIP3    H131876   3.597   5.717  13.161  2.4577  0.6582  0.5320
 3487TIP3    H231877   3.580   5.803  13.284 -2.4248 -0.0321  0.5074
 3488TIP3   OH231878   5.614   4.184   1.889 -0.2200  0.8497 -0.4209
 3488TIP3    H131879   5.698   4.144   1.868  0.3343  0.3042  2.4799
 3488TIP3    H231880   5.549   4.118   1.865  0.2357  0.7852 -1.5265
 3489TIP3   OH231881   2.127   5.585   2.106 -0.6244 -0.8042 -0.1596
 3489TIP3    H131882   2.095   5.498   2.081 -0.2035 -1.4730  1.4794
 3489TIP3    H231883   2.103   5.593   2.199 -0.4035  0.7222 -0.2184
 3490TIP3   OH231884   1.860   0.982  15.192  0.3919  0.4378 -0.1592
 3490TIP3    H131885   1.944   1.028  15.199  0.5190  0.1872 -0.0557
 3490TIP3    H231886   1.838   0.988  15.099  0.3991  0.7229 -0.1441
 3491TIP3   OH231887   3.092   4.289   5.179 -0.5841  0.2530 -0.6935
 3491TIP3    H131888   2.998   4.306   5.183 -0.4566  1.7025 -2.3611
 3491TIP3    H231889   3.122   4.340   5.103  1.9076  1.5725  1.0523
 3492TIP3   OH231890   0.043   6.087  11.942  0.0197  0.2978  0.7368
 3492TIP3    H131891   0.029   6.131  11.858  1.9574 -1.6944 -0.7422
 3492TIP3    H231892  -0.044   6.054  11.965 -0.7978  1.9445  0.1995
 3493TIP3   OH231893   3.700   4.534   3.285 -0.2113  0.4270 -0.4509
 3493TIP3    H131894   3.682   4.593   3.358 -0.0562  0.8991 -0.7836
 3493TIP3    H231895   3.630   4.469   3.289  0.7785 -0.6080  1.1642
 3494TIP3   OH231896   1.693   3.230   0.749 -0.5904 -0.6483  0.3798
 3494TIP3    H131897   1.761   3.277   0.797 -1.4766  0.4477  0.6104
 3494TIP3    H231898   1.645   3.182   0.817  0.2147 -1.8054  0.1631
 3495TIP3   OH231899   1.292   0.754  15.276 -0.0695  0.4748 -0.3884
 3495TIP3    H131900   1.326   0.843  15.284  0.9247  0.1732 -1.0922
 3495TIP3    H231901   1.307   0.731  15.184 -0.8614 -0.2092 -0.3573
 3496TIP3   OH231902   4.558   0.307   0.206  0.6438  0.0138  0.1077
 3496TIP3    H131903   4.604   0.335   0.127  1.8228  1.1485  1.1576
 3496TIP3    H231904   4.610   0.233   0.239  0.1122 -0.5067 -0.1943
 3497TIP3   OH231905   4.060   4.849  13.920 -0.3226 -0.8018 -0.1521
 3497TIP3    H131906   4.072   4.937  13.884 -0.1836  0.8056  3.3911
 3497TIP3    H231907   4.147   4.810  13.915 -0.2364 -0.5174 -1.1510
 3498TIP3   OH231908   4.900   2.505  14.636  0.4516 -0.1576  0.2316
 3498TIP3    H131909   4.942   2.434  14.587  0.3696  0.5922 -0.9628
 3498TIP3    H231910   4.961   2.578  14.628  1.0841 -0.3843  2.4186
 3499TIP3   OH231911   6.291   4.693   3.176  0.5916 -0.2499  0.0929
 3499TIP3    H131912   6.229   4.742   3.230  0.2559 -0.0633 -0.4555
 3499TIP3    H231913   6.236   4.633   3.125  0.9740 -0.9807  0.5355
 3500TIP3   OH231914   5.503   6.208   3.351 -0.1602  0.1549 -0.1406
 3500TIP3    H131915   5.428   6.188   3.407  0.4308 -0.5047  0.4336
 3500TIP3    H231916   5.569   6.143   3.376  0.2824  0.1563 -1.2730
 3501TIP3   OH231917   3.417   0.981  16.287  0.8638  0.0528  0.3186
 3501TIP3    H131918   3.401   1.065  16.245  2.5447  0.3154  0.1563
 3501TIP3    H231919   3.347   0.973  16.352  0.6538  1.5531  0.3068
 3502TIP3   OH231920   3.169   0.686   0.125 -0.1748  0.6875 -0.4320
 3502TIP3    H131921   3.247   0.635   0.103  0.3305  2.2128 -2.5539
 3502TIP3    H231922   3.102   0.621   0.142  0.6023 -0.7451 -2.4077
 3503TIP3   OH231923   6.603   5.591   6.590 -0.3177 -0.7891  0.1291
 3503TIP3    H131924   6.555   5.575   6.671 -0.1954 -0.7222  0.2161
 3503TIP3    H231925   6.536   5.595   6.522 -0.2438 -3.2130 -0.1520
 3504TIP3   OH231926   1.704   1.114   5.482  0.1807 -0.2152  0.4534
 3504TIP3    H131927   1.755   1.125   5.402  0.6516  0.8578  0.8803
 3504TIP3    H231928   1.769   1.085   5.547 -0.1188 -0.6865  0.5475
 3505TIP3   OH231929   3.338   6.589  16.209  0.1087 -0.3252 -0.3449
 3505TIP3    H131930   3.337   6.582  16.113  2.9848  0.9957 -0.5716
 3505TIP3    H231931   3.370   6.678  16.226 -0.3018 -0.5489  1.8781
 3506TIP3   OH231932   1.645   0.032  16.094  0.0745  0.5352 -0.1168
 3506TIP3    H131933   1.635  -0.043  16.153  1.2992 -0.2242 -0.8327
 3506TIP3    H231934   1.679  -0.006  16.012  2.7186  2.0756  0.1588
 3507TIP3   OH231935   6.623   3.602  11.191  0.6666  0.2429 -0.7263
 3507TIP3    H131936   6.664   3.689  11.189  1.6598 -0.1851 -3.3137
 3507TIP3    H231937   6.686   3.546  11.236  0.4312  0.6698  0.1432
 3508TIP3   OH231938   6.473   5.487   2.319  0.0443 -0.1182 -0.6734
 3508TIP3    H131939   6.483   5.582   2.333  0.5261 -0.0414 -1.4582
 3508TIP3    H231940   6.545   5.465   2.259  0.5250 -1.1615  0.2582
 3509TIP3   OH231941   5.185   4.783   0.412 -0.4796 -0.1814 -1.2947
 3509TIP3    H131942   5.181   4.717   0.342  1.5947 -0.5926 -1.0687
 3509TIP3    H231943   5.216   4.735   0.489 -0.7145  0.6966 -0.6369
 3510TIP3   OH231944   3.418   6.155  16.625 -0.2175  0.1624 -0.7756
 3510TIP3    H131945   3.486   6.220  16.644 -0.0093 -0.7449  1.8391
 3510TIP3    H231946   3.345   6.179  16.682 -0.3737 -1.5012 -0.2243
 3511TIP3   OH231947   0.541   5.596  15.272  0.0412 -0.3585 -0.0501
 3511TIP3    H131948   0.531   5.501  15.272 -0.3941 -0.3420 -1.5909
 3511TIP3    H231949   0.609   5.613  15.206  0.4120  0.3828  0.5053
 3512TIP3   OH231950   1.056   5.729  14.522 -0.1205 -0.0107 -0.3375
 3512TIP3    H131951   1.100   5.652  14.559 -0.2621  0.5639  1.0979
 3512TIP3    H231952   1.123   5.798  14.525 -0.0760  0.0008 -1.3673
 3513TIP3   OH231953   3.300   4.502  12.367  0.8935 -0.3761  0.5473
 3513TIP3    H131954   3.274   4.410  12.367  1.3950 -0.5547 -1.3615
 3513TIP3    H231955   3.237   4.545  12.425 -1.7996 -1.2677 -1.5220
 3514TIP3   OH231956   2.034   4.922   4.108 -0.2736  0.3687 -0.3883
 3514TIP3    H131957   1.993   4.839   4.082 -1.1517  0.3605  0.9004
 3514TIP3    H231958   2.027   4.977   4.030 -1.2471 -0.2025 -0.7307
 3515TIP3   OH231959   1.741   5.375   2.329 -0.1791  0.2929 -0.6451
 3515TIP3    H131960   1.807   5.370   2.398 -0.7957 -0.6267 -0.0986
 3515TIP3    H231961   1.745   5.290   2.285 -2.7397 -0.8838  1.0909
 3516TIP3   OH231962   4.443   0.180  11.278 -0.0334  0.3184  0.4628
 3516TIP3    H131963   4.410   0.220  11.358 -0.9937 -2.6775  1.7111
 3516TIP3    H231964   4.367   0.176  11.220 -0.0506  0.0162  0.5005
 3517TIP3   OH231965   4.536   1.826   2.996  0.5702  0.3019 -0.2535
 3517TIP3    H131966   4.631   1.827   3.000  0.7045 -1.7410 -1.1109
 3517TIP3    H231967   4.517   1.785   2.911 -1.0126 -1.0452  0.6837
 3518TIP3   OH231968   0.849   6.706  14.948  0.1873  0.1632  0.0412
 3518TIP3    H131969   0.759   6.697  14.979  0.0443 -0.5912 -0.5518
 3518TIP3    H231970   0.862   6.801  14.939 -0.4785  0.2868  0.3297
 3519TIP3   OH231971   6.652   0.831   0.310  0.0239 -0.5330  0.2264
 3519TIP3    H131972   6.577   0.793   0.357 -0.4347 -0.2804 -0.2907
 3519TIP3    H231973   6.728   0.805   0.362 -0.5219  0.3739  1.5335
 3520TIP3   OH231974   0.437   1.729   4.272 -0.7537  0.1197  0.2086
 3520TIP3    H131975   0.530   1.704   4.275 -0.7241  0.2376  0.2503
 3520TIP3    H231976   0.431   1.809   4.323 -0.1650  2.3071 -2.8658
 3521TIP3   OH231977   4.244   4.005   2.119  0.3689  0.0328  0.3930
 3521TIP3    H131978   4.312   3.944   2.150  0.8495 -0.7724 -2.0569
 3521TIP3    H231979   4.282   4.046   2.042 -0.3523  2.7777  1.3780
 3522TIP3   OH231980   4.009   3.669  14.365  0.1141  0.3019 -0.3179
 3522TIP3    H131981   3.997   3.611  14.290 -1.0106 -0.7634  0.6397
 3522TIP3    H231982   4.020   3.756  14.327  0.3684 -0.3330 -1.7350
 3523TIP3   OH231983   6.240   6.287   1.597 -0.6433  0.0995 -0.4068
 3523TIP3    H131984   6.202   6.200   1.584 -1.2302  0.3872 -0.6648
 3523TIP3    H231985   6.335   6.272   1.597 -0.7494 -0.6123  0.1101
 3524TIP3   OH231986   5.643   2.441   4.438  0.4956  0.2192  0.4775
 3524TIP3    H131987   5.732   2.405   4.433  0.3355 -0.2957  1.1908
 3524TIP3    H231988   5.586   2.368   4.414  0.1532 -0.1188  2.1940
 3525TIP3   OH231989   4.892   2.168  15.668 -0.0320 -0.0292  0.2608
 3525TIP3    H131990   4.934   2.095  15.622  0.5905  0.6124 -0.2142
 3525TIP3    H231991   4.846   2.216  15.600  0.1290  0.4057  0.4549
 3526TIP3   OH231992   0.936   6.499  14.593 -0.6337  0.1905  0.4136
 3526TIP3    H131993   0.910   6.578  14.545  0.4061  0.9256  1.0137
 3526TIP3    H231994   0.872   6.491  14.664 -0.9152  0.3203  0.1766
 3527TIP3   OH231995   4.733   3.880  14.438  1.2837  0.5321  0.0584
 3527TIP3    H131996   4.706   3.972  14.432 -0.5510  0.1139  1.0445
 3527TIP3    H231997   4.725   3.847  14.349  0.1042  0.8719  0.0219
 3528TIP3   OH231998   6.602   4.842  11.617  0.5067  0.3515  0.0460
 3528TIP3    H131999   6.602   4.783  11.541  0.9129  2.4364 -1.6559
 3528TIP3    H232000   6.517   4.885  11.615  0.6906  0.7469  0.5058
 3529TIP3   OH232001   3.376   0.676  16.618 -0.0243  0.3282 -0.3897
 3529TIP3    H132002   3.282   0.670  16.604  0.1065  0.0018 -1.2334
 3529TIP3    H232003   3.413   0.667  16.530  0.7619  1.2113 -0.1567
 3530TIP3   OH232004   6.075   2.756  15.556 -0.2919  0.3387 -0.4471
 3530TIP3    H132005   6.042   2.809  15.629  1.1047 -1.0825  1.3278
 3530TIP3    H232006   6.151   2.710  15.593 -0.0319 -1.0703 -2.5816
 3531TIP3   OH232007   6.699   3.514   2.930  0.3150 -0.3214 -0.4574
 3531TIP3    H132008   6.753   3.592   2.914 -0.0275  0.1062  0.3896
 3531TIP3    H232009   6.757   3.440   2.912  0.8172  0.1244 -0.7131
 3532TIP3   OH232010   2.739   2.279  14.990  0.3229  0.2045 -0.1997
 3532TIP3    H132011   2.813   2.257  14.933 -0.6645 -1.6464 -0.8610
 3532TIP3    H232012   2.666   2.294  14.929 -0.6674 -1.4534  0.5151
 3533TIP3   OH232013   1.881   0.853   0.329 -0.0867 -0.1653 -0.1216
 3533TIP3    H132014   1.786   0.847   0.342  0.3215 -2.5564  2.7354
 3533TIP3    H232015   1.903   0.772   0.282  0.7210 -0.5121  0.8405
 3534TIP3   OH232016   1.303   3.311   3.721  0.5800  0.0617 -0.7420
 3534TIP3    H132017   1.388   3.347   3.748  0.0243  1.0828 -0.2685
 3534TIP3    H232018   1.283   3.244   3.787  0.7319  0.2737 -0.4777
 3535TIP3   OH232019   3.894   4.356  11.481  0.1083  0.0347 -0.1000
 3535TIP3    H132020   3.884   4.337  11.388  0.7720  0.4608 -0.2601
 3535TIP3    H232021   3.804   4.358  11.514 -0.1156 -0.5229 -0.6427
 3536TIP3   OH232022   4.418   6.183  10.918  0.2963 -0.1800  0.3694
 3536TIP3    H132023   4.421   6.195  11.013 -0.3982 -0.3927  0.4197
 3536TIP3    H232024   4.407   6.272  10.883  1.4620  0.0057  0.4359
 3537TIP3   OH232025   4.867   2.605  13.434  0.1624  0.7998 -0.3895
 3537TIP3    H132026   4.873   2.696  13.406 -1.4167  0.6143 -1.4594
 3537TIP3    H232027   4.786   2.602  13.485 -0.3591 -0.2116 -1.2513
 3538TIP3   OH232028   2.351   3.776  11.912 -0.3146 -0.3450 -1.0564
 3538TIP3    H132029   2.309   3.833  11.846  0.5271  0.3224 -1.0328
 3538TIP3    H232030   2.325   3.688  11.887 -1.3827  0.0156 -1.2947
 3539TIP3   OH232031   2.654   6.548  11.881 -0.1926 -0.4284  0.2462
 3539TIP3    H132032   2.598   6.501  11.820 -0.5947 -0.4169  0.5997
 3539TIP3    H232033   2.658   6.637  11.846  2.2515 -1.1630 -1.5790
 3540TIP3   OH232034   3.383   4.651   4.098 -0.2009 -0.3356  0.3620
 3540TIP3    H132035   3.310   4.618   4.151  0.1992  1.3578  2.0979
 3540TIP3    H232036   3.442   4.691   4.162  1.5821 -0.4146 -1.1486
 3541TIP3   OH232037   5.164   2.399   0.808  0.9886  0.0918 -0.0836
 3541TIP3    H132038   5.220   2.322   0.805  0.3790 -0.3345 -1.1398
 3541TIP3    H232039   5.125   2.397   0.895  0.9273 -0.8383 -0.1268
 3542TIP3   OH232040   2.174   6.493   6.432  0.4755  0.2990  0.3015
 3542TIP3    H132041   2.268   6.484   6.416  0.7986  3.4028 -0.0465
 3542TIP3    H232042   2.162   6.459   6.521  1.5737 -1.6910 -0.2514
 3543TIP3   OH232043   2.853   5.998  11.599 -0.5176  0.2093  0.2231
 3543TIP3    H132044   2.912   5.968  11.529  0.0235  1.2334  0.2178
 3543TIP3    H232045   2.812   6.077  11.563 -3.1936 -1.3590 -0.4280
 3544TIP3   OH232046   4.112   1.627  15.233  0.0744  0.1795 -0.8652
 3544TIP3    H132047   4.140   1.639  15.142  0.4504  4.2306 -0.3971
 3544TIP3    H232048   4.122   1.713  15.273  0.7460 -1.5998  3.3301
 3545TIP3   OH232049   5.793   2.666   4.487 -0.2721  0.0960  0.3494
 3545TIP3    H132050   5.792   2.683   4.581  2.6277 -0.4406  0.5692
 3545TIP3    H232051   5.728   2.597   4.474 -0.3164 -0.2179  2.0267
 3546TIP3   OH232052   4.458   1.278  11.129 -0.8640 -0.8467  0.2128
 3546TIP3    H132053   4.551   1.264  11.148 -0.0941 -0.3276 -2.6905
 3546TIP3    H232054   4.448   1.373  11.132 -1.2548 -0.8911  0.2953
 3547TIP3   OH232055   2.642   2.006   1.206  0.8472 -0.9372  0.2885
 3547TIP3    H132056   2.602   1.949   1.272  1.8464 -0.8906  0.9673
 3547TIP3    H232057   2.635   2.094   1.243  1.0355 -0.8601  0.1410
 3548TIP3   OH232058   2.775   2.281  15.264  0.3372 -0.4003  0.3329
 3548TIP3    H132059   2.742   2.275  15.175 -0.2043 -1.2722  0.5819
 3548TIP3    H232060   2.868   2.301  15.254  0.3551 -0.8351 -0.4229
 3549TIP3   OH232061   4.272   0.830  16.247 -0.1040 -0.0438  0.5415
 3549TIP3    H132062   4.289   0.751  16.196  0.1967  1.5960 -2.1155
 3549TIP3    H232063   4.181   0.823  16.273 -0.1683 -1.1368  0.0753
 3550TIP3   OH232064   2.348   0.277  12.994  0.0521  0.2589 -0.2360
 3550TIP3    H132065   2.401   0.198  12.985 -0.9492 -0.8118  2.3589
 3550TIP3    H232066   2.267   0.247  13.036 -1.0516  2.4340 -0.6494
 3551TIP3   OH232067   1.986   5.646   2.891  0.0370  0.0444 -0.4222
 3551TIP3    H132068   2.051   5.715   2.878  0.8014 -0.7457 -0.9899
 3551TIP3    H232069   1.930   5.677   2.962  0.8135  0.9145 -0.1793
 3552TIP3   OH232070   2.355   0.840  11.611 -0.2906 -0.3019  0.0459
 3552TIP3    H132071   2.434   0.883  11.577  0.0220  0.1361  1.2926
 3552TIP3    H232072   2.388   0.767  11.662 -0.7007 -0.1984  0.4626
 3553TIP3   OH232073   0.064   5.141  15.238 -0.4307  0.6783 -0.4185
 3553TIP3    H132074   0.100   5.152  15.325  0.4162  0.0002 -0.6764
 3553TIP3    H232075   0.021   5.056  15.240  1.3958 -0.3018 -1.2556
 3554TIP3   OH232076   1.541   6.152  16.617 -0.8053 -0.5922 -0.3400
 3554TIP3    H132077   1.611   6.088  16.629  0.2276  0.4586 -0.6090
 3554TIP3    H232078   1.516   6.177  16.706 -0.5651 -0.6821 -0.2456
 3555TIP3   OH232079   3.330   2.016   4.761  0.3209  0.0810 -0.0248
 3555TIP3    H132080   3.312   2.074   4.835 -0.5244  1.6760 -1.4061
 3555TIP3    H232081   3.315   2.070   4.684  1.5214 -1.4141 -1.3889
 3556TIP3   OH232082   1.258   1.197  11.311  0.1819 -0.8007 -0.3974
 3556TIP3    H132083   1.176   1.226  11.353  0.1527 -0.5707 -0.6104
 3556TIP3    H232084   1.258   1.240  11.226  1.8180  1.4895  0.6208
 3557TIP3   OH232085   1.714   0.191   0.598 -0.2363 -0.4057 -0.3205
 3557TIP3    H132086   1.800   0.160   0.571 -0.2739 -1.0174  0.2334
 3557TIP3    H232087   1.675   0.116   0.643 -0.8133  0.0695 -0.0226
 3558TIP3   OH232088   1.661   3.231  13.168  0.4553 -0.0253 -0.0397
 3558TIP3    H132089   1.613   3.234  13.251  1.1043  0.4763  0.3257
 3558TIP3    H232090   1.741   3.183  13.189  0.2332 -0.6456 -0.5874
 3559TIP3   OH232091   5.345   3.583  13.348 -0.1713  0.4620 -0.1954
 3559TIP3    H132092   5.258   3.596  13.310 -0.4217 -0.3038  0.1137
 3559TIP3    H232093   5.345   3.636  13.427  0.7817  3.0991 -1.8144
 3560TIP3   OH232094   4.741   6.512  16.861 -0.5045 -0.1031 -0.5854
 3560TIP3    H132095   4.714   6.421  16.847 -0.1707 -0.2595 -0.2271
 3560TIP3    H232096   4.795   6.533  16.785 -1.0451 -0.0202 -0.9495
 3561TIP3   OH232097   1.855   4.069  12.935 -0.3576 -0.1722 -0.0135
 3561TIP3    H132098   1.934   4.026  12.967 -0.5636 -0.2172  0.4439
 3561TIP3    H232099   1.887   4.148  12.892 -0.0852  0.0080  0.5103
 3562TIP3   OH232100   6.520   1.504   3.714  0.1411  0.1962 -0.4824
 3562TIP3    H132101   6.483   1.592   3.706 -0.6394  0.0285  0.8747
 3562TIP3    H232102   6.449   1.446   3.686  0.0926 -0.0553  0.1531
 3563TIP3   OH232103   2.996   1.460  14.818 -0.1862  0.2410 -0.2196
 3563TIP3    H132104   3.029   1.421  14.738  1.2844 -0.0551  0.4950
 3563TIP3    H232105   2.903   1.440  14.818 -0.0167 -0.6313 -1.3472
 3564TIP3   OH232106   5.366   1.797  14.313 -0.0200  0.2748 -0.3386
 3564TIP3    H132107   5.387   1.828  14.225  0.5121 -0.3479 -0.4399
 3564TIP3    H232108   5.449   1.763  14.347 -0.5400 -0.8641 -0.1651
 3565TIP3   OH232109   4.686   0.738   1.654  0.0784  0.1569  0.1464
 3565TIP3    H132110   4.606   0.791   1.655  0.0197  0.0824  1.6102
 3565TIP3    H232111   4.725   0.752   1.740  2.6405  1.6161 -1.1409
 3566TIP3   OH232112   1.868   4.277  12.599  0.2766 -0.1378  0.0184
 3566TIP3    H132113   1.891   4.318  12.515  0.6867 -1.0079 -0.2969
 3566TIP3    H232114   1.939   4.302  12.658  0.2607  0.0359 -0.0356
 3567TIP3   OH232115   2.301   3.914   1.065  0.0624  0.1103 -0.2474
 3567TIP3    H132116   2.239   3.977   1.029 -0.5800  0.6767  1.7371
 3567TIP3    H232117   2.309   3.848   0.996 -0.2578  1.6398 -1.8576
 3568TIP3   OH232118   2.205   1.006  15.730  0.1384  0.0631  0.4280
 3568TIP3    H132119   2.267   0.936  15.749 -1.3707 -1.7028 -0.8562
 3568TIP3    H232120   2.220   1.027  15.638 -0.9090 -0.1364  0.2032
 3569TIP3   OH232121   1.392   0.652   4.995  1.1877 -0.0590 -0.1242
 3569TIP3    H132122   1.329   0.694   5.053  2.5607 -0.4814  1.7762
 3569TIP3    H232123   1.353   0.567   4.974 -0.2395  0.9071 -1.5413
 3570TIP3   OH232124   6.323   6.664  11.003  0.6512 -0.5461  0.2362
 3570TIP3    H132125   6.294   6.722  11.073  0.1045 -0.4480 -0.0663
 3570TIP3    H232126   6.391   6.611  11.043  1.5281  0.6491  0.3818
 3571TIP3   OH232127   5.874   0.557   5.493  0.0581 -0.2530  0.1961
 3571TIP3    H132128   5.825   0.493   5.441 -0.1097  0.5910 -0.7140
 3571TIP3    H232129   5.852   0.535   5.584 -1.8893 -0.0169 -0.1620
 3572TIP3   OH232130   3.187   2.969   3.010 -0.4940 -0.2581  0.1832
 3572TIP3    H132131   3.170   2.913   2.934 -1.5488  0.4942 -0.1518
 3572TIP3    H232132   3.124   3.040   3.002 -3.5683 -2.2285  3.8796
 3573TIP3   OH232133   5.206   0.513  17.205 -0.1713  0.5681 -0.3099
 3573TIP3    H132134   5.263   0.440  17.181  0.9066  1.3184 -0.1017
 3573TIP3    H232135   5.198   0.564  17.124 -3.1470 -1.1310 -1.2711
 3574TIP3   OH232136   0.425   4.776  11.880 -0.1864  0.0237  0.1166
 3574TIP3    H132137   0.432   4.779  11.976 -1.2691 -0.1972  0.2093
 3574TIP3    H232138   0.334   4.798  11.862 -0.0643 -0.2489 -0.8532
 3575TIP3   OH232139   5.663   4.448  14.767 -0.0458  0.0340 -0.1114
 3575TIP3    H132140   5.689   4.370  14.817  1.1051  0.5293  0.0975
 3575TIP3    H232141   5.732   4.457  14.701 -0.0013  1.0365  0.0549
 3576TIP3   OH232142   4.002   4.473   1.695 -0.8477  0.0535 -0.4819
 3576TIP3    H132143   3.989   4.523   1.614  2.0851  1.0192 -0.4686
 3576TIP3    H232144   4.030   4.539   1.758 -1.5798 -0.9431  0.9384
 3577TIP3   OH232145   2.678   4.074   3.762 -0.5610 -0.1147  0.5512
 3577TIP3    H132146   2.748   4.114   3.814 -0.3029  1.3427 -0.8538
 3577TIP3    H232147   2.693   4.105   3.673 -0.2916 -3.4370 -0.7151
 3578TIP3   OH232148   4.777   2.377   3.463  0.2745  0.0450  0.3388
 3578TIP3    H132149   4.849   2.414   3.412 -0.5132  0.3176 -0.6246
 3578TIP3    H232150   4.808   2.378   3.553  1.8796 -0.7941 -0.1467
 3579TIP3   OH232151   5.517   6.066   1.965 -0.1714  0.1601  0.4406
 3579TIP3    H132152   5.506   6.154   1.930  0.6508 -0.2924 -1.0634
 3579TIP3    H232153   5.607   6.042   1.943 -0.0763 -0.7164  1.6533
 3580TIP3   OH232154   1.862   4.888  16.975  0.0760  0.0899  0.4050
 3580TIP3    H132155   1.896   4.851  17.056 -0.5933 -2.3798 -0.3528
 3580TIP3    H232156   1.928   4.868  16.909 -1.2696 -1.8949 -0.4499
 3581TIP3   OH232157   5.953   0.331  16.578  0.7547 -0.4030 -0.2772
 3581TIP3    H132158   6.026   0.315  16.518  0.0352  0.0726 -1.3328
 3581TIP3    H232159   5.899   0.252  16.572  1.6882 -1.1911  1.2996
 3582TIP3   OH232160   2.839   0.811   3.654 -0.1206  0.3585  0.1404
 3582TIP3    H132161   2.773   0.840   3.717 -1.9192  1.5991 -2.1584
 3582TIP3    H232162   2.809   0.724   3.626  0.2153  0.1692  0.3576
 3583TIP3   OH232163   5.278   5.122  15.381 -0.2300 -0.2929 -0.3732
 3583TIP3    H132164   5.281   5.070  15.301  0.1433  0.6931 -1.0161
 3583TIP3    H232165   5.240   5.206  15.354 -1.8071 -0.5703  0.8485
 3584TIP3   OH232166   5.749   5.141  14.817 -0.0255 -0.1133  0.1489
 3584TIP3    H132167   5.702   5.212  14.773 -0.7467 -0.4412  0.3804
 3584TIP3    H232168   5.739   5.160  14.910  2.1181  0.9923  0.2330
 3585TIP3   OH232169   5.438   1.415   3.188 -0.3267  0.3787  0.1160
 3585TIP3    H132170   5.396   1.354   3.249 -0.1155  2.4565  2.4676
 3585TIP3    H232171   5.368   1.438   3.127 -0.9288 -0.7437  0.3417
 3586TIP3   OH232172   6.529   0.307  11.919  0.3363 -0.1359  0.4532
 3586TIP3    H132173   6.458   0.271  11.971 -1.1497 -0.3643 -1.6013
 3586TIP3    H232174   6.598   0.327  11.982 -1.2234 -0.6724  2.4153
 3587TIP3   OH232175   0.427   1.620  15.046  0.4862  0.1661 -0.5643
 3587TIP3    H132176   0.484   1.567  14.989 -1.4237 -1.7362 -0.8096
 3587TIP3    H232177   0.359   1.653  14.987 -0.5523 -0.3855  0.3182
 3588TIP3   OH232178   4.365   5.591   4.043  0.4317 -0.1680 -0.0477
 3588TIP3    H132179   4.316   5.545   4.112  0.8183 -0.0763  0.2953
 3588TIP3    H232180   4.457   5.584   4.070  0.6904 -0.9899 -1.0760
 3589TIP3   OH232181   0.193   2.944  12.512  0.0897  0.0512  0.2018
 3589TIP3    H132182   0.284   2.916  12.522  0.0520 -0.5865 -1.0574
 3589TIP3    H232183   0.192   2.996  12.432 -0.5659  0.4774  0.4775
 3590TIP3   OH232184   5.464   2.404  11.386 -0.4000  0.4803  0.2770
 3590TIP3    H132185   5.423   2.326  11.422 -1.0683  0.8246  0.2834
 3590TIP3    H232186   5.481   2.382  11.295 -1.6189  0.7080 -0.0224
 3591TIP3   OH232187   3.022   2.403  14.804 -0.1284  0.5863 -0.3289
 3591TIP3    H132188   2.997   2.491  14.776  0.2464  0.2122 -1.9363
 3591TIP3    H232189   3.111   2.412  14.837 -0.3315  0.9153  0.1433
 3592TIP3   OH232190   5.959   4.804  12.728  0.0258  0.3406 -0.1065
 3592TIP3    H132191   6.015   4.746  12.779  0.6390  0.4141 -0.6722
 3592TIP3    H232192   5.900   4.844  12.792  0.0755 -0.3602  0.3836
 3593TIP3   OH232193   3.003   5.647   5.837  0.6198  0.4918  0.4839
 3593TIP3    H132194   2.912   5.673   5.849  1.1360  1.4576  2.9163
 3593TIP3    H232195   3.050   5.729   5.826  1.1028 -0.0591 -2.2052
 3594TIP3   OH232196   5.242   1.588  11.731 -0.2784  0.0930  0.1667
 3594TIP3    H132197   5.229   1.683  11.734  0.3186  0.1693  0.3861
 3594TIP3    H232198   5.337   1.576  11.732 -0.3516 -0.5234  0.7756
 3595TIP3   OH232199   4.469   5.101   6.549  0.5575 -0.3854  0.1945
 3595TIP3    H132200   4.483   5.041   6.622 -0.8498 -1.3115 -0.2370
 3595TIP3    H232201   4.505   5.184   6.579 -0.1151 -0.6932  2.0133
 3596TIP3   OH232202   4.797   4.437  16.983  0.4186  0.0681  0.1690
 3596TIP3    H132203   4.882   4.423  17.024  0.7737 -0.1046 -0.6048
 3596TIP3    H232204   4.804   4.394  16.897 -0.7919 -0.8266  0.4873
 3597TIP3   OH232205   6.412   4.350  12.360 -0.2592  0.1800  0.3865
 3597TIP3    H132206   6.422   4.444  12.346 -0.0490  0.6362  3.1569
 3597TIP3    H232207   6.480   4.327  12.423  0.0284 -1.9725 -0.6065
 3598TIP3   OH232208   6.384   3.927  13.921 -0.4430  0.4941  0.5122
 3598TIP3    H132209   6.416   4.004  13.969  0.5470  0.2569  0.2685
 3598TIP3    H232210   6.464   3.886  13.887 -1.1004  0.5041 -1.1264
 3599TIP3   OH232211   5.830   0.165  16.261 -0.6292 -0.4103 -0.5319
 3599TIP3    H132212   5.803   0.178  16.352 -0.3395 -1.1688 -0.3277
 3599TIP3    H232213   5.911   0.214  16.252  0.6231 -2.2447  0.3089
 3600TIP3   OH232214   1.695   1.323   4.017 -0.2388 -0.3178  0.1791
 3600TIP3    H132215   1.679   1.253   3.954 -1.5666  0.3497 -0.2688
 3600TIP3    H232216   1.746   1.281   4.086 -0.5553 -1.6037 -0.3272
 3601TIP3   OH232217   2.140   0.377   3.108  0.1424  0.0545 -0.1896
 3601TIP3    H132218   2.104   0.305   3.056  0.6684 -1.2615  1.1673
 3601TIP3    H232219   2.107   0.360   3.196  1.5146  0.6034  0.4549
 3602TIP3   OH232220   3.974   1.385   2.105  0.3689 -0.1808 -0.7781
 3602TIP3    H132221   4.059   1.343   2.104  0.1712 -0.5893 -0.7048
 3602TIP3    H232222   3.986   1.464   2.158  0.5597 -0.5338 -0.2881
 3603TIP3   OH232223   2.310   4.322   4.282  0.2279 -0.2068  0.1127
 3603TIP3    H132224   2.359   4.388   4.233 -0.9274  0.5884  0.0011
 3603TIP3    H232225   2.275   4.264   4.215 -0.0653 -0.0163  0.0996
 3604TIP3   OH232226   3.889   1.525  12.034  0.0492  0.3425 -0.1141
 3604TIP3    H132227   3.980   1.528  12.002  0.2240  1.0373  0.4059
 3604TIP3    H232228   3.837   1.550  11.958  0.1825 -1.1785 -0.7452
 3605TIP3   OH232229   6.325   6.020   4.260  0.1647  0.6533 -0.4344
 3605TIP3    H132230   6.270   6.098   4.258  0.0640  0.5719 -1.2130
 3605TIP3    H232231   6.363   6.015   4.172 -1.5122 -1.3673 -1.1316
 3606TIP3   OH232232   5.889   6.505  12.688  0.1343  0.1387  0.0744
 3606TIP3    H132233   5.811   6.487  12.636 -0.2871  1.0021  0.3996
 3606TIP3    H232234   5.920   6.590  12.657 -0.1716  0.7047  1.2854
 3607TIP3   OH232235   1.042   5.165   4.700 -0.1960  0.1403  0.0737
 3607TIP3    H132236   0.950   5.166   4.674 -0.8177  0.6926  2.0681
 3607TIP3    H232237   1.077   5.248   4.668 -1.5330  1.8629  2.6940
 3608TIP3   OH232238   2.920   1.075   1.809 -0.1073 -0.1433  0.6060
 3608TIP3    H132239   2.998   1.019   1.819 -0.8961 -1.3062  0.4363
 3608TIP3    H232240   2.881   1.076   1.896  1.6513  2.8903  1.4832
 3609TIP3   OH232241   0.787   0.099   2.051 -0.2431  0.5019 -0.3870
 3609TIP3    H132242   0.842   0.071   1.978 -0.4786  0.9909 -0.7551
 3609TIP3    H232243   0.803   0.034   2.120  0.0864  0.1212 -0.8215
 3610TIP3   OH232244   2.585   0.700  16.474  0.0736 -0.3284 -0.2532
 3610TIP3    H132245   2.591   0.731  16.383 -0.6018 -0.1557 -0.2448
 3610TIP3    H232246   2.667   0.728  16.514 -0.7355  2.0525 -0.0791
 3611TIP3   OH232247   5.128   0.022  14.215 -0.1321 -0.6756  0.1626
 3611TIP3    H132248   5.116   0.010  14.121  1.6120  0.2119 -0.2164
 3611TIP3    H232249   5.181  -0.054  14.242  1.6417  0.4002 -0.1322
 3612TIP3   OH232250   5.144   3.615   6.025 -0.0866 -0.2121 -0.3437
 3612TIP3    H132251   5.105   3.532   6.050 -0.7176 -0.0382 -0.7167
 3612TIP3    H232252   5.118   3.627   5.933  0.6371  0.0305 -0.5249
 3613TIP3   OH232253   3.615   6.144   0.769 -0.2891  0.0242 -0.2666
 3613TIP3    H132254   3.651   6.233   0.773  1.2659 -0.5430 -0.8864
 3613TIP3    H232255   3.549   6.148   0.700 -1.3387  1.0584  0.7728
 3614TIP3   OH232256   4.598   1.698   4.873 -0.0119  0.1374  0.3847
 3614TIP3    H132257   4.666   1.764   4.859  0.0820 -0.2054 -0.9394
 3614TIP3    H232258   4.524   1.747   4.909  0.9453  0.4998  1.9490
 3615TIP3   OH232259   3.697   1.256   3.894  0.0677 -0.1575 -0.5126
 3615TIP3    H132260   3.769   1.280   3.952  0.5370  1.4367 -1.7035
 3615TIP3    H232261   3.641   1.200   3.948  1.2271  0.0923  1.0152
 3616TIP3   OH232262   4.018   6.433  16.222  0.3220  0.4872  0.1697
 3616TIP3    H132263   4.023   6.458  16.314  1.7019  0.9484 -0.0174
 3616TIP3    H232264   4.102   6.391  16.203 -0.5542 -1.0643 -0.4721
 3617TIP3   OH232265   5.376   4.839   0.052 -0.1629 -0.9578 -0.0642
 3617TIP3    H132266   5.392   4.929   0.023 -1.4619 -0.6318  0.1975
 3617TIP3    H232267   5.458   4.813   0.095  1.4304 -1.0376 -2.8964
 3618TIP3   OH232268   0.933   2.888   4.324  0.1651  0.0648 -0.1072
 3618TIP3    H132269   0.888   2.929   4.397  0.2963 -1.8242  1.0858
 3618TIP3    H232270   0.880   2.911   4.247 -0.3549  1.4849  0.6395
 3619TIP3   OH232271   6.081   0.575  15.948  0.0995 -0.8180 -0.3549
 3619TIP3    H132272   6.115   0.638  15.884 -0.9032 -1.6988 -1.8105
 3619TIP3    H232273   6.016   0.525  15.900 -2.3505 -0.0892  1.9568
 3620TIP3   OH232274   0.970   2.450   0.489 -0.3554  0.4408 -0.0392
 3620TIP3    H132275   0.948   2.464   0.397  0.7258 -0.6585 -0.4958
 3620TIP3    H232276   1.035   2.517   0.509 -0.5557  0.6506 -0.0898
 3621TIP3   OH232277   3.847   5.186  14.034  0.4740  0.2000  0.1896
 3621TIP3    H132278   3.794   5.163  13.957 -0.7981  0.3276  1.0088
 3621TIP3    H232279   3.793   5.162  14.109  1.1159  1.3698  1.0583
 3622TIP3   OH232280   2.546   3.871  15.614  0.3438 -0.0951 -0.6412
 3622TIP3    H132281   2.608   3.805  15.582  2.5578  0.5511  1.9802
 3622TIP3    H232282   2.530   3.848  15.705  0.7085  2.5877  0.1901
 3623TIP3   OH232283   4.038   4.733   6.392  0.2217  0.4320  0.4975
 3623TIP3    H132284   4.104   4.739   6.323  0.5949 -0.0283  0.8073
 3623TIP3    H232285   3.988   4.814   6.384 -0.5311 -0.1456 -1.1117
 3624TIP3   OH232286   2.354   5.641   1.302  0.4487 -0.4145 -0.0894
 3624TIP3    H132287   2.423   5.703   1.326  1.6345 -1.0947 -1.5404
 3624TIP3    H232288   2.302   5.687   1.236 -1.1667  0.4605  1.6827
 3625TIP3   OH232289   3.436   3.152   1.473 -0.0548 -0.2203 -0.2602
 3625TIP3    H132290   3.445   3.097   1.395 -0.6918  0.7267 -1.0224
 3625TIP3    H232291   3.342   3.153   1.491  0.2531 -2.2127  1.8733
 3626TIP3   OH232292   3.698   0.421  16.023 -0.3568 -0.6882  0.7313
 3626TIP3    H132293   3.755   0.368  15.968 -0.7752 -0.1371 -0.2565
 3626TIP3    H232294   3.713   0.511  15.994 -3.1232 -0.6432 -0.9578
 3627TIP3   OH232295   5.766   2.640   2.855  0.0354 -0.0438 -0.3562
 3627TIP3    H132296   5.824   2.650   2.931 -0.7057 -0.3900  0.2787
 3627TIP3    H232297   5.694   2.701   2.872 -0.0320  0.0309 -0.8919
 3628TIP3   OH232298   0.421   0.328  10.980 -0.2881 -0.0054 -0.1893
 3628TIP3    H132299   0.361   0.343  10.907  0.9662 -2.6229 -1.8976
 3628TIP3    H232300   0.504   0.366  10.951 -0.1209  0.1773  0.5017
 3629TIP3   OH232301   1.480   2.850   3.135  0.0681  0.7259 -0.0351
 3629TIP3    H132302   1.524   2.930   3.108 -0.4809  0.9977 -0.1394
 3629TIP3    H232303   1.388   2.864   3.113 -0.1944  0.4547  0.8434
 3630TIP3   OH232304   3.675   2.079   1.860  0.4198  0.4730  0.2473
 3630TIP3    H132305   3.610   2.132   1.814  0.5783  0.5999  0.1678
 3630TIP3    H232306   3.694   2.007   1.799 -0.3128 -0.0721  0.6418
 3631TIP3   OH232307   3.850   5.275  12.589 -0.1254  0.7406 -0.5820
 3631TIP3    H132308   3.837   5.362  12.627  0.6964  1.0514 -0.9942
 3631TIP3    H232309   3.761   5.242  12.576 -0.4610  1.6606 -0.7329
 3632TIP3   OH232310   0.142   5.465   4.146 -0.3307 -0.5540  0.6981
 3632TIP3    H132311   0.140   5.513   4.229  0.4837  1.0535 -0.1584
 3632TIP3    H232312   0.119   5.530   4.080 -0.4997 -1.6833 -0.3889
 3633TIP3   OH232313   4.553   2.806  13.851 -0.0238 -0.8310  0.3219
 3633TIP3    H132314   4.526   2.714  13.860 -0.5449 -0.9049 -1.5083
 3633TIP3    H232315   4.514   2.834  13.768  1.1088  0.7018  0.2602
 3634TIP3   OH232316   3.893   4.338   5.736 -0.0224 -0.1087 -0.1109
 3634TIP3    H132317   3.932   4.329   5.649 -1.2455 -0.7010 -0.6258
 3634TIP3    H232318   3.925   4.262   5.785  0.1520 -0.1225 -0.2456
 3635TIP3   OH232319   5.506   1.043   2.828  0.4360  0.5568 -0.5256
 3635TIP3    H132320   5.566   0.975   2.799  0.6526  0.5926 -0.1695
 3635TIP3    H232321   5.503   1.033   2.923  0.0452  0.6928 -0.5220
 3636TIP3   OH232322   5.150   6.523   5.152 -0.1907 -0.1791 -0.0093
 3636TIP3    H132323   5.196   6.505   5.070 -0.3555 -0.4129 -0.0524
 3636TIP3    H232324   5.068   6.473   5.145 -1.2377  1.5440 -0.6590
 3637TIP3   OH232325   3.310   6.089  11.884 -0.1899  0.5569 -0.3103
 3637TIP3    H132326   3.317   6.088  11.980  0.1237  0.1953 -0.3354
 3637TIP3    H232327   3.376   6.151  11.856  3.4551 -3.0305 -0.5640
 3638TIP3   OH232328   1.605   5.817   4.237  0.1655 -0.3053 -0.1361
 3638TIP3    H132329   1.554   5.895   4.259 -0.4067 -0.4701 -0.8335
 3638TIP3    H232330   1.543   5.761   4.189  1.0080 -0.4932 -1.0364
 3639TIP3   OH232331   3.867   5.745   2.606  0.0091 -0.2665 -0.1541
 3639TIP3    H132332   3.878   5.805   2.532 -1.7081  0.5373  0.2042
 3639TIP3    H232333   3.795   5.687   2.579 -0.7762  0.1672  0.9338
 3640TIP3   OH232334   1.755   3.011  12.451 -0.0821  0.2322 -0.2770
 3640TIP3    H132335   1.847   3.025  12.472 -0.0809  0.2381 -0.2864
 3640TIP3    H232336   1.707   3.061  12.517 -0.0606  1.2732 -1.0236
 3641TIP3   OH232337   3.182   5.676   1.288  0.5323 -0.4301  0.3588
 3641TIP3    H132338   3.261   5.638   1.326 -0.6501 -2.8453  0.6225
 3641TIP3    H232339   3.119   5.604   1.288 -1.4250  1.1864 -0.5857
 3642TIP3   OH232340   5.317   1.030   2.115  0.2040  0.5902 -1.0627
 3642TIP3    H132341   5.359   0.944   2.111 -0.3145  0.3285 -0.9961
 3642TIP3    H232342   5.278   1.034   2.202  0.2566  0.9083 -1.0521
 3643TIP3   OH232343   0.750   6.075   1.769  0.3379 -0.7178 -0.2527
 3643TIP3    H132344   0.773   6.079   1.676  0.3871 -0.3889 -0.2275
 3643TIP3    H232345   0.688   6.147   1.781 -1.4515 -2.1304 -0.5266
 3644TIP3   OH232346   0.894   4.449  15.525 -0.3491 -0.1663  0.0682
 3644TIP3    H132347   0.887   4.542  15.503  0.9306  0.1158  0.7944
 3644TIP3    H232348   0.880   4.404  15.442  1.4482  0.7745 -0.7993
 3645TIP3   OH232349   0.989   5.284   3.544  0.1139 -0.9302  0.3432
 3645TIP3    H132350   1.034   5.315   3.622  0.0491 -1.3766  0.5612
 3645TIP3    H232351   1.052   5.226   3.501  0.3812 -0.1981 -0.2708
 3646TIP3   OH232352   4.044   1.717   4.326 -0.4884 -0.3263 -0.5833
 3646TIP3    H132353   4.002   1.704   4.411 -1.6695 -1.0932 -1.2541
 3646TIP3    H232354   4.097   1.639   4.312 -1.1547 -0.7123 -1.0152
 3647TIP3   OH232355   4.890   0.998  15.917  0.2011 -0.6173  0.3104
 3647TIP3    H132356   4.952   1.026  15.984  0.4564 -0.8088  0.1558
 3647TIP3    H232357   4.934   1.017  15.834  1.1702 -3.0886  0.1756
 3648TIP3   OH232358   5.010   5.623   4.879  1.0082  0.9649  0.3827
 3648TIP3    H132359   4.940   5.663   4.827  0.9514  1.0645  0.5331
 3648TIP3    H232360   5.086   5.680   4.865  1.2332  0.5174 -0.2653
 3649TIP3   OH232361   4.022   6.044  10.839 -0.0257 -0.3311 -0.3627
 3649TIP3    H132362   3.972   6.121  10.865  1.5604  0.1109  1.6478
 3649TIP3    H232363   3.967   5.970  10.865  0.0238  0.1450  1.2352
 3650TIP3   OH232364   3.403   0.017   5.923 -0.8911 -0.1671  0.0060
 3650TIP3    H132365   3.331   0.081   5.923  0.0955  0.9765 -0.1830
 3650TIP3    H232366   3.460   0.045   5.851  0.0952 -0.6372  0.5835
 3651TIP3   OH232367   3.377   3.119  15.505  0.6295  0.1003  0.1438
 3651TIP3    H132368   3.447   3.136  15.568  0.8090 -0.6858  0.1684
 3651TIP3    H232369   3.334   3.040  15.538  1.2103 -0.7820 -1.1120
 3652TIP3   OH232370   1.784   1.636  12.264 -0.2746  0.1572 -0.3854
 3652TIP3    H132371   1.829   1.695  12.203  0.5698  0.3864  0.4311
 3652TIP3    H232372   1.747   1.695  12.330 -1.5031 -0.0595 -0.8590
 3653TIP3   OH232373   0.419   2.267  17.255  0.4459  0.1131 -0.1932
 3653TIP3    H132374   0.425   2.260  17.160 -1.4755  0.5204 -0.3853
 3653TIP3    H232375   0.453   2.355  17.274  2.1250 -0.4770 -0.3215
 3654TIP3   OH232376   1.673   5.828  15.691  0.2889 -0.3129 -0.2192
 3654TIP3    H132377   1.580   5.850  15.702  0.6500  1.1117  0.1789
 3654TIP3    H232378   1.716   5.864  15.769  0.9672 -2.5325  0.5125
 3655TIP3   OH232379   4.154   2.199  16.322  0.2355 -0.4078 -0.4189
 3655TIP3    H132380   4.120   2.132  16.262 -0.9655  0.9873 -1.3826
 3655TIP3    H232381   4.243   2.171  16.342 -0.4081 -2.5496 -0.3516
 3656TIP3   OH232382   3.850   6.376  14.501  0.2314 -0.2357 -0.0509
 3656TIP3    H132383   3.799   6.437  14.554  2.9113  0.9062  1.4132
 3656TIP3    H232384   3.843   6.292  14.547 -0.2012 -0.0556  0.2125
 3657TIP3   OH232385   2.216   2.055  15.094 -0.3507  0.4221  0.3008
 3657TIP3    H132386   2.309   2.075  15.095 -0.2602  0.0540  1.7256
 3657TIP3    H232387   2.200   2.015  15.008  0.8108  0.4169  0.0798
 3658TIP3   OH232388   4.610   4.921  10.872  1.1301  0.2058  0.2310
 3658TIP3    H132389   4.631   4.835  10.908  0.6748 -0.0859 -0.1893
 3658TIP3    H232390   4.677   4.979  10.908  1.2692 -0.2679  0.7499
 3659TIP3   OH232391   6.077   2.641   4.022 -0.0411 -0.7068  0.7906
 3659TIP3    H132392   6.062   2.687   3.939  1.4483  1.4147  1.6103
 3659TIP3    H232393   6.007   2.672   4.079 -0.8831 -1.9319  0.4636
 3660TIP3   OH232394   3.612   3.028  17.070  0.7574 -0.0167  0.1532
 3660TIP3    H132395   3.647   3.101  17.020 -0.4242  0.2304 -0.3190
 3660TIP3    H232396   3.555   2.982  17.009  0.8031 -0.8325  0.7102
 3661TIP3   OH232397   3.004   1.997   5.193 -0.5568  0.2090  0.2901
 3661TIP3    H132398   3.036   2.067   5.250 -0.2045  1.2938 -1.2004
 3661TIP3    H232399   3.079   1.941   5.179 -0.7094 -0.2066  1.0774
 3662TIP3   OH232400   2.075   2.363   2.804 -0.1177  0.2930  0.2571
 3662TIP3    H132401   1.990   2.358   2.760  0.3720  0.3711 -0.7196
 3662TIP3    H232402   2.085   2.455   2.826  0.2926  0.5314 -0.8393
 3663TIP3   OH232403   6.548   4.488   0.858 -0.0915 -0.5709 -0.0965
 3663TIP3    H132404   6.476   4.426   0.848  1.1448 -1.9602 -0.7027
 3663TIP3    H232405   6.611   4.444   0.915  0.0836  0.8273  0.8361
 3664TIP3   OH232406   2.881   2.968  13.998  0.2209 -0.0742  0.3008
 3664TIP3    H132407   2.812   3.012  14.047 -0.0492  0.4190 -0.4894
 3664TIP3    H232408   2.938   3.039  13.968  0.6978 -0.4157  0.3889
 3665TIP3   OH232409   1.976   4.004   1.249  0.0954  0.2321  0.4347
 3665TIP3    H132410   1.881   4.012   1.249  0.0097 -0.6602  0.5653
 3665TIP3    H232411   1.994   3.927   1.303  0.9080  0.5591  0.6426
 3666TIP3   OH232412   2.405   4.628  13.280  0.1392  0.0480  0.3339
 3666TIP3    H132413   2.435   4.707  13.235  0.4164  0.3141  0.9777
 3666TIP3    H232414   2.428   4.642  13.371  1.9912 -1.5965  0.1933
 3667TIP3   OH232415   4.885   0.490   0.459 -0.1079  0.5336 -0.3319
 3667TIP3    H132416   4.975   0.468   0.481 -0.0514 -0.6617 -1.6376
 3667TIP3    H232417   4.891   0.572   0.410  0.1747  0.8955  0.2992
 3668TIP3   OH232418   6.353   6.204   3.483 -0.0614 -0.2737  0.0977
 3668TIP3    H132419   6.344   6.205   3.578 -2.9176 -0.1583 -0.0664
 3668TIP3    H232420   6.298   6.130   3.454 -0.9426  0.9261 -1.5106
 3669TIP3   OH232421   0.751   2.801  15.691  0.1783  0.1593 -0.4921
 3669TIP3    H132422   0.842   2.775  15.677  0.2547  0.6327 -0.9133
 3669TIP3    H232423   0.699   2.732  15.650  0.3272 -0.3289  0.1104
 3670TIP3   OH232424   4.108   0.837   5.373  0.5429  0.4264 -0.4111
 3670TIP3    H132425   4.058   0.797   5.445  1.8821  0.4071  0.5454
 3670TIP3    H232426   4.145   0.917   5.411  1.1843  0.4746 -1.1138
 3671TIP3   OH232427   6.575   6.755  12.932  0.5601 -1.3223 -0.7278
 3671TIP3    H132428   6.662   6.760  12.893  1.1454 -0.9916  0.5707
 3671TIP3    H232429   6.566   6.663  12.959  0.7206 -1.2396 -0.3914
 3672TIP3   OH232430   5.868   2.106  16.406 -0.3731 -0.5266 -0.1123
 3672TIP3    H132431   5.933   2.162  16.364 -2.0525  2.3274  0.8202
 3672TIP3    H232432   5.813   2.074  16.335  1.3489 -2.1705 -0.7959
 3673TIP3   OH232433   3.165   0.240   3.371  0.1791  0.5169 -0.2019
 3673TIP3    H132434   3.149   0.315   3.314 -1.3223  0.8119  0.5634
 3673TIP3    H232435   3.151   0.164   3.315  1.8024  0.7689 -1.0093
 3674TIP3   OH232436   1.247   5.793   0.101 -0.1021 -0.0636 -0.0853
 3674TIP3    H132437   1.264   5.718   0.045  2.3563  0.9231 -0.7853
 3674TIP3    H232438   1.175   5.840   0.057  1.1839  0.2162 -2.0190
 3675TIP3   OH232439   2.149   2.849   1.203  0.6111 -0.5195 -0.6316
 3675TIP3    H132440   2.170   2.916   1.267  0.2016  0.6077 -1.6347
 3675TIP3    H232441   2.118   2.898   1.126 -1.7954 -1.9253 -0.6476
 3676TIP3   OH232442   1.834   0.244  11.352 -0.2664 -0.3149 -0.0947
 3676TIP3    H132443   1.878   0.160  11.345 -0.4146 -0.3777 -0.2584
 3676TIP3    H232444   1.740   0.223  11.352 -0.3331 -0.0716 -1.2420
 3677TIP3   OH232445   2.527   2.628  16.191 -0.3791  0.3782  0.2244
 3677TIP3    H132446   2.499   2.704  16.139  2.1035  1.4952  0.3758
 3677TIP3    H232447   2.561   2.566  16.127 -0.2237  0.3917  0.2952
 3678TIP3   OH232448   5.815   0.979   4.775  0.0266 -0.5079  0.0040
 3678TIP3    H132449   5.906   0.948   4.773 -0.2605 -1.3391 -0.2901
 3678TIP3    H232450   5.802   1.007   4.866  0.6134 -0.2672  0.0198
 3679TIP3   OH232451   5.558   1.379   5.703 -0.0741  0.6375 -0.6753
 3679TIP3    H132452   5.480   1.327   5.723 -0.1855  1.1695  0.2966
 3679TIP3    H232453   5.562   1.445   5.772  1.4035  0.4412 -0.5353
 3680TIP3   OH232454   1.501   1.259  11.432 -0.3416 -0.3383 -0.2744
 3680TIP3    H132455   1.413   1.292  11.411 -0.1784  0.5325  0.3715
 3680TIP3    H232456   1.507   1.266  11.527  1.0421  1.2219 -0.4434
 3681TIP3   OH232457   2.001   6.220   2.101  0.2552  0.0232 -0.1518
 3681TIP3    H132458   2.084   6.218   2.053  0.8249 -1.2072  0.8418
 3681TIP3    H232459   1.977   6.128   2.112 -1.3174  0.3532 -0.5136
 3682TIP3   OH232460   5.760   3.522  13.217  0.0979 -0.6823 -0.2290
 3682TIP3    H132461   5.703   3.560  13.149 -2.1633 -0.6484  1.5669
 3682TIP3    H232462   5.824   3.591  13.236 -1.2140  0.5416 -0.1116
 3683TIP3   OH232463   5.345   4.925   3.709 -0.3935  0.3738  0.2254
 3683TIP3    H132464   5.368   4.983   3.782 -2.0063  1.9093 -0.4291
 3683TIP3    H232465   5.428   4.881   3.688  0.4653  1.0264  1.9546
 3684TIP3   OH232466   3.881   2.314  12.393 -0.5514  0.1345  0.1886
 3684TIP3    H132467   3.975   2.311  12.378 -0.4473 -0.2485  0.9232
 3684TIP3    H232468   3.843   2.266  12.319 -0.1570 -0.0121  0.0825
 3685TIP3   OH232469   5.742   1.186  11.930 -0.3281  0.1284 -0.3032
 3685TIP3    H132470   5.782   1.271  11.910  1.3647 -0.5425  0.0119
 3685TIP3    H232471   5.768   1.168  12.021 -0.2067 -0.9577 -0.5400
 3686TIP3   OH232472   6.645   6.558   0.724  0.1102  0.2523 -0.3103
 3686TIP3    H132473   6.559   6.522   0.744 -0.6168  0.3065 -3.0383
 3686TIP3    H232474   6.637   6.652   0.744  0.3390 -0.1118  1.6933
 3687TIP3   OH232475   5.451   0.159  15.442 -0.4364 -0.2498 -0.1923
 3687TIP3    H132476   5.472   0.192  15.530 -0.0902 -0.1560 -0.3089
 3687TIP3    H232477   5.372   0.106  15.455 -0.8432  0.3943  0.0403
 3688TIP3   OH232478   4.387   4.526   0.063  0.0345  0.0038  0.5280
 3688TIP3    H132479   4.344   4.605   0.029  1.4402  1.2182  1.4183
 3688TIP3    H232480   4.373   4.460  -0.005 -0.4628  1.2565 -0.6485
 3689TIP3   OH232481   3.089   6.471   2.125  0.2580 -0.4454  0.0266
 3689TIP3    H132482   3.069   6.466   2.032  0.0138 -0.3191  0.0708
 3689TIP3    H232483   3.009   6.504   2.165  0.6982  0.5300  0.1535
 3690TIP3   OH232484   0.837   2.033   0.560 -0.3306 -0.1047  0.4410
 3690TIP3    H132485   0.834   2.016   0.466  1.3202 -2.4581  0.7407
 3690TIP3    H232486   0.911   2.094   0.570  0.1809 -0.6858  0.2861
 3691TIP3   OH232487   0.311   0.054   1.859 -0.2401  0.3469 -0.5061
 3691TIP3    H132488   0.261   0.134   1.876 -1.4030 -0.3716 -0.4217
 3691TIP3    H232489   0.247  -0.017   1.869  0.7567 -0.5947 -0.6162
 3692TIP3   OH232490   5.949   4.279   5.258 -0.1113  0.2158  0.6297
 3692TIP3    H132491   5.958   4.297   5.165  0.3289  1.8608  0.9550
 3692TIP3    H232492   6.004   4.203   5.273 -1.2932 -0.9595 -0.6792
 3693TIP3   OH232493   4.567   4.112   4.162 -0.5557  0.2817 -0.4273
 3693TIP3    H132494   4.658   4.089   4.145 -1.0235 -1.7987 -0.3591
 3693TIP3    H232495   4.569   4.206   4.179  1.3625  0.5624 -1.8532
 3694TIP3   OH232496   3.628   1.021   5.687 -0.0135 -0.2238 -0.3943
 3694TIP3    H132497   3.546   0.973   5.689 -1.2859  1.8464  0.2854
 3694TIP3    H232498   3.621   1.084   5.758  2.2434 -0.0609 -0.2222
 3695TIP3   OH232499   4.373   4.164  12.369 -0.3550 -0.1908  0.3328
 3695TIP3    H132500   4.360   4.257  12.385 -1.1431 -0.4485  1.2975
 3695TIP3    H232501   4.338   4.121  12.447  0.0966 -1.2916 -0.0495
 3696TIP3   OH232502   4.396   6.061  16.054 -0.0907  0.2311 -0.3268
 3696TIP3    H132503   4.356   5.978  16.027 -0.3235  0.0941  0.4270
 3696TIP3    H232504   4.372   6.123  15.984  1.4117 -0.6855 -1.7380
 3697TIP3   OH232505   4.269   0.691  10.629  0.3115  0.2237 -0.4231
 3697TIP3    H132506   4.196   0.748  10.652 -0.8668 -1.3384 -0.0960
 3697TIP3    H232507   4.230   0.604  10.620  1.8725 -0.4005 -1.8006
 3698TIP3   OH232508   6.305   1.756   5.401  0.0127  0.4901  0.9944
 3698TIP3    H132509   6.370   1.698   5.441  1.2715  0.7282 -0.5953
 3698TIP3    H232510   6.354   1.806   5.337 -1.6013  1.3052  0.3360
 3699TIP3   OH232511   0.247   3.386  12.709 -0.1123  0.1654 -0.5745
 3699TIP3    H132512   0.289   3.394  12.795  1.1247  1.4929 -1.2734
 3699TIP3    H232513   0.221   3.294  12.704  0.9871 -0.2454  0.6899
 3700TIP3   OH232514   0.010   6.423   3.744 -0.0818  0.0337 -0.6224
 3700TIP3    H132515  -0.015   6.333   3.765  1.0542 -0.2558 -0.4534
 3700TIP3    H232516  -0.069   6.474   3.760 -0.0318 -0.5566  1.8244
 3701TIP3   OH232517   3.054   5.600  17.367 -0.2364  0.2663  0.3116
 3701TIP3    H132518   3.057   5.568  17.277  0.3088  1.9623 -0.3183
 3701TIP3    H232519   2.982   5.552  17.407 -1.1524  0.1856 -1.3388
 3702TIP3   OH232520   3.238   1.405  15.173 -0.0432  0.1148  0.3340
 3702TIP3    H132521   3.247   1.415  15.268  0.4962  0.5297  0.2397
 3702TIP3    H232522   3.174   1.471  15.148  1.2020  1.2760  0.1530
 3703TIP3   OH232523   2.047   5.346  11.875  0.6566  0.0047  0.4994
 3703TIP3    H132524   1.991   5.417  11.908  0.0643 -0.1393 -0.1705
 3703TIP3    H232525   2.133   5.387  11.865  0.1526  0.8447 -0.5787
 3704TIP3   OH232526   5.402   2.459   2.825 -0.2611 -0.2391  0.3141
 3704TIP3    H132527   5.438   2.541   2.859 -0.3353  0.2688 -0.7992
 3704TIP3    H232528   5.320   2.484   2.783 -1.5219 -1.2452  2.0065
 3705TIP3   OH232529   1.840   3.260   2.436 -0.4647  0.2835 -0.0720
 3705TIP3    H132530   1.798   3.310   2.506 -1.0236 -0.0710 -0.1485
 3705TIP3    H232531   1.770   3.241   2.374 -0.2474 -0.5048 -0.0966
 3706TIP3   OH232532   3.484   5.299  16.910  0.1726  0.3022 -0.2957
 3706TIP3    H132533   3.484   5.349  16.992 -1.3134 -0.7918  0.4142
 3706TIP3    H232534   3.506   5.210  16.937  0.4474  0.0890 -1.2061
 3707TIP3   OH232535   5.086   6.594   4.268 -0.2898  0.0231  0.3491
 3707TIP3    H132536   5.151   6.537   4.309 -0.3413 -0.1253  0.2195
 3707TIP3    H232537   5.008   6.583   4.322 -0.4062 -0.2945  0.1147
 3708TIP3   OH232538   3.095   0.592  14.501 -0.8364 -0.2605  0.0051
 3708TIP3    H132539   3.000   0.578  14.494 -0.9225  0.1749  0.2824
 3708TIP3    H232540   3.132   0.532  14.436 -1.2408 -1.1565  0.5886
 3709TIP3   OH232541   0.981   6.062  10.496  0.2564 -0.5396  0.5177
 3709TIP3    H132542   0.934   6.069  10.579 -0.8229  0.4496 -0.1385
 3709TIP3    H232543   0.943   6.132  10.441  2.2705  0.0922 -0.1665
 3710TIP3   OH232544   3.862   3.628  16.319  0.3081  0.5585  0.6110
 3710TIP3    H132545   3.867   3.634  16.224  1.2421  0.4955  0.6459
 3710TIP3    H232546   3.791   3.688  16.343  0.6789  1.2836 -0.0557
 3711TIP3   OH232547   1.557   2.862   1.852 -0.1669  0.0430 -0.6800
 3711TIP3    H132548   1.572   2.807   1.775  0.7510  0.5730 -0.8948
 3711TIP3    H232549   1.573   2.804   1.927 -0.5246 -0.3292 -0.8872
 3712TIP3   OH232550   0.343   4.005  12.448 -0.1192  0.1701  0.3997
 3712TIP3    H132551   0.262   4.015  12.398 -0.0518  2.1588  0.6143
 3712TIP3    H232552   0.398   3.949  12.393 -0.7646  0.7377 -0.8682
 3713TIP3   OH232553   5.160   6.293  10.743 -0.2342 -0.0717  0.1232
 3713TIP3    H132554   5.192   6.204  10.728 -1.5524 -1.0915  2.6707
 3713TIP3    H232555   5.127   6.291  10.833 -1.3800  2.6869 -0.1458
 3714TIP3   OH232556   2.729   6.078   3.768  0.2796 -0.1202  0.2829
 3714TIP3    H132557   2.713   6.084   3.674 -1.1222  0.4213  0.5336
 3714TIP3    H232558   2.825   6.079   3.777  0.4401 -1.0244 -1.1765
 3715TIP3   OH232559   6.561   2.680   3.753  0.5048  0.0417 -0.6631
 3715TIP3    H132560   6.487   2.686   3.693  0.1403  0.3235 -0.2022
 3715TIP3    H232561   6.605   2.765   3.746 -0.3034  0.5770  0.4100
 3716TIP3   OH232562   5.782   4.782  13.400  0.1222  0.1030 -0.2776
 3716TIP3    H132563   5.765   4.743  13.315 -0.1230  0.3505 -0.3453
 3716TIP3    H232564   5.877   4.782  13.408  0.1353 -3.0781  0.9435
 3717TIP3   OH232565   6.378   2.722  12.919 -0.5936 -0.0842 -0.1739
 3717TIP3    H132566   6.444   2.726  12.988  1.1300  0.6235 -1.7862
 3717TIP3    H232567   6.325   2.800  12.933  0.5029  0.7126 -0.3520
 3718TIP3   OH232568   1.846   2.629   0.947  0.3971 -0.2498 -0.4363
 3718TIP3    H132569   1.918   2.573   0.977 -0.6808 -0.7098  1.4889
 3718TIP3    H232570   1.879   2.718   0.958  0.5575 -0.4424  0.8598
 3719TIP3   OH232571   1.929   4.852  17.222 -0.0282 -0.2655 -0.0964
 3719TIP3    H132572   2.020   4.863  17.250  0.2515  4.1275 -1.9643
 3719TIP3    H232573   1.887   4.808  17.295  3.3259 -1.5866  1.2683
 3720TIP3   OH232574   6.556   5.241   3.104  0.3309 -0.1974 -0.0916
 3720TIP3    H132575   6.546   5.224   3.011 -1.6133  1.3827 -0.2335
 3720TIP3    H232576   6.578   5.335   3.109  0.4968 -0.2778  1.0483
 3721TIP3   OH232577   5.045   2.439   3.395  0.0945  0.7543  0.2546
 3721TIP3    H132578   5.072   2.528   3.415  1.2176  0.4589  0.0978
 3721TIP3    H232579   5.105   2.384   3.445 -1.0809  0.0877  0.9582
 3722TIP3   OH232580   5.229   3.823   1.217 -0.4408  0.1336 -0.4598
 3722TIP3    H132581   5.320   3.795   1.205 -0.4326 -0.1682  0.2438
 3722TIP3    H232582   5.235   3.900   1.273 -0.6239  0.0677 -0.3508
 3723TIP3   OH232583   5.305   0.960   5.543 -0.4016 -0.3416  0.9224
 3723TIP3    H132584   5.371   0.937   5.609 -2.9224 -1.2391  3.3095
 3723TIP3    H232585   5.292   0.879   5.493 -0.9167 -0.6956  1.6148
 3724TIP3   OH232586   5.105   1.044   1.711  0.1706 -0.3241  0.0690
 3724TIP3    H132587   5.200   1.054   1.716 -0.0278  2.0880 -0.0125
 3724TIP3    H232588   5.079   1.020   1.800  0.7592  0.1560  0.3806
 3725TIP3   OH232589   3.887   0.173  11.684  0.2970  0.0707  0.9122
 3725TIP3    H132590   3.898   0.240  11.616  1.3984 -1.1237 -0.1443
 3725TIP3    H232591   3.792   0.172  11.700  0.0143  0.4904 -0.5155
 3726TIP3   OH232592   5.694   0.771   0.200 -0.2682 -0.0869  0.1384
 3726TIP3    H132593   5.642   0.852   0.191 -0.5925 -0.3920 -0.9698
 3726TIP3    H232594   5.762   0.792   0.263 -0.0195  1.2387 -0.5374
 3727TIP3   OH232595   2.976   6.120   4.589  0.3245  0.2656 -0.6367
 3727TIP3    H132596   3.042   6.110   4.521  0.4371 -1.5002 -0.3281
 3727TIP3    H232597   2.894   6.092   4.547  0.3411 -0.5416 -0.1527
 3728TIP3   OH232598   2.502   5.785  13.777  1.0155  0.0538 -0.4468
 3728TIP3    H132599   2.590   5.752  13.759  1.1444  0.3940 -0.4579
 3728TIP3    H232600   2.469   5.812  13.692  1.1050  0.4127 -0.3695
 3729TIP3   OH232601   0.837   1.734  12.929  0.5027 -0.3645  0.1998
 3729TIP3    H132602   0.907   1.753  12.866 -0.4581 -0.2918 -0.8640
 3729TIP3    H232603   0.829   1.639  12.928 -0.5396 -0.2898 -0.9609
 3730TIP3   OH232604   0.486   1.221  14.685  0.0448  0.0953 -0.0361
 3730TIP3    H132605   0.532   1.147  14.725 -0.2277 -0.2390 -0.3449
 3730TIP3    H232606   0.478   1.198  14.593  1.6051  1.3276 -0.5369
 3731TIP3   OH232607   2.289   6.741   2.358 -0.1504 -0.4799 -0.1052
 3731TIP3    H132608   2.267   6.820   2.309 -0.0083  0.1344  0.7926
 3731TIP3    H232609   2.280   6.766   2.450  1.2861 -1.0776  0.2349
 3732TIP3   OH232610   5.614   3.978  15.924  0.3725 -0.1506 -0.4261
 3732TIP3    H132611   5.606   3.895  15.878  2.8526 -0.9515  0.4406
 3732TIP3    H232612   5.650   4.038  15.859  0.8197 -0.3961 -0.4033
 3733TIP3   OH232613   5.200   0.347  12.804 -0.4082  0.2531 -0.7361
 3733TIP3    H132614   5.208   0.327  12.711  0.1483 -0.3711 -0.5671
 3733TIP3    H232615   5.276   0.402  12.824  0.8383 -1.5493 -0.1812
 3734TIP3   OH232616   4.094   6.695   4.777  0.0497 -0.8238 -0.1015
 3734TIP3    H132617   4.006   6.658   4.767 -0.2575 -0.1023 -0.1226
 3734TIP3    H232618   4.079   6.781   4.817  0.5468  0.2512 -2.0802
 3735TIP3   OH232619   4.181   5.904   0.609  0.0574 -0.1172 -0.2158
 3735TIP3    H132620   4.150   5.983   0.565  0.3256  1.3086  2.0036
 3735TIP3    H232621   4.158   5.833   0.550 -2.1175  1.4128 -1.3458
 3736TIP3   OH232622   0.599   1.375  11.584  0.4107 -0.0017 -0.3425
 3736TIP3    H132623   0.619   1.362  11.677  0.8934  0.2282 -0.4155
 3736TIP3    H232624   0.528   1.438  11.584  0.0830 -0.3624 -0.1113
 3737TIP3   OH232625   6.480   3.380   1.256 -0.0554 -0.4013  0.4923
 3737TIP3    H132626   6.397   3.333   1.266  0.0725 -0.7150  0.1248
 3737TIP3    H232627   6.509   3.399   1.345 -1.4625  1.3969  0.6249
 3738TIP3   OH232628   1.129   2.340   4.233 -0.0625 -0.2133 -0.0828
 3738TIP3    H132629   1.115   2.424   4.278 -1.2442 -1.4949  2.0985
 3738TIP3    H232630   1.131   2.363   4.140  0.9889  2.3862  0.5009
 3739TIP3   OH232631   5.601   4.551  15.519 -0.4603 -0.0119  0.4135
 3739TIP3    H132632   5.558   4.634  15.540  1.0407  0.4455  1.8960
 3739TIP3    H232633   5.554   4.485  15.570 -0.7045  0.1539  0.4018
 3740TIP3   OH232634   4.598   0.629   6.716 -0.6093  0.2489  0.3111
 3740TIP3    H132635   4.564   0.550   6.675 -1.3789  0.5966  0.2601
 3740TIP3    H232636   4.678   0.601   6.760 -1.0838 -0.6437  0.6282
 3741TIP3   OH232637   1.750   0.513  11.523  0.4706 -0.0887  0.0027
 3741TIP3    H132638   1.683   0.525  11.591  0.1162 -0.1412 -0.3306
 3741TIP3    H232639   1.706   0.460  11.456  0.6175  0.4743 -0.5438
 3742TIP3   OH232640   5.844   5.392   4.232  0.3729 -0.1780  0.4058
 3742TIP3    H132641   5.787   5.422   4.303  0.1270  3.0686 -0.9544
 3742TIP3    H232642   5.786   5.347   4.171  0.2106 -1.1308  1.2393
 3743TIP3   OH232643   3.385   1.092   5.086  0.2258  0.6520  0.7045
 3743TIP3    H132644   3.356   1.183   5.088  3.1455  1.6678  3.1319
 3743TIP3    H232645   3.413   1.077   4.996 -3.7061  0.7772 -0.7706
 3744TIP3   OH232646   4.407   5.366  13.096  0.6759 -0.4138 -0.1174
 3744TIP3    H132647   4.443   5.280  13.118  0.0490 -0.5087  0.6030
 3744TIP3    H232648   4.389   5.406  13.181  1.5824  0.7016 -0.4403
 3745TIP3   OH232649   6.670   0.172  17.066 -0.0701 -0.1176 -0.3418
 3745TIP3    H132650   6.695   0.119  17.142  1.0990 -0.7126 -1.1268
 3745TIP3    H232651   6.620   0.112  17.010 -0.6186  0.2213 -0.2300
 3746TIP3   OH232652   0.921   0.683  13.508 -0.6943  0.0003 -0.2608
 3746TIP3    H132653   0.999   0.735  13.527 -0.6518  0.1812 -0.8863
 3746TIP3    H232654   0.857   0.747  13.476 -0.4147 -0.3961 -1.7006
 3747TIP3   OH232655   1.980   1.260  14.552 -0.2625  0.3423 -0.0191
 3747TIP3    H132656   1.968   1.296  14.640  0.5521 -0.3957  0.4154
 3747TIP3    H232657   2.049   1.314  14.514  0.1538 -0.0202  0.2096
 3748TIP3   OH232658   3.502   1.195  13.176 -0.1406  0.4120 -0.4712
 3748TIP3    H132659   3.461   1.217  13.260 -0.6705  0.1583 -0.6539
 3748TIP3    H232660   3.431   1.206  13.112  0.5259  1.6176 -1.0312
 3749TIP3   OH232661   2.913   6.121   0.492  0.5381  0.3948 -0.1593
 3749TIP3    H132662   2.882   6.123   0.583  0.8495 -2.0769  0.0872
 3749TIP3    H232663   2.852   6.061   0.448 -0.9234  3.1637 -2.2020
 3750TIP3   OH232664   3.330   4.921  16.880 -0.1570 -0.3497 -0.2523
 3750TIP3    H132665   3.356   4.829  16.883 -2.6598 -1.1443 -0.8393
 3750TIP3    H232666   3.274   4.932  16.957  0.2821  0.7634 -0.0785
 3751TIP3   OH232667   2.653   4.936   2.544  0.0383  0.4549 -0.1484
 3751TIP3    H132668   2.638   4.991   2.620 -0.2879  0.3520 -0.1354
 3751TIP3    H232669   2.746   4.912   2.549 -0.1738 -0.2591  0.6913
 3752TIP3   OH232670   4.237   3.945  11.663  0.0237 -0.0165 -0.2837
 3752TIP3    H132671   4.276   3.973  11.581  0.6070  0.3545  0.1163
 3752TIP3    H232672   4.166   4.007  11.679  0.5192  0.4871 -0.0288
 3753TIP3   OH232673   3.038   5.872   4.033 -0.1848 -1.0568 -0.3648
 3753TIP3    H132674   3.001   5.839   4.114  1.1181 -1.8178 -0.0464
 3753TIP3    H232675   3.037   5.797   3.973 -2.1629 -0.2199 -1.4668
 3754TIP3   OH232676   6.125   6.135  14.550  0.0123  0.5002  0.4844
 3754TIP3    H132677   6.184   6.063  14.526 -0.8637 -0.0228 -0.1435
 3754TIP3    H232678   6.069   6.099  14.618 -1.4820  0.0486 -0.9323
 3755TIP3   OH232679   5.184   3.383  17.323  0.1989  0.6304  0.2221
 3755TIP3    H132680   5.205   3.410  17.413 -0.6934  0.7222  0.4142
 3755TIP3    H232681   5.089   3.371  17.324  0.2896 -0.1811 -0.4988
 3756TIP3   OH232682   1.280   1.888   0.905 -0.7709 -0.0568 -0.2957
 3756TIP3    H132683   1.209   1.840   0.862 -0.1770 -0.3230 -0.9999
 3756TIP3    H232684   1.283   1.851   0.994 -0.3081 -1.3516 -0.8324
 3757TIP3   OH232685   6.135   0.460   1.624  0.0678 -0.2622  0.0825
 3757TIP3    H132686   6.207   0.425   1.572 -0.5159 -0.1394 -0.8396
 3757TIP3    H232687   6.132   0.405   1.703  1.6604  0.2377  0.5212
 3758TIP3   OH232688   5.652   4.204  15.419 -0.7281 -0.2362  0.4093
 3758TIP3    H132689   5.719   4.136  15.428  0.3593  0.7899  0.2643
 3758TIP3    H232690   5.572   4.163  15.451 -0.0386 -1.4942  0.5832
 3759TIP3   OH232691   1.005   4.690   0.294 -0.4950 -0.1846 -0.0087
 3759TIP3    H132692   1.050   4.619   0.249 -1.5277 -0.0194 -1.3791
 3759TIP3    H232693   1.044   4.693   0.381  0.0888 -1.9185 -0.1868
 3760TIP3   OH232694   5.397   6.510   0.588 -0.6657  0.1677  0.3718
 3760TIP3    H132695   5.369   6.586   0.536 -0.7834 -0.5182 -0.5762
 3760TIP3    H232696   5.337   6.440   0.564  1.1276 -1.0347 -0.8883
 3761TIP3   OH232697   2.802   0.606   3.199 -0.3717 -0.4731  0.3155
 3761TIP3    H132698   2.720   0.607   3.149 -1.1291 -1.1165  1.4810
 3761TIP3    H232699   2.867   0.642   3.139 -1.0787 -1.8615 -1.3919
 3762TIP3   OH232700   2.063   0.886  15.441  0.3246 -0.5353 -0.5311
 3762TIP3    H132701   2.148   0.862  15.478  1.2412  0.7217 -1.6929
 3762TIP3    H232702   2.067   0.982  15.433 -0.5596 -0.5979 -2.0560
 3763TIP3   OH232703   2.843   0.342  16.956 -0.1442  0.2568 -0.1152
 3763TIP3    H132704   2.818   0.331  17.048 -0.8977 -0.5311 -0.4138
 3763TIP3    H232705   2.811   0.264  16.912  1.3889 -0.0134 -0.8241
 3764TIP3   OH232706   5.723   4.464  16.191  0.5500 -0.1534 -0.1095
 3764TIP3    H132707   5.806   4.483  16.148  0.0672 -0.4775 -1.2324
 3764TIP3    H232708   5.706   4.372  16.169 -0.8862  0.3453 -1.3066
 3765TIP3   OH232709   1.556   0.386   4.773  0.5949 -0.3984  0.0714
 3765TIP3    H132710   1.607   0.381   4.854  1.2572  0.8029 -0.2436
 3765TIP3    H232711   1.465   0.391   4.803  0.7922 -0.5320  0.7201
 3766TIP3   OH232712   0.493   6.119  14.841  0.4994 -0.0403 -0.0855
 3766TIP3    H132713   0.415   6.172  14.824  1.1722  1.2530  0.7310
 3766TIP3    H232714   0.534   6.107  14.756  1.0481  1.9345 -0.1427
 3767TIP3   OH232715   5.642   6.374   3.208  0.4803  0.0038 -0.3391
 3767TIP3    H132716   5.638   6.463   3.243 -0.2300 -0.3767  0.5837
 3767TIP3    H232717   5.584   6.323   3.265  3.8601 -1.9284  1.7350
 3768TIP3   OH232718   3.022   1.769   2.796  0.8117  0.1435 -0.1110
 3768TIP3    H132719   3.081   1.843   2.809  1.4450 -0.4115  0.2507
 3768TIP3    H232720   2.934   1.808   2.791  1.0251  0.8262  1.1036
 3769TIP3   OH232721   6.234   4.273   1.780 -0.1808 -0.1122 -0.1823
 3769TIP3    H132722   6.210   4.184   1.804 -0.6145 -0.6159 -2.2797
 3769TIP3    H232723   6.317   4.265   1.734  0.0422  0.6492  0.0623
 3770TIP3   OH232724   0.738   0.848   4.251  0.2194  0.5092  0.1158
 3770TIP3    H132725   0.661   0.901   4.268  1.0240  1.1594  1.9565
 3770TIP3    H232726   0.755   0.860   4.158 -1.8714  0.3346 -0.3464
 3771TIP3   OH232727   3.734   5.847  11.689 -0.2599  0.4540 -0.2497
 3771TIP3    H132728   3.757   5.923  11.635 -0.3218  0.5896 -0.0839
 3771TIP3    H232729   3.664   5.804  11.640 -0.7380  0.9158  0.0160
 3772TIP3   OH232730   5.166   1.999   5.232  0.5675  0.0732  0.1486
 3772TIP3    H132731   5.107   1.925   5.221 -0.7020  1.3738 -3.0240
 3772TIP3    H232732   5.114   2.065   5.279  0.8054 -0.1001  0.6628
 3773TIP3   OH232733   3.643   0.843   1.967 -0.4584 -0.0682 -0.1572
 3773TIP3    H132734   3.718   0.894   1.938 -0.5126 -0.5895 -1.2752
 3773TIP3    H232735   3.632   0.775   1.900 -1.2004 -0.7295  0.5960
 3774TIP3   OH232736   2.604   4.098   0.003 -0.5695  0.8221  0.0165
 3774TIP3    H132737   2.697   4.116  -0.007 -0.6461  0.6058 -1.2920
 3774TIP3    H232738   2.585   4.118   0.095  0.9419 -0.0092  0.5303
 3775TIP3   OH232739   4.789   4.038  12.099  0.0803 -0.1815 -0.1019
 3775TIP3    H132740   4.739   4.057  12.178  0.2357 -0.5257  0.0814
 3775TIP3    H232741   4.783   4.118  12.047  1.1900  0.5741  0.8927
 3776TIP3   OH232742   4.213   1.584  14.979  0.3023  0.0050 -0.3233
 3776TIP3    H132743   4.299   1.551  15.005  0.3738  0.5808  0.1763
 3776TIP3    H232744   4.226   1.614  14.889  0.8939  1.0356  0.0896
 3777TIP3   OH232745   2.604   2.989   3.935  0.4542 -0.2103 -0.8316
 3777TIP3    H132746   2.688   2.944   3.928  0.8634  0.5079 -0.7315
 3777TIP3    H232747   2.621   3.077   3.900  0.3376  0.6668  1.1397
 3778TIP3   OH232748   5.057   0.897   2.160 -0.0027 -0.5241 -0.2190
 3778TIP3    H132749   4.969   0.910   2.197 -1.0814  0.0294 -2.7886
 3778TIP3    H232750   5.116   0.928   2.229 -1.8355 -0.1875  1.2939
 3779TIP3   OH232751   4.713   0.428   3.064  0.1054  0.4141  0.3638
 3779TIP3    H132752   4.639   0.369   3.050 -1.0691  1.5240  1.6913
 3779TIP3    H232753   4.767   0.383   3.129  0.3156 -0.1465 -0.1931
 3780TIP3   OH232754   6.275   4.589  15.487 -0.1973  0.5050  0.7496
 3780TIP3    H132755   6.307   4.602  15.576  0.2484 -0.0305  0.6749
 3780TIP3    H232756   6.205   4.653  15.477 -1.6943 -0.8231  2.2101
 3781TIP3   OH232757   2.157   2.799  11.848  0.4475 -0.1872 -0.1532
 3781TIP3    H132758   2.081   2.798  11.790  1.6033  0.0132 -1.7612
 3781TIP3    H232759   2.224   2.750  11.800  1.9836  1.4207  0.2126
 3782TIP3   OH232760   0.211   5.138  13.842 -0.1611 -0.3251 -0.0940
 3782TIP3    H132761   0.197   5.199  13.770  1.2018  0.6044  0.3882
 3782TIP3    H232762   0.306   5.136  13.854 -0.3815  0.7997  2.6897
 3783TIP3   OH232763   0.322   0.703   0.185 -0.6284  0.0728  0.3214
 3783TIP3    H132764   0.366   0.688   0.269 -0.9933 -2.0036  0.1953
 3783TIP3    H232765   0.308   0.798   0.182  0.7805  0.3743  1.8889
 3784TIP3   OH232766   0.680   1.261   3.682 -0.2107 -0.0117 -0.4050
 3784TIP3    H132767   0.726   1.188   3.723  0.2530 -0.1965 -1.2158
 3784TIP3    H232768   0.733   1.338   3.703 -1.4595  0.3579  1.6639
 3785TIP3   OH232769   0.719   1.659  14.305 -0.4301  0.3154 -0.0869
 3785TIP3    H132770   0.707   1.702  14.221 -0.9130 -1.4527 -0.9685
 3785TIP3    H232771   0.667   1.579  14.299 -0.1372 -0.0647  1.7405
 3786TIP3   OH232772   5.493   2.428   3.338  0.1771  0.3431 -0.0010
 3786TIP3    H132773   5.505   2.339   3.370  2.2676  0.5850 -0.0217
 3786TIP3    H232774   5.439   2.471   3.405 -0.3365 -0.7446  0.3022
 3787TIP3   OH232775   4.330   5.102  14.570  0.0085  0.4372 -0.1685
 3787TIP3    H132776   4.317   5.039  14.499 -1.2752  0.2937  0.1748
 3787TIP3    H232777   4.244   5.110  14.611  0.5893  0.9902  0.9868
 3788TIP3   OH232778   5.884   5.016  11.977 -0.0909  0.5507  0.2844
 3788TIP3    H132779   5.824   5.021  11.903 -1.9357  1.9456  1.7708
 3788TIP3    H232780   5.863   4.933  12.019 -0.9793  0.9862  0.7394
 3789TIP3   OH232781   3.196   1.005  16.508  0.1460  0.2934 -0.2999
 3789TIP3    H132782   3.119   1.058  16.485  0.1162 -0.1651 -1.3235
 3789TIP3    H232783   3.238   1.054  16.579 -1.1485  0.4901  0.3700
 3790TIP3   OH232784   5.399   4.632   3.592  0.2492 -0.1865 -0.2009
 3790TIP3    H132785   5.427   4.625   3.501 -2.9732  2.1492 -1.5401
 3790TIP3    H232786   5.326   4.571   3.599  0.3838 -0.2458  0.8087
 3791TIP3   OH232787   4.353   4.128   0.641  0.1035 -0.0605 -0.1882
 3791TIP3    H132788   4.328   4.187   0.571 -1.1746 -0.0390  0.2656
 3791TIP3    H232789   4.349   4.182   0.720 -1.4044 -0.7965  0.2782
 3792TIP3   OH232790   4.855   4.023  13.619  0.4543  0.1724  0.3081
 3792TIP3    H132791   4.902   4.064  13.546 -0.0812  0.7382  0.2737
 3792TIP3    H232792   4.787   4.086  13.643 -0.4421 -0.7192  0.2045
 3793TIP3   OH232793   5.325   2.197   2.031  0.1534 -0.3822  0.1867
 3793TIP3    H132794   5.379   2.262   2.078 -1.4254  0.8490  0.3753
 3793TIP3    H232795   5.285   2.246   1.960 -0.2795 -1.4067 -0.2945
 3794TIP3   OH232796   4.857   3.338   1.512 -0.0669  0.3451  0.1689
 3794TIP3    H132797   4.773   3.302   1.482 -0.3381  0.6217  0.5786
 3794TIP3    H232798   4.911   3.261   1.531  0.0129  0.1694 -0.7568
 3795TIP3   OH232799   3.557   5.609  15.647  0.1689 -0.6070 -0.0321
 3795TIP3    H132800   3.589   5.680  15.703 -0.5747 -0.8576  0.7283
 3795TIP3    H232801   3.580   5.529  15.693  1.6193 -0.9097 -1.2214
 3796TIP3   OH232802   5.626   1.778  14.431  0.0327 -0.6712  0.8979
 3796TIP3    H132803   5.693   1.725  14.387  0.5658  0.4352  0.3364
 3796TIP3    H232804   5.665   1.865  14.437 -1.5467  0.1349  0.0970
 3797TIP3   OH232805   6.006   4.829  16.737  0.1984  0.3479  0.1744
 3797TIP3    H132806   6.016   4.794  16.825 -2.3880  2.0717  1.2580
 3797TIP3    H232807   6.008   4.751  16.680 -1.3619 -1.1740  2.0616
 3798TIP3   OH232808   0.103   6.723   2.479  0.0748 -0.0007  0.2151
 3798TIP3    H132809   0.059   6.789   2.426  1.2351  0.5556 -0.0677
 3798TIP3    H232810   0.194   6.752   2.484  0.6466 -1.6473 -0.0485
 3799TIP3   OH232811   0.920   0.972  14.271 -0.2316  0.1497  0.2747
 3799TIP3    H132812   0.851   1.036  14.255 -0.5899  0.2142  1.8319
 3799TIP3    H232813   0.874   0.887  14.271 -0.1912  0.1259  0.5862
 3800TIP3   OH232814   0.570   4.558   5.275  0.4535 -0.0212 -0.1006
 3800TIP3    H132815   0.564   4.551   5.370  0.4480  0.3858 -0.0673
 3800TIP3    H232816   0.507   4.626   5.252 -1.9138 -2.2713 -0.7428
 3801TIP3   OH232817   2.602   2.824  11.372  0.3533  0.0514  0.3663
 3801TIP3    H132818   2.645   2.826  11.458 -1.0083 -0.2064  1.0809
 3801TIP3    H232819   2.550   2.744  11.374 -0.6379  0.6659 -0.2269
 3802TIP3   OH232820   4.057   1.172   4.137  0.5993 -0.2010  0.2098
 3802TIP3    H132821   4.065   1.163   4.232  3.1226  1.3681  0.2463
 3802TIP3    H232822   4.056   1.082   4.105  0.6652 -0.7609  1.6848
 3803TIP3   OH232823   3.570   1.078  12.920 -0.5894 -0.3907 -0.1653
 3803TIP3    H132824   3.659   1.049  12.902 -0.2805  0.4794 -0.0701
 3803TIP3    H232825   3.573   1.111  13.010 -0.4486  1.6524 -0.8525
 3804TIP3   OH232826   2.587   0.545  12.659  0.3046 -0.0808  0.0725
 3804TIP3    H132827   2.626   0.610  12.600  0.0528 -0.0669 -0.0774
 3804TIP3    H232828   2.558   0.475  12.601  1.9222 -1.0259  0.3522
 3805TIP3   OH232829   4.125   3.207  14.446  0.0162  0.4456  0.3445
 3805TIP3    H132830   4.208   3.215  14.399 -0.7828  0.7890 -1.0717
 3805TIP3    H232831   4.121   3.115  14.472  0.9504  0.4860  0.6598
 3806TIP3   OH232832   2.673   5.114   4.038  0.1755  0.6378  0.1160
 3806TIP3    H132833   2.732   5.053   4.084 -1.4199 -0.9327  0.1956
 3806TIP3    H232834   2.719   5.133   3.956 -0.0144 -2.1815 -0.7596
 3807TIP3   OH232835   3.319   4.526  12.095 -0.4255 -0.1360  0.4013
 3807TIP3    H132836   3.225   4.537  12.081 -0.5976 -0.9133  0.8836
 3807TIP3    H232837   3.329   4.517  12.189 -0.1470 -2.2707  0.2090
 3808TIP3   OH232838   1.137   0.639  12.415 -0.2857  0.2293 -0.1550
 3808TIP3    H132839   1.162   0.650  12.507 -0.2180  2.6341 -0.3851
 3808TIP3    H232840   1.219   0.643  12.367 -0.4989  1.8414 -0.4660
 3809TIP3   OH232841   2.405   6.599  11.988 -0.3082  0.2521  0.2282
 3809TIP3    H132842   2.405   6.693  12.008  1.1998  0.2149  0.5011
 3809TIP3    H232843   2.471   6.590  11.919 -0.6857 -0.5659 -0.0305
 3810TIP3   OH232844   5.916   3.442   4.786 -1.2062 -0.1543 -0.1972
 3810TIP3    H132845   5.992   3.472   4.837 -1.6997 -1.2509  1.2480
 3810TIP3    H232846   5.928   3.483   4.700 -0.3871  1.8671  0.7952
 3811TIP3   OH232847   3.085   0.722  16.559 -0.5458 -0.3915 -0.1811
 3811TIP3    H132848   3.021   0.745  16.626 -0.8984 -1.2901 -0.1969
 3811TIP3    H232849   3.111   0.806  16.521  0.2064  0.1944  1.5495
 3812TIP3   OH232850   5.909   3.248  12.118  0.7825  0.2798 -0.1336
 3812TIP3    H132851   5.981   3.282  12.171 -0.3873  0.4148  1.4386
 3812TIP3    H232852   5.950   3.222  12.036  2.3776  1.7006  0.1619
 3813TIP3   OH232853   1.033   4.543  13.144  0.3961  0.8748 -0.7670
 3813TIP3    H132854   1.036   4.638  13.155 -1.3469  0.7943  1.0287
 3813TIP3    H232855   0.943   4.524  13.116  0.0112 -0.3653  1.1011
 3814TIP3   OH232856   3.169   5.628   3.244  0.0079  0.1917 -0.0657
 3814TIP3    H132857   3.088   5.672   3.222 -0.2158  0.3541  1.0372
 3814TIP3    H232858   3.237   5.694   3.232 -0.2151  0.5499  0.6256
 3815TIP3   OH232859   5.358   1.005   1.780  0.5465 -0.0209 -0.6626
 3815TIP3    H132860   5.317   0.924   1.810 -0.0514 -0.5291 -2.6965
 3815TIP3    H232861   5.449   0.998   1.809  0.2188 -0.8639  0.2063
 3816TIP3   OH232862   0.334   1.942   5.335 -0.7932 -0.0171  0.0308
 3816TIP3    H132863   0.321   1.859   5.381 -1.5838 -0.9332 -1.7456
 3816TIP3    H232864   0.252   1.989   5.349 -0.9256 -0.1754 -0.2147
 3817TIP3   OH232865   6.737   2.816   5.194  0.6320  0.9038  0.0850
 3817TIP3    H132866   6.659   2.868   5.207 -1.1948 -1.5970 -0.1011
 3817TIP3    H232867   6.740   2.757   5.269  1.7241  0.2279 -0.4582
 3818TIP3   OH232868   5.662   0.002  12.313 -0.5545  0.3247 -0.2704
 3818TIP3    H132869   5.634   0.092  12.298  0.2062  0.5745 -0.2399
 3818TIP3    H232870   5.664  -0.037  12.225 -0.1863  0.5492 -0.3620
 3819TIP3   OH232871   1.809   3.613  13.087  0.1892  0.1263  0.3586
 3819TIP3    H132872   1.878   3.639  13.026 -1.7693 -1.1223 -2.5930
 3819TIP3    H232873   1.736   3.670  13.065 -0.6964 -0.6050  1.3342
 3820TIP3   OH232874   2.503   1.360  16.502 -0.4943  0.6503 -0.2275
 3820TIP3    H132875   2.555   1.292  16.459 -0.7992 -0.3061  0.8875
 3820TIP3    H232876   2.519   1.439  16.449  1.6703  0.2738 -0.2354
 3821TIP3   OH232877   3.420   6.228   3.993 -0.4208  0.7134 -0.1977
 3821TIP3    H132878   3.490   6.165   3.980  0.5650  1.6148  0.5786
 3821TIP3    H232879   3.349   6.177   4.033  0.0783 -0.0468 -0.2628
 3822TIP3   OH232880   1.793   0.627  16.525 -0.1855  0.1232 -0.1836
 3822TIP3    H132881   1.741   0.696  16.485 -1.5374  0.6149  2.2471
 3822TIP3    H232882   1.800   0.652  16.617  2.2614 -1.2332  0.0865
 3823TIP3   OH232883   0.313   3.485  16.273 -0.1857  0.0417 -0.0672
 3823TIP3    H132884   0.243   3.491  16.338 -0.3255 -0.7161 -0.1425
 3823TIP3    H232885   0.379   3.548  16.303 -0.0814 -0.5640  1.0199
 3824TIP3   OH232886   4.521   6.417  14.633  0.2609 -0.2372  0.0679
 3824TIP3    H132887   4.548   6.330  14.603  1.4642  0.2380 -0.2930
 3824TIP3    H232888   4.561   6.477  14.570 -0.1584  0.6098  0.5899
 3825TIP3   OH232889   2.233   3.596   0.348 -0.4023  0.9106  0.3723
 3825TIP3    H132890   2.239   3.561   0.259 -0.9969  1.1615  0.2288
 3825TIP3    H232891   2.176   3.534   0.394  0.7117  0.2230  0.8690
 3826TIP3   OH232892   3.565   0.100   5.683  0.2866  0.2878  0.5048
 3826TIP3    H132893   3.630   0.080   5.616 -1.8045 -1.8106 -1.0650
 3826TIP3    H232894   3.548   0.193   5.674  0.0294  0.0519 -1.9545
 3827TIP3   OH232895   3.586   1.645   4.097 -0.5973  0.1266  0.4124
 3827TIP3    H132896   3.533   1.715   4.059  0.1256  0.9212  0.8492
 3827TIP3    H232897   3.644   1.617   4.026 -2.1479 -1.3616 -0.3495
 3828TIP3   OH232898   0.268   2.012   4.172 -0.4166 -0.3819  0.1099
 3828TIP3    H132899   0.325   2.078   4.211 -1.7250  0.5480  0.5127
 3828TIP3    H232900   0.322   1.971   4.104  0.9340 -0.0070  0.9182
 3829TIP3   OH232901   5.574   2.149  15.292  0.0622 -0.2523  0.0500
 3829TIP3    H132902   5.491   2.162  15.247 -0.4106 -0.8441  0.7229
 3829TIP3    H232903   5.591   2.055  15.284 -0.9346 -0.7219  2.5698
 3830TIP3   OH232904   3.426   0.748  16.894 -0.3642  0.2209 -0.5148
 3830TIP3    H132905   3.519   0.737  16.910 -0.5277  0.0673  0.3903
 3830TIP3    H232906   3.416   0.735  16.800  0.6207  0.9851 -0.7360
 3831TIP3   OH232907   3.500   6.498   5.330 -0.0770  0.0950  0.5596
 3831TIP3    H132908   3.465   6.571   5.381 -0.3310  0.0649  0.4315
 3831TIP3    H232909   3.468   6.420   5.375  0.4852  0.0559  0.8981
 3832TIP3   OH232910   2.875   3.683   0.755 -0.0195  0.5451  0.1813
 3832TIP3    H132911   2.854   3.635   0.675 -1.6004  0.6595  0.4812
 3832TIP3    H232912   2.929   3.756   0.726 -1.1668  0.9923 -0.8969
 3833TIP3   OH232913   0.095   5.847  15.755 -0.4717 -0.0187 -0.2012
 3833TIP3    H132914   0.159   5.802  15.811 -2.5687 -1.6637  1.0163
 3833TIP3    H232915   0.040   5.778  15.721 -0.3774  1.1549 -2.9745
 3834TIP3   OH232916   3.436   6.037   4.296  0.5755 -0.4059  0.0200
 3834TIP3    H132917   3.390   6.013   4.216 -0.1899  3.1418 -0.7673
 3834TIP3    H232918   3.524   6.062   4.267  0.8394 -0.6894  0.5584
 3835TIP3   OH232919   5.938   5.702  16.255  0.2223  0.6158 -0.6371
 3835TIP3    H132920   6.004   5.652  16.207 -0.7830 -1.5942  0.1518
 3835TIP3    H232921   5.966   5.697  16.347 -0.1996  1.0114 -0.4856
 3836TIP3   OH232922   2.977   3.523  14.756 -0.1131  0.1370  0.3770
 3836TIP3    H132923   2.936   3.526  14.842  0.6973 -0.6531  0.8056
 3836TIP3    H232924   2.916   3.473  14.702  0.7034 -1.9372  1.2759
 3837TIP3   OH232925   4.655   1.439  12.071 -0.0406  0.1349 -0.0805
 3837TIP3    H132926   4.686   1.435  12.162  0.0400  2.7853  0.0966
 3837TIP3    H232927   4.710   1.506  12.031 -0.1035 -0.9639 -2.1262
 3838TIP3   OH232928   5.578   4.882  12.144  0.2893  0.2940 -0.4008
 3838TIP3    H132929   5.667   4.882  12.179  0.4455 -1.4712 -0.7033
 3838TIP3    H232930   5.523   4.859  12.218  0.5763 -2.9784 -1.0240
 3839TIP3   OH232931   5.963   4.451  16.061  0.0685 -0.0098 -0.1789
 3839TIP3    H132932   6.007   4.522  16.015 -3.2268  1.4868 -1.3725
 3839TIP3    H232933   5.949   4.383  15.994  0.9550 -0.6849  0.3079
 3840TIP3   OH232934   4.493   1.307  12.370  0.2752 -0.7112 -0.3057
 3840TIP3    H132935   4.436   1.235  12.342  0.0997 -1.3337  1.5526
 3840TIP3    H232936   4.582   1.274  12.355  0.1876 -1.1858  0.1792
 3841TIP3   OH232937   4.553   2.838   6.605  0.3498 -0.3611  0.7732
 3841TIP3    H132938   4.624   2.891   6.569  0.5518 -1.4509 -0.5165
 3841TIP3    H232939   4.517   2.892   6.676  3.7433 -0.5645  2.9213
 3842TIP3   OH232940   1.009   0.111  17.383 -0.6469  0.1562  0.2230
 3842TIP3    H132941   0.922   0.145  17.361 -0.6401  0.2066  0.2735
 3842TIP3    H232942   1.065   0.139  17.312 -0.5708  0.5407  0.4356
 3843TIP3   OH232943   5.400   5.870   3.529  0.0872  0.3601 -0.0708
 3843TIP3    H132944   5.431   5.893   3.616 -1.2312  0.2538  0.4597
 3843TIP3    H232945   5.428   5.779   3.516 -2.5788 -0.8570  1.7315
 3844TIP3   OH232946   0.547   5.839  12.983  0.0416 -0.4501  0.2444
 3844TIP3    H132947   0.589   5.923  12.968 -1.1743  0.3868  1.2608
 3844TIP3    H232948   0.453   5.856  12.971 -0.2539 -1.5897  0.7486
 3845TIP3   OH232949   0.875   0.423  14.645 -0.0216 -0.4398  0.2440
 3845TIP3    H132950   0.970   0.429  14.643 -0.0015 -0.5780  0.6037
 3845TIP3    H232951   0.847   0.440  14.555  0.1830  2.3630  0.6092
 3846TIP3   OH232952   1.191   2.870  15.409 -0.6688  0.0536  0.4461
 3846TIP3    H132953   1.219   2.917  15.330 -0.0323 -2.3778 -0.8798
 3846TIP3    H232954   1.133   2.802  15.377 -0.6466 -0.8043  2.1411
 3847TIP3   OH232955   6.588   6.493  13.054  0.7752  0.5417  0.3655
 3847TIP3    H132956   6.676   6.457  13.047  0.1315 -1.2116  0.8833
 3847TIP3    H232957   6.535   6.440  12.994 -0.4211 -0.1469  1.9638
 3848TIP3   OH232958   0.985   0.014   1.882 -0.7576  0.1943 -0.1618
 3848TIP3    H132959   0.938  -0.011   1.802  0.5462 -0.1459 -0.8471
 3848TIP3    H232960   1.016  -0.069   1.917 -0.3742  0.4453  0.0923
 3849TIP3   OH232961   5.822   3.634  15.030  0.0960  0.0397  0.2234
 3849TIP3    H132962   5.786   3.680  14.954 -0.7649 -0.2921  0.4222
 3849TIP3    H232963   5.810   3.541  15.010  0.1161 -0.0560  0.6417
 3850TIP3   OH232964   6.293   0.379  10.526 -0.0054 -0.3971 -0.0229
 3850TIP3    H132965   6.384   0.354  10.546 -0.2892 -0.9052  0.6372
 3850TIP3    H232966   6.243   0.353  10.603 -0.7854 -0.4935 -0.5552
 3851TIP3   OH232967   5.408   5.776   4.670 -0.3455  0.1907  1.1629
 3851TIP3    H132968   5.457   5.757   4.590  1.1563  1.4573  1.7287
 3851TIP3    H232969   5.416   5.696   4.722 -0.4383 -0.2663  0.4786
 3852TIP3   OH232970   5.172   1.328  15.475  0.2388 -0.3554  0.0851
 3852TIP3    H132971   5.081   1.357  15.486  0.0827 -0.9883  0.5003
 3852TIP3    H232972   5.225   1.398  15.513 -0.1136 -0.4192  0.6977
 3853TIP3   OH232973   5.660   4.721   0.128 -0.3054  0.2792  0.1425
 3853TIP3    H132974   5.728   4.776   0.090 -0.1270  0.1115  0.2216
 3853TIP3    H232975   5.703   4.639   0.149 -0.3780  0.4081  0.8175
 3854TIP3   OH232976   0.150   2.602   4.660 -0.0570 -0.3183  0.4398
 3854TIP3    H132977   0.155   2.612   4.565  0.0776 -0.8569  0.3869
 3854TIP3    H232978   0.174   2.687   4.695 -0.7683  0.0800 -0.0230
 3855TIP3   OH232979   6.130   6.356  12.217  0.9746 -0.0234  0.1505
 3855TIP3    H132980   6.186   6.368  12.140  0.3547  2.0431 -0.0457
 3855TIP3    H232981   6.191   6.348  12.290  1.5559 -1.3568 -0.4384
 3856TIP3   OH232982   5.189   6.036  17.021  0.0566  0.4978 -0.1797
 3856TIP3    H132983   5.211   5.965  16.961 -0.0782 -0.5667  1.0057
 3856TIP3    H232984   5.112   6.077  16.981  0.9005  0.8413 -1.5462
 3857TIP3   OH232985   1.515   1.855   3.012 -0.0683  0.2708  0.1830
 3857TIP3    H132986   1.463   1.782   2.978  0.4681  0.4761 -1.1334
 3857TIP3    H232987   1.449   1.916   3.046 -0.5773 -0.3905  0.4063
 3858TIP3   OH232988   1.866   0.834   1.190 -1.1193 -1.0717 -0.1893
 3858TIP3    H132989   1.915   0.752   1.191 -0.5332 -0.7496 -1.1845
 3858TIP3    H232990   1.838   0.844   1.099 -2.8425 -1.1225  0.3067
 3859TIP3   OH232991   3.636   5.373   5.217  0.4888 -0.5960  0.2779
 3859TIP3    H132992   3.642   5.282   5.247  2.5526  0.0798  2.2355
 3859TIP3    H232993   3.628   5.424   5.298 -0.6305  1.0037 -0.7823
 3860TIP3   OH232994   3.302   1.413  17.144  0.0390  0.3709 -0.3334
 3860TIP3    H132995   3.325   1.321  17.131 -0.2784  0.3485 -0.8085
 3860TIP3    H232996   3.350   1.440  17.222 -0.1118 -0.2860 -0.0056
 3861TIP3   OH232997   6.257   4.013   5.736  0.2007 -0.5120  0.1273
 3861TIP3    H132998   6.212   3.972   5.661  0.8375 -0.6022 -0.2095
 3861TIP3    H232999   6.237   3.956   5.810 -0.6342 -0.2950  0.0873
 3862TIP3   OH233000   1.787   5.388  10.758  0.3487 -0.1744  0.6713
 3862TIP3    H133001   1.764   5.307  10.713 -3.3437  0.0702  1.8628
 3862TIP3    H233002   1.793   5.453  10.688  1.8883 -1.1094 -0.1270
 3863TIP3   OH233003   2.156   5.903   4.277 -0.2959  0.4622  0.5359
 3863TIP3    H133004   2.214   5.880   4.205  0.0377 -1.6134  1.4077
 3863TIP3    H233005   2.073   5.862   4.256 -0.0608 -0.5787  1.5145
 3864TIP3   OH233006   5.195   5.706  16.603 -0.6504  0.2513  0.0760
 3864TIP3    H133007   5.177   5.755  16.523  0.1210 -0.2535 -0.4249
 3864TIP3    H233008   5.259   5.640  16.577 -0.6678 -0.1679  1.0291
 3865TIP3   OH233009   0.269   0.491   5.017  0.2089 -0.1199 -0.3435
 3865TIP3    H133010   0.175   0.500   5.005  0.1814  1.6494  0.8226
 3865TIP3    H233011   0.300   0.580   5.035  2.2938 -0.4581 -1.8352
 3866TIP3   OH233012   4.676   6.632   1.424  0.5845 -0.0205  0.8049
 3866TIP3    H133013   4.700   6.559   1.481  1.0822 -0.8347 -0.4348
 3866TIP3    H233014   4.759   6.668   1.393  0.3350 -1.1228 -1.3154
 3867TIP3   OH233015   2.525   3.089   0.581 -0.3376 -0.7093  0.0404
 3867TIP3    H133016   2.500   3.146   0.508 -1.5077  0.4336  1.2723
 3867TIP3    H233017   2.613   3.060   0.560 -0.2290  0.4729 -1.2942
 3868TIP3   OH233018   3.251   1.492   2.458 -0.5269 -0.2746 -0.4970
 3868TIP3    H133019   3.232   1.532   2.543 -2.6117  0.2987 -1.1558
 3868TIP3    H233020   3.250   1.398   2.475  3.5874 -0.2537  0.9069
 3869TIP3   OH233021   1.617   4.089  10.796 -0.1515  0.1269  0.0500
 3869TIP3    H133022   1.684   4.155  10.774  0.1712 -0.2470 -0.0957
 3869TIP3    H233023   1.622   4.081  10.891  0.4712 -0.3769 -0.0165
 3870TIP3   OH233024   2.917   5.781   5.546 -0.5236  0.1317 -0.1325
 3870TIP3    H133025   2.829   5.780   5.510 -0.9390  1.5157  0.7555
 3870TIP3    H233026   2.927   5.695   5.587 -1.2041 -0.2807 -0.8176
 3871TIP3   OH233027   3.838   1.008  12.908  0.3724  0.1181 -0.5698
 3871TIP3    H133028   3.911   1.031  12.966  1.1427  0.2945 -1.5955
 3871TIP3    H233029   3.877   0.953  12.841 -0.5234 -0.1134 -0.9045
 3872TIP3   OH233030   1.857   6.463  11.195 -0.4292  0.0999 -0.3127
 3872TIP3    H133031   1.813   6.530  11.248 -0.2272 -0.7591  1.0028
 3872TIP3    H233032   1.787   6.424  11.142 -0.7552  0.5605 -0.2258
 3873TIP3   OH233033   0.837   0.114  13.766  0.0710  0.2853  0.4842
 3873TIP3    H133034   0.830   0.197  13.718  0.0974 -0.8854 -1.6571
 3873TIP3    H233035   0.931   0.096  13.769  0.0260  0.0414  0.4160
 3874TIP3   OH233036   1.803   5.102   4.754  0.4929 -0.1473 -0.3412
 3874TIP3    H133037   1.745   5.148   4.694 -2.9912 -0.7523  2.2375
 3874TIP3    H233038   1.806   5.012   4.720  0.3078  0.0123 -0.7813
 3875TIP3   OH233039   6.408   5.117   4.224 -0.0899  0.2675  0.4627
 3875TIP3    H133040   6.465   5.194   4.219 -1.9468  1.6543 -0.3596
 3875TIP3    H233041   6.395   5.091   4.133 -1.1035  0.2604  0.6011
 3876TIP3   OH233042   3.636   0.528  16.562  0.5710  0.8035  0.1361
 3876TIP3    H133043   3.724   0.491  16.570 -0.4627 -1.9911 -0.5198
 3876TIP3    H233044   3.607   0.540  16.652  1.5992  1.8529  0.3617
 3877TIP3   OH233045   1.329   2.790  15.810 -0.2863  0.5424 -0.7418
 3877TIP3    H133046   1.239   2.769  15.834 -0.1367  0.6141 -0.0991
 3877TIP3    H233047   1.326   2.804  15.715 -1.6380  4.0166 -0.3193
 3878TIP3   OH233048   5.143   5.980   1.651  0.0608 -0.3290 -0.3980
 3878TIP3    H133049   5.174   5.969   1.561 -0.3656  0.2751 -0.6345
 3878TIP3    H233050   5.213   6.027   1.695 -0.3290  0.7121 -0.8317
 3879TIP3   OH233051   4.325   6.205  15.439 -0.0044  0.0367  0.1856
 3879TIP3    H133052   4.302   6.283  15.389  1.2893  0.8385  0.8081
 3879TIP3    H233053   4.401   6.168  15.392 -0.5324 -0.8000 -0.0385
 3880TIP3   OH233054   4.832   6.038  15.475  0.2564  0.0642  0.2612
 3880TIP3    H133055   4.857   6.130  15.481  0.0029  0.3588 -2.2494
 3880TIP3    H233056   4.738   6.040  15.462  0.2070 -0.5684  0.5189
 3881TIP3   OH233057   0.717   6.557   1.968 -0.7573 -0.3943 -0.3464
 3881TIP3    H133058   0.775   6.593   2.034  0.9218  0.8509 -2.3496
 3881TIP3    H233059   0.634   6.603   1.981 -0.6588 -0.6266  1.2354
 3882TIP3   OH233060   2.816   4.594   3.882  0.1581 -0.4342  0.0116
 3882TIP3    H133061   2.910   4.579   3.891  0.7199  1.0484 -2.4860
 3882TIP3    H233062   2.796   4.661   3.948  1.1434  0.1535 -0.2613
 3883TIP3   OH233063   5.395   1.370   1.766  0.2105  0.1762  0.1446
 3883TIP3    H133064   5.346   1.449   1.746  0.1502  0.2639  0.6299
 3883TIP3    H233065   5.347   1.329   1.838 -0.4178 -0.9162 -0.8756
 3884TIP3   OH233066   2.922   3.369   2.265 -0.0277  0.5770 -0.1684
 3884TIP3    H133067   2.973   3.439   2.307  0.8913  1.6903 -2.9094
 3884TIP3    H233068   2.868   3.415   2.201 -1.0073 -1.0733 -0.5591
 3885TIP3   OH233069   3.878   0.408  14.003  0.5618 -0.1767  0.6296
 3885TIP3    H133070   3.902   0.329  14.051 -3.6840 -2.5020 -0.5854
 3885TIP3    H233071   3.811   0.450  14.057  0.0791  0.5106 -0.4639
 3886TIP3   OH233072   5.230   5.286   1.541 -0.0394 -0.0791 -0.6242
 3886TIP3    H133073   5.216   5.227   1.467 -0.4017  0.0870 -0.6911
 3886TIP3    H233074   5.240   5.228   1.616 -0.1872 -0.2340 -0.7223
 3887TIP3   OH233075   4.877   1.504  14.246 -0.4297 -0.0432 -0.3175
 3887TIP3    H133076   4.900   1.547  14.163 -0.1235 -0.7377 -0.5983
 3887TIP3    H233077   4.880   1.574  14.310  4.0392 -0.2406  0.0003
 3888TIP3   OH233078   3.258   5.699  12.588 -0.3651 -0.6864 -0.3946
 3888TIP3    H133079   3.313   5.621  12.588  0.3208 -0.2286 -1.5736
 3888TIP3    H233080   3.246   5.720  12.496 -1.0759  0.2432 -0.1097
 3889TIP3   OH233081   0.506   1.895  12.147  0.0463  0.6785 -0.1473
 3889TIP3    H133082   0.564   1.956  12.100  1.2795 -1.0208 -0.9242
 3889TIP3    H233083   0.548   1.885  12.233  2.3524 -2.2963 -1.4545
 3890TIP3   OH233084   2.224   6.115   2.407  0.1680 -0.1018 -0.3717
 3890TIP3    H133085   2.285   6.142   2.339  0.5376 -0.5516 -0.2264
 3890TIP3    H233086   2.226   6.186   2.471  3.2951 -1.5669  1.4400
 3891TIP3   OH233087   5.408   6.669  16.954  0.3138 -0.2280 -0.3806
 3891TIP3    H133088   5.381   6.726  16.882 -0.6344  2.1424  1.6697
 3891TIP3    H233089   5.402   6.725  17.032  0.2157 -2.9232  1.7066
 3892TIP3   OH233090   2.318   3.918  14.652  0.2706  0.1118  0.3105
 3892TIP3    H133091   2.248   3.929  14.587 -0.2948  0.6998  0.9969
 3892TIP3    H233092   2.397   3.945  14.606  0.3037 -1.9296 -0.9324
 3893TIP3   OH233093   1.796   4.044  13.910 -0.1707 -0.2314  0.0234
 3893TIP3    H133094   1.869   4.067  13.853  0.5095 -1.9583  0.1360
 3893TIP3    H233095   1.834   3.985  13.975 -1.6243 -0.9671  0.2437
 3894TIP3   OH233096   1.579   0.308   0.392  0.1216  0.3436 -0.2638
 3894TIP3    H133097   1.618   0.395   0.393 -0.7423  0.8301 -2.6836
 3894TIP3    H233098   1.634   0.256   0.451  3.7220  1.2579 -2.4814
 3895TIP3   OH233099   4.983   6.522  11.860 -0.6823  0.4015  0.1375
 3895TIP3    H133100   4.978   6.610  11.896  0.6188  0.6681 -0.2436
 3895TIP3    H233101   4.939   6.466  11.924  0.7928  0.9707  1.7188
 3896TIP3   OH233102   3.509   0.986   4.158 -0.1515  0.3663  0.4195
 3896TIP3    H133103   3.418   1.011   4.176  0.4729  3.4131  0.0175
 3896TIP3    H233104   3.519   0.900   4.197 -3.4599 -0.5118 -0.3757
 3897TIP3   OH233105   3.059   1.934   6.058  0.0497  0.6536  0.5936
 3897TIP3    H133106   3.028   2.024   6.056 -0.8611  0.3339 -0.5478
 3897TIP3    H233107   3.017   1.895   6.135 -0.0118  1.0454  0.7568
 3898TIP3   OH233108   3.809   4.191   1.196 -0.3789 -0.7285  0.2960
 3898TIP3    H133109   3.764   4.115   1.235 -0.5226 -0.7937  0.0085
 3898TIP3    H233110   3.841   4.158   1.112 -0.7729 -0.3644 -0.0017
 3899TIP3   OH233111   0.286   3.265   1.719 -0.0163 -0.5561  0.5258
 3899TIP3    H133112   0.361   3.206   1.710 -1.0998 -1.8421 -0.5266
 3899TIP3    H233113   0.224   3.215   1.772 -1.0743 -0.5101 -0.6411
 3900TIP3   OH233114   3.404   1.404  13.646  0.2416 -0.3356  0.2414
 3900TIP3    H133115   3.374   1.313  13.648  0.3806 -0.3984  2.7557
 3900TIP3    H233116   3.491   1.401  13.687  0.6284  0.8381 -0.4430
 3901TIP3   OH233117   6.143   1.769  11.571 -0.3156 -0.1188 -0.1511
 3901TIP3    H133118   6.107   1.817  11.496  0.2823  0.1467 -0.2743
 3901TIP3    H233119   6.199   1.702  11.532  0.8976  0.7277  0.0518
 3902TIP3   OH233120   5.721   3.788  15.721 -0.1904 -0.0902  0.0315
 3902TIP3    H133121   5.720   3.713  15.780 -1.6530  0.5954  0.9512
 3902TIP3    H233122   5.793   3.843  15.753 -0.1423 -0.3453  0.3679
 3903TIP3   OH233123   5.171   2.065   4.030 -0.5800  0.0930  0.0704
 3903TIP3    H133124   5.185   1.976   4.063  0.0387  0.3183  0.4468
 3903TIP3    H233125   5.200   2.121   4.102  1.1040  0.5988 -0.9621
 3904TIP3   OH233126   0.928   5.003  16.523  0.6904  0.2666  0.0474
 3904TIP3    H133127   1.009   4.959  16.497 -0.7129 -0.9952 -2.5561
 3904TIP3    H233128   0.932   5.006  16.619  3.1793 -0.9459  0.0504
 3905TIP3   OH233129   4.009   3.263  11.592  0.5033  0.0769  0.1323
 3905TIP3    H133130   3.938   3.204  11.615  1.2335 -1.5950 -1.5785
 3905TIP3    H233131   3.972   3.321  11.525 -0.0196  1.1780  1.3269
 3906TIP3   OH233132   1.427   1.591   0.140 -0.1995  0.0935  0.1745
 3906TIP3    H133133   1.412   1.595   0.234  0.3024  1.3598  0.2135
 3906TIP3    H233134   1.521   1.577   0.132 -0.0240  1.3706 -0.1380
 3907TIP3   OH233135   6.330   0.295   0.303  0.0574  0.1228  0.4919
 3907TIP3    H133136   6.345   0.211   0.346 -1.2522 -1.2656 -1.5571
 3907TIP3    H233137   6.416   0.337   0.300  0.8825 -1.4852  0.9187
 3908TIP3   OH233138   1.902   4.055  15.004 -0.0836  0.2787 -0.8431
 3908TIP3    H133139   1.979   4.001  15.023  1.3003  2.4694  0.1754
 3908TIP3    H233140   1.921   4.139  15.046 -3.5455  0.5812  0.3898
 3909TIP3   OH233141   4.748   5.356   1.399 -0.0724 -0.7288 -0.1240
 3909TIP3    H133142   4.689   5.352   1.324 -0.9272 -2.4771  0.5639
 3909TIP3    H233143   4.836   5.358   1.362 -0.5191 -0.2298 -1.1687
 3910TIP3   OH233144   1.528   1.335   6.663 -0.1191  0.1553 -0.6057
 3910TIP3    H133145   1.516   1.299   6.575  0.4876  1.2418 -1.1463
 3910TIP3    H233146   1.443   1.324   6.705 -0.5301 -0.0247 -1.4677
 3911TIP3   OH233147   3.798   2.018   4.149 -0.5234  0.0996  0.5849
 3911TIP3    H133148   3.888   2.051   4.142 -0.1008  0.2367  4.6734
 3911TIP3    H233149   3.804   1.944   4.210 -3.1080 -0.4556  0.2872
 3912TIP3   OH233150   6.271   1.721  15.159 -0.0417 -1.0831  0.5091
 3912TIP3    H133151   6.279   1.656  15.089 -0.8376 -2.5162  1.6960
 3912TIP3    H233152   6.299   1.675  15.238 -0.4224  0.0837  1.3486
 3913TIP3   OH233153   3.674   1.041   6.575 -0.0792 -0.3797 -0.0336
 3913TIP3    H133154   3.679   1.033   6.479  0.5505 -1.2774  0.0705
 3913TIP3    H233155   3.592   0.997   6.598  0.2803 -1.0717 -0.0641
 3914TIP3   OH233156   1.163   1.799  11.779  0.2201 -0.2546  0.5223
 3914TIP3    H133157   1.125   1.769  11.696 -0.6897 -0.4243  0.9842
 3914TIP3    H233158   1.095   1.855  11.817 -0.2257 -1.7788  2.0855
 3915TIP3   OH233159   4.730   0.144  11.303  0.1721 -0.3510  0.1764
 3915TIP3    H133160   4.687   0.141  11.217 -0.7406 -1.0828  0.6489
 3915TIP3    H233161   4.659   0.157  11.365  0.7586 -0.4759  0.8848
 3916TIP3   OH233162   2.839   2.960  15.317  0.4889 -0.0127  0.5456
 3916TIP3    H133163   2.773   3.024  15.345 -0.5315 -0.4087 -0.8544
 3916TIP3    H233164   2.832   2.889  15.381 -2.7196 -1.5105 -1.2125
 3917TIP3   OH233165   6.083   1.709   4.262 -0.1578  0.0725 -0.5124
 3917TIP3    H133166   6.119   1.649   4.197  1.0457  0.7690 -0.5312
 3917TIP3    H233167   5.992   1.681   4.274  0.4390 -1.9150 -0.2968
 3918TIP3   OH233168   2.922   0.128  10.869  0.4475 -0.1510  0.0463
 3918TIP3    H133169   2.851   0.159  10.924 -0.6468 -1.0332 -0.8270
 3918TIP3    H233170   2.987   0.199  10.871 -1.8433  2.1838 -1.7228
 3919TIP3   OH233171   3.038   6.496  16.680  0.5216 -0.2312 -0.8045
 3919TIP3    H133172   3.078   6.471  16.596 -0.5206 -0.4242 -1.2578
 3919TIP3    H233173   3.003   6.584  16.664  2.4222  0.7660  0.1808
 3920TIP3   OH233174   1.077   4.383  16.538 -0.1628 -0.4139 -0.2026
 3920TIP3    H133175   0.989   4.356  16.511  0.0762  0.7864 -2.4850
 3920TIP3    H233176   1.063   4.438  16.616 -1.1756 -2.0107  0.7853
 3921TIP3   OH233177   3.150   5.777   1.747 -0.0446 -0.5382 -0.3183
 3921TIP3    H133178   3.081   5.745   1.689 -0.3514 -0.2017 -0.1420
 3921TIP3    H233179   3.104   5.823   1.816  0.3477 -0.5083 -0.0724
 3922TIP3   OH233180   3.174   3.797   4.324 -0.5764 -0.5734 -0.1611
 3922TIP3    H133181   3.181   3.791   4.229 -1.3303 -0.5708 -0.2184
 3922TIP3    H233182   3.080   3.792   4.342 -0.3481 -2.5758  0.7123
 3923TIP3   OH233183   2.445   3.790   3.131 -0.4071 -0.2192  0.3221
 3923TIP3    H133184   2.425   3.853   3.062 -2.2754 -0.9070  0.1660
 3923TIP3    H233185   2.402   3.826   3.209  0.8363  0.0503  0.9011
 3924TIP3   OH233186   0.276   3.904  14.316 -0.1425  0.0324 -0.1808
 3924TIP3    H133187   0.262   3.977  14.255 -0.3744 -0.1838 -0.3932
 3924TIP3    H233188   0.293   3.829  14.259  0.2036 -0.0582  0.0383
 3925TIP3   OH233189   5.375   3.938  13.974 -0.5103  0.1189 -0.1310
 3925TIP3    H133190   5.419   4.019  13.998 -0.8733  0.5277 -0.8207
 3925TIP3    H233191   5.312   3.923  14.044 -1.6237  1.3504 -0.8340
 3926TIP3   OH233192   1.843   5.570   0.936 -0.2125 -0.5329  0.6516
 3926TIP3    H133193   1.805   5.642   0.987 -0.4301 -0.0118 -0.2376
 3926TIP3    H233194   1.928   5.554   0.977 -0.6463 -0.5497  1.5707
 3927TIP3   OH233195   3.920   5.110  16.169  0.0871  0.2518 -0.2479
 3927TIP3    H133196   3.851   5.123  16.104 -1.1945 -1.2428  0.7496
 3927TIP3    H233197   3.989   5.062  16.121  0.5047  1.8033 -1.2626
 3928TIP3   OH233198   4.058   3.048   6.939 -0.0829 -0.8681  0.0912
 3928TIP3    H133199   4.056   3.049   6.844 -2.6568  0.1937  0.0815
 3928TIP3    H233200   4.123   3.115   6.962  1.5080 -2.0094 -0.8408
 3929TIP3   OH233201   0.663   5.497   0.163 -0.2496 -0.3521  0.3902
 3929TIP3    H133202   0.648   5.418   0.110  1.9932 -0.6662  0.1564
 3929TIP3    H233203   0.710   5.557   0.106  0.4019  0.1096  1.3810
 3930TIP3   OH233204   0.579   0.694   6.195 -0.2786  0.1453  0.4853
 3930TIP3    H133205   0.628   0.612   6.200  0.0225 -0.0531 -3.2827
 3930TIP3    H233206   0.487   0.667   6.195 -0.2959  0.0956  1.8051
 3931TIP3   OH233207   0.516   5.008   5.370  0.0450 -0.9385  0.8753
 3931TIP3    H133208   0.522   5.052   5.286  1.0110 -1.9412  0.3932
 3931TIP3    H233209   0.583   5.051   5.424 -0.3312 -0.5366  1.0303
 3932TIP3   OH233210   1.957   2.139  16.633 -0.0460 -0.1882  0.1340
 3932TIP3    H133211   1.870   2.177  16.621  0.3566  0.2873 -1.4932
 3932TIP3    H233212   1.962   2.068  16.569  0.9362  0.0850 -0.1068
 3933TIP3   OH233213   5.949   2.340  11.710  0.4237  0.5073  0.7619
 3933TIP3    H133214   5.980   2.431  11.707 -1.4511  1.1725 -0.1032
 3933TIP3    H233215   6.015   2.294  11.762  0.9391  2.5611  2.0615
 3934TIP3   OH233216   2.403   0.034   6.332 -0.4164  0.1047 -0.1297
 3934TIP3    H133217   2.433   0.001   6.417  2.1990 -0.7608 -1.2932
 3934TIP3    H233218   2.392   0.128   6.347  1.5405  0.2366  0.8151
 3935TIP3   OH233219   4.031   3.600   0.756 -0.1040  0.0064  0.0180
 3935TIP3    H133220   4.021   3.590   0.850  0.1601  0.3398  0.0848
 3935TIP3    H233221   3.945   3.632   0.726  0.6292  2.8226  0.5844
 3936TIP3   OH233222   0.527   0.513   3.387  0.8845 -0.3036 -0.4408
 3936TIP3    H133223   0.569   0.524   3.473 -0.0143  1.2362 -0.1625
 3936TIP3    H233224   0.433   0.508   3.407  0.6714  0.0452 -1.3287
 3937TIP3   OH233225   4.520   1.287  14.609  0.4097 -0.0931  0.0801
 3937TIP3    H133226   4.443   1.306  14.556 -0.2821 -2.9561 -0.1031
 3937TIP3    H233227   4.488   1.287  14.699  0.5312  0.2264  0.1218
 3938TIP3   OH233228   4.567   3.786  11.537  0.2354  0.2664  0.2286
 3938TIP3    H133229   4.652   3.820  11.565  0.8849 -0.6365 -0.5756
 3938TIP3    H233230   4.520   3.862  11.502 -0.4425  1.3584  3.2358
 3939TIP3   OH233231   4.600   1.614   4.519  0.1656  0.0965 -0.0177
 3939TIP3    H133232   4.530   1.676   4.542 -0.4651 -1.3090  2.1014
 3939TIP3    H233233   4.602   1.615   4.424 -1.7739  1.2605 -0.1027
 3940TIP3   OH233234   2.037   6.636  11.845  0.0633 -0.0183 -0.2091
 3940TIP3    H133235   1.990   6.718  11.833  0.4738  0.1731 -0.5541
 3940TIP3    H233236   1.969   6.571  11.864 -0.1563  0.6785  1.6215
 3941TIP3   OH233237   3.492   4.137  10.750 -0.7337 -0.6634 -0.4298
 3941TIP3    H133238   3.577   4.134  10.707 -0.7796  0.8719 -0.6799
 3941TIP3    H233239   3.442   4.201  10.699 -1.5487 -0.4813  0.5713
 3942TIP3   OH233240   4.169   6.499   0.447  0.2024 -0.4024 -0.3902
 3942TIP3    H133241   4.224   6.431   0.487  0.6344 -0.3779 -0.9101
 3942TIP3    H233242   4.080   6.466   0.455  0.1311  0.1590  1.6484
 3943TIP3   OH233243   2.146   1.531   5.446  0.0294  0.3061  0.1004
 3943TIP3    H133244   2.206   1.457   5.432  0.5440  0.6673  0.3718
 3943TIP3    H233245   2.071   1.511   5.391  0.2037 -0.3763  0.0930
 3944TIP3   OH233246   1.394   5.230   3.660  0.0253 -1.0309 -0.8667
 3944TIP3    H133247   1.486   5.204   3.662  0.6390  0.9603 -1.3234
 3944TIP3    H233248   1.373   5.251   3.751  0.5817  0.2339 -1.0095
 3945TIP3   OH233249   3.145   5.311   2.789  0.4832 -0.2775 -0.0932
 3945TIP3    H133250   3.163   5.396   2.829  1.1608  0.5262 -2.0323
 3945TIP3    H233251   3.058   5.287   2.823 -0.0364  1.5105 -0.0309
 3946TIP3   OH233252   0.516   5.509  16.400 -0.0594  0.0759 -0.2259
 3946TIP3    H133253   0.515   5.488  16.493  0.4967 -0.7353 -0.3936
 3946TIP3    H233254   0.504   5.604  16.397 -1.1293 -0.0103  0.6211
 3947TIP3   OH233255   2.677   2.275   1.306  0.4073  0.1328  0.4104
 3947TIP3    H133256   2.656   2.360   1.344 -1.6296 -0.5470  0.9372
 3947TIP3    H233257   2.720   2.296   1.223 -0.4196  1.6781  0.3375
 3948TIP3   OH233258   0.926   2.127   5.425 -0.0370 -0.0958  0.0223
 3948TIP3    H133259   0.993   2.084   5.372  0.4675  0.3172  0.3234
 3948TIP3    H233260   0.945   2.102   5.515 -1.5897 -1.7548 -0.0566
 3949TIP3   OH233261   5.884   3.323   2.831  0.4324 -0.5966 -0.6369
 3949TIP3    H133262   5.956   3.378   2.799 -0.0289  1.2002  1.1936
 3949TIP3    H233263   5.920   3.277   2.906  0.5074 -2.0905 -1.5455
 3950TIP3   OH233264   4.779   1.706   0.959  0.3285 -0.3410  0.1263
 3950TIP3    H133265   4.772   1.617   0.925  2.5197  0.2892 -2.3075
 3950TIP3    H233266   4.853   1.704   1.019  0.6385 -0.0743 -0.2443
 3951TIP3   OH233267   6.749   3.042   1.289 -0.1110  0.0599 -0.1521
 3951TIP3    H133268   6.748   3.111   1.222  0.1007 -0.8539 -1.1136
 3951TIP3    H233269   6.660   3.009   1.291 -0.2204  0.3789  0.3337
 3952TIP3   OH233270   0.544   2.428   4.072 -0.0904  0.1027  0.0224
 3952TIP3    H133271   0.619   2.401   4.018 -0.4958  0.6187 -0.8240
 3952TIP3    H233272   0.550   2.524   4.074 -0.4258  0.1182  0.4062
 3953TIP3   OH233273   0.899   4.201  11.344 -0.2706 -0.0090  0.0830
 3953TIP3    H133274   0.989   4.225  11.366 -0.7453  0.2969  1.8039
 3953TIP3    H233275   0.882   4.247  11.262  0.5319  1.4504  0.6976
 3954TIP3   OH233276   2.632   5.264   2.173  0.1596  0.1262 -0.1928
 3954TIP3    H133277   2.545   5.251   2.136  0.1163  0.8192 -0.3617
 3954TIP3    H233278   2.646   5.359   2.168  0.1185  0.2765  1.6405
 3955TIP3   OH233279   3.008   4.939  11.181 -0.1826 -0.3044  0.4520
 3955TIP3    H133280   3.079   4.970  11.238  1.0597 -1.6728 -0.2898
 3955TIP3    H233281   3.023   4.985  11.098 -0.8026  0.1908  0.6100
 3956TIP3   OH233282   1.148   4.295  11.380 -0.6070 -0.4699 -0.1841
 3956TIP3    H133283   1.103   4.380  11.373 -0.8492 -0.5996 -0.2142
 3956TIP3    H233284   1.236   4.317  11.410 -0.4131 -0.1439 -0.9709
 3957TIP3   OH233285   4.452   0.714   4.322 -0.9251  0.5722 -0.5318
 3957TIP3    H133286   4.408   0.630   4.330 -1.4044  0.7909 -0.8116
 3957TIP3    H233287   4.459   0.729   4.228  0.1057  0.3670 -0.5061
 3958TIP3   OH233288   2.472   6.149   2.598  0.0388  0.3928  0.4503
 3958TIP3    H133289   2.411   6.218   2.572 -0.3382  0.7198  2.0929
 3958TIP3    H233290   2.558   6.191   2.600 -0.5861  1.9170  4.8209
 3959TIP3   OH233291   2.074   2.632   4.990 -0.3911 -0.1411  0.2728
 3959TIP3    H133292   2.074   2.540   5.016 -0.8408 -0.4853 -0.8931
 3959TIP3    H233293   2.008   2.638   4.921  0.1895  0.8945 -0.2220
 3960TIP3   OH233294   6.104   3.391  17.274 -0.2828 -0.0529 -0.0691
 3960TIP3    H133295   6.111   3.314  17.331  0.2694 -0.2749 -0.4223
 3960TIP3    H233296   6.010   3.406  17.264 -0.3907 -0.5637  0.1649
 3961TIP3   OH233297   1.049   6.574   3.327 -0.6640  0.0124  0.6705
 3961TIP3    H133298   1.125   6.551   3.382 -0.2953  1.4864  0.8008
 3961TIP3    H233299   0.988   6.502   3.341  0.6823 -1.2092  0.5894
 3962TIP3   OH233300   2.196   0.742   1.250  0.3160  0.1331  0.1518
 3962TIP3    H133301   2.228   0.653   1.255 -0.3930 -0.0842  1.1482
 3962TIP3    H233302   2.150   0.756   1.333  1.1864  1.7270  0.3964
 3963TIP3   OH233303   5.314   5.926  14.711 -0.1132  0.3778 -0.4224
 3963TIP3    H133304   5.386   5.874  14.676  0.2148  1.0441 -0.7783
 3963TIP3    H233305   5.339   5.944  14.802  0.4175  1.0200 -0.6886
 3964TIP3   OH233306   4.063   1.529  16.535 -0.0949 -0.2061 -0.0009
 3964TIP3    H133307   4.065   1.435  16.517  0.8080 -0.5839  1.8631
 3964TIP3    H233308   3.986   1.541  16.591 -0.1345  0.1421 -0.1284
 3965TIP3   OH233309   0.223   1.040   2.420  0.1702  0.5070  0.1793
 3965TIP3    H133310   0.174   1.118   2.394 -0.9550 -0.3355 -0.2872
 3965TIP3    H233311   0.250   0.999   2.338 -0.1182 -0.1280  0.3907
 3966TIP3   OH233312   4.776   0.610  17.017 -0.1327 -0.1525  0.3123
 3966TIP3    H133313   4.831   0.685  17.041  0.5560 -0.1589 -1.1541
 3966TIP3    H233314   4.783   0.550  17.091  0.2975  0.6824  0.9662
 3967TIP3   OH233315   0.294   4.763   4.351 -0.4474  0.1122  0.1108
 3967TIP3    H133316   0.200   4.754   4.337 -0.4615 -0.4714  0.5193
 3967TIP3    H233317   0.320   4.678   4.388 -0.0657  0.8821  1.6744
 3968TIP3   OH233318   2.781   1.330  13.404  0.3105  0.1640 -0.5315
 3968TIP3    H133319   2.772   1.237  13.385  1.3835 -0.2076  0.6076
 3968TIP3    H233320   2.728   1.374  13.338 -0.7672 -1.2810 -0.6644
 3969TIP3   OH233321   4.082   3.120   3.360 -0.5454 -0.2288 -0.1268
 3969TIP3    H133322   4.161   3.155   3.319 -1.0397  0.9332 -0.1196
 3969TIP3    H233323   4.031   3.084   3.287 -0.4317 -0.1463 -0.2480
 3970TIP3   OH233324   4.472   6.643  11.233  0.0002  0.3106  0.6578
 3970TIP3    H133325   4.539   6.621  11.167 -0.5864  1.9226 -0.5510
 3970TIP3    H233326   4.460   6.738  11.224 -1.7969  0.2007  1.4669
 3971TIP3   OH233327   5.815   1.115   0.294  0.6018 -0.0041 -0.2423
 3971TIP3    H133328   5.857   1.045   0.245  2.4535  0.3888  0.7133
 3971TIP3    H233329   5.824   1.090   0.386 -0.2031  0.6933  0.0472
 3972TIP3   OH233330   4.619   6.091   2.543  0.0368 -0.0236  0.3944
 3972TIP3    H133331   4.588   6.001   2.554  0.1423 -0.1136 -0.0232
 3972TIP3    H233332   4.690   6.084   2.479  1.9810 -0.0400  2.4328
 3973TIP3   OH233333   0.764   2.364   1.690 -0.1318 -0.3722 -0.1240
 3973TIP3    H133334   0.726   2.429   1.632  0.3351  0.5922  0.6168
 3973TIP3    H233335   0.694   2.344   1.752 -0.0207  0.0636  0.1509
 3974TIP3   OH233336   4.533   3.677   2.860 -0.7809 -0.0215 -0.0715
 3974TIP3    H133337   4.461   3.670   2.797 -2.0942  0.3230  1.3574
 3974TIP3    H233338   4.498   3.729   2.932  0.8569  0.0327  0.7355
 3975TIP3   OH233339   5.264   5.621   1.021  0.2781  0.1326 -0.3235
 3975TIP3    H133340   5.195   5.634   1.085  0.3981  0.7244 -0.3071
 3975TIP3    H233341   5.312   5.544   1.052  0.7446  0.7985  0.6735
 3976TIP3   OH233342   4.621   5.694  14.765 -0.2021 -0.2211 -0.0877
 3976TIP3    H133343   4.632   5.599  14.771  0.0100 -0.3451 -1.8671
 3976TIP3    H233344   4.527   5.708  14.772 -0.4556 -0.7901 -1.7917
 3977TIP3   OH233345   2.600   2.512   2.007  0.4362  0.5058 -0.2630
 3977TIP3    H133346   2.550   2.431   1.996 -0.2094  0.9147 -0.4049
 3977TIP3    H233347   2.537   2.582   1.986  0.8452  1.0599  0.3298
 3978TIP3   OH233348   6.488   4.955   0.453  0.1574  0.2751 -0.0465
 3978TIP3    H133349   6.495   4.910   0.368 -1.7404  1.5334 -0.9519
 3978TIP3    H233350   6.492   4.884   0.517  0.1126 -0.8869 -1.2630
 3979TIP3   OH233351   2.179   3.959  15.021 -0.0028 -0.3095  0.0549
 3979TIP3    H133352   2.178   3.864  15.007  1.3617 -0.2965 -0.3363
 3979TIP3    H233353   2.266   3.986  14.991 -0.8588  1.2620 -1.1372
 3980TIP3   OH233354   0.889   4.374   4.505 -0.0747 -0.6578  0.1062
 3980TIP3    H133355   0.885   4.368   4.600 -1.9830  0.3766  0.1389
 3980TIP3    H233356   0.797   4.371   4.477  0.4054 -0.1255 -1.6352
 3981TIP3   OH233357   0.843   6.747  14.514 -0.0732  0.2018 -0.3665
 3981TIP3    H133358   0.889   6.795  14.445 -1.8494  1.4809 -0.7324
 3981TIP3    H233359   0.799   6.814  14.566 -0.4653 -0.8732  0.7569
 3982TIP3   OH233360   0.739   4.657  11.325  0.5260 -0.5122  0.0654
 3982TIP3    H133361   0.650   4.638  11.295  0.7964 -1.1251 -0.3782
 3982TIP3    H233362   0.741   4.752  11.336 -0.3199 -0.5409  0.5324
 3983TIP3   OH233363   2.984   4.907   0.756 -0.0908 -0.1408  0.4743
 3983TIP3    H133364   3.051   4.865   0.810  0.2975 -0.7241 -0.4264
 3983TIP3    H233365   2.933   4.834   0.720  0.7485  0.1040 -1.3167
 3984TIP3   OH233366   5.777   1.950   0.781 -0.1689 -0.0877  0.1525
 3984TIP3    H133367   5.812   1.901   0.855  1.1789  0.9055  0.2125
 3984TIP3    H233368   5.852   1.962   0.722 -0.2509  2.4094  0.4492
 3985TIP3   OH233369   5.605   1.310   6.196  0.2573  0.1470  0.3688
 3985TIP3    H133370   5.550   1.388   6.195  0.7197  0.4815 -0.3168
 3985TIP3    H233371   5.691   1.343   6.223  0.6665  0.0379 -0.7624
 3986TIP3   OH233372   0.812   5.017   6.394  0.0381  0.4143  0.6919
 3986TIP3    H133373   0.863   5.036   6.473  0.3550  1.0848  0.3394
 3986TIP3    H233374   0.724   4.998   6.426 -0.1682  1.9567  1.1414
 3987TIP3   OH233375   3.471   1.320  14.574 -0.0850  0.1003  0.8292
 3987TIP3    H133376   3.513   1.251  14.624  0.9462 -0.8089 -1.1610
 3987TIP3    H233377   3.539   1.351  14.514 -1.5768  0.1586 -0.9406
 3988TIP3   OH233378   1.007   3.321  16.221  0.1769 -0.3562 -0.0167
 3988TIP3    H133379   1.033   3.354  16.307  1.6694  0.6551 -0.8015
 3988TIP3    H233380   0.947   3.388  16.188 -1.8785 -1.6367  0.9183
 3989TIP3   OH233381   1.927   4.730  11.977 -0.0314  0.0354  0.2760
 3989TIP3    H133382   1.933   4.656  11.917  2.1227  0.0881  0.3592
 3989TIP3    H233383   1.833   4.739  11.995 -0.6131 -0.8646 -1.9588
 3990TIP3   OH233384   6.397   6.413   3.320 -0.0184  0.0045  0.1557
 3990TIP3    H133385   6.304   6.429   3.336 -0.2363 -0.7284 -0.3288
 3990TIP3    H233386   6.423   6.351   3.388  0.1369  0.2453  0.3208
 3991TIP3   OH233387   5.940   4.644   0.300  0.6396 -0.0607 -0.1989
 3991TIP3    H133388   5.909   4.560   0.266  1.6322 -0.3924 -0.3188
 3991TIP3    H233389   6.035   4.635   0.304  0.6752  0.6130  0.9891
 3992TIP3   OH233390   0.640   0.398   1.441  0.0340  0.3957 -0.2629
 3992TIP3    H133391   0.601   0.484   1.424 -0.1032  0.5098  0.6135
 3992TIP3    H233392   0.574   0.351   1.492  0.4177  0.0399 -0.0875
 3993TIP3   OH233393   4.464   5.151  12.347 -0.0038  0.3811  0.5037
 3993TIP3    H133394   4.491   5.192  12.429 -1.3421  1.7290  0.3202
 3993TIP3    H233395   4.540   5.159  12.289 -0.2692  2.8736  0.4056
 3994TIP3   OH233396   1.471   4.814   5.379 -0.0615 -0.1309 -0.5128
 3994TIP3    H133397   1.518   4.765   5.312  1.6611 -0.8688  1.1576
 3994TIP3    H233398   1.423   4.748   5.428  2.2393 -0.3117  1.7262
 3995TIP3   OH233399   6.300   4.813   3.885 -0.4617 -0.0342 -0.0636
 3995TIP3    H133400   6.207   4.835   3.884 -0.2571  1.0285  1.3185
 3995TIP3    H233401   6.343   4.890   3.923  1.1009 -0.1480 -1.4976
 3996TIP3   OH233402   2.986   0.554  15.830 -0.1053  0.3335  0.1027
 3996TIP3    H133403   3.061   0.499  15.851  1.7435  3.2031  1.7795
 3996TIP3    H233404   2.979   0.550  15.735  0.0337 -2.4926  0.1255
 3997TIP3   OH233405   3.505   0.349  13.061 -0.2918 -0.3284 -0.4140
 3997TIP3    H133406   3.541   0.438  13.066  0.9315 -0.8331  0.0385
 3997TIP3    H233407   3.518   0.312  13.148 -1.1147 -0.8493 -0.4938
 3998TIP3   OH233408   5.029   0.695   0.603 -0.0804  0.4731  0.1965
 3998TIP3    H133409   5.093   0.754   0.642 -0.6400 -0.2704  2.3452
 3998TIP3    H233410   5.050   0.608   0.638 -2.1161  0.1824  0.8451
 3999TIP3   OH233411   0.078   6.567   0.500  0.0857 -0.0180 -0.0202
 3999TIP3    H133412  -0.010   6.535   0.483 -0.3188  1.2900 -0.4984
 3999TIP3    H233413   0.134   6.490   0.492 -1.1492 -1.1867  1.7305
 4000TIP3   OH233414   3.479   4.371   5.235 -0.5156  0.4424  0.1912
 4000TIP3    H133415   3.517   4.435   5.175 -1.3926  0.3695 -0.4547
 4000TIP3    H233416   3.550   4.309   5.252  0.0761  1.0954  0.1306
 4001TIP3   OH233417   5.399   2.543   4.539 -0.3633  0.2031  0.2493
 4001TIP3    H133418   5.397   2.518   4.632  0.3795  0.1440  0.2520
 4001TIP3    H233419   5.491   2.539   4.515 -0.2716  2.4171  0.0866
 4002TIP3   OH233420   1.870   1.330   2.536 -0.3231  0.1946  0.0559
 4002TIP3    H133421   1.962   1.350   2.553 -0.2626 -0.6967  0.8613
 4002TIP3    H233422   1.861   1.237   2.557 -1.4495  0.3088  0.1633
 4003TIP3   OH233423   5.276   5.209  15.060  0.9016  0.3820  0.0929
 4003TIP3    H133424   5.217   5.267  15.108  0.4571  0.3323 -0.3895
 4003TIP3    H233425   5.364   5.234  15.090  0.5691 -0.7605  2.1674
 4004TIP3   OH233426   0.757   0.224  14.365  0.0278 -0.7151 -0.7239
 4004TIP3    H133427   0.671   0.189  14.385  0.5767 -1.1769  1.0034
 4004TIP3    H233428   0.803   0.153  14.320 -0.1738 -0.7975 -0.7992
 4005TIP3   OH233429   6.640   1.058  16.690 -0.0273  0.4998  0.1868
 4005TIP3    H133430   6.703   1.057  16.618 -0.4649 -0.3485 -0.2002
 4005TIP3    H233431   6.627   0.966  16.712 -1.1958  0.6470  0.1785
 4006TIP3   OH233432   0.112   6.713  11.197 -0.2993 -0.0968 -0.2865
 4006TIP3    H133433   0.018   6.720  11.212 -0.3030  0.3128 -0.5074
 4006TIP3    H233434   0.124   6.736  11.105 -0.2564 -2.3882 -0.9281
 4007TIP3   OH233435   4.254   0.653  16.868 -0.3735 -0.1282  0.1367
 4007TIP3    H133436   4.279   0.564  16.846 -1.3719 -0.7400  1.3724
 4007TIP3    H233437   4.181   0.673  16.809  0.6286  0.3527 -0.9862
 4008TIP3   OH233438   5.825   3.085   5.745 -0.1854  0.1351  0.5107
 4008TIP3    H133439   5.834   3.001   5.699  0.0161 -0.6410  1.9183
 4008TIP3    H233440   5.793   3.145   5.678  1.1594 -0.6659 -0.9289
 4009TIP3   OH233441   1.591   1.813  12.379 -0.2080  0.0651  0.6536
 4009TIP3    H133442   1.570   1.889  12.324 -2.4108 -0.6475  0.3977
 4009TIP3    H233443   1.558   1.837  12.466 -1.6193 -0.8283  0.4031
 4010TIP3   OH233444   5.288   4.849   5.253 -0.2532  0.4819 -0.2221
 4010TIP3    H133445   5.283   4.772   5.309 -0.3167  0.2655 -0.5232
 4010TIP3    H233446   5.369   4.893   5.280 -0.3039  0.4015  0.0637
 4011TIP3   OH233447   1.369   4.603   3.436 -0.0057 -0.0687 -0.2742
 4011TIP3    H133448   1.352   4.555   3.518  0.3081  0.3304  0.0292
 4011TIP3    H233449   1.436   4.667   3.460  2.1126 -1.7224 -1.4560
 4012TIP3   OH233450   0.277   2.123  13.099  0.5320 -0.8689 -0.8681
 4012TIP3    H133451   0.296   2.213  13.123 -0.5781 -0.6609 -0.7087
 4012TIP3    H233452   0.232   2.129  13.015 -2.8510 -0.9132  0.7727
 4013TIP3   OH233453   0.398   4.096  11.060 -0.0763 -0.2946 -0.1253
 4013TIP3    H133454   0.393   4.001  11.053 -1.3070 -0.2199 -0.5557
 4013TIP3    H233455   0.459   4.122  10.991 -0.4888 -0.7120 -0.6592
 4014TIP3   OH233456   5.088   1.755  16.692 -0.2413  0.2598 -0.4842
 4014TIP3    H133457   5.147   1.730  16.763 -0.9911 -0.2085 -0.0200
 4014TIP3    H233458   5.128   1.833  16.655  0.6581 -0.0282 -0.1572
 4015TIP3   OH233459   0.688   1.632   3.050 -0.3424  0.1308  0.6275
 4015TIP3    H133460   0.759   1.582   3.091 -0.4690 -1.9600 -1.4723
 4015TIP3    H233461   0.608   1.590   3.082 -0.4586 -0.8442 -0.8292
 4016TIP3   OH233462   1.977   4.657  14.052  0.0055  0.2288 -0.8316
 4016TIP3    H133463   2.013   4.588  13.996  1.4524  0.7345 -0.5633
 4016TIP3    H233464   2.053   4.710  14.076 -0.1343 -1.0701  3.2603
 4017TIP3   OH233465   3.613   2.171  14.153 -0.0100 -0.2276  0.0906
 4017TIP3    H133466   3.662   2.219  14.220 -0.5761  2.2365 -1.1364
 4017TIP3    H233467   3.524   2.208  14.157 -0.3657 -0.8752 -1.2130
 4018TIP3   OH233468   6.302   5.693  11.860 -0.5235  0.3531  0.7565
 4018TIP3    H133469   6.263   5.771  11.900 -0.2198  1.4391 -0.9689
 4018TIP3    H233470   6.396   5.701  11.877 -0.3093  1.1527 -0.6126
 4019TIP3   OH233471   6.214   1.664  13.282  0.3143  0.1523 -0.4779
 4019TIP3    H133472   6.239   1.688  13.371 -0.2115  0.8593 -0.5173
 4019TIP3    H233473   6.171   1.579  13.292  0.5827  0.0576 -0.1041
 4020TIP3   OH233474   6.269   0.875  14.334  0.1468  0.2838  0.0917
 4020TIP3    H133475   6.207   0.942  14.362 -0.1681 -0.4631  1.2918
 4020TIP3    H233476   6.345   0.923  14.303 -0.6042  1.2011 -0.3830
 4021TIP3   OH233477   1.766   2.062  12.103 -0.4597  0.4832 -0.4543
 4021TIP3    H133478   1.728   2.074  12.016 -1.0958 -1.4319 -0.4734
 4021TIP3    H233479   1.800   1.973  12.103  1.4613  1.1578  0.5733
 4022TIP3   OH233480   2.109   5.850  13.959 -0.3834 -0.1843  0.2544
 4022TIP3    H133481   2.039   5.849  13.894 -0.3479  0.3136  0.2057
 4022TIP3    H233482   2.109   5.762  13.997  1.0702 -1.2429 -1.9982
 4023TIP3   OH233483   2.538   2.580  15.003 -0.5039 -0.6378 -0.4220
 4023TIP3    H133484   2.512   2.488  14.998 -1.4955 -0.6014  2.2455
 4023TIP3    H233485   2.462   2.628  14.969 -0.2584 -0.7585 -1.1641
 4024TIP3   OH233486   0.001   1.554   5.583  0.5382  0.3566 -0.2618
 4024TIP3    H133487   0.078   1.565   5.638  0.8620 -0.0562 -0.6220
 4024TIP3    H233488  -0.072   1.543   5.645  1.1777 -2.2649  0.1737
 4025TIP3   OH233489   0.590   6.161   2.262 -0.1183  0.3328 -0.3016
 4025TIP3    H133490   0.623   6.080   2.302 -0.2874 -0.4310 -1.6404
 4025TIP3    H233491   0.576   6.138   2.170 -0.2985  1.8601 -0.6813
 4026TIP3   OH233492   4.725   0.317  12.084 -0.2951 -0.5693 -0.2611
 4026TIP3    H133493   4.818   0.342  12.086 -0.6360  0.7845  0.5064
 4026TIP3    H233494   4.693   0.339  12.171 -1.3141 -1.1467 -0.4765
 4027TIP3   OH233495   2.887   6.228  14.349  0.7594  0.1133 -0.3667
 4027TIP3    H133496   2.915   6.160  14.410 -0.4072  0.0890  0.1687
 4027TIP3    H233497   2.937   6.211  14.269  0.5632 -1.3034 -0.2059
 4028TIP3   OH233498   5.664   0.415   2.831  0.7043  0.6727  0.1670
 4028TIP3    H133499   5.701   0.328   2.818 -0.0077  0.5362 -1.0689
 4028TIP3    H233500   5.720   0.455   2.898  3.1220  0.4741 -1.5970
 4029TIP3   OH233501   3.530   1.995  14.575  0.0926  0.0537 -0.8156
 4029TIP3    H133502   3.491   1.971  14.491  0.4432 -1.0237 -0.6788
 4029TIP3    H233503   3.485   2.076  14.599 -0.7826 -0.2003 -1.5233
 4030TIP3   OH233504   4.371   4.439  12.313 -0.1072  0.0123  0.0388
 4030TIP3    H133505   4.294   4.480  12.274  1.5811  1.8769 -1.5756
 4030TIP3    H233506   4.427   4.418  12.238  1.6361  0.2031  1.2270
 4031TIP3   OH233507   6.419   3.275   5.533  0.2107  0.0366 -0.1687
 4031TIP3    H133508   6.435   3.254   5.625 -1.9248  0.0806  0.2800
 4031TIP3    H233509   6.421   3.190   5.489  0.6854 -0.0522  0.0240
 4032TIP3   OH233510   1.675   5.189   4.375  0.2453 -0.5123 -0.3820
 4032TIP3    H133511   1.720   5.105   4.367  0.5322 -0.3705 -0.2765
 4032TIP3    H233512   1.683   5.212   4.467  1.1469  0.1669 -0.6211
 4033TIP3   OH233513   3.310   5.158  13.282 -0.1104 -0.1190  0.2369
 4033TIP3    H133514   3.335   5.222  13.215 -2.5436  0.9365  0.2680
 4033TIP3    H233515   3.306   5.075  13.234  0.3707  0.2291 -0.4267
 4034TIP3   OH233516   6.294   5.085   0.872  0.3068  0.0451  0.0876
 4034TIP3    H133517   6.231   5.066   0.941  0.0197 -1.3866 -0.5436
 4034TIP3    H233518   6.251   5.150   0.816  0.0343  0.2387  0.5205
 4035TIP3   OH233519   6.694   4.511  12.685 -0.6499  0.0618  0.0446
 4035TIP3    H133520   6.716   4.424  12.719 -0.0478 -0.3456 -1.3045
 4035TIP3    H233521   6.601   4.521  12.706 -0.1758  0.1759  2.4085
 4036TIP3   OH233522   5.075   3.345  11.414 -0.2576 -0.2406 -0.1784
 4036TIP3    H133523   5.070   3.400  11.493 -1.1617 -0.4899 -0.0539
 4036TIP3    H233524   5.102   3.406  11.346  0.1292  0.0676  0.2393
 4037TIP3   OH233525   6.069   5.996   5.541 -0.1485 -0.3786  0.2592
 4037TIP3    H133526   5.975   6.011   5.539 -0.0591  0.2927  0.7162
 4037TIP3    H233527   6.091   5.965   5.453 -0.7248 -0.0978  0.0155
 4038TIP3   OH233528   4.588   5.246  15.874 -0.9202 -0.3842  0.0552
 4038TIP3    H133529   4.672   5.273  15.837 -0.0117 -0.5995  1.8542
 4038TIP3    H233530   4.524   5.264  15.805  0.4384  0.8494 -0.9349
 4039TIP3   OH233531   3.871   2.053   6.641  0.5173 -0.0062 -0.3535
 4039TIP3    H133532   3.926   2.032   6.717 -0.1895  0.6690  0.3572
 4039TIP3    H233533   3.855   1.968   6.599  0.8834 -0.3932  0.2707
 4040TIP3   OH233534   4.547   5.248  14.552 -0.2078  0.3655  1.0203
 4040TIP3    H133535   4.475   5.186  14.565 -0.6475  0.3863 -1.0555
 4040TIP3    H233536   4.523   5.297  14.474  3.5455 -1.8461 -1.8155
 4041TIP3   OH233537   1.712   0.925   4.166 -0.0730  0.3638  0.5256
 4041TIP3    H133538   1.781   0.992   4.178  0.7000  0.5401 -3.6551
 4041TIP3    H233539   1.758   0.849   4.131 -1.5443 -1.0298  1.4593
 4042TIP3   OH233540   0.076   2.115   0.056  0.3333 -0.2849  0.3724
 4042TIP3    H133541   0.071   2.129   0.151  0.8667  0.9703  0.2421
 4042TIP3    H233542   0.027   2.034   0.041 -0.8667  0.1723  1.5690
 4043TIP3   OH233543   0.753   3.456   0.506  0.1551 -0.1324  0.1250
 4043TIP3    H133544   0.791   3.532   0.551  2.1020 -1.0400  0.0696
 4043TIP3    H233545   0.800   3.452   0.423 -1.8730  0.2044 -1.1065
 4044TIP3   OH233546   3.299   5.344  14.527  0.7299  0.4857  0.2887
 4044TIP3    H133547   3.271   5.376  14.612 -0.2901  1.7748 -0.4859
 4044TIP3    H233548   3.394   5.345  14.530  0.7046  1.5600  1.0315
 4045TIP3   OH233549   2.762   1.249  12.556 -0.7347  0.1121  0.4685
 4045TIP3    H133550   2.831   1.251  12.621 -1.0092 -1.3440  0.8577
 4045TIP3    H233551   2.807   1.237  12.472 -0.5142 -1.4071  0.7828
 4046TIP3   OH233552   2.158   1.262   5.353 -0.1980  0.0669  0.0144
 4046TIP3    H133553   2.207   1.185   5.326  0.6139  0.7430 -0.5195
 4046TIP3    H233554   2.066   1.238   5.341  0.0156 -1.0309  0.4861
 4047TIP3   OH233555   0.565   1.192   1.835 -0.1467  0.1024  0.2621
 4047TIP3    H133556   0.490   1.248   1.814  0.2222  1.0662  1.3360
 4047TIP3    H233557   0.543   1.155   1.921 -0.0174 -0.7472 -0.0696
 4048TIP3   OH233558   6.109   6.499  10.784  0.1304 -0.2836  0.3184
 4048TIP3    H133559   6.037   6.537  10.734  0.4930 -0.9902 -0.7943
 4048TIP3    H233560   6.146   6.433  10.725  0.1392 -1.6529  1.7879
 4049TIP3   OH233561   3.017   5.122  10.973  0.4268 -0.1910 -0.4125
 4049TIP3    H133562   2.955   5.188  10.943  0.6354 -0.5825 -1.7886
 4049TIP3    H233563   3.103   5.156  10.947  0.6224 -0.5242 -0.2119
 4050TIP3   OH233564   5.079   1.616  11.126 -0.0778 -0.4486  0.4201
 4050TIP3    H133565   5.020   1.680  11.165 -0.9277 -1.8002  1.4369
 4050TIP3    H233566   5.098   1.651  11.039  0.3235  1.6717  1.3046
 4051TIP3   OH233567   4.486   4.517  14.693  0.1505 -0.5921 -0.2409
 4051TIP3    H133568   4.431   4.548  14.620  0.0541  1.1380  0.5153
 4051TIP3    H233569   4.526   4.437  14.659 -0.6467 -0.3752 -1.8428
 4052TIP3   OH233570   2.290   2.128  17.114 -0.3040  0.3035 -0.0381
 4052TIP3    H133571   2.290   2.036  17.086 -2.4980 -0.1584  1.2186
 4052TIP3    H233572   2.367   2.135  17.171  1.4421  0.0213 -2.2337
 4053TIP3   OH233573   0.532   6.711  13.607  0.4919 -0.7737  0.1003
 4053TIP3    H133574   0.624   6.702  13.580  0.4004  1.4273 -1.1928
 4053TIP3    H233575   0.485   6.649  13.550  1.0225 -0.8222 -0.3002
 4054TIP3   OH233576   5.092   5.253  11.981  0.0251  0.0030 -0.1882
 4054TIP3    H133577   5.063   5.336  12.021  0.8612 -0.2663  1.0535
 4054TIP3    H233578   5.106   5.275  11.889 -2.5985  0.4972 -0.5479
 4055TIP3   OH233579   6.471   2.926   0.548 -0.2395  0.4636 -0.5140
 4055TIP3    H133580   6.489   3.019   0.540 -2.9070  1.0827 -0.2306
 4055TIP3    H233581   6.551   2.883   0.519  1.4006  2.8217  0.2446
 4056TIP3   OH233582   2.548   6.116  10.768  0.3171 -0.1266  0.3298
 4056TIP3    H133583   2.607   6.041  10.778 -0.3067 -0.5943  0.6400
 4056TIP3    H233584   2.601   6.184  10.727  1.2455 -0.2975  1.2239
 4057TIP3   OH233585   0.079   0.420   2.584  0.1812  0.3379  0.2793
 4057TIP3    H133586   0.133   0.464   2.517 -1.5361  0.9520 -0.7512
 4057TIP3    H233587   0.143   0.380   2.643  1.8320 -1.7046 -2.6311
 4058TIP3   OH233588   0.172   5.661  17.197 -0.8883  0.0290 -0.6037
 4058TIP3    H133589   0.227   5.714  17.139 -3.0248  0.3151 -2.5380
 4058TIP3    H233590   0.146   5.586  17.143 -2.0030 -0.3197  0.3771
 4059TIP3   OH233591   1.932   6.056   5.737 -0.3410  0.8118  0.3694
 4059TIP3    H133592   1.882   6.137   5.727 -0.8122  0.3194 -1.8899
 4059TIP3    H233593   1.869   5.986   5.716 -0.4755 -0.3843  4.0293
 4060TIP3   OH233594   3.446   4.529  15.620  0.4612 -0.1216  0.7122
 4060TIP3    H133595   3.358   4.537  15.584 -0.8618 -4.1527  2.4438
 4060TIP3    H233596   3.494   4.477  15.556  1.2906  1.1247  0.2894
 4061TIP3   OH233597   3.701   4.703  12.422 -0.0025 -0.1853  0.5483
 4061TIP3    H133598   3.738   4.774  12.475 -1.8338  0.3109  1.2321
 4061TIP3    H233599   3.615   4.687  12.460 -0.0784 -2.0331 -0.3017
 4062TIP3   OH233600   5.978   4.313   2.079  0.6461  0.0620 -0.2323
 4062TIP3    H133601   5.977   4.408   2.065 -1.2217  0.0597 -0.3760
 4062TIP3    H233602   5.969   4.276   1.991  1.3315 -0.2567 -0.1727
 4063TIP3   OH233603   2.377   1.885   0.868  0.3867  0.0761 -0.3502
 4063TIP3    H133604   2.315   1.903   0.798 -0.0563  1.4250  0.3585
 4063TIP3    H233605   2.323   1.862   0.944  0.6770  1.6618  0.3897
 4064TIP3   OH233606   3.599   6.138  14.894 -0.4940  0.4006  0.1541
 4064TIP3    H133607   3.579   6.044  14.897  0.7685  0.0591 -0.9879
 4064TIP3    H233608   3.587   6.162  14.802 -0.0215  1.1799  0.2894
 4065TIP3   OH233609   5.810   4.269  13.212  0.2151  0.2019  0.2151
 4065TIP3    H133610   5.735   4.209  13.215  0.3704  0.0363  1.0322
 4065TIP3    H233611   5.803   4.313  13.127 -0.3092 -0.4503 -0.0828
 4066TIP3   OH233612   3.228   5.445   3.806 -0.0529 -0.5928  0.2833
 4066TIP3    H133613   3.280   5.369   3.833  1.3498  0.2757  0.1103
 4066TIP3    H233614   3.177   5.413   3.732  1.6446 -1.0040 -0.7648
 4067TIP3   OH233615   3.626   0.583  13.762 -0.5692 -0.3169  0.0368
 4067TIP3    H133616   3.621   0.489  13.743  1.7421 -0.2744 -1.0424
 4067TIP3    H233617   3.619   0.625  13.677 -1.5709  0.5367  0.5142
 4068TIP3   OH233618   3.690   0.518  12.649  0.0375  0.1770 -0.5997
 4068TIP3    H133619   3.598   0.544  12.659  0.0289 -0.1054  0.1719
 4068TIP3    H233620   3.732   0.592  12.606 -0.1845  1.0851  0.6766
 4069TIP3   OH233621   4.523   1.312  17.143  0.4097  0.5914 -0.3966
 4069TIP3    H133622   4.473   1.383  17.182  0.9983  0.2911  0.9637
 4069TIP3    H233623   4.593   1.295  17.205  1.6582  0.3747 -1.8158
 4070TIP3   OH233624   1.418   2.246   1.399 -0.0747  0.5910 -0.3081
 4070TIP3    H133625   1.323   2.243   1.410 -0.1531 -0.8059 -1.0973
 4070TIP3    H233626   1.431   2.250   1.305  0.6612  2.5240 -0.1662
 4071TIP3   OH233627   3.885   1.456  11.265 -0.4433  0.0153 -0.0107
 4071TIP3    H133628   3.881   1.546  11.296  0.9241  0.3263 -0.6756
 4071TIP3    H233629   3.793   1.429  11.259 -1.0035  2.0402 -1.7242
 4072TIP3   OH233630   0.579   4.065  17.226  0.0474 -0.2012 -0.6293
 4072TIP3    H133631   0.620   3.988  17.186  2.1059  0.4163  0.1459
 4072TIP3    H233632   0.522   4.029  17.294  1.4336 -1.0830  0.1257
 4073TIP3   OH233633   3.223   4.475  13.517  0.1920 -0.0057  0.2590
 4073TIP3    H133634   3.297   4.441  13.466  0.3371  0.1559  0.3617
 4073TIP3    H233635   3.162   4.507  13.450  0.0701 -0.4368  0.1640
 4074TIP3   OH233636   4.768   0.366  14.431 -0.2513 -0.3446 -0.3015
 4074TIP3    H133637   4.846   0.353  14.484 -2.1391 -2.0287  2.3310
 4074TIP3    H233638   4.730   0.278  14.422 -1.7903  0.3865 -1.5552
 4075TIP3   OH233639   1.966   0.863   4.247  0.4517 -0.0107  0.3842
 4075TIP3    H133640   2.007   0.776   4.242  1.7224  0.6504 -2.1763
 4075TIP3    H233641   2.036   0.924   4.223 -1.6042  1.2872 -2.8829
 4076TIP3   OH233642   6.233   0.033  10.774 -0.3263  0.3714  0.4209
 4076TIP3    H133643   6.266  -0.026  10.843  4.2093  1.8558 -0.1725
 4076TIP3    H233644   6.166  -0.019  10.729  1.0457 -3.0836  1.9787
 4077TIP3   OH233645   1.818   3.836   0.857  1.0584  0.4960 -0.5700
 4077TIP3    H133646   1.764   3.773   0.905 -0.1899  1.2976 -0.8683
 4077TIP3    H233647   1.854   3.785   0.784 -1.6214  0.5313 -2.0426
 4078TIP3   OH233648   0.377   0.939   4.017 -0.4425 -0.2543 -0.6088
 4078TIP3    H133649   0.324   0.860   4.006 -0.4492 -0.3485  0.0544
 4078TIP3    H233650   0.338   0.984   4.092 -0.2757  0.2466 -0.8190
 4079TIP3   OH233651   6.443   5.164  15.110  0.5851 -0.4433 -0.1549
 4079TIP3    H133652   6.372   5.100  15.110 -0.8697  1.1101 -0.0826
 4079TIP3    H233653   6.437   5.206  15.196  1.3039  0.0342 -0.3297
 4080TIP3   OH233654   5.068   4.475   5.427 -0.1879 -0.4036  0.4518
 4080TIP3    H133655   5.019   4.443   5.351  1.5181  1.5880 -1.6259
 4080TIP3    H233656   5.006   4.529   5.475 -0.9218 -0.6019 -0.2628
 4081TIP3   OH233657   6.573   0.739   6.212  0.2818 -0.3475 -0.5036
 4081TIP3    H133658   6.606   0.749   6.301 -0.2693  2.7938 -0.5340
 4081TIP3    H233659   6.650   0.716   6.160  0.8999 -0.7001  0.5253
 4082TIP3   OH233660   4.526   0.356   2.430  0.0814 -0.1439  0.1354
 4082TIP3    H133661   4.471   0.394   2.498 -0.4028 -2.2208  0.9946
 4082TIP3    H233662   4.607   0.333   2.476  0.4773  0.0952 -0.4303
 4083TIP3   OH233663   0.266   6.014   5.267  0.0136  0.1409  0.2821
 4083TIP3    H133664   0.215   6.003   5.187 -0.6785  0.7437  0.6262
 4083TIP3    H233665   0.221   5.959   5.332  0.6928 -0.5110  0.2132
 4084TIP3   OH233666   1.728   6.683  17.086  0.0011  0.2427 -0.2381
 4084TIP3    H133667   1.639   6.652  17.071 -1.3060  2.6353  1.9118
 4084TIP3    H233668   1.767   6.618  17.144 -0.5530 -0.4347 -0.6066
 4085TIP3   OH233669   5.680   3.944  14.433  0.2942 -0.3525 -0.3550
 4085TIP3    H133670   5.710   3.889  14.505 -0.3961 -0.2995 -0.0180
 4085TIP3    H233671   5.706   3.897  14.354 -1.7900 -2.0380 -0.0966
 4086TIP3   OH233672   2.879   5.873   0.893 -0.1291 -0.1147 -0.1485
 4086TIP3    H133673   2.896   5.966   0.882  2.8239 -0.5952 -0.4552
 4086TIP3    H233674   2.879   5.860   0.988 -4.4474  0.6550  0.1943
 4087TIP3   OH233675   6.134   6.438   0.720  0.4998 -0.0160  0.0701
 4087TIP3    H133676   6.102   6.349   0.739 -2.6531  1.0938  0.4303
 4087TIP3    H233677   6.062   6.481   0.676  2.4807  2.0145 -1.4143
 4088TIP3   OH233678   1.793   5.744  14.418  0.0942  0.6042 -0.3474
 4088TIP3    H133679   1.848   5.667  14.407  1.7016  1.4056  1.4198
 4088TIP3    H233680   1.829   5.808  14.355 -0.5273  0.3019 -1.0268
 4089TIP3   OH233681   0.662   3.523   5.347 -0.3355 -0.3268  0.2649
 4089TIP3    H133682   0.570   3.547   5.360 -0.3101  0.4033 -0.7560
 4089TIP3    H233683   0.708   3.607   5.345  0.4753 -0.7122  1.5137
 4090TIP3   OH233684   0.514   3.553   2.108 -0.5946  0.0383  0.0589
 4090TIP3    H133685   0.475   3.465   2.112 -0.3293 -0.0676  0.3125
 4090TIP3    H233686   0.605   3.540   2.134  0.2446 -0.0776 -2.6890
 4091TIP3   OH233687   2.806   3.891  13.616  0.5137 -0.1363 -0.4380
 4091TIP3    H133688   2.721   3.904  13.575 -0.7799  1.4404  2.4514
 4091TIP3    H233689   2.833   3.979  13.643  1.7664 -0.9292  1.0423
 4092TIP3   OH233690   6.700   4.008  13.166  0.3679  0.5172 -0.0055
 4092TIP3    H133691   6.618   4.040  13.129 -0.0514 -0.4274  0.0676
 4092TIP3    H233692   6.729   4.078  13.225 -0.5984  0.6925  0.2822
 4093TIP3   OH233693   5.447   3.973   3.898 -0.1455  0.0842  0.5088
 4093TIP3    H133694   5.486   3.959   3.812  0.5879  1.4322  0.5971
 4093TIP3    H233695   5.499   3.919   3.957  0.2192  0.2100  0.3055
 4094TIP3   OH233696   1.930   4.425   5.275 -0.3127  0.2389 -0.1041
 4094TIP3    H133697   2.020   4.435   5.244  0.2105 -0.7720  0.9714
 4094TIP3    H233698   1.939   4.375   5.357 -1.8156  0.5319  0.2679
 4095TIP3   OH233699   3.528   0.313  12.273  0.5210  0.7212 -0.4891
 4095TIP3    H133700   3.447   0.341  12.316  1.0748  0.1862  0.9650
 4095TIP3    H233701   3.505   0.232  12.228  0.6545 -0.5085  1.5402
 4096TIP3   OH233702   2.760   6.522  15.126 -0.1695 -0.8083  0.5505
 4096TIP3    H133703   2.703   6.512  15.202  0.0046 -1.1308  0.6409
 4096TIP3    H233704   2.703   6.508  15.051 -1.8687  5.3492  0.1623
 4097TIP3   OH233705   3.002   6.390   0.125 -0.4149 -0.5155 -0.2375
 4097TIP3    H133706   2.996   6.306   0.170 -1.4657  0.3099  1.2335
 4097TIP3    H233707   2.938   6.383   0.054 -0.9033 -0.7691  0.2176
 4098TIP3   OH233708   4.249   3.311  16.055 -0.2240 -0.1209 -0.2867
 4098TIP3    H133709   4.197   3.370  16.001 -0.2788  0.3378  0.2589
 4098TIP3    H233710   4.243   3.348  16.143  0.4344 -0.4670 -0.0921
 4099TIP3   OH233711   3.254   4.435   5.857 -0.3001  0.5081  0.1214
 4099TIP3    H133712   3.246   4.397   5.944  0.4305 -0.5621 -0.2553
 4099TIP3    H233713   3.347   4.453   5.847 -0.6266  2.7239  0.3784
 4100TIP3   OH233714   0.988   1.209   1.601  0.6435 -0.1109  0.3491
 4100TIP3    H133715   0.922   1.212   1.670 -0.9402  0.2415 -1.1152
 4100TIP3    H233716   1.017   1.300   1.592  0.0094  0.0420 -0.2083
 4101TIP3   OH233717   5.915   5.495   3.383 -0.5652  0.1272  0.1079
 4101TIP3    H133718   5.910   5.585   3.413 -3.2813  0.2984 -0.5403
 4101TIP3    H233719   5.884   5.443   3.458  1.2219 -0.3465  0.5686
 4102TIP3   OH233720   0.413   2.417   3.764  0.5891 -0.4251 -0.4501
 4102TIP3    H133721   0.494   2.404   3.814  0.1937  1.3582  0.7644
 4102TIP3    H233722   0.438   2.476   3.693  0.2468  0.7814  0.3927
 4103TIP3   OH233723   1.975   0.108   2.104 -0.0386  0.5312  0.7571
 4103TIP3    H133724   1.967   0.169   2.031  0.3698 -2.0331 -1.5863
 4103TIP3    H233725   1.892   0.116   2.151 -0.7732  1.4857 -0.6242
 4104TIP3   OH233726   2.541   5.390  15.603  0.1424  0.2098  0.6300
 4104TIP3    H133727   2.633   5.371  15.620  0.0577 -1.3851 -0.4383
 4104TIP3    H233728   2.542   5.474  15.557  1.2971 -0.8329 -1.3680
 4105TIP3   OH233729   4.079   2.844  11.146  0.1281  0.3900  0.0887
 4105TIP3    H133730   4.091   2.854  11.051 -0.9597  0.2402 -0.0838
 4105TIP3    H233731   4.143   2.903  11.185  1.0465 -0.0364 -0.7217
 4106TIP3   OH233732   3.867   2.245   5.026  0.2975 -0.2271  0.2190
 4106TIP3    H133733   3.871   2.293   4.943  1.4540 -0.2579  0.2410
 4106TIP3    H233734   3.822   2.164   5.004 -0.8329  0.4384 -0.0220
 4107TIP3   OH233735   4.046   4.564   2.904 -0.5373  0.3143 -0.1983
 4107TIP3    H133736   3.990   4.487   2.916  0.5793 -0.5508 -0.3157
 4107TIP3    H233737   3.996   4.621   2.846 -1.0374 -0.7103 -0.8114
 4108TIP3   OH233738   2.753   5.649  15.114 -0.3961  0.0519  0.0521
 4108TIP3    H133739   2.688   5.582  15.090 -0.6897 -0.2982  1.7258
 4108TIP3    H233740   2.809   5.606  15.178 -0.0694  1.1537  0.5252
 4109TIP3   OH233741   2.307   4.300   0.355  0.2612  0.2272  0.0136
 4109TIP3    H133742   2.309   4.300   0.259 -1.1730 -3.1491 -0.1737
 4109TIP3    H233743   2.218   4.271   0.377  1.1867 -1.2081  2.2459
 4110TIP3   OH233744   1.686   5.387  12.181  0.5786  0.2146 -0.4863
 4110TIP3    H133745   1.674   5.457  12.246 -1.6156  0.4445 -1.0396
 4110TIP3    H233746   1.689   5.306  12.232  2.2176  0.6050  0.0919
 4111TIP3   OH233747   3.778   1.855   1.670 -0.3742  0.2814  0.1645
 4111TIP3    H133748   3.709   1.793   1.649 -0.4933  0.7201 -0.8136
 4111TIP3    H233749   3.778   1.917   1.596 -0.3696  1.5356  1.1813
 4112TIP3   OH233750   6.013   2.589   3.320 -0.2997 -0.0740 -0.5372
 4112TIP3    H133751   6.066   2.668   3.333 -0.1406  0.1661 -2.3607
 4112TIP3    H233752   5.958   2.584   3.398  0.4103  1.2581  0.0894
 4113TIP3   OH233753   2.303   5.707  15.382 -0.0892  0.2673  0.4239
 4113TIP3    H133754   2.362   5.632  15.384  0.6247  0.7622 -0.7688
 4113TIP3    H233755   2.351   5.777  15.426 -0.7914  0.0162  1.6202
 4114TIP3   OH233756   4.393   2.402  16.912 -0.2486 -0.0825 -0.7387
 4114TIP3    H133757   4.396   2.448  16.996 -3.8595  0.6602 -0.8512
 4114TIP3    H233758   4.372   2.312  16.936 -1.2753  0.1287 -0.7885
 4115TIP3   OH233759   0.662   5.255  13.703  0.3651 -0.0059 -0.1811
 4115TIP3    H133760   0.621   5.192  13.763  1.6856 -0.0793  0.6721
 4115TIP3    H233761   0.755   5.235  13.706  0.5112  0.1453 -2.1123
 4116TIP3   OH233762   2.844   4.946   5.825  0.3314 -0.2062  0.0021
 4116TIP3    H133763   2.880   5.013   5.767 -2.1709  2.0534  0.8458
 4116TIP3    H233764   2.837   4.868   5.770  1.3234  0.8253 -1.6811
 4117TIP3   OH233765   0.089   3.226   2.901 -0.4463 -0.3275  0.8226
 4117TIP3    H133766   0.136   3.272   2.832 -0.0745  1.1631  2.0109
 4117TIP3    H233767   0.151   3.161   2.934 -0.4975 -0.7911  0.0338
 4118TIP3   OH233768   6.112   1.998  12.150 -0.3838  0.7319  0.6447
 4118TIP3    H133769   6.023   1.974  12.123  0.0434  0.4290 -0.5582
 4118TIP3    H233770   6.121   2.089  12.124 -0.2713  0.7037  0.5862
 4119TIP3   OH233771   0.934   3.630  17.200  0.0755 -0.5766  0.5277
 4119TIP3    H133772   0.855   3.631  17.253 -2.5973  1.0641 -3.1012
 4119TIP3    H233773   0.950   3.722  17.178  1.5102 -1.1002 -0.8477
 4120TIP3   OH233774   5.231   3.997   6.675 -0.4203 -0.2801  0.2538
 4120TIP3    H133775   5.322   3.981   6.699 -1.1710 -2.1377  2.2012
 4120TIP3    H233776   5.213   3.933   6.607 -0.3035 -0.0154 -0.0245
 4121TIP3   OH233777   2.085   0.041  13.991  0.3751 -0.1564 -0.1181
 4121TIP3    H133778   2.123   0.129  13.978  0.7192 -0.3791 -0.6753
 4121TIP3    H233779   1.995   0.049  13.958  0.6410 -0.2035 -0.8862
 4122TIP3   OH233780   5.307   5.043   5.020  0.2021  0.1957  0.2603
 4122TIP3    H133781   5.228   5.096   5.014  1.5255  2.1143 -1.0942
 4122TIP3    H233782   5.292   4.988   5.097 -2.5244  0.2962 -0.0787
 4123TIP3   OH233783   2.586   3.907  11.980  0.0852  0.0994  0.4372
 4123TIP3    H133784   2.506   3.860  11.956  0.7442 -0.6313 -0.4239
 4123TIP3    H233785   2.643   3.898  11.904  0.4401  1.9026  0.4352
 4124TIP3   OH233786   0.626   5.613   0.446 -0.3942  0.0003  0.2599
 4124TIP3    H133787   0.611   5.559   0.369  0.4302 -0.6245  0.5254
 4124TIP3    H233788   0.648   5.551   0.516  1.5885  0.6932  0.3256
 4125TIP3   OH233789   5.321   6.095   0.452 -0.6289 -0.3173  0.0647
 4125TIP3    H133790   5.254   6.032   0.425  1.2483 -1.3563 -2.5470
 4125TIP3    H233791   5.272   6.163   0.498 -3.0988 -2.2731  0.5860
 4126TIP3   OH233792   0.991   2.021   5.669 -0.0390 -0.3957 -0.3727
 4126TIP3    H133793   1.078   1.981   5.665  0.2064  0.2038 -1.1086
 4126TIP3    H233794   0.999   2.088   5.737 -0.2714 -1.1312  0.4029
 4127TIP3   OH233795   2.759   5.399  14.497 -0.4402  0.3918  0.9707
 4127TIP3    H133796   2.772   5.328  14.560  0.8565  0.6280  1.0007
 4127TIP3    H233797   2.824   5.465  14.521 -1.0617  1.2294  0.4216
 4128TIP3   OH233798   1.455   1.578   4.998 -0.3979  0.4573  0.1428
 4128TIP3    H133799   1.400   1.593   5.075 -0.7180  1.8455 -0.3098
 4128TIP3    H233800   1.420   1.638   4.932  1.0319  0.6526 -0.4836
 4129TIP3   OH233801   0.993   0.425   4.318  0.2747  0.0011  0.1371
 4129TIP3    H133802   1.053   0.484   4.363 -0.5106  0.3014  0.8137
 4129TIP3    H233803   0.963   0.365   4.386 -0.8341  0.3789 -0.0081
 4130TIP3   OH233804   0.762   6.622  15.424  0.3202 -0.5061  0.0909
 4130TIP3    H133805   0.696   6.691  15.430 -0.3439 -1.0137 -1.1123
 4130TIP3    H233806   0.829   6.658  15.366  0.4473 -0.5114  0.2327
 4131TIP3   OH233807   3.558   6.445   0.787 -0.5025 -0.1360  0.0977
 4131TIP3    H133808   3.603   6.473   0.867 -1.6887  0.0715  0.7147
 4131TIP3    H233809   3.575   6.515   0.725  1.1752 -0.7085 -0.1581
 4132TIP3   OH233810   4.198   1.999   4.471  0.4087  0.7795  0.2062
 4132TIP3    H133811   4.226   2.085   4.442  0.3367  1.5143  2.1414
 4132TIP3    H233812   4.109   2.013   4.504  0.2258 -0.1378  0.1398
 4133TIP3   OH233813   5.478   0.903   5.745 -0.1536  0.2955 -0.7412
 4133TIP3    H133814   5.552   0.928   5.800 -1.1109  2.4848 -0.3395
 4133TIP3    H233815   5.435   0.832   5.794  0.6928  0.1907 -0.1344
 4134TIP3   OH233816   0.646   1.070   4.513 -0.0998 -0.9754  0.1429
 4134TIP3    H133817   0.735   1.090   4.483 -0.1264  1.6873  1.5573
 4134TIP3    H233818   0.592   1.075   4.434  0.6248  0.1391 -0.2944
 4135TIP3   OH233819   6.742   1.213  12.781  0.3803  0.2288 -0.0048
 4135TIP3    H133820   6.795   1.155  12.727  1.0444 -1.1602  2.0044
 4135TIP3    H233821   6.755   1.300  12.743  0.5218 -0.7076 -2.2246
 4136TIP3   OH233822   5.274   3.697  14.271  0.3332  0.1611  0.7371
 4136TIP3    H133823   5.251   3.643  14.195  1.0814  0.7282  0.1000
 4136TIP3    H233824   5.359   3.663  14.300 -1.0253 -1.7351  2.9075
 4137TIP3   OH233825   5.997   2.559   5.252 -0.2224  0.0850  0.3543
 4137TIP3    H133826   5.935   2.524   5.316 -2.6098  0.7591 -1.4260
 4137TIP3    H233827   6.004   2.652   5.273  0.3910 -0.0353  0.6931
 4138TIP3   OH233828   5.349   3.981   2.157  0.0161 -0.2089  0.2656
 4138TIP3    H133829   5.373   3.909   2.216 -0.6133 -0.5042  0.1702
 4138TIP3    H233830   5.425   4.039   2.158 -1.4250  2.0600  4.7068
 4139TIP3   OH233831   2.702   2.380  15.686  0.4182 -0.6203 -0.0315
 4139TIP3    H133832   2.725   2.291  15.660  1.7500 -0.7976  1.5968
 4139TIP3    H233833   2.718   2.383  15.780  1.6191  1.7175 -0.2315
 4140TIP3   OH233834   2.781   5.154   3.784 -0.3543 -0.0255  0.3192
 4140TIP3    H133835   2.867   5.123   3.810 -1.0538 -0.4311  2.4105
 4140TIP3    H233836   2.743   5.082   3.733 -0.1610 -0.6464  1.0352
 4141TIP3   OH233837   1.128   3.809   4.123  0.0484 -0.1917 -0.3499
 4141TIP3    H133838   1.154   3.738   4.183  3.3789  2.1933  1.3598
 4141TIP3    H233839   1.079   3.869   4.179  0.3273  0.5055 -0.8543
 4142TIP3   OH233840   0.560   4.644  13.785 -0.5967 -0.0480 -0.5288
 4142TIP3    H133841   0.512   4.672  13.863  2.3403  0.4280  1.2705
 4142TIP3    H233842   0.556   4.549  13.788 -1.3494 -0.0217 -0.3796
 4143TIP3   OH233843   6.300   5.977   0.785  0.6736  0.1028  0.2485
 4143TIP3    H133844   6.222   5.940   0.828  0.3204  1.3852  0.7573
 4143TIP3    H233845   6.367   5.978   0.854  0.6223  0.5762  0.2940
 4144TIP3   OH233846   2.077   6.140  13.991  0.8722 -0.1330  0.0910
 4144TIP3    H133847   2.125   6.071  13.945  2.1042 -0.2928  1.5229
 4144TIP3    H233848   1.988   6.135  13.955  1.0093 -2.2285 -0.1223
 4145TIP3   OH233849   0.873   0.348   5.073 -0.7894 -0.6343  0.0448
 4145TIP3    H133850   0.867   0.409   5.147 -2.6846 -0.4451 -0.2143
 4145TIP3    H233851   0.866   0.405   4.996  0.1164 -0.9406 -0.2775
 4146TIP3   OH233852   4.022   3.082   2.825 -0.3457 -0.0674 -0.7322
 4146TIP3    H133853   4.069   2.999   2.824 -0.9211 -0.4040 -1.6389
 4146TIP3    H233854   3.980   3.087   2.739 -1.0525  0.7375 -0.3638
 4147TIP3   OH233855   1.895   1.898  17.139 -0.3589 -1.1085 -0.7980
 4147TIP3    H133856   1.937   1.984  17.135  0.7681 -1.5833  0.2240
 4147TIP3    H233857   1.930   1.850  17.063  1.5478 -1.7273  0.4101
 4148TIP3   OH233858   5.074   5.280  14.340  0.0997  0.5126  0.0044
 4148TIP3    H133859   5.153   5.238  14.306  0.5698  0.9810  0.5045
 4148TIP3    H233860   5.030   5.314  14.262  1.5091  2.1771 -0.1226
 4149TIP3   OH233861   2.129   0.305  15.786  0.1414 -0.1307  0.5373
 4149TIP3    H133862   2.183   0.333  15.712 -1.7602  1.8416 -0.2113
 4149TIP3    H233863   2.184   0.316  15.863  1.1895  0.6545 -0.3063
 4150TIP3   OH233864   3.533   5.726   1.503  0.0541  1.3404 -0.4561
 4150TIP3    H133865   3.617   5.735   1.458  1.2975 -1.5546  1.0032
 4150TIP3    H233866   3.543   5.777   1.584 -0.5407  2.9429 -1.3586
 4151TIP3   OH233867   0.300   1.183  13.488  0.0809  0.4995  0.5291
 4151TIP3    H133868   0.308   1.265  13.439  0.0062  0.4247  0.3921
 4151TIP3    H233869   0.225   1.139  13.449  1.5982 -0.7894 -1.1025
 4152TIP3   OH233870   4.546   5.893  13.310  0.3392  0.9220  0.7971
 4152TIP3    H133871   4.594   5.933  13.237 -1.1999 -1.3095 -1.5999
 4152TIP3    H233872   4.611   5.839  13.355  0.5395 -0.8496 -1.4560
 4153TIP3   OH233873   4.260   3.827   3.273 -0.3824 -0.2870 -0.9887
 4153TIP3    H133874   4.175   3.786   3.288 -0.1788 -0.2263  0.4263
 4153TIP3    H233875   4.291   3.852   3.360  0.8215  0.2306 -1.5377
 4154TIP3   OH233876   4.123   6.317  17.284  0.2291  0.4947  0.5904
 4154TIP3    H133877   4.137   6.283  17.196  1.2273  0.5454  0.7179
 4154TIP3    H233878   4.039   6.280  17.311 -1.0519  1.9982 -1.0971
 4155TIP3   OH233879   1.008   2.642   3.425 -0.0778  0.4779  0.0854
 4155TIP3    H133880   0.927   2.599   3.396  1.6905 -2.3926 -1.0822
 4155TIP3    H233881   1.016   2.619   3.517 -1.4383  2.3078  0.6936
 4156TIP3   OH233882   4.827   2.324  14.874 -0.1506  0.3326 -0.2463
 4156TIP3    H133883   4.794   2.399  14.824 -0.7884 -0.0881 -0.4579
 4156TIP3    H233884   4.921   2.339  14.879 -0.2356  1.0029 -0.5390
 4157TIP3   OH233885   5.635   5.415   6.248 -0.0170 -0.1048  0.2934
 4157TIP3    H133886   5.549   5.371   6.245 -0.6467  1.0916  0.2981
 4157TIP3    H233887   5.617   5.504   6.218  1.3799 -0.0517 -0.4254
 4158TIP3   OH233888   4.631   4.052  12.324  0.1162  0.0255  0.3475
 4158TIP3    H133889   4.537   4.067  12.313  0.0931 -1.0053 -1.1460
 4158TIP3    H233890   4.656   4.108  12.397 -1.6839  0.2160  0.8643
 4159TIP3   OH233891   1.704   1.648  16.852  0.1782  0.2045  0.1672
 4159TIP3    H133892   1.778   1.595  16.882 -0.3717 -0.5885  0.1698
 4159TIP3    H233893   1.717   1.733  16.892  2.3563  0.8438 -1.6620
 4160TIP3   OH233894   6.644   1.582  16.128  0.1235  0.3571  0.3123
 4160TIP3    H133895   6.583   1.639  16.174 -0.7335 -0.0696 -0.2780
 4160TIP3    H233896   6.715   1.640  16.102  0.8345  0.5496  2.4558
 4161TIP3   OH233897   3.814   6.638   3.749  0.1694 -0.0721 -0.1511
 4161TIP3    H133898   3.900   6.607   3.778  0.1769  0.7272  0.7373
 4161TIP3    H233899   3.830   6.674   3.662  0.5239 -0.8561 -0.4207
 4162TIP3   OH233900   5.468   3.958   2.442  0.4623  0.5238  0.1802
 4162TIP3    H133901   5.546   4.011   2.456  1.0331 -0.3231  0.3033
 4162TIP3    H233902   5.473   3.889   2.509  0.6064 -0.6491 -0.9997
 4163TIP3   OH233903   5.308   4.510   2.932 -0.0979  0.9030 -1.3338
 4163TIP3    H133904   5.316   4.503   2.836 -0.0429  1.9720 -1.4200
 4163TIP3    H233905   5.315   4.604   2.949 -0.0985  0.7141 -0.2719
 4164TIP3   OH233906   6.241   0.380   6.023 -0.3786  0.2755 -0.4189
 4164TIP3    H133907   6.155   0.347   6.048  0.4926 -0.5641  1.7338
 4164TIP3    H233908   6.263   0.332   5.942 -0.1287 -2.9436  1.3665
 4165TIP3   OH233909   0.495   1.734  16.384 -0.4354 -0.0267 -0.0335
 4165TIP3    H133910   0.471   1.805  16.443 -1.9689  1.1915 -1.9951
 4165TIP3    H233911   0.547   1.776  16.315  1.2510 -1.3868  0.3493
 4166TIP3   OH233912   6.152   2.341  11.069  0.5756  0.6210 -0.5577
 4166TIP3    H133913   6.115   2.264  11.024  1.0184  0.6790 -1.0414
 4166TIP3    H233914   6.123   2.332  11.159  0.3125  0.0747 -0.6882
 4167TIP3   OH233915   0.760   4.830   3.097 -0.1287 -0.0033 -0.1094
 4167TIP3    H133916   0.818   4.897   3.060 -0.4004  0.4004  0.1858
 4167TIP3    H233917   0.806   4.747   3.081  0.7952  0.3519  0.5871
 4168TIP3   OH233918   3.926   5.156   3.737  0.4273  0.6956 -0.1741
 4168TIP3    H133919   3.888   5.242   3.754 -1.3001 -0.2375  0.9973
 4168TIP3    H233920   3.991   5.145   3.807 -1.2984 -0.0170  1.3999
 4169TIP3   OH233921   1.397   1.129  12.235 -0.5271 -0.0585 -0.2214
 4169TIP3    H133922   1.490   1.113  12.250 -0.6347 -1.3217 -0.7873
 4169TIP3    H233923   1.367   1.174  12.314  0.5942  0.5005 -0.1040
 4170TIP3   OH233924   4.311   2.940  17.135 -0.6402  0.0741  0.1986
 4170TIP3    H133925   4.223   2.963  17.105 -0.2507 -1.3067 -2.3669
 4170TIP3    H233926   4.369   2.975  17.067  0.3778 -2.8813 -0.5914
 4171TIP3   OH233927   5.828   4.350   6.657  0.1772  0.6005 -0.5802
 4171TIP3    H133928   5.842   4.416   6.589  0.9501 -0.0057 -1.0271
 4171TIP3    H233929   5.733   4.342   6.664  0.0815  0.3410 -1.9170
 4172TIP3   OH233930   6.106   1.195  14.708  0.2689 -0.4280 -0.1992
 4172TIP3    H133931   6.180   1.173  14.766  1.9212 -0.5041 -2.2040
 4172TIP3    H233932   6.073   1.278  14.741  3.1932  1.1532 -0.8976
 4173TIP3   OH233933   6.135   4.582   3.882 -0.0264  0.4608  0.1412
 4173TIP3    H133934   6.202   4.594   3.949 -2.0053  1.8685  2.0286
 4173TIP3    H233935   6.103   4.670   3.863 -1.9445 -0.2132  0.0051
 4174TIP3   OH233936   3.767   6.705   3.078 -0.0521  0.3691  0.2865
 4174TIP3    H133937   3.850   6.738   3.044  0.2900  0.8093  1.4794
 4174TIP3    H233938   3.733   6.649   3.009  1.3438  0.0087 -0.1367
 4175TIP3   OH233939   5.567   1.132   2.365  0.3142 -0.2724 -0.0680
 4175TIP3    H133940   5.545   1.208   2.418 -0.1383 -0.4265 -0.0243
 4175TIP3    H233941   5.662   1.132   2.361  0.3147  0.3510 -0.1524
 4176TIP3   OH233942   2.804   6.700  16.188  0.0476 -0.2671  0.3743
 4176TIP3    H133943   2.865   6.636  16.226  0.3092 -2.2389 -2.9672
 4176TIP3    H233944   2.718   6.661  16.202  0.0939 -0.6643 -0.3996
 4177TIP3   OH233945   4.747   4.988   6.008 -0.3985  0.4751 -0.1089
 4177TIP3    H133946   4.777   5.078   6.021  0.7981  0.0307  0.4053
 4177TIP3    H233947   4.693   4.969   6.084 -0.1971  0.5863  0.0644
 4178TIP3   OH233948   2.594   2.573  14.602 -0.1819 -0.0883  0.0920
 4178TIP3    H133949   2.605   2.657  14.646 -0.5027 -0.9668  1.9246
 4178TIP3    H233950   2.562   2.514  14.670  0.5622 -1.8407 -1.0121
 4179TIP3   OH233951   0.914   2.082   4.125 -0.2596  0.0954  0.2485
 4179TIP3    H133952   0.903   2.155   4.187 -0.2414 -0.0293  0.3997
 4179TIP3    H233953   0.991   2.107   4.073 -1.4445  1.1534 -1.0749
 4180TIP3   OH233954   4.767   3.858  12.675 -0.4074  0.5156 -0.5428
 4180TIP3    H133955   4.675   3.879  12.694 -0.1313  1.0303  0.2586
 4180TIP3    H233956   4.762   3.792  12.605 -1.4475 -0.8342  0.7256
 4181TIP3   OH233957   3.117   3.362  17.113 -0.0883  0.9314 -0.3455
 4181TIP3    H133958   3.068   3.288  17.077  1.7639 -0.2956 -0.4910
 4181TIP3    H233959   3.115   3.349  17.208 -0.1637  0.9639 -0.3424
 4182TIP3   OH233960   4.686   5.499   0.746  0.0780 -0.3958 -0.6745
 4182TIP3    H133961   4.747   5.469   0.679  0.1335  1.5635 -1.5992
 4182TIP3    H233962   4.618   5.545   0.696 -1.2230 -1.0167  0.4635
 4183TIP3   OH233963   2.619   3.143  13.443  0.8138 -0.5089 -0.1522
 4183TIP3    H133964   2.589   3.060  13.406  1.6715 -0.6290 -0.5818
 4183TIP3    H233965   2.710   3.128  13.465  0.0556 -0.9083  3.3283
 4184TIP3   OH233966   5.805   4.928   0.722  0.1894 -0.4731  0.6757
 4184TIP3    H133967   5.889   4.967   0.745  1.9218 -4.3767  1.8630
 4184TIP3    H233968   5.810   4.911   0.628  0.3621  0.0483  0.5897
 4185TIP3   OH233969   0.745   0.160  12.906  0.2103  0.1659  0.3858
 4185TIP3    H133970   0.800   0.145  12.983  1.8508 -2.7931 -1.1938
 4185TIP3    H233971   0.805   0.156  12.832 -1.7255 -0.3213 -1.2598
 4186TIP3   OH233972   1.121   0.323  11.147 -0.3312 -0.0328  0.1656
 4186TIP3    H133973   1.192   0.301  11.206 -0.7374 -0.6477  0.4318
 4186TIP3    H233974   1.141   0.412  11.117 -0.3133  0.4296  1.5089
 4187TIP3   OH233975   4.474   4.401   2.786 -0.3513  0.0615 -0.5405
 4187TIP3    H133976   4.385   4.384   2.755 -0.9733 -1.0196  1.6413
 4187TIP3    H233977   4.501   4.320   2.828  0.8404  1.0306  0.6730
 4188TIP3   OH233978   0.355   5.123  11.569  0.0896 -0.6704 -0.2084
 4188TIP3    H133979   0.289   5.157  11.629  0.7216 -1.2932  0.8830
 4188TIP3    H233980   0.329   5.032  11.554  1.7060 -1.5485  1.8130
 4189TIP3   OH233981   3.231   3.106  13.148 -0.2729  0.0074 -1.0494
 4189TIP3    H133982   3.296   3.041  13.122  1.6541  1.6342 -0.4468
 4189TIP3    H233983   3.196   3.074  13.231  1.6749  0.3802 -0.0392
 4190TIP3   OH233984   2.216   0.671  15.831 -0.0027  0.2118  0.2375
 4190TIP3    H133985   2.284   0.627  15.779 -1.0472 -0.0372 -0.9750
 4190TIP3    H233986   2.256   0.755  15.856  1.1234 -0.3774  0.4671
 4191TIP3   OH233987   4.267   3.590   4.677 -0.2049 -0.1948 -0.3075
 4191TIP3    H133988   4.195   3.652   4.669 -0.4214 -0.2373  1.0127
 4191TIP3    H233989   4.346   3.643   4.666 -0.4062  0.1345 -0.1726
 4192TIP3   OH233990   5.284   4.628   5.418 -0.3010  0.2470 -0.2979
 4192TIP3    H133991   5.307   4.619   5.511  1.2857 -2.6989 -0.8657
 4192TIP3    H233992   5.223   4.556   5.402  1.0007 -0.5347 -1.9544
 4193TIP3   OH233993   1.238   5.098   2.424  0.4538 -0.1149  0.5120
 4193TIP3    H133994   1.205   5.180   2.388  1.1980  1.0515  2.3423
 4193TIP3    H233995   1.306   5.070   2.363  0.1321  0.5784 -0.1747
 4194TIP3   OH233996   0.821   0.922  11.724 -0.3842 -0.7391 -0.6134
 4194TIP3    H133997   0.772   1.004  11.732  0.7064 -0.1946  0.7302
 4194TIP3    H233998   0.759   0.861  11.683 -1.7486  0.2844 -0.1244
 4195TIP3   OH233999   5.329   5.348   1.157  0.3169 -0.1441 -0.2357
 4195TIP3    H134000   5.372   5.263   1.167  2.2804  1.0490  2.7803
 4195TIP3    H234001   5.241   5.327   1.126  0.0141 -3.4649  2.3485
 4196TIP3   OH234002   4.739   3.402  13.233  0.0823 -0.9288  0.1066
 4196TIP3    H134003   4.777   3.476  13.280 -0.4745 -1.8157  2.0519
 4196TIP3    H234004   4.693   3.442  13.160  0.2452  0.6049  0.7985
 4197TIP3   OH234005   3.978   4.358  12.684 -0.1060  0.1694 -0.1291
 4197TIP3    H134006   4.059   4.328  12.725 -0.5561 -1.1315 -0.1504
 4197TIP3    H234007   3.969   4.305  12.605 -1.0893  0.1336 -0.0107
 4198TIP3   OH234008   3.155   3.633   1.210  0.3498 -0.4145  0.1060
 4198TIP3    H134009   3.138   3.659   1.119 -2.5912  0.9039  0.8918
 4198TIP3    H234010   3.170   3.539   1.205  2.1156 -0.1017 -1.8953
 4199TIP3   OH234011   0.515   4.604  11.198 -0.1362 -0.5765 -0.1153
 4199TIP3    H134012   0.441   4.549  11.225 -0.0010 -2.1707 -2.6262
 4199TIP3    H234013   0.474   4.678  11.152 -0.2455  0.5484  1.7056
 4200TIP3   OH234014   4.276   2.952  13.731  0.1588 -0.1105 -0.0766
 4200TIP3    H134015   4.250   2.862  13.712  1.5981 -0.2123 -1.8814
 4200TIP3    H234016   4.261   2.998  13.649 -1.0813  1.4687  0.9792
 4201TIP3   OH234017   1.691   4.002  11.920 -0.0715  0.2999 -0.1027
 4201TIP3    H134018   1.781   4.021  11.896  1.0038 -0.6503  2.8447
 4201TIP3    H234019   1.676   4.051  12.001 -1.2307 -1.7704  1.0065
 4202TIP3   OH234020   2.734   5.775  16.252 -0.1849 -0.2711  0.4980
 4202TIP3    H134021   2.795   5.701  16.239  1.8284  0.8894  2.5554
 4202TIP3    H234022   2.772   5.846  16.201  0.1076  0.4071  1.6344
 4203TIP3   OH234023   3.573   5.039  16.953 -0.3286 -0.5792 -0.1724
 4203TIP3    H134024   3.492   5.016  16.908  0.2684 -1.0955 -1.0135
 4203TIP3    H234025   3.637   4.975  16.921  0.4174 -0.1667  0.4606
 4204TIP3   OH234026   4.348   1.788  14.146  0.0893  0.3991 -0.0020
 4204TIP3    H134027   4.361   1.844  14.222  0.5615 -1.6478  1.4995
 4204TIP3    H234028   4.435   1.753  14.127 -0.4059 -0.8286 -0.0892
 4205TIP3   OH234029   5.122   2.345  12.733 -0.1799 -0.5081  0.1057
 4205TIP3    H134030   5.127   2.250  12.721  0.1940 -0.5570  0.6070
 4205TIP3    H234031   5.087   2.356  12.821 -0.3359 -0.1805  0.0027
 4206TIP3   OH234032   6.620   4.792   2.419 -0.4929 -0.1169 -0.1670
 4206TIP3    H134033   6.663   4.772   2.336 -2.4474 -0.6322 -1.1079
 4206TIP3    H234034   6.665   4.871   2.450  4.1880 -2.9265  1.2897
 4207TIP3   OH234035   3.186   5.694   2.071 -0.0735  0.3665 -0.0076
 4207TIP3    H134036   3.186   5.787   2.046  0.7076  0.4566  0.2928
 4207TIP3    H234037   3.270   5.681   2.116 -0.4603 -0.3337  0.5391
 4208TIP3   OH234038   3.026   2.837  15.121  0.7033  0.2046 -0.1187
 4208TIP3    H134039   2.993   2.925  15.135  1.2680  0.3928  0.0587
 4208TIP3    H234040   2.949   2.787  15.093 -0.1133  0.2150  1.9581
 4209TIP3   OH234041   4.687   3.095  12.353 -0.5789  0.1279  0.1439
 4209TIP3    H134042   4.618   3.061  12.296  0.3615 -1.1346 -0.2836
 4209TIP3    H234043   4.754   3.129  12.293 -1.3723  2.6305  0.5488
 4210TIP3   OH234044   5.652   3.005   2.922 -0.1717  0.6514  0.8047
 4210TIP3    H134045   5.648   2.963   2.836  1.2089  0.0868  0.9825
 4210TIP3    H234046   5.717   3.075   2.912  0.3624  0.2729  1.4921
 4211TIP3   OH234047   3.158   3.818   2.057 -0.2036 -0.6783 -0.1777
 4211TIP3    H134048   3.133   3.884   2.121 -1.3872 -1.2828  0.0310
 4211TIP3    H234049   3.152   3.862   1.973 -1.6351 -0.6677 -0.0952
 4212TIP3   OH234050   4.827   1.546   2.298 -0.1819  0.0517 -0.3449
 4212TIP3    H134051   4.748   1.491   2.289 -0.2445  0.1713 -0.5346
 4212TIP3    H234052   4.793   1.634   2.312 -0.0853 -0.1389  1.1818
 4213TIP3   OH234053   2.895   1.053   5.796 -0.0612 -0.2888  0.0873
 4213TIP3    H134054   2.809   1.021   5.822 -0.9726  1.7642 -0.2225
 4213TIP3    H234055   2.951   1.033   5.871 -1.7273  1.8416  2.0452
 4214TIP3   OH234056   6.361   3.094  12.659 -0.5865  0.0963  0.1089
 4214TIP3    H134057   6.405   3.138  12.731  0.1996  0.4361 -0.5631
 4214TIP3    H234058   6.297   3.036  12.701  0.7759 -0.7066  1.1172
 4215TIP3   OH234059   0.023   2.651  11.113  0.3372 -0.0911  0.3827
 4215TIP3    H134060   0.090   2.583  11.118  0.3542  0.0101  1.8914
 4215TIP3    H234061   0.004   2.660  11.019  2.0125 -0.5242 -0.0193
 4216TIP3   OH234062   4.052   2.544   4.612  0.4294 -0.0455  0.1435
 4216TIP3    H134063   4.106   2.476   4.571  0.6396  0.0566  0.2513
 4216TIP3    H234064   4.093   2.559   4.697 -0.2887 -0.6182  0.6162
 4217TIP3   OH234065   4.140   2.116  12.851 -0.7272 -0.3166 -0.3793
 4217TIP3    H134066   4.209   2.151  12.795 -0.7069 -0.7302 -0.6147
 4217TIP3    H234067   4.162   2.023  12.861 -1.7763 -0.6784 -1.2566
 4218TIP3   OH234068   3.907   2.863   6.423  0.2463  0.5055 -0.1721
 4218TIP3    H134069   3.940   2.948   6.451 -0.7689  1.0623 -0.6156
 4218TIP3    H234070   3.981   2.803   6.436  1.3372  1.6451 -0.8518
 4219TIP3   OH234071   3.822   1.599   3.927  0.3646  0.6115  0.4027
 4219TIP3    H134072   3.888   1.647   3.877 -0.7862  0.0159 -1.8034
 4219TIP3    H234073   3.869   1.525   3.965  1.4047  1.4487  0.7891
 4220TIP3   OH234074   1.155   2.679  16.823  0.2044 -0.0412 -0.3684
 4220TIP3    H134075   1.141   2.606  16.763 -2.6932  0.2716 -0.2255
 4220TIP3    H234076   1.124   2.646  16.908  1.3922  0.5280  0.3243
 4221TIP3   OH234077   6.531   4.120  14.218 -0.6640 -0.2586 -0.0286
 4221TIP3    H134078   6.514   4.203  14.174  0.9933 -0.4310 -1.0877
 4221TIP3    H234079   6.453   4.104  14.271 -0.5915  2.5083  1.0864
 4222TIP3   OH234080   4.769   0.686   2.989  0.1382  0.1595 -0.5318
 4222TIP3    H134081   4.856   0.670   2.954  0.1460  0.0187 -0.4486
 4222TIP3    H234082   4.741   0.602   3.025  0.4769  0.4965  0.5540
 4223TIP3   OH234083   5.297   4.836   2.063  0.0984  0.3444 -0.3243
 4223TIP3    H134084   5.321   4.758   2.114  2.1790  1.0309 -0.1793
 4223TIP3    H234085   5.318   4.812   1.973 -1.5361 -0.0827 -0.6270
 4224TIP3   OH234086   0.632   4.639   4.746 -0.0452  0.4067 -0.1723
 4224TIP3    H134087   0.594   4.613   4.661  0.4630  1.4196 -0.7278
 4224TIP3    H234088   0.726   4.642   4.730  0.0101  1.1706  0.2683
 4225TIP3   OH234089   4.575   3.081  11.679  0.2642 -0.1542  0.3193
 4225TIP3    H134090   4.525   3.073  11.598  0.1054 -2.4858  0.5890
 4225TIP3    H234091   4.514   3.116  11.743 -0.4574 -1.0500  0.1340
 4226TIP3   OH234092   3.805   2.552   0.141 -0.0185 -0.4626  0.1131
 4226TIP3    H134093   3.835   2.601   0.064  0.2893 -0.3535  0.2996
 4226TIP3    H234094   3.883   2.502   0.169  0.1788  0.3034  0.9831
 4227TIP3   OH234095   2.259   1.027  13.543  0.0238 -0.0074 -0.0569
 4227TIP3    H134096   2.330   0.977  13.584  1.0043  2.2686  1.2050
 4227TIP3    H234097   2.183   0.970  13.550  1.5854 -2.3806 -1.0786
 4228TIP3   OH234098   0.817   0.807   6.325  0.0478 -0.1525  0.2696
 4228TIP3    H134099   0.764   0.770   6.254 -0.8743  0.7989  0.4387
 4228TIP3    H234100   0.893   0.845   6.280  0.9642 -2.0980  0.0861
 4229TIP3   OH234101   5.755   0.183  13.861  0.1465  0.2743 -0.4095
 4229TIP3    H134102   5.669   0.148  13.836  0.5762 -1.2242  0.0920
 4229TIP3    H234103   5.786   0.123  13.929  2.0529  0.1402 -1.3348
 4230TIP3   OH234104   0.956   5.968  13.253 -0.4901  0.0849 -0.4216
 4230TIP3    H134105   1.042   5.938  13.226  0.1713  0.1784  1.4422
 4230TIP3    H234106   0.967   6.062  13.267 -0.5187 -0.1049  1.0449
 4231TIP3   OH234107   0.533   2.999  15.557 -0.2389  0.1092 -0.0653
 4231TIP3    H134108   0.524   2.940  15.632  2.0643  2.1801  2.0569
 4231TIP3    H234109   0.450   3.047  15.554  0.1044  0.9582  2.1493
 4232TIP3   OH234110   3.374   6.579   0.446  0.0266  0.1793 -0.2435
 4232TIP3    H134111   3.305   6.549   0.387 -1.5273  1.7383  0.6671
 4232TIP3    H234112   3.337   6.568   0.534  0.8746  1.1660  0.2670
 4233TIP3   OH234113   2.446   4.830  12.547  0.3836  0.1470  0.3533
 4233TIP3    H134114   2.408   4.914  12.523  0.8471  0.6507  1.3314
 4233TIP3    H234115   2.507   4.810  12.476 -0.2767  0.2637 -0.2581
 4234TIP3   OH234116   0.720   6.084  17.032 -0.4966 -0.0421 -0.2200
 4234TIP3    H134117   0.698   6.126  17.115 -2.2429  0.2139 -0.7656
 4234TIP3    H234118   0.813   6.061  17.040  0.2345  2.8009  0.5785
 4235TIP3   OH234119   0.190   0.067  13.368  0.1423  0.0556 -0.6659
 4235TIP3    H134120   0.212   0.152  13.331 -0.5376  0.4144 -0.2703
 4235TIP3    H234121   0.106   0.081  13.413  1.1182 -0.2528  1.3577
 4236TIP3   OH234122   4.583   1.410   0.463  0.2867  0.3008 -0.3307
 4236TIP3    H134123   4.525   1.365   0.525 -0.6319  1.3514 -0.3941
 4236TIP3    H234124   4.595   1.347   0.392 -0.3523 -0.1320 -0.0679
 4237TIP3   OH234125   2.947   4.539   4.426  0.1340  0.0983  0.0573
 4237TIP3    H134126   2.930   4.484   4.503  0.1554  0.8770  0.6381
 4237TIP3    H234127   2.860   4.566   4.396 -0.1993 -3.3182 -2.6171
 4238TIP3   OH234128   0.475   5.023   2.926  0.1021 -0.5260 -0.1305
 4238TIP3    H134129   0.534   4.975   2.868 -0.1776 -0.5155 -0.4235
 4238TIP3    H234130   0.391   5.023   2.880 -0.5269 -1.8433  0.9593
 4239TIP3   OH234131   0.378   4.772  16.827  0.2140 -0.5224 -0.3404
 4239TIP3    H134132   0.434   4.782  16.750 -0.9734 -0.2496 -1.2048
 4239TIP3    H234133   0.386   4.855  16.873  1.7743 -1.0715  0.4541
 4240TIP3   OH234134   2.422   1.621  14.664  0.4343  0.2865  0.0407
 4240TIP3    H134135   2.458   1.646  14.750  2.1437  1.3880 -0.9361
 4240TIP3    H234136   2.427   1.526  14.662 -0.5219  0.1676  1.5061
 4241TIP3   OH234137   4.178   0.658  13.997 -0.2454  0.2065 -0.7291
 4241TIP3    H134138   4.128   0.619  13.926 -0.0616 -2.9953  0.7242
 4241TIP3    H234139   4.127   0.638  14.076  1.6685 -0.2911  0.4521
 4242TIP3   OH234140   2.597   4.757  14.395  0.1608 -0.2311 -0.2240
 4242TIP3    H134141   2.575   4.829  14.335  0.9323 -0.3702 -0.6827
 4242TIP3    H234142   2.682   4.726  14.365  0.4140 -0.5161  0.7578
 4243TIP3   OH234143   5.882   4.594   0.641  0.1816 -0.1704  0.2161
 4243TIP3    H134144   5.814   4.609   0.575 -0.4162 -0.1894  0.8279
 4243TIP3    H234145   5.934   4.675   0.640  0.4164 -0.3164 -0.5457
 4244TIP3   OH234146   2.446   4.735  13.590 -0.7680  0.1017  0.1878
 4244TIP3    H134147   2.368   4.791  13.594  0.8121  2.3403  2.3866
 4244TIP3    H234148   2.518   4.797  13.577  0.6474 -1.9982 -3.3435
 4245TIP3   OH234149   4.782   2.331   2.235  0.0660  0.3406  0.5716
 4245TIP3    H134150   4.838   2.253   2.227  0.5711  0.8192 -0.8531
 4245TIP3    H234151   4.769   2.341   2.329  1.2165 -0.6101  0.8598
 4246TIP3   OH234152   2.745   2.222   5.256  0.4118  0.3118  0.3074
 4246TIP3    H134153   2.681   2.257   5.195  0.9793  2.5821  0.9234
 4246TIP3    H234154   2.808   2.293   5.269  1.7816 -1.0310  1.4874
 4247TIP3   OH234155   5.490   2.256   4.298  0.2230 -0.1725 -0.1297
 4247TIP3    H134156   5.530   2.181   4.254 -0.8288  0.2704 -1.9618
 4247TIP3    H234157   5.398   2.232   4.308 -0.2969  1.1006 -1.4219
 4248TIP3   OH234158   5.012   1.619   3.717 -0.0922 -0.0744 -0.6673
 4248TIP3    H134159   5.051   1.704   3.698  0.3477 -0.1407 -0.0944
 4248TIP3    H234160   5.037   1.601   3.807 -5.0549  1.9022  1.4435
 4249TIP3   OH234161   1.420   5.748   5.995  0.1511  0.0076  0.0801
 4249TIP3    H134162   1.402   5.842   5.982 -1.4330 -0.3439 -0.4995
 4249TIP3    H234163   1.357   5.721   6.062  1.1104 -0.4964  0.7884
 4250TIP3   OH234164   0.444   4.947  10.874  0.2128 -0.0811 -0.2330
 4250TIP3    H134165   0.378   4.988  10.816  0.7669 -0.8731 -1.4688
 4250TIP3    H234166   0.523   4.944  10.820  0.6514 -1.1621  0.4656
 4251TIP3   OH234167   4.734   2.019   5.515 -0.1118 -0.5735 -0.4578
 4251TIP3    H134168   4.723   2.098   5.568 -0.7774 -0.7983 -0.2535
 4251TIP3    H234169   4.791   2.046   5.443  1.2598 -0.4033  0.6501
 4252TIP3   OH234170   4.080   0.196  15.599 -0.6774  0.2729  0.3791
 4252TIP3    H134171   4.137   0.203  15.676  0.4952 -0.4912 -0.3921
 4252TIP3    H234172   4.012   0.262  15.614  0.3852  1.2066  1.3457
 4253TIP3   OH234173   4.601   1.667  11.348 -0.4863 -0.0073 -0.4401
 4253TIP3    H134174   4.639   1.628  11.426  2.8553  1.5760 -1.1192
 4253TIP3    H234175   4.570   1.753  11.377  1.0560  0.7179 -0.8399
 4254TIP3   OH234176   2.572   3.789  16.230  0.6741 -0.0401  0.3547
 4254TIP3    H134177   2.501   3.824  16.176 -1.0352 -2.6906  0.6852
 4254TIP3    H234178   2.647   3.845  16.211 -0.5915  0.8334 -2.5947
 4255TIP3   OH234179   0.357   3.002   4.551 -0.3872  0.1369  0.8481
 4255TIP3    H134180   0.418   2.956   4.610 -0.1478  0.4341  0.8394
 4255TIP3    H234181   0.399   2.999   4.466 -0.7314 -0.2853  0.6944
 4256TIP3   OH234182   4.258   1.134  16.261 -0.1741  0.2020  0.1110
 4256TIP3    H134183   4.220   1.157  16.176 -2.7220  0.3780  1.2145
 4256TIP3    H234184   4.243   1.040  16.270  1.6776 -0.1769 -0.3222
 4257TIP3   OH234185   4.695   0.488  16.474 -0.1127 -0.2245 -0.1159
 4257TIP3    H134186   4.629   0.551  16.504  1.2040  0.6970  0.9502
 4257TIP3    H234187   4.718   0.518  16.386 -1.5840 -0.9678 -0.7854
 4258TIP3   OH234188   0.732   1.656  11.356 -0.0693  0.0559 -0.2325
 4258TIP3    H134189   0.767   1.639  11.268  0.5742 -2.5256  0.4208
 4258TIP3    H234190   0.653   1.602  11.361  0.5553 -0.8063  1.1180
 4259TIP3   OH234191   3.678   3.516   6.672 -0.2554 -0.4423  0.1404
 4259TIP3    H134192   3.603   3.554   6.627  0.3306  0.3101 -0.2367
 4259TIP3    H234193   3.662   3.422   6.670 -1.1052 -0.3057 -0.0737
 4260TIP3   OH234194   6.041   1.634   1.224  0.1982  0.1172  0.0114
 4260TIP3    H134195   6.062   1.702   1.160 -2.0950 -0.4712 -1.4639
 4260TIP3    H234196   6.122   1.584   1.233  0.7131  0.4648 -2.1538
 4261TIP3   OH234197   2.251   5.621  10.549 -0.1810  0.3567 -0.1077
 4261TIP3    H134198   2.342   5.644  10.564  0.1440  0.2784 -1.7858
 4261TIP3    H234199   2.224   5.576  10.629  1.4051 -0.1182  0.1818
 4262TIP3   OH234200   3.935   1.198   6.496  0.2546  0.0478  0.1729
 4262TIP3    H134201   3.864   1.226   6.553  2.4741  0.0014  3.2084
 4262TIP3    H234202   3.952   1.107   6.522 -0.0560 -0.7591 -2.1870
 4263TIP3   OH234203   0.872   3.402  14.631  0.2503  0.1088 -0.2242
 4263TIP3    H134204   0.886   3.333  14.566  0.8686  2.1175 -2.3874
 4263TIP3    H234205   0.822   3.469  14.585  0.8058  1.6833  1.3301
 4264TIP3   OH234206   5.396   0.078   3.850 -0.0959  0.1390  0.1334
 4264TIP3    H134207   5.432   0.001   3.893  0.6462  0.5538  0.2770
 4264TIP3    H234208   5.332   0.113   3.913 -2.0122 -1.5162 -0.7979
 4265TIP3   OH234209   3.316   6.704   1.843  0.4143 -0.3520 -0.7375
 4265TIP3    H134210   3.241   6.757   1.871  0.9786  0.8670 -1.4491
 4265TIP3    H234211   3.276   6.631   1.795 -0.3221  1.4539 -3.0833
 4266TIP3   OH234212   6.526   0.795   1.159  0.3675 -0.6216 -0.4460
 4266TIP3    H134213   6.557   0.707   1.138 -1.5583 -1.3988 -0.3093
 4266TIP3    H234214   6.502   0.833   1.075  0.9385 -0.3178 -0.4770
 4267TIP3   OH234215   5.233   6.389  12.220 -0.1288  0.2637 -0.2521
 4267TIP3    H134216   5.160   6.341  12.260  0.9521 -1.2412  0.0204
 4267TIP3    H234217   5.227   6.367  12.127 -1.2149  1.8248 -0.5906
 4268TIP3   OH234218   3.611   3.106  11.898 -0.3547  0.0880  0.3378
 4268TIP3    H134219   3.572   3.190  11.922  0.8918  0.4649  1.1539
 4268TIP3    H234220   3.608   3.054  11.979  1.1140  0.2605  0.5405
 4269TIP3   OH234221   6.114   0.810   2.242  0.4540  0.1090  0.8804
 4269TIP3    H134222   6.095   0.830   2.334 -2.6255  1.3009  0.1033
 4269TIP3    H234223   6.074   0.882   2.193  0.4565 -1.3941 -1.4737
 4270TIP3   OH234224   4.324   5.345  17.261 -0.1742  0.0008  0.8434
 4270TIP3    H134225   4.420   5.342  17.261 -0.1457 -1.1140 -1.3422
 4270TIP3    H234226   4.297   5.254  17.271 -0.8515 -0.2148 -1.9783
 4271TIP3   OH234227   3.073   4.274  15.145 -0.3167  0.4459 -0.5411
 4271TIP3    H134228   2.997   4.244  15.195  0.1639 -1.1720 -0.7156
 4271TIP3    H234229   3.145   4.269  15.208 -0.0202  0.0803 -0.9054
 4272TIP3   OH234230   3.063   1.025  10.861  0.5623  0.3339 -0.0481
 4272TIP3    H134231   3.011   1.065  10.792 -0.0248  0.3093  0.3773
 4272TIP3    H234232   3.000   1.002  10.929  1.0175 -0.4309  0.1303
 4273TIP3   OH234233   0.739   3.750   0.626  0.2729  0.5139  0.5619
 4273TIP3    H134234   0.711   3.760   0.535  0.8581 -0.7391  0.2249
 4273TIP3    H234235   0.683   3.810   0.675 -0.4479  0.7773 -0.5489
 4274TIP3   OH234236   2.572   6.232  12.889 -0.2498  0.0400  0.5057
 4274TIP3    H134237   2.667   6.236  12.896 -0.2661 -0.0270  0.7582
 4274TIP3    H234238   2.540   6.257  12.976 -0.5408  3.4577 -0.4395
 4275TIP3   OH234239   0.185   5.931  11.282  0.3800 -0.5648 -0.2156
 4275TIP3    H134240   0.180   5.873  11.358  1.3125 -2.2211 -1.3508
 4275TIP3    H234241   0.274   5.966  11.284  0.3148 -0.3844 -0.4062
 4276TIP3   OH234242   4.377   1.343   3.249  0.5044  0.5793 -0.3113
 4276TIP3    H134243   4.450   1.316   3.305 -0.6495 -1.6859  0.2422
 4276TIP3    H234244   4.412   1.338   3.160  0.9461 -0.8982 -0.0839
 4277TIP3   OH234245   3.734   1.147  12.330 -0.0589 -0.4151  0.9104
 4277TIP3    H134246   3.674   1.219  12.351  0.3113  0.0424  0.4103
 4277TIP3    H234247   3.812   1.164  12.382  0.0053 -0.4837  0.8375
 4278TIP3   OH234248   0.472   1.695   0.459  0.9113 -0.1058  0.0518
 4278TIP3    H134249   0.502   1.721   0.372 -0.4786 -0.8148 -0.6818
 4278TIP3    H234250   0.424   1.771   0.492 -0.4479 -0.5687 -0.7644
 4279TIP3   OH234251   2.792   4.361   5.182 -0.3032  0.2584  0.0134
 4279TIP3    H134252   2.729   4.318   5.240  0.7693 -0.6543  0.5570
 4279TIP3    H234253   2.744   4.377   5.101 -1.5373  0.6085  0.7899
 4280TIP3   OH234254   0.459   3.446  17.095  0.4749 -0.2210  0.2809
 4280TIP3    H134255   0.544   3.487  17.084  1.4032 -2.1222 -0.1010
 4280TIP3    H234256   0.396   3.514  17.071  1.7290  1.9278  2.6376
 4281TIP3   OH234257   2.101   6.058  12.455  0.4480 -0.8176  0.3418
 4281TIP3    H134258   2.073   6.047  12.364 -0.3164  0.8511  0.3422
 4281TIP3    H234259   2.142   6.145  12.457 -1.3933  0.0939  1.9876
 4282TIP3   OH234260   2.818   6.225   5.055 -0.2045  0.2544 -0.7090
 4282TIP3    H134261   2.870   6.271   4.990 -0.5055  0.5903 -0.7111
 4282TIP3    H234262   2.728   6.253   5.040 -0.1962  0.9051  0.3056
 4283TIP3   OH234263   3.861   6.579   4.720 -0.0187  0.5656 -0.4047
 4283TIP3    H134264   3.795   6.644   4.745 -0.0651  0.8122 -1.1455
 4283TIP3    H234265   3.825   6.537   4.642 -0.9299 -1.8016  1.2028
 4284TIP3   OH234266   2.765   3.506   1.387 -0.2295  0.3034  0.3645
 4284TIP3    H134267   2.847   3.466   1.358 -0.2285  1.4429 -1.3958
 4284TIP3    H234268   2.738   3.560   1.313 -1.8624  1.0383  1.4410
 4285TIP3   OH234269   1.194   6.646   3.104 -0.4112 -0.4518  0.8340
 4285TIP3    H134270   1.233   6.573   3.055 -2.1028 -0.9054  0.0904
 4285TIP3    H234271   1.144   6.604   3.173 -1.0948  0.0244  0.6346
 4286TIP3   OH234272   1.640   5.863   3.827  0.8173  0.0775  0.5583
 4286TIP3    H134273   1.565   5.804   3.822  1.6352 -0.9011 -0.7724
 4286TIP3    H234274   1.687   5.849   3.745  2.5822  0.4954  1.4492
 4287TIP3   OH234275   4.945   3.824  12.419  0.3171  0.0225 -0.4492
 4287TIP3    H134276   4.988   3.846  12.336 -0.1289  0.5677 -0.5459
 4287TIP3    H234277   4.994   3.750  12.453  0.0588 -0.6740 -1.5593
 4288TIP3   OH234278   3.177   3.655   0.487  0.1772 -0.6450  0.3655
 4288TIP3    H134279   3.243   3.687   0.425 -0.1792  0.0994  0.3657
 4288TIP3    H234280   3.148   3.733   0.534 -0.7756 -0.9495  0.3040
 4289TIP3   OH234281   6.055   0.121  11.435 -0.8179 -0.7380  0.1769
 4289TIP3    H134282   5.966   0.109  11.401 -1.0954  0.2657  0.5158
 4289TIP3    H234283   6.073   0.215  11.424  1.8870 -1.4635 -3.9493
 4290TIP3   OH234284   2.315   4.804   0.312 -0.2456  0.8634 -0.3901
 4290TIP3    H134285   2.283   4.822   0.224  1.1143  1.2897 -0.8115
 4290TIP3    H234286   2.281   4.877   0.365 -0.3048  1.0994 -0.7491
 4291TIP3   OH234287   3.128   1.449   5.222 -0.0362 -0.3144 -0.0307
 4291TIP3    H134288   3.103   1.515   5.287  0.8990 -0.1706  0.2058
 4291TIP3    H234289   3.054   1.445   5.161 -0.5324  0.2133  0.5265
 4292TIP3   OH234290   4.626   6.301  14.289 -0.0663 -0.2388 -0.1089
 4292TIP3    H134291   4.545   6.320  14.243 -0.3609 -3.3939 -1.0846
 4292TIP3    H234292   4.695   6.330  14.229 -0.3975  1.3659  0.2286
 4293TIP3   OH234293   1.505   4.914  12.292 -0.0277 -0.6313 -0.0709
 4293TIP3    H134294   1.474   4.995  12.252 -1.4589 -1.0743  0.0655
 4293TIP3    H234295   1.596   4.907  12.264  1.0325  2.3825  2.1270
 4294TIP3   OH234296   1.396   4.610   0.681  0.1970 -0.0421 -0.1071
 4294TIP3    H134297   1.487   4.598   0.708  0.2790 -0.3923 -0.5366
 4294TIP3    H234298   1.353   4.647   0.758  1.0223  1.5461 -0.3618
 4295TIP3   OH234299   5.004   1.233   0.928  0.0397  0.3677 -0.5629
 4295TIP3    H134300   4.986   1.262   1.018  2.7145 -1.7654  0.7821
 4295TIP3    H234301   5.062   1.301   0.893 -0.5390  0.9060 -0.5110
 4296TIP3   OH234302   1.054   6.312   4.070  0.1984 -0.7133  1.0656
 4296TIP3    H134303   1.120   6.381   4.063  1.8583 -2.3489 -0.1893
 4296TIP3    H234304   1.000   6.322   3.992 -0.2022 -0.2424  1.3937
 4297TIP3   OH234305   2.982   4.035   2.875 -0.3666 -0.3191 -0.1850
 4297TIP3    H134306   3.067   3.995   2.893  0.0534 -0.3125 -1.9646
 4297TIP3    H234307   3.003   4.125   2.850 -0.8376 -0.4548 -1.1200
 4298TIP3   OH234308   5.313   3.668  14.825  0.1778  0.1901 -0.5676
 4298TIP3    H134309   5.274   3.623  14.899 -0.3715 -0.4430 -1.2363
 4298TIP3    H234310   5.263   3.749  14.817 -0.0541  0.0506 -0.5249
 4299TIP3   OH234311   6.172   5.604   4.663 -0.4254  0.1865 -0.4977
 4299TIP3    H134312   6.124   5.684   4.642 -0.9010 -0.3549 -1.5457
 4299TIP3    H234313   6.206   5.573   4.579 -0.6925 -0.9917 -0.1914
 4300TIP3   OH234314   6.439   0.359   5.534  0.3627  0.1831 -0.3003
 4300TIP3    H134315   6.474   0.283   5.488  0.5924  2.0170 -3.3846
 4300TIP3    H234316   6.349   0.368   5.502 -0.6417 -0.2809  2.1197
 4301TIP3   OH234317   4.927   5.725   0.559  0.0635  0.4222  0.2189
 4301TIP3    H134318   5.020   5.743   0.553  0.1562  1.2408  2.8302
 4301TIP3    H234319   4.896   5.780   0.631 -2.1582 -0.8807  0.3695
 4302TIP3   OH234320   0.866   1.381   1.167  0.3519 -0.0467  0.1158
 4302TIP3    H134321   0.959   1.365   1.153  0.3801 -1.1413  1.3291
 4302TIP3    H234322   0.843   1.324   1.241 -2.0340 -2.4016 -2.2379
 4303TIP3   OH234323   2.481   1.050   3.136  0.0846  0.0830 -0.5778
 4303TIP3    H134324   2.549   1.047   3.069  1.0079  0.3644  0.3161
 4303TIP3    H234325   2.442   1.137   3.127  1.6332  0.9667  0.5590
 4304TIP3   OH234326   1.884   0.668   0.760  0.7742 -0.5152  0.2248
 4304TIP3    H134327   1.797   0.636   0.735 -0.2302  1.0933  1.4266
 4304TIP3    H234328   1.918   0.601   0.819  0.8140 -1.6417 -1.0250
 4305TIP3   OH234329   2.576   2.289  11.387  0.0067  0.6348  0.4540
 4305TIP3    H134330   2.528   2.317  11.309  1.2623  0.2103 -0.5021
 4305TIP3    H234331   2.582   2.368  11.441  2.0095  1.8877 -1.4321
 4306TIP3   OH234332   1.499   4.355   0.900 -0.0916 -0.1937  0.4663
 4306TIP3    H134333   1.551   4.435   0.902 -2.2510  1.3559 -1.0316
 4306TIP3    H234334   1.534   4.305   0.826  0.4634 -0.0479  0.6278
 4307TIP3   OH234335   1.040   4.289   3.167 -0.1550 -0.0500 -0.2849
 4307TIP3    H134336   0.975   4.338   3.218  1.3623  0.7161  1.0055
 4307TIP3    H234337   1.124   4.322   3.198  0.8673 -0.2913 -2.6099
 4308TIP3   OH234338   2.576   0.091   0.403 -0.8852 -0.7077  0.1723
 4308TIP3    H134339   2.595   0.031   0.331  2.6326  1.1916 -0.6994
 4308TIP3    H234340   2.625   0.055   0.477 -1.3243 -0.5582  0.5409
 4309TIP3   OH234341   3.910   0.805  14.809 -0.4565 -0.4047  0.4847
 4309TIP3    H134342   3.860   0.882  14.837 -0.5484  0.5886 -2.0918
 4309TIP3    H234343   3.847   0.733  14.810 -1.1647  0.2005  0.1726
 4310TIP3   OH234344   1.633   4.969   0.112  0.2700  0.2408 -0.0829
 4310TIP3    H134345   1.556   4.920   0.083  0.9625 -1.1178  0.2775
 4310TIP3    H234346   1.665   5.012   0.033  0.5108 -1.1256 -0.7465
 4311TIP3   OH234347   2.718   5.173   0.618 -0.6338  0.2061  0.2749
 4311TIP3    H134348   2.635   5.127   0.610  0.5822 -2.1653  0.3991
 4311TIP3    H234349   2.745   5.159   0.709  0.5299 -0.2737 -0.1226
 4312TIP3   OH234350   3.626   1.611   2.737  0.3676  0.1149 -0.0605
 4312TIP3    H134351   3.688   1.684   2.744  0.1940  0.1381  2.3286
 4312TIP3    H234352   3.540   1.653   2.745 -0.0097  0.0329 -2.8805
 4313TIP3   OH234353   1.501   0.215  13.550 -0.2887 -0.0294  1.0908
 4313TIP3    H134354   1.547   0.294  13.521 -1.2510  0.0144 -0.4323
 4313TIP3    H234355   1.413   0.224  13.513 -0.0361 -2.4463 -0.2900
 4314TIP3   OH234356   6.061   1.907  15.190 -0.3629  0.0861  0.7433
 4314TIP3    H134357   5.997   1.914  15.119 -2.0238 -3.2086  1.7247
 4314TIP3    H234358   6.144   1.891  15.145 -1.2852 -1.4574 -0.5377
 4315TIP3   OH234359   5.157   6.072  14.461 -0.4363 -0.2243  0.1523
 4315TIP3    H134360   5.212   6.122  14.400  0.7839 -1.4317  0.2146
 4315TIP3    H234361   5.212   6.059  14.538 -0.4999 -2.0708 -0.0595
 4316TIP3   OH234362   1.023   3.427  16.809 -0.0901 -0.1271 -0.1665
 4316TIP3    H134363   1.060   3.387  16.888  0.5200 -1.1640 -0.9451
 4316TIP3    H234364   1.099   3.448  16.756 -0.5262 -0.0634 -0.7698
 4317TIP3   OH234365   6.158   0.029   2.034  0.0554 -0.6802 -0.2240
 4317TIP3    H134366   6.182   0.104   1.978  0.3003  0.5631  1.4832
 4317TIP3    H234367   6.194  -0.047   1.988  0.8220  0.3655 -1.4287
 4318TIP3   OH234368   5.499   4.555   4.244 -0.7075  0.5286 -0.4095
 4318TIP3    H134369   5.451   4.545   4.162  0.7451  0.3518 -1.2863
 4318TIP3    H234370   5.526   4.467   4.267 -2.0395  0.4305  0.8862
 4319TIP3   OH234371   1.447   1.525  16.817 -0.1430  0.4521 -0.4813
 4319TIP3    H134372   1.533   1.529  16.858 -0.4323  2.4603  0.0216
 4319TIP3    H234373   1.463   1.542  16.725  0.0833 -0.0291 -0.5315
 4320TIP3   OH234374   5.637   5.816  13.239 -0.3846 -0.2153  0.0372
 4320TIP3    H134375   5.589   5.734  13.246 -0.2963 -0.1626  1.6241
 4320TIP3    H234376   5.723   5.791  13.207 -0.2338 -0.8061  0.8753
 4321TIP3   OH234377   6.091   3.636  13.831 -1.1133  0.1748 -0.1620
 4321TIP3    H134378   6.033   3.560  13.835 -0.9926  0.0643 -0.4747
 4321TIP3    H234379   6.041   3.707  13.871 -0.6673 -0.4232  1.5476
 4322TIP3   OH234380   4.884   6.426   1.284 -0.5938  0.8240  0.0726
 4322TIP3    H134381   4.932   6.465   1.358 -0.0545 -0.8318  0.6356
 4322TIP3    H234382   4.943   6.437   1.210 -0.1934  0.5670  0.3485
 4323TIP3   OH234383   1.183   5.384   2.559 -0.1216 -0.2142 -0.0681
 4323TIP3    H134384   1.187   5.372   2.464 -0.9286 -3.0536  0.1685
 4323TIP3    H234385   1.273   5.405   2.584  0.1277  0.4449 -1.4277
 4324TIP3   OH234386   5.937   0.196  14.916  0.5826 -0.3866  0.8718
 4324TIP3    H134387   6.005   0.237  14.862  0.5650 -1.3532  0.0773
 4324TIP3    H234388   5.859   0.197  14.861  0.5108 -1.2082  0.9437
 4325TIP3   OH234389   1.302   2.824   5.709 -0.6043  0.1923  0.2258
 4325TIP3    H134390   1.287   2.830   5.614  0.0597 -1.2969 -0.0074
 4325TIP3    H234391   1.268   2.906   5.744 -0.5275  0.9429 -1.3501
 4326TIP3   OH234392   5.239   5.997   6.519 -0.3310 -0.3325  0.8134
 4326TIP3    H134393   5.328   5.962   6.518  0.1499  0.8298 -0.0680
 4326TIP3    H234394   5.186   5.933   6.472  0.7452  0.5828 -1.8156
 4327TIP3   OH234395   2.939   5.229  11.897  0.0051 -0.4967 -0.3410
 4327TIP3    H134396   2.996   5.242  11.973  0.8020 -0.4628 -0.9244
 4327TIP3    H234397   2.879   5.303  11.899 -1.7339 -1.8603  1.7383
 4328TIP3   OH234398   6.356   0.887   3.681 -0.5229 -0.0134 -0.5055
 4328TIP3    H134399   6.336   0.831   3.756 -1.2625  0.9029 -0.0137
 4328TIP3    H234400   6.425   0.839   3.635  0.0234 -0.5491  0.7997
 4329TIP3   OH234401   3.772   1.902  12.667  0.0390  0.0321 -0.5593
 4329TIP3    H134402   3.749   1.871  12.579 -0.9582 -1.0596  0.0672
 4329TIP3    H234403   3.859   1.865  12.684 -0.3212 -0.8341 -0.5773
 4330TIP3   OH234404   6.237   3.243  15.061 -0.0252  0.0583 -0.1132
 4330TIP3    H134405   6.327   3.275  15.066 -0.1296  0.6757 -1.7382
 4330TIP3    H234406   6.242   3.153  15.093  0.6307  0.9422  2.5853
 4331TIP3   OH234407   5.885   3.069   2.067 -0.7500 -0.2309  0.4386
 4331TIP3    H134408   5.888   2.986   2.114 -0.8307 -1.1796 -1.1759
 4331TIP3    H234409   5.799   3.070   2.026 -0.6549  0.5511  0.2432
 4332TIP3   OH234410   1.159   6.178  12.746 -0.0418  0.1505 -0.2671
 4332TIP3    H134411   1.226   6.111  12.730 -0.2871  0.2629 -1.8432
 4332TIP3    H234412   1.089   6.131  12.791  0.2266 -0.4215 -0.4367
 4333TIP3   OH234413   1.050   4.266  12.091  0.1989 -0.0125 -0.0996
 4333TIP3    H134414   0.967   4.299  12.055  0.8029 -0.3698 -1.9603
 4333TIP3    H234415   1.106   4.255  12.014  1.2107 -1.9394  0.8368
 4334TIP3   OH234416   1.416   4.268  17.225 -0.3184 -0.3681 -0.0339
 4334TIP3    H134417   1.338   4.219  17.250  1.3642 -2.8640  0.7243
 4334TIP3    H234418   1.445   4.309  17.306  0.3068 -1.2268  0.1917
 4335TIP3   OH234419   6.396   4.524   0.523  0.3103  0.6765  0.3187
 4335TIP3    H134420   6.442   4.605   0.546  0.6685  0.5027  0.2201
 4335TIP3    H234421   6.306   4.539   0.552  0.8012  0.3329  2.1995
 4336TIP3   OH234422   4.693   5.937   0.255  0.2009 -0.1779  0.8868
 4336TIP3    H134423   4.719   6.029   0.257  0.1589 -0.1479  0.2573
 4336TIP3    H234424   4.655   5.925   0.168 -2.0050 -0.1842  1.7762
 4337TIP3   OH234425   0.593   1.073  11.709 -0.2585 -0.1098 -0.1006
 4337TIP3    H134426   0.547   0.990  11.698  0.8631 -0.9124  0.9492
 4337TIP3    H234427   0.559   1.110  11.790  0.3171 -0.2867  0.2261
 4338TIP3   OH234428   1.128   1.274  14.318 -0.0154  0.3177 -0.2893
 4338TIP3    H134429   1.146   1.250  14.408  2.7171  0.8499 -0.6086
 4338TIP3    H234430   1.095   1.194  14.277 -0.4337 -0.1545  0.9367
 4339TIP3   OH234431   3.443   3.532   1.220 -0.2268 -0.3907 -0.3312
 4339TIP3    H134432   3.383   3.531   1.295  1.1241 -1.9303  0.8052
 4339TIP3    H234433   3.412   3.462   1.163 -0.1690 -0.4471 -0.2934
 4340TIP3   OH234434   5.429   6.520   6.387 -0.1195  0.5546  0.2805
 4340TIP3    H134435   5.374   6.454   6.428  0.1765 -1.3288 -2.1072
 4340TIP3    H234436   5.368   6.581   6.345 -0.3747  1.1368  1.4538
 4341TIP3   OH234437   2.847   6.196   1.301 -1.2062 -0.1010  0.0801
 4341TIP3    H134438   2.838   6.273   1.245 -1.9720  0.2317  0.6518
 4341TIP3    H234439   2.786   6.211   1.373  1.3686  0.5602  2.2928
 4342TIP3   OH234440   5.988   5.146  13.757 -0.0265 -0.5655  0.7146
 4342TIP3    H134441   5.926   5.181  13.822 -1.0952 -1.9675  0.5103
 4342TIP3    H234442   5.935   5.088  13.703  1.2341 -0.8286 -0.2841
 4343TIP3   OH234443   5.571   6.022   0.850  0.3019  0.0430  0.2898
 4343TIP3    H134444   5.583   6.005   0.756  0.5714 -1.4538  0.5701
 4343TIP3    H234445   5.488   6.069   0.855 -1.3838 -2.5866 -0.4916
 4344TIP3   OH234446   5.665   2.022  12.441 -0.2515  0.2287  0.4452
 4344TIP3    H134447   5.761   2.026  12.448 -0.3797  0.2023  3.3020
 4344TIP3    H234448   5.648   1.939  12.396  1.0792 -0.5636  1.3161
 4345TIP3   OH234449   4.653   2.601  15.424 -0.0232  0.1888 -0.1408
 4345TIP3    H134450   4.645   2.693  15.450  1.7677  0.2919  0.1700
 4345TIP3    H234451   4.576   2.558  15.463  0.5114  1.0696  2.0358
 4346TIP3   OH234452   6.100   2.680  12.037  0.5844  0.0030  0.5746
 4346TIP3    H134453   6.133   2.750  11.980 -0.7122 -1.9232 -2.8280
 4346TIP3    H234454   6.179   2.641  12.075  1.4842  1.6097  0.4590
 4347TIP3   OH234455   3.685   0.683   2.677  0.3743  0.0303 -0.0588
 4347TIP3    H134456   3.712   0.630   2.753 -0.2865 -0.7279 -0.3336
 4347TIP3    H234457   3.655   0.619   2.613 -0.4911  0.7392 -0.3859
 4348TIP3   OH234458   6.592   1.484  14.869  0.2013  0.1471  0.3354
 4348TIP3    H134459   6.502   1.511  14.889  0.8278  2.3876  0.4257
 4348TIP3    H234460   6.585   1.437  14.786 -1.1416 -0.4903  0.7755
 4349TIP3   OH234461   4.715   6.041   4.941 -0.3425  0.5522 -0.5727
 4349TIP3    H134462   4.629   6.070   4.971  0.0822  1.8318 -0.5040
 4349TIP3    H234463   4.767   6.032   5.021 -0.9919 -2.4096 -0.3997
 4350TIP3   OH234464   5.192   1.751  11.404  0.6900  0.2327  0.3697
 4350TIP3    H134465   5.195   1.656  11.388  2.1748  0.1530  0.9665
 4350TIP3    H234466   5.186   1.789  11.317  2.5939 -0.3619 -0.0705
 4351TIP3   OH234467   3.638   3.590   0.026  0.0549  0.2187  0.1012
 4351TIP3    H134468   3.597   3.674   0.005  1.4831  0.6005 -1.3084
 4351TIP3    H234469   3.590   3.526  -0.028 -0.2425  0.2940  0.2712
 4352TIP3   OH234470   3.151   6.661   1.027 -0.2612  0.1252  0.4417
 4352TIP3    H134471   3.245   6.679   1.030  0.1604 -1.4880 -1.4494
 4352TIP3    H234472   3.113   6.737   0.983  0.1195  0.7902  1.2243
 4353TIP3   OH234473   4.218   6.614   6.640  0.6188  0.2432 -0.5087
 4353TIP3    H134474   4.296   6.621   6.694  1.7058 -1.8358 -1.6763
 4353TIP3    H234475   4.239   6.547   6.575 -2.8251 -1.9356  0.3298
 4354TIP3   OH234476   0.297   5.404  14.716 -0.1203  0.0526 -0.1805
 4354TIP3    H134477   0.315   5.310  14.712 -0.1697  0.0003  0.6927
 4354TIP3    H234478   0.362   5.443  14.657 -0.5985 -0.5851 -1.1578
 4355TIP3   OH234479   6.213   5.008  12.637 -0.1309 -0.4961 -0.2270
 4355TIP3    H134480   6.205   5.103  12.629 -0.4567 -0.3537  1.3499
 4355TIP3    H234481   6.240   4.978  12.550  1.0077  1.1465 -0.4768
 4356TIP3   OH234482   4.970   6.182  11.703 -0.0404  0.6906 -0.0520
 4356TIP3    H134483   4.894   6.147  11.656 -0.1250  0.6495  0.1152
 4356TIP3    H234484   4.992   6.263  11.657  1.2771 -0.4642 -1.5791
 4357TIP3   OH234485   1.492   4.181  11.805 -0.1521 -0.0951 -0.3560
 4357TIP3    H134486   1.509   4.089  11.824  0.4044  0.1657  0.4799
 4357TIP3    H234487   1.572   4.226  11.832 -1.8588  1.1326  3.3374
 4358TIP3   OH234488   2.856   5.144   2.079  0.0351  1.4711  0.5418
 4358TIP3    H134489   2.882   5.069   2.132 -0.5925  0.2938 -0.7273
 4358TIP3    H234490   2.791   5.190   2.131 -1.9178 -0.6769  0.1509
 4359TIP3   OH234491   1.154   0.865   5.011 -0.1150  0.4643 -0.1422
 4359TIP3    H134492   1.179   0.956   4.996 -0.1270  0.1782 -2.2069
 4359TIP3    H234493   1.145   0.828   4.923 -2.4099 -0.9198  0.5832
 4360TIP3   OH234494   0.861   2.483  14.936  0.7642 -0.2493 -0.3270
 4360TIP3    H134495   0.933   2.523  14.888  2.1422 -1.8785  0.2879
 4360TIP3    H234496   0.853   2.534  15.016  1.0504  0.0976 -0.5213
 4361TIP3   OH234497   2.676   6.619  16.463  0.1833 -0.3236 -0.4121
 4361TIP3    H134498   2.656   6.531  16.497 -1.2224  0.3435  0.5711
 4361TIP3    H234499   2.663   6.677  16.537  4.3096  0.4771 -0.0885
 4362TIP3   OH234500   4.020   2.060  11.710 -0.1912 -0.3172  0.1555
 4362TIP3    H134501   4.033   2.047  11.804 -0.3540  0.0659  0.2310
 4362TIP3    H234502   4.035   1.974  11.672 -0.2887 -0.5105  0.5497
 4363TIP3   OH234503   5.060   5.643  10.755 -0.2621 -0.1563 -0.4714
 4363TIP3    H134504   5.043   5.581  10.826 -1.5525  0.7764  0.0589
 4363TIP3    H234505   5.042   5.729  10.793 -2.0019  0.3058 -2.1855
 4364TIP3   OH234506   1.393   2.758  15.550  0.3244  0.0593 -0.2632
 4364TIP3    H134507   1.316   2.781  15.497  0.0706 -0.0335  0.0638
 4364TIP3    H234508   1.466   2.760  15.488 -0.0162 -0.3549 -0.6871
 4365TIP3   OH234509   3.525   2.647  13.030  0.2679  0.7014 -0.0752
 4365TIP3    H134510   3.564   2.630  13.116  0.7826  2.5592  0.1103
 4365TIP3    H234511   3.561   2.579  12.973  1.3692  0.5320  0.7884
 4366TIP3   OH234512   3.035   4.412  11.812  0.4594  0.2045  0.3005
 4366TIP3    H134513   3.117   4.460  11.799  0.6543  0.0388  0.8649
 4366TIP3    H234514   3.033   4.395  11.906 -0.3810  0.4824  0.3404
 4367TIP3   OH234515   6.177   5.697   3.553 -0.0356  0.4125  0.3814
 4367TIP3    H134516   6.221   5.612   3.548 -2.9792 -1.2517  0.3207
 4367TIP3    H234517   6.163   5.723   3.462 -1.8022 -0.6324  0.3050
 4368TIP3   OH234518   4.791   2.249   5.686 -0.0125  0.0844 -0.1230
 4368TIP3    H134519   4.789   2.334   5.641 -2.4561  0.7092  0.9752
 4368TIP3    H234520   4.763   2.269   5.775  0.1974 -1.7788  0.3968
 4369TIP3   OH234521   4.708   4.484   4.011  0.0667 -0.0420  0.2896
 4369TIP3    H134522   4.711   4.453   3.921  2.9312  1.2949 -0.1790
 4369TIP3    H234523   4.741   4.410   4.063 -0.0105 -0.2431  0.0505
 4370TIP3   OH234524   1.268   6.526   4.639 -0.0020  0.5992  0.0236
 4370TIP3    H134525   1.333   6.457   4.630  0.3486  1.1862 -4.2517
 4370TIP3    H234526   1.185   6.486   4.612 -0.4846  1.0303  0.8135
 4371TIP3   OH234527   3.572   2.864   4.312  0.5794 -0.3948  0.0050
 4371TIP3    H134528   3.567   2.789   4.253  3.3468  0.2662 -1.2522
 4371TIP3    H234529   3.537   2.937   4.261  1.1654 -0.1995 -0.1328
 4372TIP3   OH234530   5.682   2.081   1.902  0.5523  0.0002 -0.2570
 4372TIP3    H134531   5.719   2.089   1.990 -1.4356  0.8627  0.5683
 4372TIP3    H234532   5.593   2.048   1.917 -0.1190  0.9525 -1.8624
 4373TIP3   OH234533   4.816   4.913  13.798  0.4921  0.0153 -0.1389
 4373TIP3    H134534   4.837   4.977  13.866 -0.3620 -0.0211  0.1716
 4373TIP3    H234535   4.900   4.895  13.756  1.0935 -0.1496  1.0654
 4374TIP3   OH234536   5.154   0.303   4.228  0.3684  0.1049 -0.6291
 4374TIP3    H134537   5.097   0.375   4.254  1.8940  0.6759  1.3342
 4374TIP3    H234538   5.242   0.338   4.232  1.1141 -1.6727 -0.2929
 4375TIP3   OH234539   0.647   2.717  14.988  0.3008  0.4560 -0.1382
 4375TIP3    H134540   0.672   2.730  15.079  0.6940  0.1175 -0.1978
 4375TIP3    H234541   0.557   2.683  14.992 -0.2571  1.8641  0.0696
 4376TIP3   OH234542   0.178   1.300  17.136  0.5434  0.7148  0.0573
 4376TIP3    H134543   0.100   1.318  17.189  0.2007 -1.6383  0.4638
 4376TIP3    H234544   0.148   1.309  17.046 -0.8353 -2.0783  0.1375
 4377TIP3   OH234545   4.988   2.443   3.116  0.1619 -0.2930  0.1195
 4377TIP3    H134546   5.079   2.421   3.097  0.5782 -0.6904  2.3102
 4377TIP3    H234547   4.978   2.428   3.210 -1.4948  2.1091  0.4404
 4378TIP3   OH234548   1.123   0.396   5.199 -0.6019 -0.4065  0.2197
 4378TIP3    H134549   1.053   0.356   5.148  0.4191  0.2554 -1.7986
 4378TIP3    H234550   1.110   0.490   5.188 -0.1266 -0.2532  0.8865
 4379TIP3   OH234551   2.183   0.500  16.814  0.2761 -0.3931 -0.4240
 4379TIP3    H134552   2.206   0.458  16.898  2.5198 -0.3634 -0.9635
 4379TIP3    H234553   2.103   0.455  16.787 -0.0313 -1.0022  1.3138
 4380TIP3   OH234554   0.444   2.741  11.147  0.0099 -0.5448 -0.3459
 4380TIP3    H134555   0.451   2.781  11.233  1.1828 -2.6315  0.6131
 4380TIP3    H234556   0.387   2.665  11.161  0.8394 -1.3557 -1.2166
 4381TIP3   OH234557   3.654   5.714  16.195  0.1369 -0.6122 -0.6940
 4381TIP3    H134558   3.668   5.794  16.145  1.4225 -0.7231 -0.5337
 4381TIP3    H234559   3.732   5.661  16.179  0.2822 -0.9331  0.8785
 4382TIP3   OH234560   0.489   5.545   5.135 -0.1101 -0.2844  0.2675
 4382TIP3    H134561   0.522   5.625   5.094 -1.6294 -0.3687 -1.2109
 4382TIP3    H234562   0.401   5.568   5.164  0.2099 -0.8313  1.7823
 4383TIP3   OH234563   2.906   1.151   0.754  0.0940 -0.4453  0.0779
 4383TIP3    H134564   2.854   1.138   0.675 -0.9307  0.7864  0.5098
 4383TIP3    H234565   2.966   1.221   0.731 -0.2470 -0.0439  0.3960
 4384TIP3   OH234566   4.780   6.476  17.140 -0.3772 -0.3328 -0.2004
 4384TIP3    H134567   4.859   6.528  17.156 -0.2448 -0.4346 -0.5134
 4384TIP3    H234568   4.743   6.513  17.060 -0.0413 -0.9969 -0.6766
 4385TIP3   OH234569   1.680   1.531  10.592 -0.0781  0.3526  0.5028
 4385TIP3    H134570   1.766   1.565  10.568  0.2180 -0.9125 -0.2845
 4385TIP3    H234571   1.628   1.609  10.611  0.5818  1.2549 -1.2558
 4386TIP3   OH234572   2.976   4.227   5.928  0.4188  0.6458 -0.0258
 4386TIP3    H134573   3.064   4.207   5.961  0.6642 -1.5471 -1.7597
 4386TIP3    H234574   2.966   4.170   5.852 -3.1368 -0.3978  1.0588
 4387TIP3   OH234575   2.375   6.726  12.804  0.1210  0.3218  0.1832
 4387TIP3    H134576   2.422   6.659  12.854 -0.3100 -1.2977 -1.4729
 4387TIP3    H234577   2.294   6.683  12.777 -0.7875  1.9793  0.1962
 4388TIP3   OH234578   4.941   2.852  13.316  0.0051 -0.3596  0.3988
 4388TIP3    H134579   4.949   2.811  13.231  1.1045 -1.4202  0.9824
 4388TIP3    H234580   4.924   2.945  13.297  2.0136 -0.2270 -0.9978
 4389TIP3   OH234581   3.526   4.486   5.885 -0.5096 -0.3202 -0.0163
 4389TIP3    H134582   3.560   4.471   5.797 -0.1175 -0.8611  0.2262
 4389TIP3    H234583   3.593   4.538   5.928  0.1198 -1.5351  0.5182
 4390TIP3   OH234584   1.761   0.918  11.770  0.0932  0.1284 -0.4490
 4390TIP3    H134585   1.673   0.944  11.796  0.8695  0.0396  2.6555
 4390TIP3    H234586   1.811   1.000  11.768  0.0468  0.1510 -1.9680
 4391TIP3   OH234587   5.155   5.224  16.726 -0.5022  0.2771  0.0753
 4391TIP3    H134588   5.201   5.258  16.803 -1.7668  0.9369  0.5836
 4391TIP3    H234589   5.160   5.129  16.735  0.5360  0.3360  0.2355
 4392TIP3   OH234590   0.642   5.062  14.570  0.1382  0.6430 -0.1024
 4392TIP3    H134591   0.612   4.976  14.539  0.3080  1.1330 -1.7357
 4392TIP3    H234592   0.686   5.044  14.653 -2.4284 -0.4317  1.1295
 4393TIP3   OH234593   1.024   6.568  14.223  0.3858 -0.2076  0.6205
 4393TIP3    H134594   1.118   6.576  14.236  0.3784 -1.2907  1.5015
 4393TIP3    H234595   1.014   6.503  14.154  0.2922 -0.0413  0.4781
 4394TIP3   OH234596   3.158   2.065   1.588  0.6676  0.0813 -0.0132
 4394TIP3    H134597   3.160   1.984   1.537 -2.1926 -0.1240  0.0795
 4394TIP3    H234598   3.159   2.134   1.522  1.2144 -0.0665 -0.1652
 4395TIP3   OH234599   3.706   2.830  15.886 -0.0935 -0.3645  0.1247
 4395TIP3    H134600   3.657   2.769  15.830 -2.3282  0.1560  1.4132
 4395TIP3    H234601   3.759   2.773  15.942 -0.8846 -1.0456  0.1973
 4396TIP3   OH234602   6.504   3.610  14.666  0.0402  0.1863  0.0876
 4396TIP3    H134603   6.456   3.544  14.616 -0.0097 -0.1483  0.5646
 4396TIP3    H234604   6.528   3.565  14.747  0.4358  0.6076  0.2067
 4397TIP3   OH234605   6.581   6.048  15.305 -0.1102 -0.0642 -0.0620
 4397TIP3    H134606   6.509   5.998  15.343 -0.3242 -0.8411 -1.4338
 4397TIP3    H234607   6.540   6.129  15.275 -0.3757 -0.4055 -0.6295
 4398TIP3   OH234608   4.630   3.475  16.675 -0.1309  0.1553  0.3416
 4398TIP3    H134609   4.659   3.547  16.731  0.1085  0.1113  0.2740
 4398TIP3    H234610   4.589   3.518  16.600  0.5914  0.2390 -0.0151
 4399TIP3   OH234611   5.841   0.106  15.260 -0.1396 -0.1890  0.3596
 4399TIP3    H134612   5.841   0.032  15.320 -1.5404  0.1948  0.8840
 4399TIP3    H234613   5.774   0.165  15.295  2.4974  2.5087  1.3816
 4400TIP3   OH234614   4.907   0.024   5.125 -0.7759  0.1926 -0.3690
 4400TIP3    H134615   4.864  -0.043   5.178  2.0183 -0.8358  0.7531
 4400TIP3    H234616   4.916  -0.016   5.038  0.2680 -0.6622  0.1134
 4401TIP3   OH234617   2.374   5.744   3.449 -0.1008 -0.2120 -1.0363
 4401TIP3    H134618   2.352   5.835   3.428 -0.5917 -0.0863 -0.0316
 4401TIP3    H234619   2.432   5.750   3.524  1.1309 -0.6815 -1.9303
 4402TIP3   OH234620   3.474   2.757  17.131 -0.0858 -0.3766 -0.1371
 4402TIP3    H134621   3.464   2.758  17.035  1.6354 -1.1956 -0.3662
 4402TIP3    H234622   3.398   2.709  17.162  0.4546 -2.1311 -1.3254
 4403TIP3   OH234623   5.295   1.980   4.389 -0.2013 -0.1028  0.3367
 4403TIP3    H134624   5.325   1.889   4.392  1.7034  0.4848  0.4867
 4403TIP3    H234625   5.324   2.017   4.473  0.5207  1.0447 -0.3925
 4404TIP3   OH234626   6.295   1.173  14.506 -0.0025  0.1296  0.3224
 4404TIP3    H134627   6.379   1.152  14.547  0.2542  0.2305 -0.1497
 4404TIP3    H234628   6.231   1.163  14.576  0.6272  2.0020  1.2476
 4405TIP3   OH234629   1.411   0.085   0.522  0.4010  0.0217 -0.2376
 4405TIP3    H134630   1.417   0.127   0.436 -0.1851  1.0323  0.1862
 4405TIP3    H234631   1.347   0.015   0.510  0.7200 -0.1844 -0.7526
 4406TIP3   OH234632   5.450   2.407   1.513 -0.1812 -0.1597 -0.6536
 4406TIP3    H134633   5.488   2.388   1.599  0.4930  1.0022 -0.6774
 4406TIP3    H234634   5.444   2.321   1.470  0.6367 -0.6018  0.0810
 4407TIP3   OH234635   4.436   0.066  13.775  0.3525 -0.6546  0.0138
 4407TIP3    H134636   4.437   0.162  13.775 -0.2929 -0.6425 -0.5999
 4407TIP3    H234637   4.465   0.041  13.688 -1.4378 -0.9713 -0.5240
 4408TIP3   OH234638   1.344   0.146   5.336  0.1511  0.2037 -0.0053
 4408TIP3    H134639   1.360   0.240   5.333 -2.0025  0.5983 -0.6423
 4408TIP3    H234640   1.329   0.121   5.245  0.8898 -0.8301  0.1251
 4409TIP3   OH234641   6.680   6.125   3.775  0.2842 -0.5557 -0.4785
 4409TIP3    H134642   6.721   6.045   3.743  0.7444 -0.9724  1.0672
 4409TIP3    H234643   6.600   6.097   3.818  0.1116 -0.1119 -0.5005
 4410TIP3   OH234644   6.336   4.286   3.880  0.0613  0.3929  0.1073
 4410TIP3    H134645   6.372   4.243   3.803 -1.7496  1.3685 -1.3663
 4410TIP3    H234646   6.252   4.242   3.895 -0.1482  1.0070  0.7869
 4411TIP3   OH234647   4.888   2.121   4.887 -0.6789  0.3061  0.4628
 4411TIP3    H134648   4.835   2.154   4.814 -0.1538  1.4622  0.5773
 4411TIP3    H234649   4.882   2.026   4.881 -2.4919  0.3992  0.2733
 4412TIP3   OH234650   2.416   3.375  11.317  0.2475  0.5674 -0.7474
 4412TIP3    H134651   2.337   3.350  11.367  0.8237 -0.0814 -0.1290
 4412TIP3    H234652   2.405   3.331  11.233  0.0236  0.3262 -0.5969
 4413TIP3   OH234653   3.270   3.341  15.819 -0.0680  0.0324 -0.7728
 4413TIP3    H134654   3.279   3.246  15.826  1.6478  0.2225  0.1064
 4413TIP3    H234655   3.349   3.369  15.772 -0.7994  0.9917 -1.4649
 4414TIP3   OH234656   2.154   3.385  12.689  0.3912  0.0521 -0.1997
 4414TIP3    H134657   2.091   3.394  12.618 -1.7936 -1.3939  1.4270
 4414TIP3    H234658   2.112   3.426  12.764  1.2589 -1.1854  1.0191
 4415TIP3   OH234659   2.659   4.615   4.384  0.0644 -0.0886  0.3240
 4415TIP3    H134660   2.600   4.672   4.334  0.4346 -1.4361 -1.7934
 4415TIP3    H234661   2.601   4.550   4.424 -0.1855  0.7070  1.3077
 4416TIP3   OH234662   1.909   2.529  16.848  0.3075  0.3174  0.3792
 4416TIP3    H134663   2.001   2.556  16.853  0.5676 -0.5436  0.4088
 4416TIP3    H234664   1.911   2.435  16.863 -0.5919  0.2988  0.4320
 4417TIP3   OH234665   3.238   0.817  11.732  0.0643  0.2386  0.6543
 4417TIP3    H134666   3.307   0.756  11.756  0.2782  0.0360 -0.4530
 4417TIP3    H234667   3.264   0.900  11.774  0.1446 -0.2235  1.5508
 4418TIP3   OH234668   2.078   1.516  17.372 -0.0969  0.1709  1.1049
 4418TIP3    H134669   2.151   1.455  17.374  2.1930  2.5865 -1.0725
 4418TIP3    H234670   2.001   1.461  17.360  1.7098 -2.3528  0.1959
 4419TIP3   OH234671   6.458   3.396  16.260  0.2368 -0.0239 -0.0520
 4419TIP3    H134672   6.386   3.346  16.297  0.1062 -1.2257 -1.8279
 4419TIP3    H234673   6.532   3.378  16.319 -0.3858 -0.4161  0.6293
 4420TIP3   OH234674   5.147   6.366  14.588 -0.2539 -0.4878 -0.1639
 4420TIP3    H134675   5.144   6.356  14.683 -0.3067  1.9470  0.1525
 4420TIP3    H234676   5.056   6.368  14.561 -0.2875  0.3631 -0.0306
 4421TIP3   OH234677   4.369   5.792  14.182 -0.3046  0.2404 -0.5003
 4421TIP3    H134678   4.417   5.795  14.265  0.0593  0.5547 -0.7182
 4421TIP3    H234679   4.438   5.796  14.115 -0.6339  0.6508 -0.8149
 4422TIP3   OH234680   5.434   4.677  14.275  0.1355  0.1380  0.0764
 4422TIP3    H134681   5.367   4.658  14.209  0.3231 -0.4208  0.0409
 4422TIP3    H234682   5.412   4.620  14.348  0.3193  0.2749  0.2376
 4423TIP3   OH234683   4.776   1.803   2.419 -0.6943 -0.3821  0.1745
 4423TIP3    H134684   4.725   1.783   2.497 -1.0382 -1.5280 -0.3195
 4423TIP3    H234685   4.721   1.863   2.369 -1.3668 -1.2162 -0.1175
 4424TIP3   OH234686   2.055   1.866  11.845  0.0968  0.5312  0.0039
 4424TIP3    H134687   2.033   1.835  11.757  1.1662  0.2972 -0.2019
 4424TIP3    H234688   2.052   1.962  11.838 -1.4899  0.5144  0.1786
 4425TIP3   OH234689   0.847   1.943  16.886 -0.4570 -0.3487  0.1893
 4425TIP3    H134690   0.815   1.859  16.919 -0.9719 -0.0007  0.6000
 4425TIP3    H234691   0.838   2.002  16.961  0.7291 -0.1309  0.1754
 4426TIP3   OH234692   5.904   2.801   1.351 -0.3087 -0.8057  0.0016
 4426TIP3    H134693   5.988   2.761   1.329 -0.2331 -0.1895 -0.8742
 4426TIP3    H234694   5.928   2.880   1.400 -0.4262 -1.2658  0.8202
 4427TIP3   OH234695   1.034   1.704  14.270 -0.5598 -0.2488  0.7417
 4427TIP3    H134696   1.060   1.634  14.329 -0.6007  0.7946  2.0711
 4427TIP3    H234697   0.940   1.714  14.285 -0.5876 -0.0262  0.4355
 4428TIP3   OH234698   3.917   5.758  12.275 -0.6167 -0.4020  0.3517
 4428TIP3    H134699   3.872   5.735  12.193 -1.5874 -1.0994  1.0621
 4428TIP3    H234700   3.929   5.674  12.319  0.3703 -0.0867  0.7027
 4429TIP3   OH234701   6.677   1.694   4.335 -0.4353 -0.6863 -0.2586
 4429TIP3    H134702   6.759   1.742   4.346 -0.8189  0.3604 -1.6490
 4429TIP3    H234703   6.613   1.744   4.387 -0.2396 -1.4096  0.6942
 4430TIP3   OH234704   3.879   5.859  13.361 -0.6837 -0.6942  0.0577
 4430TIP3    H134705   3.841   5.936  13.404 -2.8427 -0.4074 -2.1851
 4430TIP3    H234706   3.965   5.889  13.332 -0.9309  0.4293  0.4168
 4431TIP3   OH234707   6.147   1.175   4.192 -0.0324  0.5959  0.5180
 4431TIP3    H134708   6.134   1.116   4.118 -0.1383 -0.4362  1.3317
 4431TIP3    H234709   6.080   1.149   4.256  0.0232  1.4949  0.9563
 4432TIP3   OH234710   3.061   0.749   4.707 -0.4226  0.6595  0.2220
 4432TIP3    H134711   3.027   0.762   4.619 -1.1032  1.0585  0.5407
 4432TIP3    H234712   2.985   0.757   4.764 -0.0339  0.1466  0.8288
 4433TIP3   OH234713   6.301   2.999  15.171 -0.1451 -0.7830 -0.0003
 4433TIP3    H134714   6.355   2.955  15.237  1.0498  0.3793 -0.1434
 4433TIP3    H234715   6.301   2.939  15.097  1.2437 -0.7044 -0.1035
 4434TIP3   OH234716   5.774   1.375   2.936 -0.1410  0.7267 -0.1632
 4434TIP3    H134717   5.749   1.311   2.869  0.9296  0.8173 -0.6660
 4434TIP3    H234718   5.751   1.459   2.898  2.5180  0.9788 -1.4630
 4435TIP3   OH234719   2.120   6.675   1.347  0.2158  0.1501 -0.5877
 4435TIP3    H134720   2.077   6.760   1.357  0.4125  0.0768  1.1129
 4435TIP3    H234721   2.093   6.645   1.260  0.6252  2.1985 -1.4873
 4436TIP3   OH234722   6.655   4.889   4.168 -0.5012  0.0680  0.1669
 4436TIP3    H134723   6.656   4.965   4.226  0.1462  1.2702 -1.3464
 4436TIP3    H234724   6.571   4.846   4.185 -0.1191  0.0973  2.2928
 4437TIP3   OH234725   2.459   1.051  14.182 -0.4002  0.1250  0.1366
 4437TIP3    H134726   2.553   1.066  14.189 -0.3884  0.0830  0.0753
 4437TIP3    H234727   2.441   1.053  14.088 -0.6327  1.1495  0.1955
 4438TIP3   OH234728   5.790   0.664  17.161 -0.7115  0.1025 -0.1349
 4438TIP3    H134729   5.769   0.743  17.211 -2.9453  0.2309 -1.1743
 4438TIP3    H234730   5.882   0.676  17.135 -0.7090  1.8752  0.5542
 4439TIP3   OH234731   1.841   6.271  13.034 -0.0301 -0.5732 -0.0198
 4439TIP3    H134732   1.784   6.215  13.087 -0.4048 -0.5020 -0.3355
 4439TIP3    H234733   1.923   6.276  13.082 -0.5607 -0.0231  0.8625
 4440TIP3   OH234734   3.363   3.099  14.842  0.6685 -0.1715  0.2156
 4440TIP3    H134735   3.307   3.022  14.859 -0.2743  0.6722  1.1069
 4440TIP3    H234736   3.422   3.071  14.772 -0.0449 -1.5142  0.1141
 4441TIP3   OH234737   1.859   0.756  16.766 -0.1162  0.2805  0.1772
 4441TIP3    H134738   1.939   0.763  16.818  1.0659  1.3854 -1.6840
 4441TIP3    H234739   1.804   0.828  16.797 -0.3541 -0.3813  1.3475
 4442TIP3   OH234740   1.699   6.413   6.044 -0.1557  0.3737 -0.7680
 4442TIP3    H134741   1.648   6.394   6.123 -0.4372 -1.6451 -1.3730
 4442TIP3    H234742   1.634   6.436   5.978 -0.0522  0.5449 -0.8111
 4443TIP3   OH234743   0.313   3.260  15.082  0.9012  0.0751 -0.3221
 4443TIP3    H134744   0.362   3.288  15.005 -1.8329  0.2027 -2.1736
 4443TIP3    H234745   0.265   3.338  15.110 -0.1501 -0.6101 -0.1485
 4444TIP3   OH234746   1.961   0.451  13.531  0.1685  0.2663 -0.0698
 4444TIP3    H134747   1.935   0.409  13.613  1.2978 -0.2717  0.0370
 4444TIP3    H234748   1.903   0.526  13.523 -2.5540 -1.7502 -0.7095
 4445TIP3   OH234749   0.512   2.004   1.575  0.5434  0.3938  0.3875
 4445TIP3    H134750   0.557   1.928   1.538 -1.4436 -0.1417 -1.1116
 4445TIP3    H234751   0.541   2.078   1.520  0.3373  0.2137  0.0307
 4446TIP3   OH234752   5.667   6.171  12.094 -0.2709  0.4653 -0.0618
 4446TIP3    H134753   5.653   6.248  12.150 -1.0599  1.3733 -1.4332
 4446TIP3    H234754   5.626   6.195  12.011 -0.5161 -1.4623 -0.5329
 4447TIP3   OH234755   5.140   2.491  15.206 -0.1445 -0.5489  0.4963
 4447TIP3    H134756   5.152   2.550  15.280  2.9374 -1.2588  0.7120
 4447TIP3    H234757   5.093   2.416  15.242  3.1347 -1.8674  2.4720
 4448TIP3   OH234758   2.000   5.148  17.035  0.6410 -0.1663 -0.4316
 4448TIP3    H134759   2.068   5.093  17.074 -1.1213 -1.5119  0.9454
 4448TIP3    H234760   1.929   5.087  17.016  0.5818  0.7590 -4.0065
 4449TIP3   OH234761   3.121   2.619   1.859  0.1043 -0.2651  0.2877
 4449TIP3    H134762   3.029   2.646   1.858  0.0125 -0.5610  0.3831
 4449TIP3    H234763   3.171   2.700   1.862 -0.1343 -0.0748 -0.7096
 4450TIP3   OH234764   6.635   5.435  15.446 -0.5653 -0.2138  0.3969
 4450TIP3    H134765   6.545   5.452  15.475 -1.4912 -0.8889 -1.8794
 4450TIP3    H234766   6.631   5.440  15.351  2.2256  1.5120  0.2580
 4451TIP3   OH234767   1.800   5.583  10.539  0.1124 -0.1039 -0.1299
 4451TIP3    H134768   1.726   5.607  10.483 -0.9187  1.0292  1.6160
 4451TIP3    H234769   1.863   5.655  10.529 -0.0798  0.1074  0.1675
 4452TIP3   OH234770   5.447   2.461  15.281 -0.0574 -0.9699 -0.2738
 4452TIP3    H134771   5.536   2.484  15.306 -0.7192  0.6871  0.6650
 4452TIP3    H234772   5.395   2.472  15.361 -1.4174 -0.0673 -1.2327
 4453TIP3   OH234773   0.048   1.400  14.094 -0.2668 -0.3197 -0.2927
 4453TIP3    H134774   0.014   1.371  14.009 -1.0182 -0.3576  0.0093
 4453TIP3    H234775  -0.016   1.465  14.123 -0.1238 -0.4615  0.3404
 4454TIP3   OH234776   3.818   0.012  15.044 -0.2522 -0.5153 -0.2165
 4454TIP3    H134777   3.730   0.026  15.080 -0.5499 -0.3493 -0.9894
 4454TIP3    H234778   3.861   0.096  15.052 -0.5015 -0.3345 -0.7264
 4455TIP3   OH234779   6.681   4.770   2.997 -0.1635 -0.0646  0.0922
 4455TIP3    H134780   6.755   4.797   3.052 -1.0511  0.5382  1.0471
 4455TIP3    H234781   6.700   4.680   2.973  1.2527  0.3286 -0.3299
 4456TIP3   OH234782   6.462   2.108  15.148 -0.1700 -0.5822  0.1807
 4456TIP3    H134783   6.530   2.149  15.095  0.3533 -1.3414  0.2606
 4456TIP3    H234784   6.383   2.113  15.093  0.2794 -1.0187 -0.5282
 4457TIP3   OH234785   4.224   6.365  13.472 -0.2357  0.3170  0.4841
 4457TIP3    H134786   4.184   6.337  13.389  0.5445  0.7362 -0.0439
 4457TIP3    H234787   4.301   6.415  13.446 -0.1344  0.6945  1.4664
 4458TIP3   OH234788   0.765   5.229   3.331 -0.3189  0.4587  0.4358
 4458TIP3    H134789   0.826   5.260   3.397 -0.7154 -0.1892  1.1190
 4458TIP3    H234790   0.802   5.145   3.302 -0.9231  0.0099  0.9317
 4459TIP3   OH234791   0.218   1.658   0.665  0.2650 -0.4298  0.1030
 4459TIP3    H134792   0.253   1.747   0.673 -0.7837  0.0760 -0.6954
 4459TIP3    H234793   0.259   1.609   0.737  0.6396  0.7667  0.7230
 4460TIP3   OH234794   1.391   3.510   6.186  0.0353 -0.3574  0.3461
 4460TIP3    H134795   1.364   3.579   6.125 -2.7075 -2.1016 -0.6029
 4460TIP3    H234796   1.481   3.489   6.159  0.1671  1.3441 -0.7370
 4461TIP3   OH234797   5.585   5.100   5.243 -0.5329  0.0581 -0.0111
 4461TIP3    H134798   5.671   5.092   5.200  0.7262  1.0205  2.1470
 4461TIP3    H234799   5.555   5.187   5.220 -0.2935  0.2154  0.2519
 4462TIP3   OH234800   2.438   5.157  16.189  0.2916  0.2198  0.1884
 4462TIP3    H134801   2.448   5.250  16.171 -0.4240  0.3214  0.2752
 4462TIP3    H234802   2.496   5.113  16.126 -1.3077  0.6061 -1.6483
 4463TIP3   OH234803   6.170   3.185   5.954 -0.1761  0.2642 -0.2069
 4463TIP3    H134804   6.245   3.195   6.013  0.9047 -0.5457 -1.3922
 4463TIP3    H234805   6.160   3.270   5.912  0.2847  0.2818 -0.2793
 4464TIP3   OH234806   4.093   4.220   1.245 -0.4191 -0.1357  0.0580
 4464TIP3    H134807   3.998   4.222   1.239 -0.3644  0.8067 -0.7266
 4464TIP3    H234808   4.116   4.127   1.240 -1.2629 -0.3337 -0.2505
 4465TIP3   OH234809   6.601   1.699   5.397 -0.5069  0.2675 -0.3464
 4465TIP3    H134810   6.649   1.690   5.479 -1.9186  0.0273  0.4890
 4465TIP3    H234811   6.662   1.670   5.329  0.6992  0.5144  0.6050
 4466TIP3   OH234812   5.920   2.678   1.013 -0.1391  0.0162  0.0485
 4466TIP3    H134813   5.962   2.763   1.004  0.6883 -0.4035 -0.1952
 4466TIP3    H234814   5.924   2.639   0.926 -1.7559  0.2710 -0.1694
 4467TIP3   OH234815   1.223   1.311  15.199 -0.2971 -0.0086 -0.5336
 4467TIP3    H134816   1.158   1.283  15.134 -2.0155  0.7207  0.7987
 4467TIP3    H234817   1.188   1.281  15.283  0.4546  1.5207  0.3619
 4468TIP3   OH234818   1.773   1.622   6.612 -0.3118  0.1927  0.1472
 4468TIP3    H134819   1.795   1.654   6.700  0.4306 -2.3546  0.9746
 4468TIP3    H234820   1.856   1.627   6.564 -0.7383  1.6743 -0.4922
 4469TIP3   OH234821   6.200   1.434   5.332 -0.3868 -0.3658  0.2519
 4469TIP3    H134822   6.190   1.426   5.427 -1.6634  0.2596  0.1904
 4469TIP3    H234823   6.294   1.434   5.318 -0.1582  0.4116  1.6038
 4470TIP3   OH234824   4.886   1.113   5.131  0.2823  0.6421  0.4291
 4470TIP3    H134825   4.942   1.058   5.186 -0.0033  0.1046  0.1931
 4470TIP3    H234826   4.918   1.098   5.042 -0.7886 -0.3756  0.1869
 4471TIP3   OH234827   4.690   6.070   4.042 -0.5576 -0.7291 -0.2281
 4471TIP3    H134828   4.757   6.017   4.085  0.3036 -0.2827 -1.0008
 4471TIP3    H234829   4.680   6.147   4.099 -0.7021 -0.9774  0.0869
 4472TIP3   OH234830   4.296   4.347   0.479  0.2620 -0.3461 -0.6394
 4472TIP3    H134831   4.213   4.315   0.446  0.6743 -1.3440 -0.7496
 4472TIP3    H234832   4.315   4.425   0.426 -0.6515 -0.0324 -0.5184
 4473TIP3   OH234833   0.951   1.848   3.392  0.4549 -0.0421 -1.0092
 4473TIP3    H134834   1.033   1.839   3.344  0.5046 -1.4514 -0.7223
 4473TIP3    H234835   0.889   1.881   3.327  0.9348 -0.2540 -1.5853
 4474TIP3   OH234836   5.956   5.976  15.007  0.0859  0.1442 -0.1766
 4474TIP3    H134837   5.922   6.039  15.069 -0.5077  0.3179 -0.6640
 4474TIP3    H234838   6.019   5.923  15.057 -0.8751 -0.1644  0.7395
 4475TIP3   OH234839   3.343   2.680   6.059 -0.0316 -0.1392 -0.2239
 4475TIP3    H134840   3.361   2.774   6.053  0.5114 -0.2281 -0.0503
 4475TIP3    H234841   3.391   2.651   6.137 -0.6203 -0.4629  0.0296
 4476TIP3   OH234842   1.177   2.971  17.093 -0.1255 -0.0046 -0.7327
 4476TIP3    H134843   1.088   2.985  17.124  0.0683  0.3868 -0.3443
 4476TIP3    H234844   1.212   2.903  17.151  0.5965  1.4771  0.6638
 4477TIP3   OH234845   3.031   1.897  14.340  0.3094 -0.5294  0.1629
 4477TIP3    H134846   3.060   1.922  14.253  1.9962  0.9057  1.0556
 4477TIP3    H234847   3.097   1.834  14.370  0.9584  0.5758  1.1449
 4478TIP3   OH234848   6.256   2.650   6.147 -0.4176 -0.0066 -0.0611
 4478TIP3    H134849   6.237   2.650   6.053 -0.7943 -0.4145  0.0134
 4478TIP3    H234850   6.352   2.653   6.151 -0.3674  3.6999 -0.4339
 4479TIP3   OH234851   5.670   2.713   1.879 -0.8732 -0.2301 -0.3197
 4479TIP3    H134852   5.688   2.647   1.946  0.5712 -0.4303 -0.8955
 4479TIP3    H234853   5.591   2.682   1.836 -0.7090 -1.1147 -0.0008
 4480TIP3   OH234854   4.848   0.163   5.505 -0.0835  0.2381 -0.1597
 4480TIP3    H134855   4.939   0.158   5.477  0.0679 -0.0830  0.3848
 4480TIP3    H234856   4.841   0.102   5.579 -0.4008  1.2610  0.6867
 4481TIP3   OH234857   3.843   1.547   4.939 -0.0109  0.1156  0.3971
 4481TIP3    H134858   3.886   1.536   5.023 -1.5883  1.3026  1.4317
 4481TIP3    H234859   3.754   1.574   4.961 -0.3269  0.9665 -1.6565
 4482TIP3   OH234860   4.871   4.532  15.080  0.6457  0.2482 -0.1454
 4482TIP3    H134861   4.880   4.587  15.001 -0.4462  3.6145  1.8429
 4482TIP3    H234862   4.954   4.541  15.125  0.1944  1.0093  0.5699
 4483TIP3   OH234863   6.314   5.497   3.005  0.3454 -0.4057  0.0797
 4483TIP3    H134864   6.266   5.500   3.088 -0.0118  0.6533 -0.1569
 4483TIP3    H234865   6.405   5.478   3.031  0.0431 -1.1591  0.6187
 4484TIP3   OH234866   3.952   5.799  16.372 -0.2108  0.1112  0.0941
 4484TIP3    H134867   3.857   5.807  16.363 -0.3130  0.5149  1.3868
 4484TIP3    H234868   3.965   5.716  16.417  0.1794 -0.8572 -1.6925
 4485TIP3   OH234869   6.160   0.123   1.166  0.3602  0.4223  0.6488
 4485TIP3    H134870   6.073   0.100   1.133  0.6935 -0.7759  0.5541
 4485TIP3    H234871   6.148   0.209   1.206 -0.7291  0.5498  0.0955
 4486TIP3   OH234872   5.780   0.813   2.468 -0.2162 -0.3586  0.3428
 4486TIP3    H134873   5.702   0.847   2.423  0.8921  1.0398 -0.6173
 4486TIP3    H234874   5.794   0.727   2.428 -2.2936 -1.4836  1.8487
 4487TIP3   OH234875   5.683   0.320  15.611  0.0631  0.2762 -0.4970
 4487TIP3    H134876   5.751   0.355  15.669 -1.3861  4.7255 -1.0744
 4487TIP3    H234877   5.611   0.297  15.670  0.6809 -0.9066 -0.1752
 4488TIP3   OH234878   2.023   4.474   6.238 -0.3595 -0.2540  0.4141
 4488TIP3    H134879   2.098   4.533   6.248  0.1168 -0.9842  1.3705
 4488TIP3    H234880   2.015   4.431   6.324 -2.9491  1.0145  0.8985
 4489TIP3   OH234881   3.932   4.136   5.517  0.2914  0.0883 -0.4467
 4489TIP3    H134882   3.841   4.106   5.517  0.7982 -1.7413 -2.7308
 4489TIP3    H234883   3.982   4.058   5.493  2.3276  1.4369 -0.7372
 4490TIP3   OH234884   2.782   1.523   4.045  0.3331  0.2235 -0.4834
 4490TIP3    H134885   2.723   1.598   4.046  0.4401  0.3029  0.1938
 4490TIP3    H234886   2.849   1.547   3.980  1.4029  1.5487  1.0254
 4491TIP3   OH234887   6.082   4.882  13.174  0.4213 -0.1078 -0.3009
 4491TIP3    H134888   6.071   4.808  13.233  0.7476 -0.9118 -1.2256
 4491TIP3    H234889   6.047   4.957  13.223  2.9374 -0.2520  1.9158
 4492TIP3   OH234890   3.697   5.912   0.855 -0.2337 -0.5458  0.3334
 4492TIP3    H134891   3.671   6.001   0.831 -0.3832 -1.0120 -1.3847
 4492TIP3    H234892   3.792   5.916   0.862 -0.1688 -0.3912 -0.4863
 4493TIP3   OH234893   3.652   2.922   4.606  0.0755 -0.7123 -0.3006
 4493TIP3    H134894   3.721   2.962   4.554  0.9343 -0.1864  1.1747
 4493TIP3    H234895   3.571   2.966   4.577  0.7447  0.7438 -0.0721
 4494TIP3   OH234896   4.223   2.247   0.725  0.1718 -0.4208  0.1515
 4494TIP3    H134897   4.289   2.183   0.700 -0.4565 -1.0785  0.1345
 4494TIP3    H234898   4.169   2.257   0.646  0.3567  0.2457  0.1069
 4495TIP3   OH234899   6.507   1.224   1.662 -0.7465  0.1248 -0.6489
 4495TIP3    H134900   6.593   1.234   1.620 -0.3000 -0.6994  0.0374
 4495TIP3    H234901   6.465   1.153   1.615 -0.5500 -0.2952 -0.1954
 4496TIP3   OH234902   4.615   5.757  14.032 -0.2017 -0.0599  0.6453
 4496TIP3    H134903   4.695   5.735  14.079  1.2090  2.5957 -0.2822
 4496TIP3    H234904   4.577   5.672  14.009  2.8708 -1.4943  0.2576
 4497TIP3   OH234905   3.096   0.778   1.176 -0.0381  0.5765 -0.1108
 4497TIP3    H134906   3.168   0.718   1.197  0.1859 -0.4186 -3.2075
 4497TIP3    H234907   3.062   0.805   1.261  1.6596 -1.7721  1.4480
 4498TIP3   OH234908   1.108   1.392  13.647  0.0129  0.1366 -0.0616
 4498TIP3    H134909   1.157   1.316  13.676 -0.1280 -0.3801 -1.1279
 4498TIP3    H234910   1.017   1.372  13.668 -0.1077 -0.3029 -0.9388
 4499TIP3   OH234911   4.705   5.177  12.231  0.0099 -0.3719  0.0745
 4499TIP3    H134912   4.777   5.147  12.176  0.8516  1.5069  0.0857
 4499TIP3    H234913   4.747   5.223  12.303 -1.1678  1.5978 -0.4165
 4500TIP3   OH234914   0.066   5.958  12.987  0.1149 -1.1585 -0.2758
 4500TIP3    H134915   0.061   5.887  12.923 -2.3057 -2.0959  0.8245
 4500TIP3    H234916   0.020   5.924  13.064  0.6159  0.8926  1.0112
 4501TIP3   OH234917   3.818   3.027   5.550 -0.4092 -0.1451 -0.3637
 4501TIP3    H134918   3.843   3.119   5.555 -1.4358  0.2693 -1.9904
 4501TIP3    H234919   3.851   2.988   5.631  1.4239  1.2955 -0.3549
 4502TIP3   OH234920   1.516   6.139  15.838  0.7200  0.4247 -0.2823
 4502TIP3    H134921   1.439   6.095  15.875  0.3993  1.2783  0.1151
 4502TIP3    H234922   1.587   6.075  15.845  0.3273  0.0622  0.5076
 4503TIP3   OH234923   1.712   4.479   3.751  0.1371 -0.1836 -0.0718
 4503TIP3    H134924   1.658   4.530   3.811  0.1249 -1.0825  0.7046
 4503TIP3    H234925   1.707   4.526   3.668  1.0254  1.7027  0.8879
 4504TIP3   OH234926   5.382   5.408   5.697  0.3430  0.1106  0.9132
 4504TIP3    H134927   5.334   5.489   5.682  1.5216  0.6855  0.0958
 4504TIP3    H234928   5.474   5.431   5.684  0.6714 -1.4396  0.1838
 4505TIP3   OH234929   4.105   2.727   0.833 -0.4155 -0.7463 -0.5499
 4505TIP3    H134930   4.132   2.750   0.745  1.6045  1.1539  0.4587
 4505TIP3    H234931   4.172   2.665   0.864  1.1265  1.4408  0.8261
 4506TIP3   OH234932   4.492   3.603   6.310 -0.0017  0.3116  0.1006
 4506TIP3    H134933   4.565   3.599   6.372  0.5024  0.2528 -0.4829
 4506TIP3    H234934   4.440   3.524   6.329  2.2705 -1.9289 -2.0871
 4507TIP3   OH234935   1.625   6.209  13.304  0.2182 -0.7003 -0.0310
 4507TIP3    H134936   1.682   6.152  13.252 -0.5126 -1.7731  0.3003
 4507TIP3    H234937   1.643   6.182  13.395 -0.1965 -0.4556  0.1224
 4508TIP3   OH234938   3.704   5.026   3.966  0.2762  0.5050  0.0287
 4508TIP3    H134939   3.740   5.114   3.971  0.5267  0.4519 -0.7448
 4508TIP3    H234940   3.755   4.976   4.030  1.3826  0.5072 -0.8154
 4509TIP3   OH234941   2.329   1.686   5.202  0.1575  0.4690  0.0747
 4509TIP3    H134942   2.388   1.611   5.203 -0.3687  0.0469 -0.3804
 4509TIP3    H234943   2.377   1.753   5.154  1.6548  1.2953  2.5459
 4510TIP3   OH234944   6.222   3.525   0.249 -0.1863  0.3483 -0.3601
 4510TIP3    H134945   6.242   3.595   0.187  1.0073 -1.0465 -1.6246
 4510TIP3    H234946   6.128   3.512   0.240 -0.3454  1.4200 -0.4663
 4511TIP3   OH234947   4.737   1.291   4.608  0.2919 -0.0013 -0.4175
 4511TIP3    H134948   4.649   1.311   4.640  0.2553  0.1726 -0.6264
 4511TIP3    H234949   4.795   1.313   4.681  0.1158 -0.6487 -0.0742
 4512TIP3   OH234950   5.762   5.502   3.155 -0.0961 -0.4542 -0.4960
 4512TIP3    H134951   5.722   5.415   3.146  1.1135 -1.0158 -0.7139
 4512TIP3    H234952   5.819   5.494   3.232 -0.4417  0.3447 -0.1474
 4513TIP3   OH234953   5.805   2.983  11.109 -0.2724 -0.2314 -0.2831
 4513TIP3    H134954   5.714   3.014  11.113 -0.0486  0.3216  2.7469
 4513TIP3    H234955   5.854   3.055  11.070 -0.7856  0.5075  0.4035
 4514TIP3   OH234956   6.754   2.181   5.850  0.0741  0.0215  0.6461
 4514TIP3    H134957   6.848   2.193   5.841  0.3899 -0.1695  3.0409
 4514TIP3    H234958   6.741   2.087   5.836 -0.1322  0.3594 -1.8804
 4515TIP3   OH234959   5.924   3.337   1.286 -0.1312 -0.4503 -0.7764
 4515TIP3    H134960   5.981   3.273   1.329 -0.5954 -0.2378  0.1762
 4515TIP3    H234961   5.983   3.391   1.234  0.2536 -1.7380 -1.7253
 4516TIP3   OH234962   1.743   2.034  14.495  0.3694 -0.6287 -0.1686
 4516TIP3    H134963   1.697   1.950  14.497 -0.2410 -0.2983  0.6806
 4516TIP3    H234964   1.812   2.026  14.562 -0.2979 -0.1479  0.6070
 4517TIP3   OH234965   1.981   5.321  12.209 -0.1330  0.3624  0.1643
 4517TIP3    H134966   1.892   5.357  12.211 -0.3483 -0.1628 -0.0096
 4517TIP3    H234967   2.032   5.387  12.162 -0.2581  1.0415  0.9493
 4518TIP3   OH234968   6.685   1.685   1.670  0.1918  0.5618 -0.0206
 4518TIP3    H134969   6.686   1.780   1.658 -1.0307  0.9998  2.6403
 4518TIP3    H234970   6.593   1.661   1.661  0.4822 -0.3829 -0.6035
 4519TIP3   OH234971   0.699   5.372  10.951  0.1422 -0.2997  0.5320
 4519TIP3    H134972   0.629   5.337  11.005 -0.3011  0.0123  0.1619
 4519TIP3    H234973   0.778   5.330  10.984 -0.3887 -1.7258  0.0460
 4520TIP3   OH234974   6.209   0.635   5.307 -0.6736 -0.6751 -0.0337
 4520TIP3    H134975   6.182   0.575   5.376  4.8464 -0.9214  2.4017
 4520TIP3    H234976   6.259   0.580   5.246  1.6576  0.8047  0.4436
 4521TIP3   OH234977   5.056   5.014   2.876  0.6524 -0.2162 -0.8608
 4521TIP3    H134978   4.963   5.018   2.853  0.0307 -0.0583  1.4209
 4521TIP3    H234979   5.079   4.921   2.869 -0.3085 -0.6098  0.6054
 4522TIP3   OH234980   0.532   3.219   4.904 -0.3302 -0.7726  0.5182
 4522TIP3    H134981   0.537   3.126   4.881 -1.8323 -0.7659  0.0001
 4522TIP3    H234982   0.442   3.230   4.935 -0.3572  0.6222  0.0038
 4523TIP3   OH234983   1.740   2.101   5.817 -0.3310 -0.6774  0.4108
 4523TIP3    H134984   1.737   2.006   5.803  0.6911 -0.7422  0.4882
 4523TIP3    H234985   1.752   2.110   5.912  2.0439 -0.5941  0.1749
 4524TIP3   OH234986   3.398   1.273  11.333 -0.1479  0.0915  0.3472
 4524TIP3    H134987   3.422   1.312  11.417 -1.6277 -2.1326  1.9006
 4524TIP3    H234988   3.371   1.348  11.279  0.1323  1.5126  2.0647
 4525TIP3   OH234989   1.418   2.727   3.705 -0.5436 -0.2307 -0.2767
 4525TIP3    H134990   1.371   2.656   3.749  0.4468 -0.7753 -0.0824
 4525TIP3    H234991   1.473   2.683   3.640  0.6975  0.2788  0.3994
 4526TIP3   OH234992   5.113   3.384   4.817  0.2826 -0.3580  0.1251
 4526TIP3    H134993   5.138   3.381   4.909  1.3173 -0.4108 -0.1483
 4526TIP3    H234994   5.147   3.302   4.781 -0.5784 -0.5798 -0.1912
 4527TIP3   OH234995   2.086   2.631   6.187 -0.6033  0.1749  0.1157
 4527TIP3    H134996   2.036   2.621   6.106 -1.5102 -2.2697  0.8944
 4527TIP3    H234997   2.085   2.544   6.227  1.1080  0.9544  2.0279
 4528TIP3   OH234998   1.223   2.545   3.117  0.6740  0.3188  0.4983
 4528TIP3    H134999   1.214   2.509   3.206 -0.7406  1.5690  0.8974
 4528TIP3    H235000   1.220   2.640   3.129  0.5631  0.5111 -0.8839
 4529TIP3   OH235001   1.366   3.104  13.706 -0.1050 -0.2589 -0.4929
 4529TIP3    H135002   1.314   3.024  13.712 -0.8435  0.2448  0.0181
 4529TIP3    H235003   1.451   3.081  13.744 -0.6334 -0.5408  0.5535
 4530TIP3   OH235004   4.725   1.326   4.300 -0.1746  0.5499 -0.5240
 4530TIP3    H135005   4.734   1.345   4.393 -0.7185  0.9785 -0.5517
 4530TIP3    H235006   4.745   1.233   4.292  0.5804  0.6682 -0.0873
 4531TIP3   OH235007   3.349   2.525  17.179  0.1887  0.0674 -0.1036
 4531TIP3    H135008   3.390   2.493  17.098  0.3731  3.4536 -1.5113
 4531TIP3    H235009   3.418   2.517  17.245  1.2763  0.5362 -1.1366
 4532TIP3   OH235010   6.304   2.428   2.645 -0.5484 -0.6525 -0.3698
 4532TIP3    H135011   6.273   2.359   2.586 -0.8595 -1.9581  1.2646
 4532TIP3    H235012   6.232   2.444   2.705 -0.2869  0.7632 -0.3814
 4533TIP3   OH235013   4.319   5.062  15.137 -0.1592 -0.4918  0.0275
 4533TIP3    H135014   4.378   5.126  15.179 -0.6847  0.6202 -0.8682
 4533TIP3    H235015   4.302   5.099  15.051  2.8543 -3.8238 -2.3088
 4534TIP3   OH235016   6.353   4.184   2.788 -0.4933 -0.2722  0.3396
 4534TIP3    H135017   6.360   4.279   2.793 -3.2551 -0.0475  1.4940
 4534TIP3    H235018   6.296   4.168   2.713  0.4393 -1.0921 -0.2239
 4535TIP3   OH235019   3.544   6.409  14.438 -0.1334 -0.2590 -0.3500
 4535TIP3    H135020   3.625   6.445  14.403 -1.0055  1.5844 -0.6234
 4535TIP3    H235021   3.502   6.482  14.483 -2.2049 -0.7921 -1.2552
 4536TIP3   OH235022   2.938   2.349  12.511 -0.2700  0.0448  0.8452
 4536TIP3    H135023   2.943   2.442  12.489  0.6158 -0.2640 -0.3822
 4536TIP3    H235024   2.857   2.320  12.470  0.2071 -0.0247 -0.0821
 4537TIP3   OH235025   3.690   3.203   5.353 -0.0361  0.3882  0.0131
 4537TIP3    H135026   3.700   3.181   5.446 -0.5246  0.0935  0.0008
 4537TIP3    H235027   3.772   3.246   5.329  1.3781 -2.2299 -0.2058
 4538TIP3   OH235028   3.921   1.999   4.575  0.1620 -0.3702  0.2756
 4538TIP3    H135029   3.861   1.925   4.586 -0.7567  0.5042  1.4192
 4538TIP3    H235030   3.978   1.995   4.652 -1.1918  1.2344  1.4299
 4539TIP3   OH235031   2.343   2.683  13.244 -0.0876  0.4338  0.0702
 4539TIP3    H135032   2.324   2.591  13.223  2.2537  0.0604 -0.7064
 4539TIP3    H235033   2.306   2.732  13.171  1.2153 -0.2006 -1.0766
 4540TIP3   OH235034   1.955   3.006  16.767 -0.0369  0.4263 -0.0408
 4540TIP3    H135035   1.878   2.951  16.779  0.8094 -0.7906  0.0027
 4540TIP3    H235036   1.983   2.989  16.677  1.4249 -0.8669  0.6003
 4541TIP3   OH235037   6.502   4.000  11.822  0.4956  0.5059  0.0930
 4541TIP3    H135038   6.559   4.023  11.749 -0.5289 -0.2217 -0.9582
 4541TIP3    H235039   6.422   3.967  11.782  0.0862 -0.3676  1.5305
 4542TIP3   OH235040   6.717   2.264   5.247 -0.2168 -0.1750  0.4303
 4542TIP3    H135041   6.695   2.270   5.154 -0.1705  0.5684  0.4560
 4542TIP3    H235042   6.712   2.355   5.278 -1.8761 -0.5922  1.5241
 4543TIP3   OH235043   0.712   2.475  16.657 -0.0842 -0.1163 -0.7204
 4543TIP3    H135044   0.728   2.446  16.747  0.3324  0.6735 -0.5362
 4543TIP3    H235045   0.789   2.445  16.609  1.2165  2.1305 -0.1842
 4544TIP3   OH235046   5.669   3.218  16.551  0.5604 -0.2432 -0.1063
 4544TIP3    H135047   5.691   3.154  16.484  0.8552  0.2390 -0.4806
 4544TIP3    H235048   5.573   3.221  16.551  0.5442 -0.7352 -0.0293
 4545TIP3   OH235049   2.181   4.088  11.389  0.3077 -0.0648  0.4566
 4545TIP3    H135050   2.114   4.083  11.457 -1.8408  2.2853 -1.2879
 4545TIP3    H235051   2.224   4.173  11.403  0.8856 -0.2312 -0.2188
 4546TIP3   OH235052   0.150   3.434   2.223  0.5237 -0.4275  0.3726
 4546TIP3    H135053   0.228   3.382   2.207 -0.4778 -1.6055 -0.8884
 4546TIP3    H235054   0.164   3.514   2.172  0.8226 -0.6960  0.0343
 4547TIP3   OH235055   3.111   4.077  11.509 -0.0948 -0.2035 -0.1249
 4547TIP3    H135056   3.061   4.034  11.578 -0.5124 -1.0179 -0.9020
 4547TIP3    H235057   3.180   4.124  11.554 -0.4431 -0.6081  0.8500
 4548TIP3   OH235058   2.404   2.777   2.885  0.5088  0.4376 -0.7356
 4548TIP3    H135059   2.381   2.689   2.914  1.1503  0.6625  0.5525
 4548TIP3    H235060   2.324   2.811   2.844 -0.0318 -0.3953 -0.3997
 4549TIP3   OH235061   5.294   5.351  12.715  0.2592  0.1309  0.1984
 4549TIP3    H135062   5.345   5.393  12.784  2.5345 -2.6303  0.3775
 4549TIP3    H235063   5.323   5.393  12.634  0.9824  0.2903  0.5355
 4550TIP3   OH235064   0.235   0.477   4.732  0.1652 -0.0012 -0.5992
 4550TIP3    H135065   0.238   0.439   4.821 -0.6728  1.1266 -0.0759
 4550TIP3    H235066   0.200   0.565   4.745 -1.7134 -0.4503 -2.2702
 4551TIP3   OH235067   6.701   1.378   4.858 -0.2849  0.5192  0.1408
 4551TIP3    H135068   6.710   1.401   4.950 -0.0830  0.6699  0.0850
 4551TIP3    H235069   6.735   1.289   4.851 -2.2245 -0.3126  0.5877
 4552TIP3   OH235070   1.253   0.753  16.480 -0.0491  0.2389  0.0387
 4552TIP3    H135071   1.183   0.815  16.461  0.6507  1.1910  0.4420
 4552TIP3    H235072   1.324   0.808  16.514  0.6766 -0.7665  0.1844
 4553TIP3   OH235073   5.865   2.733  16.725  0.5408  0.0936 -0.2056
 4553TIP3    H135074   5.869   2.815  16.676  0.7154 -0.7714 -1.6951
 4553TIP3    H235075   5.954   2.721  16.759  0.8167 -0.0179 -0.9379
 4554TIP3   OH235076   1.553   1.320   5.007 -0.3466 -0.2894  0.1737
 4554TIP3    H135077   1.510   1.404   4.994  0.6625  0.3969  1.0594
 4554TIP3    H235078   1.631   1.324   4.952  0.2349 -0.2067  0.9740
 4555TIP3   OH235079   5.468   1.524  12.022  0.3347  0.1216 -0.4082
 4555TIP3    H135080   5.456   1.525  11.927  1.1533  1.1943 -0.5202
 4555TIP3    H235081   5.519   1.603  12.040  1.6123 -0.9192  0.7355
 4556TIP3   OH235082   4.469   4.438  11.083 -0.1472  0.2267  0.4407
 4556TIP3    H135083   4.461   4.413  11.175  0.2022 -1.3140  0.0780
 4556TIP3    H235084   4.431   4.364  11.035 -2.3331  1.9250 -0.6246
 4557TIP3   OH235085   2.323   6.011  15.471  0.4580  0.0045 -0.0219
 4557TIP3    H135086   2.351   5.955  15.543 -0.7503 -1.0897 -0.3576
 4557TIP3    H235087   2.383   5.989  15.399 -0.5183 -1.5367 -0.4105
 4558TIP3   OH235088   0.591   6.201   6.426 -0.0308  0.0867 -1.2315
 4558TIP3    H135089   0.686   6.199   6.432  0.1350  2.3585 -1.9931
 4558TIP3    H235090   0.564   6.266   6.491 -1.1760 -1.1573 -0.4005
 4559TIP3   OH235091   6.001   2.014  11.868  0.2676  0.6231 -0.2564
 4559TIP3    H135092   5.955   2.036  11.787  1.2526 -1.1941 -1.3654
 4559TIP3    H235093   6.054   1.938  11.846  0.8918  0.3292  2.0078
 4560TIP3   OH235094   6.228   3.021   5.300  0.4596 -0.3607 -0.3758
 4560TIP3    H135095   6.232   3.071   5.381 -1.0927 -1.7232  0.6164
 4560TIP3    H235096   6.312   3.037   5.257  1.5281  0.0178  1.7375
 4561TIP3   OH235097   1.103   1.256  15.669 -0.0621  0.2238  0.3771
 4561TIP3    H135098   1.195   1.233  15.684 -0.0100 -1.1460 -1.6283
 4561TIP3    H235099   1.075   1.299  15.749  2.7320  1.9813  0.5319
 4562TIP3   OH235100   1.587   6.723  13.702 -0.0841 -0.3791  0.3924
 4562TIP3    H135101   1.580   6.747  13.795  0.5863 -0.2400  0.4093
 4562TIP3    H235102   1.581   6.806  13.655 -2.0166 -0.5870  0.2069
 4563TIP3   OH235103   2.777   5.443   2.922  0.4428 -0.1543 -0.3437
 4563TIP3    H135104   2.742   5.499   2.853 -0.2921 -1.1530 -0.8135
 4563TIP3    H235105   2.797   5.360   2.878  3.4648  0.3341 -0.1123
 4564TIP3   OH235106   1.862   5.422   0.422 -1.0154  0.1263 -0.1103
 4564TIP3    H135107   1.892   5.463   0.341 -2.6376  0.6616 -0.4762
 4564TIP3    H235108   1.807   5.349   0.394  0.2788 -1.1378  0.5397
 4565TIP3   OH235109   4.880   5.094  12.025 -0.0627  0.2367  0.3916
 4565TIP3    H135110   4.925   5.014  12.051 -0.6019 -0.4303 -0.6727
 4565TIP3    H235111   4.950   5.160  12.019  0.3312 -0.0468  1.6217
 4566TIP3   OH235112   2.382   6.339   3.729  0.3410 -0.3468 -0.4848
 4566TIP3    H135113   2.331   6.419   3.720  0.6925 -0.2034 -1.2885
 4566TIP3    H235114   2.354   6.284   3.656 -2.0508 -2.2264  1.6210
 4567TIP3   OH235115   3.756   3.146  12.243 -0.1046 -0.5852 -0.0462
 4567TIP3    H135116   3.834   3.169  12.193 -0.3879  0.5696  0.0295
 4567TIP3    H235117   3.783   3.157  12.335  0.1745 -1.9424  0.0652
 4568TIP3   OH235118   1.252   1.270  16.463  0.4144 -0.4946  0.8773
 4568TIP3    H135119   1.344   1.264  16.489  1.4165  0.3059 -2.0966
 4568TIP3    H235120   1.240   1.202  16.397 -0.7503  0.2436  0.2810
 4569TIP3   OH235121   0.228   3.623  12.900  0.1534  0.2480 -0.4669
 4569TIP3    H135122   0.196   3.594  12.814  0.4342  1.9836 -1.2035
 4569TIP3    H235123   0.191   3.710  12.911 -1.2918 -0.6006  2.0165
 4570TIP3   OH235124   6.103   0.522  14.954 -0.5729  0.1238 -0.0100
 4570TIP3    H135125   6.068   0.465  15.023 -0.6720  0.0669 -0.1060
 4570TIP3    H235126   6.034   0.522  14.887 -0.8671  0.8836  0.2812
 4571TIP3   OH235127   5.708   1.588   2.765  0.3803 -0.1242 -0.7315
 4571TIP3    H135128   5.649   1.623   2.698 -0.5801  0.5650  0.4342
 4571TIP3    H235129   5.755   1.664   2.798  0.0961 -0.3003  0.0941
 4572TIP3   OH235130   4.792   5.995  16.735 -0.6195  0.1583 -0.1187
 4572TIP3    H135131   4.872   5.971  16.690 -0.1861  0.6492  0.3747
 4572TIP3    H235132   4.773   5.921  16.792  0.5159  0.7689  1.1332
 4573TIP3   OH235133   3.978   6.659   6.754  0.0823  0.1220 -0.1700
 4573TIP3    H135134   3.974   6.752   6.776 -0.5278  0.4570 -1.5853
 4573TIP3    H235135   4.067   6.645   6.724 -0.2362  0.6256 -1.4138
 4574TIP3   OH235136   5.459   1.125  12.575 -0.4868  0.2037 -0.0129
 4574TIP3    H135137   5.423   1.123  12.664 -0.9380 -0.0577 -0.2004
 4574TIP3    H235138   5.494   1.037  12.561  0.2526  0.4589  0.1740
 4575TIP3   OH235139   6.728   2.251   6.154  0.3998  0.1711  0.5440
 4575TIP3    H135140   6.692   2.211   6.075 -0.8150 -0.9906  1.6375
 4575TIP3    H235141   6.735   2.179   6.217  0.0099  1.3114  1.9437
 4576TIP3   OH235142   2.130   0.020   4.988  0.3019  0.1715 -0.4518
 4576TIP3    H135143   2.112   0.087   4.922 -0.8151 -1.5493 -2.0130
 4576TIP3    H235144   2.045   0.007   5.031 -0.5407 -2.6522 -2.6421
 4577TIP3   OH235145   0.143   2.837  16.551 -0.1375  0.2762  0.1130
 4577TIP3    H135146   0.143   2.932  16.540 -1.6784  0.1600 -1.2165
 4577TIP3    H235147   0.081   2.821  16.623 -1.6609  0.1867 -1.1666
 4578TIP3   OH235148   1.668   1.685   6.136  0.6328  0.0844  0.1373
 4578TIP3    H135149   1.691   1.627   6.208 -1.1865 -1.2621 -0.2754
 4578TIP3    H235150   1.610   1.751   6.176  0.4990 -0.0207  0.1192
 4579TIP3   OH235151   6.413   0.120   5.354 -0.2935 -0.6223  0.4192
 4579TIP3    H135152   6.485   0.074   5.312 -0.7917  0.1098 -1.3707
 4579TIP3    H235153   6.335   0.090   5.307 -0.7016  1.4171 -0.3353
 4580TIP3   OH235154   1.287   3.566  12.938  0.0942 -0.0564 -0.2434
 4580TIP3    H135155   1.282   3.644  12.883  0.0229 -0.7688 -1.2651
 4580TIP3    H235156   1.370   3.575  12.984  0.9220 -0.2062 -1.6508
 4581TIP3   OH235157   1.104   4.610  15.610  0.0039 -0.0224 -0.3953
 4581TIP3    H135158   1.122   4.681  15.547  0.0604  0.2275 -0.0989
 4581TIP3    H235159   1.030   4.563  15.573 -0.1818  0.3330 -0.4787
 4582TIP3   OH235160   3.759   2.018  11.659 -0.4826  0.1366 -0.0540
 4582TIP3    H135161   3.837   2.072  11.663 -1.3507  1.3604  2.8723
 4582TIP3    H235162   3.746   2.002  11.566  2.1198  1.4986 -0.7544
 4583TIP3   OH235163   3.083   5.272  13.554  0.4055 -0.2128  0.1014
 4583TIP3    H135164   3.131   5.301  13.631  0.3489 -0.3229  0.1789
 4583TIP3    H235165   3.062   5.352  13.506  0.4909 -0.1496  0.1705
 4584TIP3   OH235166   6.563   3.133  12.484  0.2929  0.6125  0.1970
 4584TIP3    H135167   6.517   3.210  12.450  1.0243  1.0455  0.1737
 4584TIP3    H235168   6.508   3.103  12.556 -1.2693 -0.2934 -1.2741
 4585TIP3   OH235169   4.834   0.740  17.384 -0.2725 -0.1273 -0.1039
 4585TIP3    H135170   4.911   0.713  17.433  0.4849  1.5009 -0.3284
 4585TIP3    H235171   4.866   0.755  17.295 -0.4911  1.9267  0.1130
 4586TIP3   OH235172   4.346   2.866   5.704  0.9145  0.1141 -0.4890
 4586TIP3    H135173   4.357   2.864   5.799  0.9853  1.0045 -0.4678
 4586TIP3    H235174   4.414   2.807   5.670  0.2618 -0.9738  0.0484
 4587TIP3   OH235175   3.049   3.372   3.568  0.2423  0.2255 -0.0422
 4587TIP3    H135176   3.094   3.397   3.649  0.3545  0.3096 -0.1316
 4587TIP3    H235177   3.001   3.292   3.592  0.5990  0.0205 -0.0024
 4588TIP3   OH235178   1.325   1.201   0.869  0.0847 -0.3025  0.0684
 4588TIP3    H135179   1.243   1.162   0.901 -0.5704 -0.2442 -1.4318
 4588TIP3    H235180   1.390   1.131   0.880 -0.2173 -0.4576  0.9931
 4589TIP3   OH235181   6.586   5.299   0.138  0.6373  0.6914 -0.0710
 4589TIP3    H135182   6.626   5.218   0.171 -1.9576 -0.4735  0.4564
 4589TIP3    H235183   6.586   5.358   0.213 -2.6450 -0.9571  1.4540
 4590TIP3   OH235184   6.390   5.458  15.545  0.0457  0.1600 -0.0199
 4590TIP3    H135185   6.326   5.524  15.521 -0.8486 -0.7758 -0.2620
 4590TIP3    H235186   6.400   5.467  15.639 -0.6728  0.1264  0.0646
 4591TIP3   OH235187   1.951   4.198  17.133  0.0135  0.3227  0.1858
 4591TIP3    H135188   1.965   4.115  17.179  2.1047  0.8777  0.6406
 4591TIP3    H235189   2.004   4.191  17.053 -1.4504  0.4288 -0.8324
 4592TIP3   OH235190   1.535   0.980   1.427  0.1863  0.0382  0.7649
 4592TIP3    H135191   1.511   0.913   1.362 -0.2797  1.3002 -0.4205
 4592TIP3    H235192   1.629   0.967   1.441  0.4253  0.0969 -0.6357
 4593TIP3   OH235193   1.313   4.621   5.529  0.1510  0.0250  0.0378
 4593TIP3    H135194   1.356   4.537   5.545  0.1841  0.0424  0.0404
 4593TIP3    H235195   1.233   4.598   5.481 -0.9618 -0.2203  1.8923
 4594TIP3   OH235196   6.160   5.364   3.752  0.3302  0.2904 -0.3282
 4594TIP3    H135197   6.118   5.446   3.776  0.7088  0.8874 -1.6365
 4594TIP3    H235198   6.091   5.313   3.710  0.5625  0.7556 -1.3097
 4595TIP3   OH235199   1.288   5.706   2.573 -0.3268  0.8150  0.1232
 4595TIP3    H135200   1.225   5.661   2.516  0.7814 -0.5267 -0.0709
 4595TIP3    H235201   1.263   5.678   2.661 -0.3152  0.6901  0.0873
 4596TIP3   OH235202   6.274   2.599   5.862 -0.0913  0.1430 -0.4504
 4596TIP3    H135203   6.240   2.512   5.838  0.5033 -0.0377 -0.6355
 4596TIP3    H235204   6.209   2.660   5.826 -1.3559 -0.2605  1.0226
 4597TIP3   OH235205   2.049   3.753  15.634 -0.1151  0.7468 -0.3654
 4597TIP3    H135206   1.990   3.785  15.702 -1.4531  0.0605 -1.1643
 4597TIP3    H235207   2.106   3.690  15.680 -0.6251  0.7064  0.2314
 4598TIP3   OH235208   2.786   4.170   3.520 -0.7497  0.0312  0.7664
 4598TIP3    H135209   2.881   4.159   3.506 -1.0551 -2.9465  0.2136
 4598TIP3    H235210   2.747   4.112   3.454 -2.9390  0.6087  1.5042
 4599TIP3   OH235211   1.076   6.649  17.089  0.2024 -0.4289 -0.0482
 4599TIP3    H135212   1.117   6.665  17.174 -1.8196 -0.2886  0.9702
 4599TIP3    H235213   1.008   6.584  17.108 -0.1868 -0.4989 -1.5962
 4600TIP3   OH235214   6.126   5.427   5.827 -0.0191 -0.7007  0.3233
 4600TIP3    H135215   6.154   5.467   5.910  0.8810  0.5143 -0.5179
 4600TIP3    H235216   6.037   5.396   5.844 -0.1234  0.1690  1.5377
 4601TIP3   OH235217   1.167   3.418  14.266 -0.6951  0.1422 -0.5063
 4601TIP3    H135218   1.125   3.478  14.328 -1.2647 -0.0813 -0.6679
 4601TIP3    H235219   1.118   3.429  14.185 -0.8917 -0.6365 -0.5016
 4602TIP3   OH235220   4.386   2.856   6.398  0.2170  0.2149 -0.1586
 4602TIP3    H135221   4.447   2.841   6.471 -1.2134  0.9916  1.2575
 4602TIP3    H235222   4.353   2.945   6.412 -2.0524 -0.5434 -0.2201
 4603TIP3   OH235223   1.355   2.231  16.983  0.7174  0.2003  0.3258
 4603TIP3    H135224   1.446   2.224  17.012  1.0112  0.2958 -0.5391
 4603TIP3    H235225   1.309   2.269  17.058  1.0409 -1.4094  1.4135
 4604TIP3   OH235226   6.628   2.389   6.461 -0.3942 -0.1015 -0.1705
 4604TIP3    H135227   6.722   2.371   6.463 -0.8188 -2.8058 -0.6245
 4604TIP3    H235228   6.613   2.446   6.537  1.4929 -0.2221  0.3487
 4605TIP3   OH235229   3.127   6.423  12.754 -0.0156 -0.8585 -0.0932
 4605TIP3    H135230   3.189   6.412  12.826  1.6627 -1.9414 -1.6291
 4605TIP3    H235231   3.078   6.502  12.776  1.3679 -0.4209  1.5723
 4606TIP3   OH235232   2.580   1.004  13.406  0.6342 -0.3372  0.0507
 4606TIP3    H135233   2.649   1.044  13.354  1.4053 -0.5601  0.8575
 4606TIP3    H235234   2.563   0.920  13.363  0.0153  0.2330 -0.8299
 4607TIP3   OH235235   0.681   3.108   2.625 -0.1043  0.0754  0.5203
 4607TIP3    H135236   0.717   3.025   2.594  0.7581  0.7127 -0.2363
 4607TIP3    H235237   0.706   3.111   2.718 -0.3800 -0.6244  0.6230
 4608TIP3   OH235238   0.418   5.483  16.670 -0.4228  0.0377 -0.1997
 4608TIP3    H135239   0.503   5.508  16.707 -1.0005  1.8344  0.0197
 4608TIP3    H235240   0.356   5.495  16.742 -1.1288  0.5837 -0.8792
 4609TIP3   OH235241   6.607   4.211   5.250  0.6975 -0.0767 -0.2046
 4609TIP3    H135242   6.650   4.137   5.208  1.4513 -0.0062  0.4119
 4609TIP3    H235243   6.669   4.283   5.242  0.5647  0.1179  0.4094
 4610TIP3   OH235244   6.014   2.119  10.756 -0.1778  0.3392 -0.1910
 4610TIP3    H135245   6.007   2.107  10.850 -2.2357  0.4465 -0.2920
 4610TIP3    H235246   5.991   2.034  10.719 -0.6880  0.6470 -0.6023
 4611TIP3   OH235247   0.315   4.343   3.822  0.1422 -0.1310 -0.6983
 4611TIP3    H135248   0.302   4.428   3.863 -2.6661  0.3017 -2.2377
 4611TIP3    H235249   0.385   4.358   3.757 -1.4346  1.5267 -2.1058
 4612TIP3   OH235250   1.166   6.455   5.367  0.3230  0.1081 -0.2554
 4612TIP3    H135251   1.146   6.399   5.443  0.5239  1.0989  0.5512
 4612TIP3    H235252   1.168   6.544   5.403 -1.2565  0.7985 -1.7343
 4613TIP3   OH235253   5.332   6.703  12.371 -0.0787  0.5441 -0.2866
 4613TIP3    H135254   5.397   6.637  12.396  0.8472  2.0256  1.4154
 4613TIP3    H235255   5.284   6.720  12.451 -2.5848 -0.4257 -1.4912
 4614TIP3   OH235256   2.092   2.381   0.654  0.0067 -0.1900 -0.4590
 4614TIP3    H135257   2.073   2.288   0.638  0.9713 -0.7475  1.3849
 4614TIP3    H235258   2.069   2.424   0.571  0.6244 -2.2168 -1.7654
 4615TIP3   OH235259   4.038   3.492   4.188  0.2336  0.3862 -0.0807
 4615TIP3    H135260   4.097   3.475   4.114  0.9562 -0.1717  0.6012
 4615TIP3    H235261   4.090   3.470   4.266 -0.2090  1.8470  0.6522
 4616TIP3   OH235262   4.934   5.641   3.623  0.6018  0.3449 -0.0695
 4616TIP3    H135263   4.944   5.656   3.529 -0.7875  1.6248 -0.0459
 4616TIP3    H235264   4.840   5.630   3.636  0.6456  1.3973  1.3401
 4617TIP3   OH235265   4.106   6.683   3.542 -0.2244  0.4561  0.3212
 4617TIP3    H135266   4.096   6.589   3.549 -0.8713  0.5508  0.7084
 4617TIP3    H235267   4.082   6.717   3.628  1.9628  0.8339  0.8660
 4618TIP3   OH235268   0.612   2.125  15.497  0.0652 -0.5814 -0.0763
 4618TIP3    H135269   0.705   2.144  15.487 -0.3144  2.8709  1.3418
 4618TIP3    H235270   0.577   2.127  15.408  1.1723 -0.8616 -0.5247
 4619TIP3   OH235271   6.106   0.614   2.656 -0.0448 -0.4629  0.5262
 4619TIP3    H135272   6.062   0.539   2.696 -0.6712  0.1404  1.0063
 4619TIP3    H235273   6.101   0.598   2.562 -0.5547 -0.8116  0.6098
 4620TIP3   OH235274   3.249   1.854   5.618  0.4459  0.2343 -0.5982
 4620TIP3    H135275   3.165   1.898   5.609 -0.0079 -0.7326 -1.2725
 4620TIP3    H235276   3.237   1.770   5.574  1.0996 -0.8262  1.1351
 4621TIP3   OH235277   4.281   1.191   6.153 -0.3590 -0.2141 -0.2436
 4621TIP3    H135278   4.211   1.220   6.095 -0.7354 -1.6956 -0.5795
 4621TIP3    H235279   4.238   1.134   6.216  0.6944 -2.1451 -1.1911
 4622TIP3   OH235280   0.390   1.705  15.614  0.3071 -0.4011 -0.1076
 4622TIP3    H135281   0.454   1.706  15.543  1.5712 -0.5996  0.9959
 4622TIP3    H235282   0.369   1.797  15.628  1.4605 -0.2039  0.4641
 4623TIP3   OH235283   4.070   2.125   5.418  0.6369  0.0483 -0.2084
 4623TIP3    H135284   4.156   2.159   5.393  1.6705 -0.6740  2.1049
 4623TIP3    H235285   4.008   2.189   5.382  2.1593  1.0920 -1.1321
 4624TIP3   OH235286   6.585   0.227   5.776  0.3807 -0.0630 -0.5413
 4624TIP3    H135287   6.574   0.199   5.866  0.6685 -0.9608 -0.7683
 4624TIP3    H235288   6.620   0.316   5.782  1.7741 -0.6244  0.2731
 4625TIP3   OH235289   4.477   4.803  16.308  0.2145 -0.0414  0.1897
 4625TIP3    H135290   4.399   4.760  16.344  0.4800 -0.6464  0.0555
 4625TIP3    H235291   4.460   4.809  16.214  0.5603 -0.6780  0.0808
 4626TIP3   OH235292   4.370   2.886   1.139  0.2228 -0.5170  0.1332
 4626TIP3    H135293   4.343   2.893   1.230 -0.7542  2.1631 -0.2603
 4626TIP3    H235294   4.287   2.886   1.090  0.7627 -0.7237 -0.7947
 4627TIP3   OH235295   2.425   6.516  13.680  0.0613 -0.2030 -0.4697
 4627TIP3    H135296   2.365   6.499  13.753  1.1869 -0.5493  0.4075
 4627TIP3    H235297   2.463   6.431  13.660  0.0493 -0.0373 -1.2139
 4628TIP3   OH235298   4.350   3.342   1.475 -0.2961 -0.0292  0.2049
 4628TIP3    H135299   4.337   3.428   1.436 -0.7802 -0.2248 -0.0737
 4628TIP3    H235300   4.291   3.339   1.550 -0.1466 -0.0535  0.3234
 4629TIP3   OH235301   0.765   1.225   2.599 -0.3545  0.0876 -0.4899
 4629TIP3    H135302   0.696   1.180   2.648  0.4287 -1.7417 -0.9476
 4629TIP3    H235303   0.724   1.251   2.517 -1.2234  1.6372  0.3997
 4630TIP3   OH235304   5.269   6.131  15.250 -0.4502 -0.4949 -0.2428
 4630TIP3    H135305   5.194   6.082  15.285 -0.4104 -1.5950 -1.6213
 4630TIP3    H235306   5.237   6.171  15.169 -0.4079  1.6291  0.7213
 4631TIP3   OH235307   5.243   4.188   6.370  0.0902  0.0771  0.0775
 4631TIP3    H135308   5.299   4.118   6.404  0.6657  0.0905 -0.8248
 4631TIP3    H235309   5.273   4.202   6.281 -1.0723  0.3856 -0.2820
 4632TIP3   OH235310   3.709   1.761  15.034 -0.2930  0.7700  0.3145
 4632TIP3    H135311   3.800   1.766  15.003 -0.1207  2.3640  0.9563
 4632TIP3    H235312   3.716   1.765  15.129 -0.9636 -1.1828  0.4735
 4633TIP3   OH235313   5.198   1.983   1.537 -0.0725 -0.0068  0.7374
 4633TIP3    H135314   5.250   2.022   1.607 -0.7787  0.6247  0.9101
 4633TIP3    H235315   5.223   1.890   1.538  1.9727  0.4741  0.0242
 4634TIP3   OH235316   6.700   6.754   3.103 -0.4289 -0.2652 -0.1266
 4634TIP3    H135317   6.658   6.668   3.113  0.7879 -0.8142  0.5736
 4634TIP3    H235318   6.666   6.805   3.176 -0.9444 -0.2303 -0.3833
 4635TIP3   OH235319   0.633   1.481  12.083  0.1242 -0.2108 -0.2898
 4635TIP3    H135320   0.643   1.556  12.023  1.0535  1.0513  1.3607
 4635TIP3    H235321   0.569   1.511  12.148  2.7949  0.4505  2.2073
 4636TIP3   OH235322   0.052   6.517  16.496 -0.9113  0.0482  0.2726
 4636TIP3    H135323  -0.007   6.581  16.535 -0.3986 -0.5571  2.1534
 4636TIP3    H235324   0.109   6.568  16.438 -0.5391  1.2804  1.6798
 4637TIP3   OH235325   1.540   2.272   0.804 -0.3059 -0.2923 -0.3333
 4637TIP3    H135326   1.482   2.347   0.788 -1.4614 -1.4138 -1.6234
 4637TIP3    H235327   1.582   2.292   0.887 -2.2250  0.7830  0.4550
 4638TIP3   OH235328   1.533   4.810   1.097 -0.3850 -0.2207 -0.3198
 4638TIP3    H135329   1.475   4.736   1.114 -1.0587  0.4611  0.4561
 4638TIP3    H235330   1.618   4.782   1.131 -0.4148 -0.9649 -0.8424
 4639TIP3   OH235331   1.910   2.863   2.497  0.3782 -0.2795  0.1254
 4639TIP3    H135332   1.872   2.797   2.440  1.1240 -0.0233 -0.6966
 4639TIP3    H235333   1.931   2.936   2.439  0.4298  0.3089  0.8622
 4640TIP3   OH235334   0.643   6.297  16.622  0.3146  0.4653  0.0953
 4640TIP3    H135335   0.643   6.393  16.627 -1.3029  0.4692  0.5381
 4640TIP3    H235336   0.635   6.278  16.529  0.6249  0.7491  0.0072
 4641TIP3   OH235337   6.149   6.296   1.863  0.5985 -0.1483 -0.6549
 4641TIP3    H135338   6.244   6.301   1.863  0.5604  1.7303 -1.8883
 4641TIP3    H235339   6.121   6.361   1.928  0.1623 -1.0323  0.0511
 4642TIP3   OH235340   6.353   4.707   4.902 -0.0166  0.1478 -0.2172
 4642TIP3    H135341   6.435   4.689   4.856 -0.5924  0.0062 -1.2189
 4642TIP3    H235342   6.299   4.753   4.838 -0.6576  0.3936  0.4863
 4643TIP3   OH235343   5.043   4.826   1.489  0.1907  0.5021 -0.1643
 4643TIP3    H135344   5.121   4.777   1.464  0.6330  1.3477 -0.4990
 4643TIP3    H235345   4.987   4.825   1.411 -0.6296 -1.0018  0.4077
 4644TIP3   OH235346   6.154   1.446  12.699 -0.3663  0.4538  0.4078
 4644TIP3    H135347   6.132   1.452  12.606  0.6091  0.0436  0.1473
 4644TIP3    H235348   6.075   1.477  12.743  0.1237  3.5571 -0.5982
 4645TIP3   OH235349   4.109   2.338  15.670  0.3692  0.1269 -0.9172
 4645TIP3    H135350   4.049   2.301  15.736 -0.2485  1.6906 -0.5703
 4645TIP3    H235351   4.132   2.263  15.615 -0.0934 -0.9650  0.3157
 4646TIP3   OH235352   0.125   1.318  16.500 -0.3398  0.0212  0.1562
 4646TIP3    H135353   0.032   1.336  16.512 -0.5396 -0.7330 -0.2027
 4646TIP3    H235354   0.161   1.318  16.589 -0.2762  2.3023  0.1777
 4647TIP3   OH235355   3.160   3.625  17.191 -0.0520  0.0843  0.4766
 4647TIP3    H135356   3.170   3.535  17.157  0.5501 -0.4697  2.0232
 4647TIP3    H235357   3.071   3.627  17.227 -0.6781  0.6613 -1.0309
 4648TIP3   OH235358   3.025   1.846  13.799  0.9279  0.0502  0.4031
 4648TIP3    H135359   3.043   1.870  13.708 -0.8892  0.7551  0.1992
 4648TIP3    H235360   3.060   1.757  13.807  0.6587 -0.2240 -1.1337
 4649TIP3   OH235361   0.247   2.186   0.553 -0.2015  0.1320  0.7657
 4649TIP3    H135362   0.172   2.223   0.600  1.2211  1.3203  2.2158
 4649TIP3    H235363   0.276   2.256   0.494 -0.3788 -0.4265 -0.0039
 4650TIP3   OH235364   2.417   1.570  17.092  0.0195  0.0698  0.3069
 4650TIP3    H135365   2.494   1.536  17.045  1.5915  1.5764  1.6621
 4650TIP3    H235366   2.444   1.572  17.184 -2.6577 -1.9370  1.2707
 4651TIP3   OH235367   0.356   0.801   2.523  0.0352 -0.5062 -0.3062
 4651TIP3    H135368   0.300   0.877   2.509  0.5719  0.2931  1.5564
 4651TIP3    H235369   0.445   0.834   2.513  0.2517 -1.0868 -0.3190
 4652TIP3   OH235370   2.596   6.250   5.771  0.0278  0.0864  0.0376
 4652TIP3    H135371   2.603   6.308   5.847  2.0298 -1.0249  0.7538
 4652TIP3    H235372   2.686   6.229   5.748 -0.4283  1.0228 -3.2017
 4653TIP3   OH235373   0.734   2.735   0.167  0.1017 -0.5428  0.2976
 4653TIP3    H135374   0.771   2.755   0.081 -0.9750  0.6264  0.0688
 4653TIP3    H235375   0.766   2.647   0.187  2.6117  0.2162 -0.0464
 4654TIP3   OH235376   5.402   2.120  12.239  0.6244 -0.1568  0.1562
 4654TIP3    H135377   5.410   2.195  12.298  0.5558  0.3639 -0.4806
 4654TIP3    H235378   5.470   2.059  12.268  2.8284  1.4902 -1.2183
 4655TIP3   OH235379   0.703   3.263   6.021 -0.1544 -0.1730 -0.7599
 4655TIP3    H135380   0.724   3.171   6.007  1.5147  0.1117 -0.3473
 4655TIP3    H235381   0.715   3.304   5.935  1.3192  0.0217 -0.4889
 4656TIP3   OH235382   1.206   1.664  14.040  0.0535  0.5729  0.3445
 4656TIP3    H135383   1.266   1.739  14.040  0.9023 -0.0591 -0.9649
 4656TIP3    H235384   1.148   1.680  14.114  1.1870  1.7373  1.0371
 4657TIP3   OH235385   3.990   0.910   4.635  0.2947  0.2255 -0.2772
 4657TIP3    H135386   3.958   0.858   4.709  0.3359 -0.2670 -0.5982
 4657TIP3    H235387   4.072   0.868   4.610  0.3889  0.5190 -0.4694
 4658TIP3   OH235388   3.330   4.722   1.135 -0.2311  0.3943  0.4839
 4658TIP3    H135389   3.370   4.791   1.187  0.2620 -0.1883  0.8873
 4658TIP3    H235390   3.382   4.644   1.154  0.0948  0.2034 -1.0377
 4659TIP3   OH235391   6.648   4.874   1.193  0.8254  0.0876 -0.0460
 4659TIP3    H135392   6.698   4.838   1.120  0.6655 -0.5327  0.1433
 4659TIP3    H235393   6.690   4.837   1.271  0.0547 -0.4620  0.1144
 4660TIP3   OH235394   5.055   0.816   0.317  0.4254  0.5204  0.2170
 4660TIP3    H135395   5.029   0.785   0.231 -0.6292  1.9746 -0.0301
 4660TIP3    H235396   5.135   0.866   0.302 -0.2974  1.6336 -0.1376
 4661TIP3   OH235397   4.981   5.510  12.083  0.5960 -0.0507 -0.2738
 4661TIP3    H135398   4.914   5.561  12.129 -1.1383 -0.6688 -1.9788
 4661TIP3    H235399   5.052   5.501  12.147 -0.5259  1.4300  1.2881
 4662TIP3   OH235400   6.225   3.307  17.001 -0.8310 -0.0130 -0.1108
 4662TIP3    H135401   6.172   3.308  17.081  0.3434 -3.5374  0.8725
 4662TIP3    H235402   6.315   3.316  17.032 -0.3328 -1.8221 -0.9369
 4663TIP3   OH235403   6.159   2.430   4.834 -0.1323 -0.2453 -0.9697
 4663TIP3    H135404   6.071   2.446   4.800 -0.5793 -0.3755  0.1084
 4663TIP3    H235405   6.147   2.415   4.927  0.9545 -1.0426 -0.9369
 4664TIP3   OH235406   6.019   5.976  14.745 -0.1583 -0.5426  0.3075
 4664TIP3    H135407   5.997   5.992  14.837 -2.0803  0.3509 -0.2509
 4664TIP3    H235408   5.968   5.898  14.721 -1.3207  0.4166 -0.5006
 4665TIP3   OH235409   6.033   2.589   0.547  0.1160  0.2698  0.5264
 4665TIP3    H135410   6.050   2.580   0.453 -1.4536  0.2499  0.2113
 4665TIP3    H235411   6.093   2.658   0.575 -0.4362  1.3715 -0.8355
 4666TIP3   OH235412   5.427   5.272  11.931 -0.2893 -0.0400 -0.5663
 4666TIP3    H135413   5.363   5.228  11.874  0.6611 -0.1252 -1.6048
 4666TIP3    H235414   5.511   5.259  11.887  0.5495 -0.4510  1.0908
 4667TIP3   OH235415   5.981   5.565  13.895 -0.0955  0.8373  0.4106
 4667TIP3    H135416   6.068   5.540  13.864 -1.1303  0.6622 -2.7574
 4667TIP3    H235417   5.941   5.484  13.924  0.2721  0.6537  0.4080
 4668TIP3   OH235418   5.479   6.216  14.877 -0.9250  0.1597 -0.2001
 4668TIP3    H135419   5.500   6.172  14.795  0.9855 -1.0619  0.8823
 4668TIP3    H235420   5.404   6.273  14.855 -1.0718 -0.8210 -2.5229
 4669TIP3   OH235421   1.114   0.143   5.910  0.4953 -0.2719 -0.4009
 4669TIP3    H135422   1.091   0.114   5.998  2.6437 -0.4100  0.1632
 4669TIP3    H235423   1.093   0.236   5.909  0.5181 -0.2568  0.2850
 4670TIP3   OH235424   4.579   1.909   5.839 -0.4977 -0.1646  0.0682
 4670TIP3    H135425   4.560   1.971   5.768  0.0312 -0.5830 -0.4571
 4670TIP3    H235426   4.652   1.949   5.887  0.1683 -0.5801 -0.5623
 4671TIP3   OH235427   4.845   6.253   4.814 -0.7414  0.2919  0.0303
 4671TIP3    H135428   4.818   6.180   4.869 -2.5543  2.4952  2.2737
 4671TIP3    H235429   4.914   6.297   4.863  0.4764  0.0741 -1.3887
 4672TIP3   OH235430   5.654   5.048  13.265 -0.5461  0.6393  0.0266
 4672TIP3    H135431   5.689   5.059  13.354 -1.0383 -0.5250  0.3930
 4672TIP3    H235432   5.647   5.136  13.231  1.0201  1.0299  0.6089
 4673TIP3   OH235433   1.881   4.350  13.082 -0.3116 -0.0571 -0.4521
 4673TIP3    H135434   1.929   4.300  13.148 -1.3602  1.7192  1.8285
 4673TIP3    H235435   1.946   4.371  13.015  1.0071 -1.2862  0.3835
 4674TIP3   OH235436   0.094   4.947  14.111 -0.8233 -0.4887  0.0629
 4674TIP3    H135437   0.069   4.971  14.201 -1.5474 -0.1923 -0.2113
 4674TIP3    H235438   0.135   4.861  14.119 -1.0463 -0.5420  0.6506
 4675TIP3   OH235439   5.794   4.515  16.454  0.1150  0.6381 -0.2000
 4675TIP3    H135440   5.797   4.425  16.488  0.8297  0.5126 -0.5878
 4675TIP3    H235441   5.768   4.505  16.363 -1.1845  0.9319  0.1212
 4676TIP3   OH235442   3.108   1.281   4.750 -0.2328  0.1540 -0.0286
 4676TIP3    H135443   3.170   1.258   4.680  1.2357  1.2649  0.8693
 4676TIP3    H235444   3.138   1.230   4.825 -0.2594  0.8661  0.4714
 4677TIP3   OH235445   4.217   4.504   5.484  0.3447 -0.0738 -0.7076
 4677TIP3    H135446   4.217   4.451   5.564  0.6490  1.6521  0.4976
 4677TIP3    H235447   4.142   4.472   5.434 -1.1603  0.1952  1.2713
 4678TIP3   OH235448   5.380   5.870  15.244 -0.2755  0.2388 -0.1849
 4678TIP3    H135449   5.353   5.962  15.248  0.0656  0.3098  1.7793
 4678TIP3    H235450   5.379   5.848  15.151 -1.0930  2.0069 -0.6351
 4679TIP3   OH235451   0.740   3.556  15.000  0.0560 -0.0584  0.1783
 4679TIP3    H135452   0.809   3.580  14.938  1.1853 -0.0923  1.3686
 4679TIP3    H235453   0.689   3.488  14.954  1.8035 -1.2160 -0.1587
 4680TIP3   OH235454   1.081   2.981  12.786  0.2428  0.3013  0.2061
 4680TIP3    H135455   1.079   2.921  12.711  2.4015  1.8582 -1.2151
 4680TIP3    H235456   1.150   2.946  12.842  2.9305  2.3655 -1.5974
 4681TIP3   OH235457   0.260   5.683   0.693 -0.0637 -0.3475  0.2722
 4681TIP3    H135458   0.311   5.745   0.745  4.4323 -2.4114 -1.0746
 4681TIP3    H235459   0.291   5.597   0.722 -1.6963 -1.7288 -1.8161
 4682TIP3   OH235460   4.108   3.683   1.234  0.2836 -0.3361 -0.4876
 4682TIP3    H135461   4.087   3.612   1.172 -2.2645 -0.0268 -0.0675
 4682TIP3    H235462   4.125   3.758   1.178  2.5662 -1.0832 -0.9209
 4683TIP3   OH235463   2.624   0.850   3.321 -0.1443  0.3973  0.0980
 4683TIP3    H135464   2.719   0.858   3.326  0.1567 -1.3895 -1.3937
 4683TIP3    H235465   2.596   0.930   3.278  0.5647  1.3182  1.2833
 4684TIP3   OH235466   6.384   0.838  12.071  0.6178 -0.6301 -0.4257
 4684TIP3    H135467   6.455   0.799  12.122 -0.0137 -1.2810 -0.0298
 4684TIP3    H235468   6.426   0.868  11.990  1.8240  1.2369  0.8166
 4685TIP3   OH235469   2.235   1.713   3.354 -0.3158 -0.6232  0.3891
 4685TIP3    H135470   2.241   1.782   3.288 -1.5486 -0.4099  0.4663
 4685TIP3    H235471   2.228   1.760   3.437  1.1567 -0.8911  0.6815
 4686TIP3   OH235472   4.051   4.118  15.127  0.3453 -1.0497  0.3264
 4686TIP3    H135473   3.985   4.155  15.069  0.5556 -0.9832  0.1240
 4686TIP3    H235474   4.011   4.039  15.163 -0.0868 -0.6511  0.7253
 4687TIP3   OH235475   1.831   4.228   3.763 -0.6100  0.3139  0.0681
 4687TIP3    H135476   1.860   4.198   3.849 -0.2669  0.3888 -0.0204
 4687TIP3    H235477   1.797   4.316   3.778  1.4745  1.2376 -0.2232
 4688TIP3   OH235478   5.071   1.940   2.139 -0.4710  0.3840 -0.1983
 4688TIP3    H135479   5.067   1.845   2.156  1.1264  0.7029  2.5411
 4688TIP3    H235480   5.164   1.957   2.124 -0.3783  1.7649  1.5863
 4689TIP3   OH235481   0.896   0.508   0.067  0.4115  0.1140 -0.1267
 4689TIP3    H135482   0.855   0.494   0.153  0.6587 -0.0222 -0.0298
 4689TIP3    H235483   0.989   0.517   0.086  0.6388 -1.2211 -0.5074
 4690TIP3   OH235484   6.099   4.287  14.704  0.3122  0.1502 -0.1243
 4690TIP3    H135485   6.158   4.359  14.684 -1.2124  0.9351 -2.1685
 4690TIP3    H235486   6.019   4.329  14.738 -0.5883 -0.5163 -1.3234
 4691TIP3   OH235487   6.748   4.282  12.824  0.6183 -0.2555  0.0750
 4691TIP3    H135488   6.683   4.212  12.814 -0.1530  0.5560 -1.0100
 4691TIP3    H235489   6.752   4.299  12.918 -1.6333  0.4229  0.1078
 4692TIP3   OH235490   2.096   2.169   5.258 -0.4449 -0.6230 -0.1286
 4692TIP3    H135491   2.129   2.214   5.181 -4.2388  2.0475 -0.4540
 4692TIP3    H235492   2.048   2.094   5.224 -1.2402 -0.0313 -0.3482
 4693TIP3   OH235493   3.022   6.114   2.766 -0.0263  0.1937  0.0598
 4693TIP3    H135494   2.989   6.177   2.830 -0.7023 -0.0283 -0.0547
 4693TIP3    H235495   3.007   6.156   2.681  0.3515  0.2553  0.0239
 4694TIP3   OH235496   0.160   6.573   3.907 -0.4725  0.4565  0.3361
 4694TIP3    H135497   0.090   6.635   3.928 -0.4343  0.8767 -0.6879
 4694TIP3    H235498   0.131   6.531   3.826  0.1626  0.1763  0.2461
 4695TIP3   OH235499   3.636   4.783   4.266  0.2156 -0.1297 -0.5101
 4695TIP3    H135500   3.699   4.712   4.256 -0.4446 -0.6473 -1.1703
 4695TIP3    H235501   3.679   4.859   4.226  0.8489 -0.1987  0.0260
 4696TIP3   OH235502   3.852   2.353   3.300  0.4541  0.0269  0.0461
 4696TIP3    H135503   3.837   2.447   3.292 -1.7251 -0.3074 -0.4232
 4696TIP3    H235504   3.946   2.343   3.288  0.8273  2.1941  0.7216
 4697TIP3   OH235505   6.076   1.113   6.196  0.4485  0.0733  0.0912
 4697TIP3    H135506   6.086   1.164   6.277  0.1230  0.8528 -0.3541
 4697TIP3    H235507   5.985   1.083   6.197 -0.0175  1.3995 -0.7352
 4698TIP3   OH235508   6.249   3.471   5.662  0.2275  0.3710 -0.1726
 4698TIP3    H135509   6.271   3.384   5.630 -1.4516  0.2168 -0.9969
 4698TIP3    H235510   6.214   3.457   5.750  1.9950  0.4755  0.5808
 4699TIP3   OH235511   6.419   4.337  15.206 -0.3421  0.3134 -0.7734
 4699TIP3    H135512   6.327   4.352  15.230 -0.7419 -0.6056 -1.6833
 4699TIP3    H235513   6.439   4.405  15.142 -0.6605 -0.0072 -1.2206
 4700TIP3   OH235514   0.197   4.526  12.287  0.7395 -0.3391 -0.3271
 4700TIP3    H135515   0.102   4.519  12.286  0.8011 -2.8351  1.6283
 4700TIP3    H235516   0.216   4.596  12.349  0.2228  1.2233 -1.8644
 4701TIP3   OH235517   1.827   6.291  15.146  0.1622  0.0426 -0.0356
 4701TIP3    H135518   1.878   6.213  15.169  0.5105  0.6663  1.4243
 4701TIP3    H235519   1.738   6.270  15.171  0.1058 -0.1998 -0.4384
 4702TIP3   OH235520   3.372   0.104   1.251 -0.0693  0.4464 -0.4605
 4702TIP3    H135521   3.399   0.026   1.201 -1.2272  0.8763 -1.8329
 4702TIP3    H235522   3.319   0.069   1.322  3.0392 -0.3339  1.6942
 4703TIP3   OH235523   1.699   1.024  17.152  0.0390  0.1527 -0.3670
 4703TIP3    H135524   1.725   0.942  17.193 -0.2165 -0.5965 -1.6463
 4703TIP3    H235525   1.630   1.059  17.208 -0.0992 -0.6899 -0.0040
 4704TIP3   OH235526   2.660   4.751  12.054 -0.1308  0.0541  0.4073
 4704TIP3    H135527   2.750   4.738  12.023 -0.4401  0.6702 -0.7990
 4704TIP3    H235528   2.649   4.846  12.054 -1.1117 -0.0432 -0.4642
 4705TIP3   OH235529   4.625   6.314   5.475 -0.3273 -0.1202 -0.4408
 4705TIP3    H135530   4.578   6.393   5.500 -1.0463 -0.2201 -1.4564
 4705TIP3    H235531   4.570   6.272   5.409  0.0752 -1.4349  0.0149
 4706TIP3   OH235532   4.967   6.271   4.063 -0.0039 -0.3806  0.3219
 4706TIP3    H135533   4.937   6.254   3.973 -1.0124 -0.1371  0.6050
 4706TIP3    H235534   4.938   6.361   4.081  1.7519  0.2380  0.2731
 4707TIP3   OH235535   0.564   2.237  11.362  0.3676  0.2649  0.0029
 4707TIP3    H135536   0.574   2.162  11.302  0.5894 -0.8349  1.3644
 4707TIP3    H235537   0.469   2.246  11.372  0.3399  0.1338 -0.1256
 4708TIP3   OH235538   3.341   0.268  12.532 -0.1942 -0.3973  0.1194
 4708TIP3    H135539   3.426   0.248  12.570 -1.0032 -2.0684  1.1334
 4708TIP3    H235540   3.292   0.311  12.602 -1.3664 -2.6600  0.8102
 4709TIP3   OH235541   4.010   0.900   2.138 -0.6286 -0.7312 -0.3782
 4709TIP3    H135542   4.097   0.859   2.143 -0.7306 -0.9834 -0.6368
 4709TIP3    H235543   4.016   0.976   2.196 -0.3318 -0.9219 -0.1566
 4710TIP3   OH235544   2.896   0.200  10.573 -0.4207  0.4563 -0.1009
 4710TIP3    H135545   2.960   0.270  10.561  0.5071 -0.0315  1.5827
 4710TIP3    H235546   2.849   0.224  10.653 -1.4956  0.1687 -0.6264
 4711TIP3   OH235547   5.133   0.128   0.614 -0.2112 -0.0600  0.0656
 4711TIP3    H135548   5.075   0.090   0.548  0.7433 -1.3974 -0.0488
 4711TIP3    H235549   5.123   0.072   0.691 -0.4693  0.8189  0.6929
 4712TIP3   OH235550   1.840   5.442  15.064  0.3153 -0.1881  0.0564
 4712TIP3    H135551   1.757   5.487  15.048  0.4339  0.4262  1.0599
 4712TIP3    H235552   1.892   5.459  14.986 -1.0176 -1.8498 -1.2607
 4713TIP3   OH235553   3.014   6.408   3.664  0.1948 -0.7041  0.2210
 4713TIP3    H135554   2.978   6.367   3.743  2.9177 -0.3672  1.7571
 4713TIP3    H235555   3.056   6.488   3.695 -2.0080  1.5773 -2.2170
 4714TIP3   OH235556   3.253   3.221   3.406  0.2391  0.3786  0.2885
 4714TIP3    H135557   3.347   3.228   3.394  0.2288  0.8913  0.4886
 4714TIP3    H235558   3.232   3.285   3.474 -0.1854 -0.0711  0.5913
 4715TIP3   OH235559   1.420   6.684  11.983  0.4044 -0.1621 -0.5926
 4715TIP3    H135560   1.402   6.701  12.076 -0.1565 -1.9615 -0.3345
 4715TIP3    H235561   1.500   6.632  11.984 -0.2925 -1.2603 -1.0216
 4716TIP3   OH235562   2.198   1.893   0.470  0.5466 -0.5106 -0.2048
 4716TIP3    H135563   2.282   1.848   0.462  0.8139 -0.2803  0.9718
 4716TIP3    H235564   2.149   1.869   0.392  1.7811 -0.4932 -1.0044
 4717TIP3   OH235565   3.702   5.168   4.286  0.1549 -0.7732 -0.0773
 4717TIP3    H135566   3.733   5.142   4.373  0.3221 -2.5171 -0.6097
 4717TIP3    H235567   3.615   5.130   4.279 -1.1118  1.8136  0.3702
 4718TIP3   OH235568   0.288   5.675   4.586 -0.2743 -0.5226 -0.0298
 4718TIP3    H135569   0.367   5.711   4.626  0.2850  0.6407 -2.0515
 4718TIP3    H235570   0.274   5.592   4.631  1.5157 -0.2866  1.0585
 4719TIP3   OH235571   1.917   0.153  14.205 -0.0876 -0.0774 -0.0120
 4719TIP3    H135572   2.005   0.185  14.223  0.2441 -1.1283  0.2905
 4719TIP3    H235573   1.873   0.155  14.290 -0.0248 -0.5299  0.0332
 4720TIP3   OH235574   6.705   2.713  17.091 -0.5456 -0.3176  0.6877
 4720TIP3    H135575   6.770   2.659  17.045 -0.3065  0.6611 -0.1800
 4720TIP3    H235576   6.705   2.680  17.180  0.7201 -0.7398  0.5581
 4721TIP3   OH235577   4.193   6.575  17.237  0.6468 -0.3833 -0.2493
 4721TIP3    H135578   4.274   6.613  17.272  0.9464 -1.3387  0.1257
 4721TIP3    H235579   4.178   6.497  17.291 -0.3911 -0.3612 -0.4797
 4722TIP3   OH235580   1.762   0.539   1.929 -0.2132  0.3896 -0.3644
 4722TIP3    H135581   1.835   0.550   1.990 -1.0613 -0.4457  0.8436
 4722TIP3    H235582   1.702   0.610   1.952 -0.7699 -0.2368  0.1331
 4723TIP3   OH235583   6.356   2.769  13.526  0.4307  0.4099  0.0503
 4723TIP3    H135584   6.296   2.844  13.522  0.0598  0.1429  0.5097
 4723TIP3    H235585   6.314   2.707  13.586 -0.0751 -0.8793 -1.5645
 4724TIP3   OH235586   3.976   0.621   6.162 -0.3458  0.4773 -0.0046
 4724TIP3    H135587   4.023   0.572   6.229  0.0155  1.8015  0.7541
 4724TIP3    H235588   3.963   0.708   6.201 -1.2825  0.8747 -1.1501
 4725TIP3   OH235589   3.433   0.844   0.462 -0.5361  0.2788  0.0282
 4725TIP3    H135590   3.342   0.832   0.488 -0.2168 -1.3008  0.4928
 4725TIP3    H235591   3.483   0.830   0.542  0.1890  0.0016 -0.4673
 4726TIP3   OH235592   6.739   2.332   4.994  0.1962  0.1065 -0.0953
 4726TIP3    H135593   6.739   2.363   4.904 -1.7806  0.0488 -0.1703
 4726TIP3    H235594   6.791   2.397   5.042  1.3197  0.1028 -1.2526
 4727TIP3   OH235595   1.971   4.018  13.405  0.2325  0.3408  0.6719
 4727TIP3    H135596   1.888   4.062  13.387 -0.6965 -0.9147  1.6457
 4727TIP3    H235597   2.037   4.069  13.358 -1.2637  0.5458 -1.3475
 4728TIP3   OH235598   6.151   2.102  15.643 -0.2582  0.4267 -0.0162
 4728TIP3    H135599   6.077   2.107  15.582 -1.1386  0.9788  1.0751
 4728TIP3    H235600   6.227   2.090  15.586 -1.0456  1.0168 -1.2398
 4729TIP3   OH235601   2.113   4.119  15.252  0.0417  0.4624  0.3250
 4729TIP3    H135602   2.109   4.057  15.179  2.0823  0.3774  0.2241
 4729TIP3    H235603   2.111   4.064  15.331  1.6866  0.2337  0.2380
 4730TIP3   OH235604   2.921   0.905   2.722  0.3395 -0.0576  0.0338
 4730TIP3    H135605   2.948   0.996   2.715  0.1790  0.3352  3.1966
 4730TIP3    H235606   2.982   0.857   2.665  0.1440  2.0037 -2.0322
 4731TIP3   OH235607   4.543   5.174   1.688 -0.3329  0.0507 -0.2478
 4731TIP3    H135608   4.520   5.258   1.647  0.0276  0.8651  1.1476
 4731TIP3    H235609   4.634   5.160   1.664 -0.1404  0.4978  0.1901
 4732TIP3   OH235610   5.855   6.374   2.705 -0.0846 -0.1041 -0.6323
 4732TIP3    H135611   5.793   6.431   2.750 -0.0604  0.1576 -0.9269
 4732TIP3    H235612   5.860   6.296   2.760 -2.1256 -0.9640 -1.5691
 4733TIP3   OH235613   6.685   3.053  16.688  0.0075 -0.0644 -0.2247
 4733TIP3    H135614   6.605   3.094  16.721  0.7060  1.8349 -0.7766
 4733TIP3    H235615   6.725   3.013  16.766 -0.7095  0.2991  0.3436
 4734TIP3   OH235616   4.631   4.460  15.196 -0.1438  0.2328  0.0608
 4734TIP3    H135617   4.679   4.496  15.122  2.1369 -0.8057  0.9524
 4734TIP3    H235618   4.588   4.381  15.161 -0.4047  0.6241 -0.5114
 4735TIP3   OH235619   0.382   6.251   5.569 -0.5379  0.0022  0.0699
 4735TIP3    H135620   0.355   6.303   5.645  0.4770 -1.1851  1.2883
 4735TIP3    H235621   0.400   6.316   5.501  0.9991  1.3115  1.6361
 4736TIP3   OH235622   5.477   6.656  15.658 -0.4710 -0.6117 -0.2168
 4736TIP3    H135623   5.474   6.627  15.567  0.3798 -0.1093 -0.4086
 4736TIP3    H235624   5.531   6.590  15.702 -0.4322 -0.5582 -0.1849
 4737TIP3   OH235625   2.884   1.165   5.488  0.4185  0.3364 -0.1531
 4737TIP3    H135626   2.829   1.241   5.470 -0.0534 -0.1495 -0.7995
 4737TIP3    H235627   2.967   1.185   5.446 -0.4239 -0.4533 -2.3372
 4738TIP3   OH235628   5.276   2.411   3.078 -0.0155  0.0508  0.4058
 4738TIP3    H135629   5.354   2.422   3.133  0.2673  1.0469 -0.1752
 4738TIP3    H235630   5.310   2.407   2.988 -0.6733  1.0585  0.0986
 4739TIP3   OH235631   1.830   4.979  12.282  0.3569 -0.1029  0.3555
 4739TIP3    H135632   1.836   4.915  12.354  2.7958  2.8293  3.0307
 4739TIP3    H235633   1.906   4.960  12.227  1.3505  0.6764  1.4094
 4740TIP3   OH235634   1.755   2.254  12.957 -0.6382  0.0042 -0.3879
 4740TIP3    H135635   1.769   2.307  13.036 -2.6720  0.3697 -0.2159
 4740TIP3    H235636   1.814   2.179  12.968  2.0675  1.9656 -0.4764
 4741TIP3   OH235637   4.319   4.286  16.875 -0.4475  0.0992 -0.0244
 4741TIP3    H135638   4.294   4.220  16.940  0.3918 -0.5200 -0.3079
 4741TIP3    H235639   4.359   4.235  16.804  1.4154  1.0015  0.3234
 4742TIP3   OH235640   5.965   6.137  16.002  0.1614 -0.0383 -1.2476
 4742TIP3    H135641   5.961   6.222  16.046 -0.0065 -0.1503 -1.0481
 4742TIP3    H235642   5.911   6.079  16.055  1.8245 -0.7776 -0.2798
 4743TIP3   OH235643   4.593   1.476  15.440  0.5567 -0.4108 -0.1908
 4743TIP3    H135644   4.538   1.413  15.486  1.2722 -1.9226 -1.3312
 4743TIP3    H235645   4.647   1.516  15.509 -0.5209 -0.3636  0.6573
 4744TIP3   OH235646   0.467   2.257  14.636 -0.4506 -0.0053 -0.0524
 4744TIP3    H135647   0.405   2.223  14.700  1.6346  0.2842  2.2772
 4744TIP3    H235648   0.483   2.347  14.664  0.4573  0.1655 -1.0469
 4745TIP3   OH235649   1.750   4.054   2.874  0.2913  0.3322  0.4804
 4745TIP3    H135650   1.768   4.094   2.789  1.3014  1.2208  1.0947
 4745TIP3    H235651   1.675   3.997   2.857 -0.4983  1.6432 -0.6672
 4746TIP3   OH235652   2.402   0.362   1.026 -0.0019  0.3818 -0.6598
 4746TIP3    H135653   2.437   0.419   1.094  0.0817  0.7891 -1.0430
 4746TIP3    H235654   2.355   0.421   0.967 -0.3446 -0.0104 -0.7830
 4747TIP3   OH235655   6.009   0.420   2.797  0.1095 -0.0138 -0.0088
 4747TIP3    H135656   6.065   0.409   2.874  0.6113 -0.8066 -0.4727
 4747TIP3    H235657   5.941   0.354   2.806  0.0087  0.0744 -0.1125
 4748TIP3   OH235658   1.603   6.282   3.201 -0.6852 -0.2383 -0.1146
 4748TIP3    H135659   1.573   6.373   3.205  0.1824  0.1420 -1.5988
 4748TIP3    H235660   1.697   6.287   3.214 -0.8500 -1.1595  1.8036
 4749TIP3   OH235661   2.782   1.000  15.509  0.2086  0.3520  0.4863
 4749TIP3    H135662   2.717   0.932  15.491  1.4889 -0.3264 -2.1821
 4749TIP3    H235663   2.831   1.008  15.427  1.0833  3.4739  1.1761
 4750TIP3   OH235664   5.533   4.296   6.365 -0.7708 -0.4894  0.5653
 4750TIP3    H135665   5.558   4.322   6.454  1.1888  0.2976 -0.1569
 4750TIP3    H235666   5.517   4.202   6.371 -0.6397 -0.4579  1.7431
 4751TIP3   OH235667   5.734   5.041   5.985  0.7465 -0.4023 -0.4077
 4751TIP3    H135668   5.655   5.066   5.937  0.1284  1.2326  1.3176
 4751TIP3    H235669   5.769   5.123   6.019  2.1962 -1.2866  0.3653
 4752TIP3   OH235670   3.529   1.932   1.309  0.0576  0.0157 -0.4343
 4752TIP3    H135671   3.503   1.859   1.253  0.1916  1.4041 -2.4187
 4752TIP3    H235672   3.624   1.928   1.311  0.1421  0.8825 -1.6756
 4753TIP3   OH235673   4.843   1.659   4.260 -0.0063  0.1366 -0.5807
 4753TIP3    H135674   4.883   1.685   4.343 -1.6874 -0.1463  0.3744
 4753TIP3    H235675   4.792   1.736   4.234  0.9741  0.4344 -1.6799
 4754TIP3   OH235676   0.062   4.436   5.737  0.3513 -0.1021 -0.6110
 4754TIP3    H135677   0.143   4.484   5.716  1.4145 -1.8461 -0.7414
 4754TIP3    H235678   0.050   4.450   5.831  0.9898 -0.0652 -0.5256
 4755TIP3   OH235679   2.654   3.285   4.718 -0.1294  0.1996 -0.0424
 4755TIP3    H135680   2.677   3.279   4.625 -0.1364  2.7904 -0.2608
 4755TIP3    H235681   2.633   3.194   4.743 -0.7510 -0.4738 -2.7012
 4756TIP3   OH235682   4.227   1.418   3.869 -0.0299 -0.3504  0.2188
 4756TIP3    H135683   4.157   1.360   3.838 -0.8409  0.2683  0.8495
 4756TIP3    H235684   4.182   1.486   3.920  1.1884 -1.2727  2.7288
 4757TIP3   OH235685   6.338   2.775  15.866 -0.8501 -0.5191  0.4078
 4757TIP3    H135686   6.337   2.863  15.830  0.6604  0.2914  2.1874
 4757TIP3    H235687   6.299   2.721  15.797 -1.5198  1.4560 -0.8604
 4758TIP3   OH235688   5.478   2.597   3.832  0.0589 -0.3816 -0.5115
 4758TIP3    H135689   5.532   2.675   3.822  0.0743 -0.4656 -1.1001
 4758TIP3    H235690   5.509   2.557   3.914  1.8557 -1.1555 -1.4971
 4759TIP3   OH235691   6.591   3.003  10.560  1.0013  0.1247  0.3187
 4759TIP3    H135692   6.641   2.983  10.639  0.7262 -0.5393  0.3337
 4759TIP3    H235693   6.500   2.994  10.587  0.9104 -0.4501 -0.1584
 4760TIP3   OH235694   5.853   5.756   1.163  0.4696  0.2950  0.7253
 4760TIP3    H135695   5.925   5.702   1.129  1.3842  1.0742  1.3548
 4760TIP3    H235696   5.866   5.841   1.120  0.1593  0.5566  1.1503
 4761TIP3   OH235697   5.338   3.789  15.453  0.0840 -0.7290  0.1714
 4761TIP3    H135698   5.267   3.850  15.472 -1.1255 -2.1659  0.4363
 4761TIP3    H235699   5.317   3.751  15.368  0.9889 -0.5757 -0.1392
 4762TIP3   OH235700   3.842   3.242   2.596  0.1144  0.5556 -0.5049
 4762TIP3    H135701   3.916   3.286   2.555  1.6311  0.1409  1.6361
 4762TIP3    H235702   3.812   3.179   2.530  2.9128 -0.5965 -0.8122
 4763TIP3   OH235703   2.269   0.936  16.882  0.0002 -0.1322  0.3763
 4763TIP3    H135704   2.238   1.024  16.860 -1.0091 -0.6791 -0.5239
 4763TIP3    H235705   2.320   0.908  16.806  1.0664 -0.0023  1.0264
 4764TIP3   OH235706   1.877   0.412   1.105  0.3277 -0.3178  0.1206
 4764TIP3    H135707   1.954   0.465   1.085  0.8732 -0.0119  2.6211
 4764TIP3    H235708   1.871   0.414   1.201 -1.5123 -2.1690  0.1235
 4765TIP3   OH235709   4.341   5.761  14.760 -0.4683  0.3887  0.4608
 4765TIP3    H135710   4.270   5.758  14.825 -1.2015  1.6419 -0.2273
 4765TIP3    H235711   4.304   5.719  14.682 -1.0493  2.3478 -0.3856
 4766TIP3   OH235712   5.928   5.621  14.238  0.3059  0.0360 -0.1891
 4766TIP3    H135713   5.919   5.683  14.165 -3.0784  1.9257  1.5884
 4766TIP3    H235714   5.900   5.537  14.201  1.5602  0.2606 -1.7626
 4767TIP3   OH235715   3.239   3.239  12.613  0.5390  0.0886 -0.4816
 4767TIP3    H135716   3.148   3.239  12.644 -0.3436 -2.2968 -2.7358
 4767TIP3    H235717   3.243   3.314  12.554  0.0153  0.1654 -0.4321
 4768TIP3   OH235718   5.832   4.439  14.505 -0.0589 -0.3273 -0.1415
 4768TIP3    H135719   5.791   4.475  14.427 -0.6199 -0.7143 -0.0306
 4768TIP3    H235720   5.858   4.515  14.557 -2.4263 -0.0396  0.7287
 4769TIP3   OH235721   4.312   1.473   1.573  0.3765  0.3824  0.1404
 4769TIP3    H135722   4.291   1.531   1.500 -1.8035  1.5269  1.5463
 4769TIP3    H235723   4.273   1.516   1.650  1.6554 -1.2683  1.8242
 4770TIP3   OH235724   3.841   1.724  14.571  0.2946 -0.6707  0.1022
 4770TIP3    H135725   3.925   1.756  14.605 -0.3740  0.3413  0.8635
 4770TIP3    H235726   3.784   1.721  14.648 -1.2701  1.6914 -0.8677
 4771TIP3   OH235727   2.076   2.571  12.558 -0.1403  0.3924 -0.0801
 4771TIP3    H135728   2.008   2.547  12.621 -0.3155  0.3334 -0.2909
 4771TIP3    H235729   2.158   2.567  12.608 -0.4626  2.2408  0.6744
 4772TIP3   OH235730   4.429   2.468  16.304  0.2666  0.3870 -0.7266
 4772TIP3    H135731   4.388   2.420  16.232  0.4646 -0.0020 -0.5799
 4772TIP3    H235732   4.384   2.552  16.304 -0.3394  0.0725 -0.7529
 4773TIP3   OH235733   0.781   5.328  14.156  0.5922  0.0419 -0.2595
 4773TIP3    H135734   0.785   5.418  14.189 -0.9592  0.2785 -0.6351
 4773TIP3    H235735   0.709   5.288  14.205  0.9859 -0.8724 -0.4045
 4774TIP3   OH235736   2.680   2.686  13.502  0.3117  0.4720  0.2649
 4774TIP3    H135737   2.775   2.689  13.494  0.4669 -1.3858  1.0634
 4774TIP3    H235738   2.662   2.723  13.588  0.3098  0.6397  0.1942
 4775TIP3   OH235739   5.679   5.176  15.082  0.1133  0.4792  0.6928
 4775TIP3    H135740   5.604   5.232  15.100 -1.8717 -1.5374 -0.6151
 4775TIP3    H235741   5.660   5.095  15.130  0.1838 -0.9145 -1.4667
 4776TIP3   OH235742   3.473   3.090  12.443  0.3291 -0.4543  0.7086
 4776TIP3    H135743   3.501   3.098  12.534 -0.3771  1.0505  0.8166
 4776TIP3    H235744   3.534   3.027  12.404  0.7687 -0.9483  2.1567
 4777TIP3   OH235745   2.832   5.130   0.372  0.5745 -0.6269  0.2023
 4777TIP3    H135746   2.748   5.127   0.327  0.8565 -0.7109 -0.3286
 4777TIP3    H235747   2.810   5.120   0.465 -0.0123 -0.4685  0.0838
 4778TIP3   OH235748   4.675   0.419  17.374 -0.3510  0.3253  0.1221
 4778TIP3    H135749   4.640   0.487  17.315 -0.1869  0.5706  0.3077
 4778TIP3    H235750   4.770   0.423  17.361 -0.4176 -0.7679 -0.8484
 4779TIP3   OH235751   5.433   0.582   1.464 -0.2013 -0.5361  0.0817
 4779TIP3    H135752   5.407   0.576   1.556 -0.6741 -0.8174 -0.0703
 4779TIP3    H235753   5.364   0.634   1.423 -0.8884 -1.8213 -0.4537
 4780TIP3   OH235754   5.200   2.659  11.083  0.5285 -0.3685  0.3398
 4780TIP3    H135755   5.120   2.668  11.031 -0.3299  1.8667  1.9000
 4780TIP3    H235756   5.260   2.611  11.026 -0.7704  0.7971 -2.1705
 4781TIP3   OH235757   5.368   1.180   0.602 -0.5750  0.6325  0.1094
 4781TIP3    H135758   5.322   1.101   0.627  3.0250 -1.0901  2.1135
 4781TIP3    H235759   5.370   1.233   0.682  0.9410  0.5536  0.1659
 4782TIP3   OH235760   2.387   4.332   1.996  0.5119  0.1514  0.0876
 4782TIP3    H135761   2.297   4.354   1.973  0.3701  1.7609  1.9231
 4782TIP3    H235762   2.432   4.325   1.912 -1.4736 -1.5820 -0.9165
 4783TIP3   OH235763   2.813   2.677  12.086 -0.3546 -0.4609 -0.2807
 4783TIP3    H135764   2.768   2.593  12.089 -0.8675 -0.1963 -0.4771
 4783TIP3    H235765   2.889   2.662  12.028 -0.3687 -0.8190 -0.2059
 4784TIP3   OH235766   3.542   1.938  15.613 -0.2964 -0.0207 -0.5340
 4784TIP3    H135767   3.552   1.969  15.523 -1.2288 -1.5950 -1.2113
 4784TIP3    H235768   3.632   1.936  15.647  0.0918  0.4240 -1.4813
 4785TIP3   OH235769   2.855   2.454  14.500  0.3793  0.1562  0.3508
 4785TIP3    H135770   2.892   2.525  14.448  0.5634  0.8059  1.3349
 4785TIP3    H235771   2.785   2.496  14.551  0.9806 -0.2031  1.4949
 4786TIP3   OH235772   0.594   0.477  14.064 -0.3786 -0.3499 -1.0986
 4786TIP3    H135773   0.526   0.430  14.112 -0.5594  1.8609  1.0385
 4786TIP3    H235774   0.673   0.464  14.115 -0.3410  1.2149 -0.6993
 4787TIP3   OH235775   2.939   2.701  14.096 -0.4110 -0.4225 -0.7393
 4787TIP3    H135776   2.861   2.692  14.150 -0.0443 -2.7804 -0.4938
 4787TIP3    H235777   2.930   2.786  14.053 -2.9768 -0.5341 -0.5360
 4788TIP3   OH235778   1.074   4.692  12.316 -0.0834  0.4888  0.0683
 4788TIP3    H135779   1.088   4.599  12.336  0.8763  0.9182  1.5416
 4788TIP3    H235780   1.151   4.718  12.265 -0.9026  0.2299 -1.3575
 4789TIP3   OH235781   1.885   2.884   5.800 -0.1331  0.4955 -0.5441
 4789TIP3    H135782   1.838   2.922   5.875 -0.2251  1.0782 -0.8995
 4789TIP3    H235783   1.817   2.872   5.733  0.0062  0.2421 -0.6437
 4790TIP3   OH235784   1.082   4.660   0.568  0.1318  0.1815 -0.0675
 4790TIP3    H135785   1.015   4.595   0.585  0.4667  0.2982  1.9147
 4790TIP3    H235786   1.149   4.644   0.634  1.2138  1.2239 -0.8542
 4791TIP3   OH235787   5.707   0.040  14.959  0.2571  0.2158  0.2840
 4791TIP3    H135788   5.756   0.019  14.879 -0.6610  0.3169 -0.3185
 4791TIP3    H235789   5.621   0.002  14.945 -0.0217  0.5460  1.0755
 4792TIP3   OH235790   0.081   5.208  16.256  0.4443  0.0766 -0.8646
 4792TIP3    H135791   0.105   5.134  16.312 -0.8965  1.0326  1.0922
 4792TIP3    H235792   0.154   5.269  16.264  0.7616 -0.2810 -1.0446
 4793TIP3   OH235793   0.999   3.404   0.887  0.4604  0.0414 -0.5064
 4793TIP3    H135794   1.067   3.459   0.926 -0.6040  0.1073  1.4179
 4793TIP3    H235795   0.979   3.340   0.956 -3.5651  1.9107  0.3487
 4794TIP3   OH235796   5.512   4.811  13.334 -0.0074 -0.1546 -0.6326
 4794TIP3    H135797   5.564   4.887  13.307  1.3118 -0.3963  1.0913
 4794TIP3    H235798   5.576   4.743  13.350 -1.0533 -1.1547 -0.5622
 4795TIP3   OH235799   1.070   6.534  13.008 -0.2245  0.0110  0.4757
 4795TIP3    H135800   1.083   6.582  13.090 -0.9698  0.0965  0.5428
 4795TIP3    H235801   1.054   6.444  13.036 -1.4539  0.2150  0.4852
 4796TIP3   OH235802   2.288   4.558   2.364 -0.0928  0.1039 -0.2933
 4796TIP3    H135803   2.371   4.603   2.346 -0.8041  1.2344 -0.8080
 4796TIP3    H235804   2.287   4.485   2.302  0.3602  0.2861 -0.5246
 4797TIP3   OH235805   3.622   2.083  15.278 -0.1890 -0.2492  0.0697
 4797TIP3    H135806   3.680   2.155  15.251 -0.1381 -0.6655 -0.9845
 4797TIP3    H235807   3.595   2.042  15.196  0.5541 -2.0464  0.6639
 4798TIP3   OH235808   0.188   3.230   6.643 -0.1512 -0.1855 -0.3470
 4798TIP3    H135809   0.232   3.203   6.562 -2.0679  0.9223 -1.8341
 4798TIP3    H235810   0.095   3.225   6.623 -0.7444 -1.1760  2.2753
 4799TIP3   OH235811   1.428   5.970   5.668 -0.0611 -0.0515  0.1172
 4799TIP3    H135812   1.427   6.030   5.594  0.7284  0.2402  0.3344
 4799TIP3    H235813   1.428   6.027   5.745 -0.3099 -0.3453  0.3401
 4800TIP3   OH235814   1.428   2.523   1.001 -0.5147 -0.2828 -0.1770
 4800TIP3    H135815   1.416   2.442   1.051  0.3768 -0.2517  0.1102
 4800TIP3    H235816   1.489   2.574   1.053 -0.3413  0.1776 -0.8218
 4801TIP3   OH235817   6.394   4.217  12.792 -0.0781  0.2195 -0.0770
 4801TIP3    H135818   6.306   4.195  12.760 -0.3030  0.3547  0.4408
 4801TIP3    H235819   6.403   4.310  12.773 -0.2341  0.3130  0.2984
 4802TIP3   OH235820   3.301   6.217   1.389 -0.1517  0.1646  0.5860
 4802TIP3    H135821   3.260   6.138   1.424 -0.5372  0.9940  2.0712
 4802TIP3    H235822   3.395   6.202   1.399 -0.0091 -1.3903 -2.0638
 4803TIP3   OH235823   0.442   5.709   3.624  0.2925  0.6925  0.0569
 4803TIP3    H135824   0.497   5.710   3.546 -0.4319 -2.0723 -0.5949
 4803TIP3    H235825   0.498   5.742   3.694  1.3961  1.9059 -1.3490
 4804TIP3   OH235826   4.903   2.334  16.181  0.0661  0.0051  0.1408
 4804TIP3    H135827   4.842   2.404  16.205 -1.0895 -0.8530 -0.1937
 4804TIP3    H235828   4.892   2.325  16.086  0.6739 -0.2107  0.0880
 4805TIP3   OH235829   4.623   2.803  12.084 -0.2145  0.1577  0.3016
 4805TIP3    H135830   4.639   2.710  12.071  0.2570 -0.0398  2.0418
 4805TIP3    H235831   4.551   2.806  12.148  0.8248  0.9426  1.4877
 4806TIP3   OH235832   4.598   4.132   1.829 -0.1595 -0.3067  0.4562
 4806TIP3    H135833   4.623   4.214   1.871 -0.2258  0.2830 -0.6327
 4806TIP3    H235834   4.680   4.082   1.825  0.1563  0.2371 -0.0462
 4807TIP3   OH235835   3.947   4.327   4.277  0.4154 -0.1897 -0.4136
 4807TIP3    H135836   4.026   4.379   4.289 -0.2551  0.6149  0.8237
 4807TIP3    H235837   3.946   4.306   4.184  1.9055  0.0569 -0.5110
 4808TIP3   OH235838   3.844   1.734  13.867 -0.7180 -0.2964  0.1363
 4808TIP3    H135839   3.938   1.736  13.846 -0.8478 -2.0346 -0.7833
 4808TIP3    H235840   3.828   1.645  13.896 -2.1112 -0.0195  0.2914
 4809TIP3   OH235841   6.467   0.199   1.781 -0.2392  0.3911 -0.3367
 4809TIP3    H135842   6.513   0.122   1.814  0.7173  0.6417 -1.0559
 4809TIP3    H235843   6.451   0.181   1.689 -1.2012  0.5095 -0.2137
 4810TIP3   OH235844   0.548   1.467  14.185  0.5576 -0.2542 -0.1917
 4810TIP3    H135845   0.577   1.442  14.097  0.3055  0.3718 -0.4549
 4810TIP3    H235846   0.457   1.492  14.175  0.5284 -0.1692  0.2491
 4811TIP3   OH235847   1.910   3.207   0.578  0.5323 -0.5843  0.0934
 4811TIP3    H135848   1.838   3.203   0.642  1.8396 -1.6510  1.5961
 4811TIP3    H235849   1.868   3.186   0.494 -1.0445 -0.3724  0.7780
 4812TIP3   OH235850   3.128   3.487   4.570  0.3174  0.5678  0.0847
 4812TIP3    H135851   3.106   3.504   4.478 -0.3083 -0.5107  0.0222
 4812TIP3    H235852   3.105   3.395   4.584  0.1678  0.7852  1.4004
 4813TIP3   OH235853   4.021   5.255  13.612 -0.1686  0.2678 -0.1319
 4813TIP3    H135854   3.952   5.293  13.557  1.2811  1.9820 -0.8823
 4813TIP3    H235855   4.066   5.331  13.650  0.6481 -0.8299  1.1747
 4814TIP3   OH235856   5.209   3.902  14.683  0.2318 -0.0416  0.0836
 4814TIP3    H135857   5.280   3.945  14.636  0.4130 -2.0089 -1.6093
 4814TIP3    H235858   5.130   3.925  14.633  0.3022 -1.3713 -0.6988
 4815TIP3   OH235859   1.761   0.211  12.882  0.1278 -0.2857 -0.0126
 4815TIP3    H135860   1.671   0.182  12.891  0.2224 -0.8027 -0.6485
 4815TIP3    H235861   1.799   0.199  12.969 -0.0470 -1.3702 -0.0720
 4816TIP3   OH235862   2.598   5.690  14.816 -0.0014 -0.0818  0.2641
 4816TIP3    H135863   2.556   5.611  14.781 -0.9024  0.1905  0.6840
 4816TIP3    H235864   2.683   5.660  14.848  0.4655 -0.5096 -1.3149
 4817TIP3   OH235865   5.975   3.580   6.476 -0.1027 -0.2133 -0.3539
 4817TIP3    H135866   6.061   3.621   6.473 -0.4008  0.3651 -1.2747
 4817TIP3    H235867   5.945   3.594   6.566  0.1825  0.8143 -0.4062
 4818TIP3   OH235868   6.613   3.951   0.998 -0.0015 -0.3021 -0.6696
 4818TIP3    H135869   6.669   3.932   0.922  0.0239  0.0686 -0.7465
 4818TIP3    H235870   6.524   3.937   0.965  0.0333 -0.7482 -0.5888
 4819TIP3   OH235871   2.434   0.904   1.934 -0.0151  0.3857  0.2422
 4819TIP3    H135872   2.472   0.893   1.846  1.3101  1.2356  0.6792
 4819TIP3    H235873   2.341   0.885   1.922 -0.1069  1.6965 -1.6114
 4820TIP3   OH235874   3.202   4.249   2.459 -0.9053  0.4989  0.0400
 4820TIP3    H135875   3.124   4.200   2.432 -1.0120  0.8339 -0.2658
 4820TIP3    H235876   3.260   4.248   2.383 -0.0892 -0.7659  0.6522
 4821TIP3   OH235877   3.598   1.773   4.499  0.2479 -0.3868  0.0212
 4821TIP3    H135878   3.645   1.768   4.416  0.1047  0.5214 -0.1297
 4821TIP3    H235879   3.557   1.860   4.497 -1.0213 -0.9612  0.3609
 4822TIP3   OH235880   4.511   6.488   3.192 -0.3647  0.2483  0.2699
 4822TIP3    H135881   4.442   6.421   3.191  1.3680 -1.6889  1.7018
 4822TIP3    H235882   4.584   6.447   3.147  1.3255  0.4188  2.6596
 4823TIP3   OH235883   2.235   0.678   2.349  0.6388  0.0445 -0.0349
 4823TIP3    H135884   2.253   0.742   2.418  1.3819 -0.7774  0.5510
 4823TIP3    H235885   2.284   0.709   2.273  0.7131  0.3589  0.1414
 4824TIP3   OH235886   1.526   2.040   1.026 -0.5263 -0.2874 -0.3327
 4824TIP3    H135887   1.518   1.977   1.098 -1.7668 -0.2309 -0.3913
 4824TIP3    H235888   1.618   2.036   1.000  0.2332  0.5823  2.0335
 4825TIP3   OH235889   0.928   3.886   2.455 -0.0551 -0.1598  0.2799
 4825TIP3    H135890   0.957   3.846   2.537 -0.5319 -1.2807 -0.0833
 4825TIP3    H235891   0.991   3.957   2.439  1.9804 -1.9356 -0.0333
 4826TIP3   OH235892   6.654   4.630   4.889  0.4370 -0.1747  0.2876
 4826TIP3    H135893   6.609   4.676   4.818  1.8458  1.3881  0.3518
 4826TIP3    H235894   6.737   4.601   4.851  1.5513  1.3352  1.4176
 4827TIP3   OH235895   4.364   0.399   5.465 -0.0064  0.0486 -0.4694
 4827TIP3    H135896   4.440   0.357   5.424 -0.2879 -1.8793  0.8346
 4827TIP3    H235897   4.396   0.429   5.550 -0.2560  0.9354 -0.6807
 4828TIP3   OH235898   2.581   0.446   2.621  0.9445 -0.1109 -0.5499
 4828TIP3    H135899   2.663   0.481   2.588  1.5331 -0.7826  0.1539
 4828TIP3    H235900   2.514   0.507   2.590  1.5964 -0.0612 -1.9185
 4829TIP3   OH235901   0.748   1.171   0.592  0.7615 -0.1820 -0.4596
 4829TIP3    H135902   0.817   1.105   0.607  1.5179  1.0855  2.1893
 4829TIP3    H235903   0.750   1.226   0.670 -4.2106 -0.8332  0.4248
 4830TIP3   OH235904   2.898   2.578  16.600 -0.4285 -0.3201  0.1965
 4830TIP3    H135905   2.941   2.655  16.563 -1.3232 -0.4288 -1.1517
 4830TIP3    H235906   2.867   2.529  16.524  1.4070 -2.8194  0.9035
 4831TIP3   OH235907   0.736   0.920   1.956 -0.1666  0.4901  0.2672
 4831TIP3    H135908   0.683   0.968   2.020  0.2379 -1.8731  2.5656
 4831TIP3    H235909   0.677   0.851   1.924  0.7646 -0.7347  1.0959
 4832TIP3   OH235910   0.880   1.801  13.751  0.6499  0.8247  0.3882
 4832TIP3    H135911   0.798   1.802  13.800  0.9665 -2.1188  1.1537
 4832TIP3    H235912   0.943   1.759  13.810  1.3912 -1.5920 -1.9495
 4833TIP3   OH235913   5.322   5.839  13.380 -0.2495 -0.3039  0.4116
 4833TIP3    H135914   5.382   5.766  13.396 -1.6754 -1.4823  0.6153
 4833TIP3    H235915   5.325   5.853  13.285 -0.1246 -0.7984  0.3395
 4834TIP3   OH235916   2.216   6.152   0.273 -0.7335 -0.0987 -0.1130
 4834TIP3    H135917   2.202   6.208   0.196  0.8211  0.8650  0.2490
 4834TIP3    H235918   2.280   6.087   0.243  1.7350  1.6834  0.8857
 4835TIP3   OH235919   1.135   4.564  11.887 -0.4784  0.5782 -0.1642
 4835TIP3    H135920   1.158   4.477  11.855 -0.8083  0.6459 -0.5951
 4835TIP3    H235921   1.195   4.623  11.840 -2.1040  0.8507 -2.0118
 4836TIP3   OH235922   3.169   2.818  17.055 -0.5485 -0.8673 -1.0038
 4836TIP3    H135923   3.246   2.804  17.000  0.8378 -1.8050  1.0077
 4836TIP3    H235924   3.166   2.912  17.069 -0.1925 -0.7501 -1.6968
 4837TIP3   OH235925   3.233   4.811   2.409  0.0240  0.0083  0.3984
 4837TIP3    H135926   3.312   4.806   2.354 -2.4102 -0.0082 -3.5059
 4837TIP3    H235927   3.219   4.722   2.438  1.2585 -0.0397  0.9279
 4838TIP3   OH235928   1.996   4.635   0.298 -0.0871  0.0256 -0.5721
 4838TIP3    H135929   2.014   4.607   0.388 -2.0613  1.1246  0.2365
 4838TIP3    H235930   1.923   4.579   0.270 -1.7951  1.9159 -0.1598
 4839TIP3   OH235931   2.385   5.196   1.940  0.0865 -0.8058  0.9529
 4839TIP3    H135932   2.414   5.107   1.919 -0.1331 -0.6765  0.0829
 4839TIP3    H235933   2.391   5.244   1.858  0.6741  0.1259  1.5262
 4840TIP3   OH235934   1.564   3.428  16.431  0.1642 -0.6389  0.2875
 4840TIP3    H135935   1.522   3.490  16.372  1.9005 -0.5623 -0.9197
 4840TIP3    H235936   1.500   3.415  16.502 -1.2779  0.5147 -0.7591
 4841TIP3   OH235937   0.431   2.493   5.466  0.2080 -0.3078 -0.1130
 4841TIP3    H135938   0.513   2.527   5.431  0.0100 -0.4932 -0.7735
 4841TIP3    H235939   0.412   2.548   5.542  0.5795  0.1857 -0.3759
 4842TIP3   OH235940   4.365   1.808  17.258  0.4356 -0.5943 -0.0631
 4842TIP3    H135941   4.365   1.739  17.193  1.1425 -1.1813  0.5443
 4842TIP3    H235942   4.275   1.812  17.290  0.6949 -2.2925  0.9803
 4843TIP3   OH235943   4.517   3.131   5.612  0.1367  0.1871  0.5054
 4843TIP3    H135944   4.478   3.188   5.546  1.1017 -0.0874 -0.3300
 4843TIP3    H235945   4.604   3.168   5.628  0.4546 -0.5604  0.5755
 4844TIP3   OH235946   4.999   0.194  13.074  0.5517  0.4536  0.2165
 4844TIP3    H135947   5.007   0.271  13.018 -0.8781 -0.1697 -0.8951
 4844TIP3    H235948   4.931   0.216  13.137  0.3396  0.1940  0.0782
 4845TIP3   OH235949   6.067   5.992  11.536  0.0638 -0.4498 -0.4158
 4845TIP3    H135950   5.978   5.971  11.565 -1.1960  0.7576 -3.0681
 4845TIP3    H235951   6.092   6.069  11.586 -0.6863 -0.3560 -0.1804
 4846TIP3   OH235952   3.276   3.646  14.773  0.1621  0.2402  0.2130
 4846TIP3    H135953   3.318   3.693  14.701  0.4113  0.1826  0.3196
 4846TIP3    H235954   3.263   3.557  14.740 -0.5248  0.4385 -0.0747
 4847TIP3   OH235955   3.779   4.212  12.981 -0.3632  0.2675 -0.4144
 4847TIP3    H135956   3.836   4.283  12.949  1.5017 -2.0347 -2.6510
 4847TIP3    H235957   3.691   4.239  12.955 -0.3841  3.4882  2.2626
 4848TIP3   OH235958   3.225   6.266  16.788  0.5021  0.5444  0.6072
 4848TIP3    H135959   3.142   6.219  16.783  0.4537 -0.1486  4.4474
 4848TIP3    H235960   3.201   6.355  16.814  0.8818  0.0718  2.7877
 4849TIP3   OH235961   0.887   2.082  13.815  0.2652  0.0100 -0.5416
 4849TIP3    H135962   0.924   2.071  13.902  0.1545  2.8125 -0.0372
 4849TIP3    H235963   0.891   1.995  13.775  0.7878 -1.2337  2.0463
 4850TIP3   OH235964   3.555   4.094   3.347  0.2821  0.0163  0.1982
 4850TIP3    H135965   3.511   4.083   3.262 -0.6012  1.0924  0.4961
 4850TIP3    H235966   3.500   4.157   3.394  0.5018 -0.9021  1.7548
 4851TIP3   OH235967   1.989   4.971  15.891  0.5345  0.3180 -0.5110
 4851TIP3    H135968   1.997   4.881  15.923  1.3549  0.2463 -0.8775
 4851TIP3    H235969   2.074   5.010  15.911 -0.4817  1.6510  1.5062
 4852TIP3   OH235970   6.574   6.648  12.404 -0.2958  0.3203  0.1744
 4852TIP3    H135971   6.544   6.736  12.425 -0.7165  0.1841  0.1557
 4852TIP3    H235972   6.638   6.627  12.473  0.4699  0.9728 -0.3194
 4853TIP3   OH235973   3.019   3.991   4.108 -0.2829 -0.2448  0.0736
 4853TIP3    H135974   3.049   3.928   4.043  2.8130  1.5816 -0.4924
 4853TIP3    H235975   2.967   3.940   4.170 -0.3897 -2.7054 -1.9178
 4854TIP3   OH235976   2.136   4.926   4.762  0.4315 -0.0304  0.1085
 4854TIP3    H135977   2.103   4.930   4.852  1.9200 -0.8270  0.7319
 4854TIP3    H235978   2.059   4.908   4.709 -0.0845 -2.7850  1.5848
 4855TIP3   OH235979   5.560   1.790   1.518  0.9681 -0.1587 -0.4970
 4855TIP3    H135980   5.592   1.871   1.556 -0.3294  0.5249 -0.8211
 4855TIP3    H235981   5.604   1.721   1.568  2.0889  0.7201 -0.2246
 4856TIP3   OH235982   2.966   4.779  13.617  0.0338  0.2014 -0.3562
 4856TIP3    H135983   2.896   4.839  13.639 -0.5444 -0.6072  0.0487
 4856TIP3    H235984   2.955   4.762  13.523  0.4195  0.9872 -0.5527
 4857TIP3   OH235985   5.919   0.446   1.481  0.5472  0.3113 -0.2541
 4857TIP3    H135986   5.856   0.435   1.553  0.6519  1.1650 -0.0275
 4857TIP3    H235987   6.000   0.472   1.525  0.8925 -0.1592 -0.6037
 4858TIP3   OH235988   5.665   3.698  16.496  0.0348  0.2268 -0.1171
 4858TIP3    H135989   5.688   3.788  16.520 -0.0121  0.1178  0.3471
 4858TIP3    H235990   5.572   3.702  16.473  0.1777  0.4083 -0.6737
 4859TIP3   OH235991   6.171   1.845   6.513  0.0655  0.2237 -0.1554
 4859TIP3    H135992   6.116   1.922   6.499  0.6324  0.6065 -0.3102
 4859TIP3    H235993   6.154   1.820   6.603 -0.1440  0.5139 -0.1105
 4860TIP3   OH235994   0.234   2.452   1.253 -0.3340 -0.2221 -0.9828
 4860TIP3    H135995   0.313   2.472   1.203  0.2289 -0.1400 -0.0705
 4860TIP3    H235996   0.166   2.507   1.212  0.6166  1.6110 -0.2270
 4861TIP3   OH235997   3.649   4.326   1.377  0.1030  0.3385  0.1688
 4861TIP3    H135998   3.696   4.268   1.317  0.0386  0.0943  0.3502
 4861TIP3    H235999   3.690   4.310   1.462 -1.1164 -0.8288  0.5868
 4862TIP3   OH236000   4.159   6.168   0.451  0.6020 -0.0293 -0.1468
 4862TIP3    H136001   4.156   6.150   0.357  0.3410 -2.6598  0.2739
 4862TIP3    H236002   4.071   6.199   0.472  0.5026  0.0645 -0.6842
 4863TIP3   OH236003   2.767   5.893   0.420 -0.3095  0.3290 -0.2249
 4863TIP3    H136004   2.790   5.827   0.485  0.3148  0.4616 -0.3078
 4863TIP3    H236005   2.736   5.844   0.344  2.8425 -0.0420 -1.3909
 4864TIP3   OH236006   5.812   4.297   1.172 -0.6321  0.7192  0.2440
 4864TIP3    H136007   5.772   4.342   1.097 -2.6407 -0.7926  0.3420
 4864TIP3    H236008   5.854   4.220   1.135 -0.4993  0.6470  0.5382
 4865TIP3   OH236009   5.774   3.832   2.754  0.4058  0.5450 -0.0136
 4865TIP3    H136010   5.799   3.923   2.771 -1.1165  0.8533  0.7267
 4865TIP3    H236011   5.708   3.837   2.686 -1.7718  0.3067  1.9483
 4866TIP3   OH236012   4.775   6.745  16.463  0.0636  0.2397  0.0823
 4866TIP3    H136013   4.740   6.805  16.396  0.7146  1.4611  0.7977
 4866TIP3    H236014   4.823   6.679  16.412 -1.3739 -0.1907 -0.7732
 4867TIP3   OH236015   6.618   5.964  14.476  0.4760  0.3313  0.0597
 4867TIP3    H136016   6.654   5.934  14.393  0.1689 -0.4245  0.1916
 4867TIP3    H236017   6.694   5.972  14.534  0.8673  2.0768 -0.6238
 4868TIP3   OH236018   2.950   4.828  12.361  0.2444  0.2373  0.6678
 4868TIP3    H136019   2.904   4.851  12.280 -1.4464 -1.1715  1.1536
 4868TIP3    H236020   2.912   4.885  12.428  0.1422 -0.0105  0.8244
 4869TIP3   OH236021   0.417   1.582  11.555 -0.5339  0.2690 -0.3814
 4869TIP3    H136022   0.370   1.666  11.557 -0.7942  0.1484 -1.0275
 4869TIP3    H236023   0.403   1.544  11.642 -3.3349 -0.6740 -1.1323
 4870TIP3   OH236024   3.824   3.201  13.040 -0.0398  0.1571 -0.1588
 4870TIP3    H136025   3.739   3.236  13.067  0.7195  1.1482  1.0388
 4870TIP3    H236026   3.848   3.140  13.110  0.4462  0.2462 -0.2414
 4871TIP3   OH236027   4.025   0.171   5.907 -0.3098  0.1408 -0.2750
 4871TIP3    H136028   3.994   0.085   5.881 -2.6940  0.7701  0.2322
 4871TIP3    H236029   4.026   0.222   5.825 -2.2178  0.5230 -0.1121
 4872TIP3   OH236030   5.147   6.462  15.902 -0.6931  0.4033  0.4186
 4872TIP3    H136031   5.169   6.525  15.833  2.2189 -0.2975  0.5534
 4872TIP3    H236032   5.081   6.405  15.863 -0.5504  1.2043 -1.0741
 4873TIP3   OH236033   1.287   2.726   1.564  0.3001  0.3271  0.2472
 4873TIP3    H136034   1.196   2.742   1.588  0.4956 -0.6168  1.7427
 4873TIP3    H236035   1.283   2.690   1.475 -0.6651  1.4790 -0.1966
 4874TIP3   OH236036   1.105   1.488   1.613  0.2300 -0.4190  0.3047
 4874TIP3    H136037   1.023   1.535   1.603 -0.7016 -1.6658  1.6908
 4874TIP3    H236038   1.136   1.475   1.523 -1.6993 -0.9366 -0.3380
 4875TIP3   OH236039   4.352   6.640   2.049 -0.1019 -0.1732 -0.0486
 4875TIP3    H136040   4.385   6.640   1.959 -1.4282  0.3084 -0.5595
 4875TIP3    H236041   4.425   6.674   2.101  0.8018 -0.7676 -0.8751
 4876TIP3   OH236042   1.191   1.469   4.558 -0.1001  0.4710 -0.0125
 4876TIP3    H136043   1.114   1.480   4.613 -0.0001  0.7943  0.0698
 4876TIP3    H236044   1.156   1.452   4.471 -0.3030  2.3791 -0.3438
 4877TIP3   OH236045   5.199   0.053  13.479 -0.2119 -0.1265 -0.4299
 4877TIP3    H136046   5.188  -0.042  13.467 -1.2787 -0.2216  0.9976
 4877TIP3    H236047   5.215   0.086  13.391 -2.1472 -1.3586 -1.3259
 4878TIP3   OH236048   1.291   3.914  16.291  0.5689  0.0628 -0.2362
 4878TIP3    H136049   1.349   3.976  16.246  0.5926  0.4716  0.3472
 4878TIP3    H236050   1.250   3.965  16.361 -0.0836 -0.3635 -0.3005
 4879TIP3   OH236051   5.302   1.236   3.326  0.6902  0.1349 -0.1189
 4879TIP3    H136052   5.209   1.238   3.305  0.4682  1.5082  0.9100
 4879TIP3    H236053   5.331   1.149   3.297 -1.0228 -0.5285  0.0555
 4880TIP3   OH236054   5.317   6.653  16.486  0.3963 -0.4019 -0.1053
 4880TIP3    H136055   5.226   6.662  16.457 -0.1504 -0.3832  1.4927
 4880TIP3    H236056   5.337   6.560  16.474 -0.8402 -1.0353  2.1478
 4881TIP3   OH236057   3.709   5.888  16.391 -0.2021 -0.0786  0.3833
 4881TIP3    H136058   3.635   5.828  16.390  0.8685 -1.4543  1.2412
 4881TIP3    H236059   3.669   5.975  16.380 -2.0872 -0.6066  2.3475
 4882TIP3   OH236060   3.510   2.260   1.738  0.3508  0.1665  0.1847
 4882TIP3    H136061   3.425   2.259   1.782 -0.4905  4.6085 -0.8158
 4882TIP3    H236062   3.488   2.257   1.645  1.6093 -1.8621 -0.0979
 4883TIP3   OH236063   2.107   4.737  12.603 -0.5278  0.5320 -0.3094
 4883TIP3    H136064   2.052   4.715  12.678  0.1296  0.6163  0.2118
 4883TIP3    H236065   2.197   4.724  12.635 -0.2249  1.0914 -0.9142
 4884TIP3   OH236066   2.040   1.569   5.704 -0.2276  0.2105 -0.2991
 4884TIP3    H136067   2.005   1.657   5.695  0.5089  0.7565  1.5669
 4884TIP3    H236068   2.064   1.543   5.616 -0.2655  1.9648 -0.8656
 4885TIP3   OH236069   2.770   0.311   6.251  0.0499  0.4366  0.5385
 4885TIP3    H136070   2.681   0.343   6.269  0.5307  0.8029  2.5346
 4885TIP3    H236071   2.759   0.248   6.180 -1.7250  0.9112  0.3441
 4886TIP3   OH236072   0.435   2.383  16.747 -0.1451  0.7138 -0.3941
 4886TIP3    H136073   0.527   2.392  16.721  0.6049 -0.6177  1.5039
 4886TIP3    H236074   0.397   2.325  16.681  0.9050 -0.1945 -0.2432
 4887TIP3   OH236075   4.597   5.747  17.193 -0.3822 -0.0230 -0.4195
 4887TIP3    H136076   4.632   5.678  17.137 -2.3548 -0.6135 -0.9718
 4887TIP3    H236077   4.603   5.712  17.282  0.0249 -0.2768 -0.5426
 4888TIP3   OH236078   1.116   1.722   3.568  0.6884  0.0198 -0.0747
 4888TIP3    H136079   1.026   1.754   3.560  1.4958  1.9907 -3.0664
 4888TIP3    H236080   1.113   1.632   3.535  0.1200  0.9308 -2.7896
 4889TIP3   OH236081   1.586   0.095  11.313 -0.0289 -0.2535 -0.4274
 4889TIP3    H136082   1.516   0.152  11.280  0.6408  1.1531  0.4912
 4889TIP3    H236083   1.562   0.008  11.281 -0.8700  0.5832 -2.2493
 4890TIP3   OH236084   5.107   2.956   5.632 -0.0105  0.0991  0.3695
 4890TIP3    H136085   5.118   2.929   5.541 -1.3640 -0.1744  0.2691
 4890TIP3    H236086   5.152   3.040   5.638  0.1875  0.0650 -0.5189
 4891TIP3   OH236087   4.990   5.486   1.860  0.6518 -0.6642  0.1509
 4891TIP3    H136088   4.972   5.449   1.773 -1.8349 -1.7001  1.0454
 4891TIP3    H236089   5.067   5.542   1.846  2.1118 -3.0152 -2.1000
 4892TIP3   OH236090   5.815   2.526  16.932 -0.0689  0.7073  0.1358
 4892TIP3    H136091   5.901   2.510  16.971 -0.0223 -1.2086 -0.6501
 4892TIP3    H236092   5.756   2.470  16.981 -0.3537 -0.1880 -1.1883
 4893TIP3   OH236093   3.239   0.660   1.753 -0.2357  0.0144 -0.3887
 4893TIP3    H136094   3.314   0.653   1.693  0.5321  1.4104  0.3685
 4893TIP3    H236095   3.212   0.569   1.768  1.5331 -0.5453 -0.3844
 4894TIP3   OH236096   6.197   5.012  14.263  0.4653  0.1274  0.4419
 4894TIP3    H136097   6.186   4.917  14.256  1.8083 -0.1115  1.2089
 4894TIP3    H236098   6.165   5.046  14.180 -1.0521 -0.8842  0.5663
 4895TIP3   OH236099   2.269   3.216   0.177  0.2231 -0.1908 -0.2824
 4895TIP3    H136100   2.175   3.201   0.169  0.3612 -1.9382  0.9364
 4895TIP3    H236101   2.309   3.133   0.152  1.3261 -0.2592  1.5497
 4896TIP3   OH236102   0.772   6.142   1.182  0.2390  0.2028  0.4974
 4896TIP3    H136103   0.737   6.053   1.183  1.8357 -0.5749  4.1956
 4896TIP3    H236104   0.812   6.151   1.095 -0.6750 -2.3466 -0.2768
 4897TIP3   OH236105   5.620   3.271  12.671  0.9472 -0.1548  1.0069
 4897TIP3    H136106   5.539   3.315  12.698 -1.2386 -2.8565 -0.6306
 4897TIP3    H236107   5.662   3.331  12.610 -0.1683  1.0089  1.3606
 4898TIP3   OH236108   6.250   0.338  12.508  0.0127 -0.7772  0.0392
 4898TIP3    H136109   6.198   0.297  12.578  1.4207  0.1334  1.7073
 4898TIP3    H236110   6.184   0.379  12.451 -1.1829  1.2278  2.6343
 4899TIP3   OH236111   4.273   4.272   5.002  0.3470  0.4893 -0.0256
 4899TIP3    H136112   4.256   4.223   4.921  0.3491 -0.0359  0.2893
 4899TIP3    H236113   4.292   4.205   5.067  1.0408  0.9475  0.2507
 4900TIP3   OH236114   2.412   4.850  15.720 -0.2203  0.2128  0.2039
 4900TIP3    H136115   2.447   4.933  15.688  0.0515 -0.4522 -1.2977
 4900TIP3    H236116   2.488   4.803  15.754 -0.3400  0.4712  0.8479
 4901TIP3   OH236117   3.857   0.421   2.162 -0.0999 -0.2324  0.4167
 4901TIP3    H136118   3.764   0.446   2.156 -0.2302  0.4156  3.3865
 4901TIP3    H236119   3.903   0.489   2.113 -1.2317 -2.6970 -4.6977
 4902TIP3   OH236120   3.745   4.898  15.125  0.1578  0.4409  0.1759
 4902TIP3    H136121   3.717   4.809  15.146  0.0875  0.5547  0.5936
 4902TIP3    H236122   3.739   4.944  15.209 -1.8746  1.3898 -0.4371
 4903TIP3   OH236123   3.681   0.106   2.245 -0.0916  0.2373  0.1893
 4903TIP3    H136124   3.754   0.154   2.206  0.7676  0.1753  1.6442
 4903TIP3    H236125   3.718   0.066   2.324 -1.4757 -0.5579  0.4649
 4904TIP3   OH236126   2.447   2.363   2.375  0.0970 -0.0985 -0.1023
 4904TIP3    H136127   2.380   2.324   2.431 -0.1606 -0.5565 -0.7255
 4904TIP3    H236128   2.409   2.447   2.347  1.3739  1.6155  2.7354
 4905TIP3   OH236129   4.270   3.618   3.603 -0.2326  0.2855 -0.0272
 4905TIP3    H136130   4.309   3.570   3.531  0.0524 -0.6435  0.7216
 4905TIP3    H236131   4.249   3.704   3.567 -4.7800 -1.6246 -2.7753
 4906TIP3   OH236132   1.915   1.408  13.266 -0.2826  0.2793  0.5252
 4906TIP3    H136133   1.946   1.324  13.233  1.9624  0.5480  1.7827
 4906TIP3    H236134   1.994   1.453  13.297 -1.1729  3.4681 -1.3601
 4907TIP3   OH236135   3.568   5.965   2.791  0.0905 -0.2113  0.0664
 4907TIP3    H136136   3.569   6.006   2.705 -0.9570 -0.3135  0.0024
 4907TIP3    H236137   3.478   5.938   2.805 -0.1282  1.1747  1.8299
 4908TIP3   OH236138   0.655   2.917  13.538 -0.0638  0.2350 -0.4596
 4908TIP3    H136139   0.646   2.884  13.627  0.7123 -1.2177 -0.8880
 4908TIP3    H236140   0.750   2.926  13.525 -0.1927  0.9230 -0.9709
 4909TIP3   OH236141   0.756   5.291  17.241  0.1274 -0.4236 -0.2348
 4909TIP3    H136142   0.672   5.279  17.195  0.2424 -1.0941 -0.2786
 4909TIP3    H236143   0.777   5.204  17.274 -1.1775  0.4263  3.2439
 4910TIP3   OH236144   3.006   4.868  14.406  0.6574 -0.4650 -0.3869
 4910TIP3    H136145   3.030   4.961  14.408 -1.3090  0.0587  0.9222
 4910TIP3    H236146   3.084   4.823  14.437  0.7204  1.0023  1.8070
 4911TIP3   OH236147   5.496   2.313   3.768  0.5302  0.1978 -0.5799
 4911TIP3    H136148   5.503   2.401   3.804 -1.4013  0.3737 -0.5520
 4911TIP3    H236149   5.502   2.255   3.845 -0.0598  0.3998 -0.3793
 4912TIP3   OH236150   2.662   1.438   6.434  0.0358  0.1949 -0.6941
 4912TIP3    H136151   2.635   1.399   6.351  1.7271 -1.2583 -0.6464
 4912TIP3    H236152   2.705   1.520   6.410  0.3477 -0.1270 -1.2583
 4913TIP3   OH236153   2.866   4.203  11.339  0.0855  0.5147  0.0891
 4913TIP3    H136154   2.913   4.179  11.419 -0.1879 -0.4360 -0.0225
 4913TIP3    H236155   2.930   4.194  11.269 -0.3173 -1.0916 -0.1042
 4914TIP3   OH236156   0.776   5.268   4.607 -0.4393  0.0286  0.4918
 4914TIP3    H136157   0.784   5.330   4.535  0.1541 -0.9732 -0.3333
 4914TIP3    H236158   0.711   5.307   4.666 -1.2500  0.6604 -0.7933
 4915TIP3   OH236159   4.330   5.817   0.850 -0.2668  0.4337  0.3900
 4915TIP3    H136160   4.301   5.860   0.770 -0.2743 -0.3024 -0.0199
 4915TIP3    H236161   4.329   5.724   0.828  0.2066  0.2555  1.0925
 4916TIP3   OH236162   3.461   2.904   1.649 -0.5217 -0.1264  0.2172
 4916TIP3    H136163   3.466   2.948   1.734 -1.3131  0.8059 -0.1949
 4916TIP3    H236164   3.481   2.972   1.586 -0.4712 -0.6818 -0.3716
 4917TIP3   OH236165   2.327   6.293   4.100 -0.0639 -0.2674  0.0054
 4917TIP3    H136166   2.369   6.324   4.020  0.2665 -0.0614  0.2546
 4917TIP3    H236167   2.255   6.238   4.070  2.4018 -3.5191 -0.4768
 4918TIP3   OH236168   3.605   5.581  12.392 -0.2637 -0.1590  0.1335
 4918TIP3    H136169   3.697   5.581  12.418  0.0859  0.5563 -1.0465
 4918TIP3    H236170   3.564   5.517  12.451  0.6900  0.5345  1.6274
 4919TIP3   OH236171   1.076   2.118  16.172  0.6224 -0.5967  0.0802
 4919TIP3    H136172   0.988   2.135  16.138  0.6507 -2.7466 -1.2690
 4919TIP3    H236173   1.085   2.023  16.167  1.9107 -0.7388  3.1342
 4920TIP3   OH236174   1.924   6.144   3.852  0.3010 -0.6878 -0.4747
 4920TIP3    H136175   1.854   6.191   3.806 -0.6985  0.0041  1.6388
 4920TIP3    H236176   1.878   6.084   3.910  1.4938 -0.9056  0.2696
 4921TIP3   OH236177   1.987   5.258   0.609 -0.0038  0.5567  1.0514
 4921TIP3    H136178   2.069   5.240   0.563  0.1783 -1.5869  2.0917
 4921TIP3    H236179   1.937   5.313   0.548  1.4086  0.2748 -0.4386
 4922TIP3   OH236180   3.915   6.445   1.563 -0.4472  0.1366 -0.3150
 4922TIP3    H136181   3.922   6.513   1.629  0.4111  0.1218 -0.3760
 4922TIP3    H236182   3.967   6.372   1.598 -1.3650 -0.4955 -0.2422
 4923TIP3   OH236183   0.884   4.585  11.974 -0.2782 -0.3651 -0.8498
 4923TIP3    H136184   0.977   4.574  11.957 -0.0925  0.6675 -0.6267
 4923TIP3    H236185   0.875   4.678  11.995 -1.5343 -0.2053 -1.9542
 4924TIP3   OH236186   1.040   5.045   2.840  0.5750 -0.5246  0.2326
 4924TIP3    H136187   1.080   5.101   2.774 -1.4526 -1.9629 -2.3889
 4924TIP3    H236188   0.946   5.057   2.828  0.1151 -1.0603  2.7297
 4925TIP3   OH236189   0.106   5.348   3.328  0.0952  0.1243  0.4727
 4925TIP3    H136190   0.180   5.408   3.318 -0.5120  0.6931 -0.9025
 4925TIP3    H236191   0.053   5.387   3.398  0.2546  0.6010  0.3286
 4926TIP3   OH236192   5.980   2.590  14.093 -0.0771 -0.1104  0.4630
 4926TIP3    H136193   6.054   2.607  14.035  0.9795 -1.2254  1.4111
 4926TIP3    H236194   5.971   2.670  14.145 -0.1425  0.3754 -0.2831
 4927TIP3   OH236195   5.952   1.835  17.059 -0.1187  0.0626  0.1287
 4927TIP3    H136196   5.890   1.907  17.073 -0.0544 -0.2455  2.2526
 4927TIP3    H236197   5.962   1.831  16.963 -1.6904  1.5257 -0.1526
 4928TIP3   OH236198   6.522   1.062  16.334  0.2815  0.2768  0.0423
 4928TIP3    H136199   6.506   1.110  16.415  0.8683 -0.1857  0.4475
 4928TIP3    H236200   6.559   1.127  16.275  2.2143  0.0939  0.9801
 4929TIP3   OH236201   1.419   2.530  17.090  0.2085 -0.1236 -0.1771
 4929TIP3    H136202   1.487   2.495  17.147  1.0621 -0.0051 -1.1091
 4929TIP3    H236203   1.376   2.597  17.143  1.0124  0.0153  0.3148
 4930TIP3   OH236204   5.237   6.297  15.476 -0.0443  0.1691 -0.2812
 4930TIP3    H136205   5.251   6.238  15.549 -0.0392 -0.9676 -1.1694
 4930TIP3    H236206   5.251   6.243  15.398  0.0331  1.3571 -1.1298
 4931TIP3   OH236207   2.088   6.145  14.588  0.0117  0.5817 -0.1143
 4931TIP3    H136208   1.997   6.117  14.575  0.1522  0.0153  0.0911
 4931TIP3    H236209   2.098   6.221  14.532 -0.8686  1.2100  0.5632
 4932TIP3   OH236210   2.654   4.500  12.847 -0.2488 -0.3132  0.5632
 4932TIP3    H136211   2.610   4.493  12.762 -0.7410 -0.5704  0.8374
 4932TIP3    H236212   2.670   4.410  12.874 -0.8937 -0.2673  1.1488
 4933TIP3   OH236213   4.678   6.395   0.886 -0.3097 -0.1081  0.4720
 4933TIP3    H136214   4.758   6.351   0.855 -0.5379 -0.3543  0.2334
 4933TIP3    H236215   4.685   6.483   0.850 -0.5543 -0.3777 -0.2662
 4934TIP3   OH236216   3.001   1.087   2.383  0.1156  0.0505  0.5127
 4934TIP3    H136217   3.096   1.093   2.380  0.1064 -0.0771 -0.5809
 4934TIP3    H236218   2.982   1.001   2.345 -0.4366  0.1072  0.6527
 4935TIP3   OH236219   5.972   5.792   1.844  0.2945 -0.0821 -0.3968
 4935TIP3    H136220   6.058   5.815   1.810  1.2415  0.7666  2.3127
 4935TIP3    H236221   5.990   5.738   1.921 -1.6482 -0.8700 -0.4345
 4936TIP3   OH236222   6.188   4.976  10.681 -0.0551  0.9827 -0.2480
 4936TIP3    H136223   6.141   4.895  10.657 -0.1867 -0.1549  3.2334
 4936TIP3    H236224   6.280   4.953  10.672 -0.0985  1.1727 -1.2633
 4937TIP3   OH236225   5.504   4.544  14.561 -0.1195 -0.1344  0.6592
 4937TIP3    H136226   5.569   4.606  14.527 -0.9317 -0.6512 -2.1139
 4937TIP3    H236227   5.540   4.515  14.645  1.1965  2.6302  1.1620
 4938TIP3   OH236228   2.451   3.378  15.340 -0.0640 -0.1488 -0.1599
 4938TIP3    H136229   2.504   3.304  15.312  0.4575  0.1108  0.1159
 4938TIP3    H236230   2.396   3.343  15.410  1.5853  0.1553  1.3566
 4939TIP3   OH236231   3.367   0.632  12.069  0.0475 -0.0944  0.5709
 4939TIP3    H136232   3.344   0.630  11.976 -0.8721 -0.5691  0.7901
 4939TIP3    H236233   3.462   0.625  12.071  0.1971  1.2492 -0.3730
 4940TIP3   OH236234   5.424   2.900   0.148 -0.4387  0.4338  0.0794
 4940TIP3    H136235   5.365   2.836   0.109 -0.6097  1.5196 -1.5310
 4940TIP3    H236236   5.439   2.868   0.237 -0.5875 -1.7745 -0.6356
 4941TIP3   OH236237   5.641   5.804  15.339 -0.0719  0.5573  0.0873
 4941TIP3    H136238   5.570   5.765  15.389  0.1170 -0.0929 -0.1348
 4941TIP3    H236239   5.614   5.796  15.248  1.4407 -2.2491 -0.2422
 4942TIP3   OH236240   6.002   6.724   2.754  0.2128  0.3261 -0.2494
 4942TIP3    H136241   6.053   6.656   2.797 -0.0982 -0.2280 -0.7523
 4942TIP3    H236242   6.020   6.713   2.661 -0.9071  0.0578 -0.4433
 4943TIP3   OH236243   3.817   6.252   4.643  0.6514 -0.3003 -0.0681
 4943TIP3    H136244   3.812   6.300   4.725 -2.3725  0.3680 -0.5502
 4943TIP3    H236245   3.735   6.271   4.597  1.3032 -2.2951 -2.3432
 4944TIP3   OH236246   3.863   1.197   0.712  0.1190  0.2419 -0.2692
 4944TIP3    H136247   3.796   1.130   0.702  1.2545 -0.7378 -2.1791
 4944TIP3    H236248   3.875   1.232   0.623  1.7111  0.7552  0.1035
 4945TIP3   OH236249   3.395   1.738   2.788  0.4617 -0.0793  0.0283
 4945TIP3    H136250   3.362   1.828   2.795 -0.0115 -0.1900 -0.6913
 4945TIP3    H236251   3.317   1.683   2.795  0.6407 -0.3965 -0.4491
 4946TIP3   OH236252   0.929   1.700   5.123  0.7365 -0.7802  0.1987
 4946TIP3    H136253   0.917   1.782   5.076  1.3357 -0.5543  0.4252
 4946TIP3    H236254   0.900   1.720   5.212  1.7152 -0.5319  0.4858
 4947TIP3   OH236255   3.760   3.500  15.969  0.3199  0.7010  0.2085
 4947TIP3    H136256   3.694   3.559  15.935 -0.8045 -0.8337 -0.3876
 4947TIP3    H236257   3.713   3.443  16.030  1.0334 -0.4964 -0.3094
 4948TIP3   OH236258   3.671   0.937  14.587  0.2147 -0.2007  0.0691
 4948TIP3    H136259   3.753   0.979  14.562 -0.9948  1.7265 -0.8155
 4948TIP3    H236260   3.687   0.844  14.573  2.1856  0.1371 -0.2216
 4949TIP3   OH236261   3.078   3.794  12.483  0.4997 -0.4388  0.3491
 4949TIP3    H136262   3.162   3.806  12.438  0.9385  0.5546  1.3842
 4949TIP3    H236263   3.036   3.880  12.478  0.0398 -0.6321  0.8019
 4950TIP3   OH236264   0.771   4.847   3.943 -0.4862  0.5588  0.5585
 4950TIP3    H136265   0.787   4.919   3.881  3.1037  0.3243  0.9945
 4950TIP3    H236266   0.781   4.886   4.029  2.4735 -0.4886  0.7996
 4951TIP3   OH236267   5.905   1.650   6.098  0.5612 -0.0400  0.2388
 4951TIP3    H136268   5.998   1.670   6.105  0.8415 -1.2628  0.1863
 4951TIP3    H236269   5.868   1.682   6.181  1.2305 -0.5929  0.7631
 4952TIP3   OH236270   1.661   5.113   3.824 -0.1584 -0.5298  0.6897
 4952TIP3    H136271   1.626   5.035   3.868 -0.0008 -0.4088  1.0331
 4952TIP3    H236272   1.701   5.078   3.744 -2.4243 -0.4862 -0.5205
 4953TIP3   OH236273   3.370   6.196  10.918  0.9057 -0.2754  0.5062
 4953TIP3    H136274   3.415   6.133  10.861  0.0732 -2.1117  1.7925
 4953TIP3    H236275   3.279   6.168  10.918  0.8323 -0.2211  2.5325
 4954TIP3   OH236276   3.371   5.575  15.951 -0.4592 -0.0487  0.1458
 4954TIP3    H136277   3.432   5.600  16.021 -0.2794 -0.4356  0.1290
 4954TIP3    H236278   3.416   5.506  15.903 -0.0598  1.0478 -1.1258
 4955TIP3   OH236279   6.742   3.493  11.464 -0.2433 -0.3404 -0.9718
 4955TIP3    H136280   6.836   3.490  11.446  0.3405 -1.6513  1.8080
 4955TIP3    H236281   6.729   3.576  11.510 -0.1235 -0.8582  0.0223
 4956TIP3   OH236282   3.177   4.846  16.460 -0.2506 -0.8513  0.1823
 4956TIP3    H136283   3.104   4.805  16.507  1.6485 -1.3091  2.9533
 4956TIP3    H236284   3.204   4.918  16.517  0.4538  0.3232 -1.5786
 4957TIP3   OH236285   1.934   6.629  14.266 -0.0086 -0.6850 -0.3117
 4957TIP3    H136286   1.981   6.711  14.257  0.0492 -0.5894  0.8305
 4957TIP3    H236287   1.857   6.650  14.319 -0.0372 -1.3423 -0.0762
 4958TIP3   OH236288   5.430   2.165   3.413 -0.3795  0.0467 -0.4742
 4958TIP3    H136289   5.464   2.119   3.489 -0.0564  1.2917  0.1718
 4958TIP3    H236290   5.385   2.098   3.362 -0.8341 -0.7703  0.9399
 4959TIP3   OH236291   0.043   0.921  15.445  0.3127  0.4158  0.0574
 4959TIP3    H136292   0.083   0.892  15.527  1.7571  0.0407 -0.7397
 4959TIP3    H236293   0.021   0.840  15.400  0.1589  0.6102 -0.2176
 4960TIP3   OH236294   0.475   1.498  16.566 -0.0731 -0.1617 -0.0434
 4960TIP3    H136295   0.523   1.550  16.501 -1.1850 -0.6172 -1.2690
 4960TIP3    H236296   0.535   1.427  16.589  1.2844  1.3330  1.2973
 4961TIP3   OH236297   3.657   0.378   6.856  0.1376 -0.0185 -0.1466
 4961TIP3    H136298   3.629   0.318   6.925 -2.7834  0.8107 -0.4683
 4961TIP3    H236299   3.697   0.452   6.903 -1.0938  0.1683  0.6528
 4962TIP3   OH236300   3.408   2.414  11.905 -0.2640  0.3638 -0.1308
 4962TIP3    H136301   3.397   2.410  11.999  1.2301 -0.8284  0.0401
 4962TIP3    H236302   3.486   2.469  11.892 -0.2559  0.2400 -0.6405
 4963TIP3   OH236303   2.823   3.007   4.226  0.2931 -0.4526  0.5990
 4963TIP3    H136304   2.861   3.007   4.138 -0.7498  1.4230  0.0774
 4963TIP3    H236305   2.728   3.011   4.211  0.0263 -1.4508  1.8333
 4964TIP3   OH236306   4.330   2.411  14.536  0.3080  0.0816  0.4536
 4964TIP3    H136307   4.316   2.350  14.463  1.4605 -0.1311  0.3880
 4964TIP3    H236308   4.405   2.375  14.583  0.1211  0.6978  1.2336
 4965TIP3   OH236309   3.242   0.233  16.116 -0.6629  0.4133  0.5947
 4965TIP3    H136310   3.182   0.167  16.081 -0.0510 -1.6299  3.0692
 4965TIP3    H236311   3.245   0.301  16.049 -2.2407 -1.5122 -1.5941
 4966TIP3   OH236312   3.770   0.127   1.776  0.6988  0.0234  0.0636
 4966TIP3    H136313   3.686   0.119   1.821  0.0782  0.7383 -0.9265
 4966TIP3    H236314   3.786   0.222   1.773  1.6880 -0.1255  0.5046
 4967TIP3   OH236315   0.967   2.496  11.151 -0.3473  0.0467 -0.5563
 4967TIP3    H136316   0.926   2.554  11.215 -0.0590  1.4187 -1.5734
 4967TIP3    H236317   0.899   2.431  11.132 -0.7463  0.1385  0.4519
 4968TIP3   OH236318   2.500   2.787   3.361  0.0583  0.2064  0.0688
 4968TIP3    H136319   2.576   2.816   3.411 -0.0378  1.2081 -0.3473
 4968TIP3    H236320   2.494   2.693   3.379  2.2254 -0.2121 -0.9613
 4969TIP3   OH236321   5.382   2.354  14.121  0.2309 -0.3733 -0.3978
 4969TIP3    H136322   5.459   2.412  14.119  0.6117 -0.8847 -1.2208
 4969TIP3    H236323   5.313   2.404  14.078  0.9959 -1.0765 -2.6089
 4970TIP3   OH236324   4.460   1.989  14.654  0.1717  0.8504  0.4961
 4970TIP3    H136325   4.513   1.929  14.601 -0.7134 -0.4864  1.0548
 4970TIP3    H236326   4.521   2.026  14.717  0.3484 -1.3782  1.7433
 4971TIP3   OH236327   0.683   4.445   3.084 -0.2605  0.0319 -0.5653
 4971TIP3    H136328   0.656   4.439   2.992 -1.7590  2.8220 -0.4113
 4971TIP3    H236329   0.768   4.489   3.081  0.0041 -0.4732 -0.6196
 4972TIP3   OH236330   3.263   0.036  15.184  0.4062  0.5499 -0.2378
 4972TIP3    H136331   3.206   0.066  15.114  1.0632  1.0703 -0.5612
 4972TIP3    H236332   3.274  -0.057  15.168  0.1232  0.5627 -0.5152
 4973TIP3   OH236333   1.857   2.522  15.473 -0.0640 -0.2198  0.3378
 4973TIP3    H136334   1.870   2.491  15.383  1.9620 -0.4512  0.6781
 4973TIP3    H236335   1.887   2.613  15.471  1.4752 -0.6824  1.0984
 4974TIP3   OH236336   5.123   0.480   5.996  0.4899 -0.3091  0.5620
 4974TIP3    H136337   5.063   0.419   6.040  0.5098 -0.7163  0.0349
 4974TIP3    H236338   5.210   0.455   6.026  0.6503 -1.5985 -0.8631
 4975TIP3   OH236339   3.606   2.248   0.247  0.0062 -0.0785 -0.8225
 4975TIP3    H136340   3.692   2.247   0.289 -0.1137  0.1457 -0.5703
 4975TIP3    H236341   3.549   2.291   0.310 -0.1657  0.2936 -1.2243
 4976TIP3   OH236342   4.316   1.833  11.973 -0.0323  0.1874  0.5671
 4976TIP3    H136343   4.401   1.790  11.966  0.5742  1.3458  0.4763
 4976TIP3    H236344   4.259   1.783  11.916  0.8462 -0.0138 -0.1664
 4977TIP3   OH236345   2.753   1.901   4.774  0.3320  0.4740 -0.1278
 4977TIP3    H136346   2.827   1.961   4.763 -1.3292  2.6303 -0.2873
 4977TIP3    H236347   2.681   1.944   4.728 -1.7548 -0.1583  2.3454
 4978TIP3   OH236348   6.224   1.517  17.291 -0.0064 -0.1245  0.5365
 4978TIP3    H136349   6.185   1.433  17.313  0.5739 -0.3792  0.6151
 4978TIP3    H236350   6.302   1.523  17.346  0.0345  0.4011  0.4314
 4979TIP3   OH236351   1.711   3.438  12.088 -0.9766  0.4803  0.2448
 4979TIP3    H136352   1.718   3.347  12.059 -0.8485  1.1584 -1.9901
 4979TIP3    H236353   1.690   3.431  12.181 -1.4666 -1.8325  0.0254
 4980TIP3   OH236354   0.372   4.937   3.471  0.2137 -0.2810 -0.2160
 4980TIP3    H136355   0.400   4.846   3.473 -1.0486 -0.7618 -2.0517
 4980TIP3    H236356   0.423   4.980   3.540  0.7500 -2.3755  0.7496
 4981TIP3   OH236357   4.254   0.745  11.689 -0.2115 -0.3029  0.5133
 4981TIP3    H136358   4.317   0.786  11.749  0.8118 -1.6974  0.4636
 4981TIP3    H236359   4.174   0.737  11.740 -0.6650  2.2525  0.3210
 4982TIP3   OH236360   5.014   3.721   1.366  0.0361  0.5298  0.6079
 4982TIP3    H136361   5.010   3.782   1.439  0.2422  1.5019 -0.1644
 4982TIP3    H236362   5.070   3.765   1.301 -1.6012  0.5442 -0.8797
 4983TIP3   OH236363   2.650   6.642  12.609 -0.2126 -0.0169  1.0233
 4983TIP3    H136364   2.658   6.705  12.538 -2.3643 -0.4443  0.3088
 4983TIP3    H236365   2.556   6.636  12.625 -0.0990 -2.9348  1.1522
 4984TIP3   OH236366   2.132   3.190   2.921 -0.1426  0.2917 -0.0306
 4984TIP3    H136367   2.185   3.230   2.852 -0.5587 -0.8444 -1.0494
 4984TIP3    H236368   2.195   3.140   2.974 -0.1598 -1.0350 -1.2208
 4985TIP3   OH236369   1.351   5.240  11.662 -0.0703 -0.4628  0.5069
 4985TIP3    H136370   1.410   5.315  11.665 -0.4794 -0.0733 -0.6795
 4985TIP3    H236371   1.266   5.277  11.639 -0.4609 -1.1932  0.7423
 4986TIP3   OH236372   0.555   3.784   4.359 -0.2077 -0.5157 -0.0931
 4986TIP3    H136373   0.473   3.775   4.311 -1.3014  1.9402  1.1096
 4986TIP3    H236374   0.529   3.818   4.445  1.9197 -1.6827  1.1150
 4987TIP3   OH236375   6.032   0.762   5.534  0.1730  0.0185  0.1380
 4987TIP3    H136376   5.977   0.688   5.507 -0.4434  0.5665 -0.1177
 4987TIP3    H236377   5.978   0.839   5.518  0.3711  0.4562  1.5227
 4988TIP3   OH236378   2.185   5.325  13.259 -0.2809 -0.0242  0.4645
 4988TIP3    H136379   2.143   5.410  13.247 -0.9788 -0.5914 -1.5359
 4988TIP3    H236380   2.113   5.262  13.253  0.3328 -0.8059  1.1033
 4989TIP3   OH236381   2.259   1.355  14.455  0.1311  0.0567 -0.4206
 4989TIP3    H136382   2.271   1.438  14.409 -0.7939 -0.0591 -0.8773
 4989TIP3    H236383   2.328   1.355  14.522  1.2491  0.3985 -1.5378
 4990TIP3   OH236384   3.572   0.305  15.762 -0.0605 -0.2902  0.3090
 4990TIP3    H136385   3.611   0.228  15.721 -0.4016 -0.2302 -0.1331
 4990TIP3    H236386   3.594   0.297  15.854  0.0345 -0.8426  0.2397
 4991TIP3   OH236387   1.182   1.899  13.301 -0.1164 -0.5259  0.5967
 4991TIP3    H136388   1.153   1.954  13.228 -0.0867  1.1903  1.8175
 4991TIP3    H236389   1.260   1.944  13.334  2.1117 -3.2597 -0.5548
 4992TIP3   OH236390   6.511   2.915  15.347  0.5142  0.1535 -0.1285
 4992TIP3    H136391   6.599   2.907  15.311 -0.5087 -0.8055 -2.6076
 4992TIP3    H236392   6.485   2.826  15.370 -0.6070  0.0808 -1.5475
 4993TIP3   OH236393   1.461   2.674  11.220  0.0465 -0.0640  0.3781
 4993TIP3    H136394   1.544   2.643  11.257 -0.0369 -1.9174 -0.8222
 4993TIP3    H236395   1.485   2.716  11.137 -0.1644 -0.1919  0.2497
 4994TIP3   OH236396   0.354   5.531   3.343 -0.1966  0.0663  0.4978
 4994TIP3    H136397   0.378   5.529   3.436 -1.3400  0.3806  0.8277
 4994TIP3    H236398   0.433   5.504   3.297  0.7184  0.9136  1.5003
 4995TIP3   OH236399   4.446   1.481  11.907  0.2623  1.0061 -0.2047
 4995TIP3    H136400   4.490   1.455  11.988  0.1285  0.0731 -0.4130
 4995TIP3    H236401   4.505   1.544  11.866  0.7647  0.7871  0.1720
 4996TIP3   OH236402   5.453   0.468   4.919 -0.6837  0.7321  0.0290
 4996TIP3    H136403   5.509   0.539   4.950 -0.0063  0.3852 -0.3799
 4996TIP3    H236404   5.511   0.411   4.870 -1.6007  0.9049 -1.3066
 4997TIP3   OH236405   0.796   3.195  10.384  0.0180 -0.2915 -0.4148
 4997TIP3    H136406   0.739   3.219  10.457 -0.1813  0.9267 -0.9587
 4997TIP3    H236407   0.830   3.109  10.409 -0.6428 -0.2444  0.7516
 4998TIP3   OH236408   1.860   2.365   4.133 -0.1788 -0.0340 -0.0618
 4998TIP3    H136409   1.773   2.325   4.124 -0.1438 -0.3720  1.0405
 4998TIP3    H236410   1.918   2.293   4.157  0.5276  0.0959 -1.2692
 4999TIP3   OH236411   6.316   5.807   1.528  0.2496 -0.0887  0.1761
 4999TIP3    H136412   6.362   5.888   1.548 -0.2020  0.3612 -0.5519
 4999TIP3    H236413   6.282   5.821   1.440 -1.2191 -0.4318  0.6693
 5000TIP3   OH236414   5.573   5.649   2.318 -0.0528  0.2723  0.8824
 5000TIP3    H136415   5.615   5.681   2.239 -0.8098 -0.1006  0.3123
 5000TIP3    H236416   5.513   5.581   2.287 -1.4902  1.1702  1.5954
 5001TIP3   OH236417   2.558   4.973  14.236 -0.0482  0.3322 -0.3808
 5001TIP3    H136418   2.512   5.050  14.202  0.8825  1.1313  0.1234
 5001TIP3    H236419   2.649   4.986  14.211  0.1752 -0.4652 -0.0192
 5002TIP3   OH236420   6.604   6.667   5.937  0.2172 -0.2199 -0.3085
 5002TIP3    H136421   6.578   6.749   5.894 -0.4664 -0.1685  0.1941
 5002TIP3    H236422   6.533   6.649   5.999  0.1618 -1.4012 -0.6882
 5003TIP3   OH236423   4.958   1.142  13.850 -0.4168  0.3600 -0.5427
 5003TIP3    H136424   5.023   1.136  13.780  0.7213  1.7394  0.3337
 5003TIP3    H236425   4.991   1.083  13.918  0.7824  2.1528  0.5074
 5004TIP3   OH236426   3.128   0.982  16.113 -0.2985  0.4239 -0.1284
 5004TIP3    H136427   3.162   1.006  16.027 -0.5109  0.0052 -0.3315
 5004TIP3    H236428   3.081   0.900  16.099  1.5083 -0.8422  0.7703
 5005TIP3   OH236429   3.296   5.107   5.787  0.0176 -0.0533 -0.4331
 5005TIP3    H136430   3.381   5.095   5.829  0.6504 -0.6913 -1.8248
 5005TIP3    H236431   3.295   5.198   5.759  0.2106 -0.0115 -0.3043
 5006TIP3   OH236432   4.324   5.192  12.765  0.0271  0.1031  0.1566
 5006TIP3    H136433   4.306   5.161  12.854  0.2594 -0.5671 -0.0297
 5006TIP3    H236434   4.376   5.123  12.725  0.4780  0.6901 -0.2955
 5007TIP3   OH236435   3.301   2.805  16.023 -0.0364 -0.6228  0.1356
 5007TIP3    H136436   3.359   2.764  16.088  1.2724 -1.9618 -1.7390
 5007TIP3    H236437   3.265   2.881  16.067  3.2068  0.3282  1.4857
 5008TIP3   OH236438   6.419   1.705  12.406  0.3114 -0.1298  0.3633
 5008TIP3    H136439   6.381   1.784  12.366  2.0903  1.1695  1.1099
 5008TIP3    H236440   6.397   1.713  12.499  1.4677  0.1209  0.6331
 5009TIP3   OH236441   6.428   2.929   6.092 -1.1291 -0.1474  0.1697
 5009TIP3    H136442   6.451   3.021   6.081  0.4191 -0.4579  0.6625
 5009TIP3    H236443   6.491   2.895   6.156 -1.8907 -1.4728  0.2655
 5010TIP3   OH236444   5.109   3.076  11.602  0.1780 -0.5512 -0.1562
 5010TIP3    H136445   5.020   3.094  11.573 -0.0796  0.4686  1.2050
 5010TIP3    H236446   5.105   2.986  11.636 -0.4455 -0.3555  0.3080
 5011TIP3   OH236447   4.386   1.263  14.859 -0.3354  0.3886  0.2088
 5011TIP3    H136448   4.309   1.214  14.832  1.1249 -0.4626 -2.9934
 5011TIP3    H236449   4.452   1.196  14.878  1.0723  0.9640 -2.2139
 5012TIP3   OH236450   6.667   1.208  11.660 -0.2745  0.1131 -0.1545
 5012TIP3    H136451   6.670   1.304  11.651  1.3414  0.0210 -1.0413
 5012TIP3    H236452   6.690   1.175  11.573 -1.4892 -1.1103 -0.0415
 5013TIP3   OH236453   0.017   3.519  12.178 -0.0578  0.0617 -0.0549
 5013TIP3    H136454   0.011   3.516  12.082 -1.3592 -0.2540  0.0212
 5013TIP3    H236455  -0.073   3.512  12.208  0.2950  0.6037  1.1988
 5014TIP3   OH236456   0.510   4.435  16.162  0.8650 -0.5778  0.0873
 5014TIP3    H136457   0.604   4.417  16.162  1.7493  3.2092  1.1028
 5014TIP3    H236458   0.489   4.455  16.071  0.6512 -2.7017 -0.3852
 5015TIP3   OH236459   1.199   1.608  13.233  0.1308 -0.0471  0.1216
 5015TIP3    H136460   1.200   1.698  13.265  1.5155 -0.4861  1.3696
 5015TIP3    H236461   1.167   1.615  13.143 -0.3841  1.6031  0.4095
 5016TIP3   OH236462   6.409   2.349   5.514  0.5149  0.2041 -0.3721
 5016TIP3    H136463   6.385   2.275   5.569 -1.2170  0.5204 -0.6486
 5016TIP3    H236464   6.418   2.313   5.426  0.4598  0.1792 -0.3673
 5017TIP3   OH236465   4.817   3.152  11.860 -0.1754  0.7032 -0.3120
 5017TIP3    H136466   4.749   3.146  11.793 -0.4867  1.1910 -0.0422
 5017TIP3    H236467   4.899   3.148  11.811 -0.3737 -0.8554 -0.5607
 5018TIP3   OH236468   0.362   1.047   4.313 -0.0733 -0.1099 -0.5585
 5018TIP3    H136469   0.449   1.073   4.283  1.0760 -1.1159  1.6348
 5018TIP3    H236470   0.304   1.114   4.279  1.6215  0.9060 -1.6308
 5019TIP3   OH236471   6.338   4.417   1.544 -0.2051  0.1850  0.4068
 5019TIP3    H136472   6.399   4.414   1.470 -0.1158 -1.6085  0.5293
 5019TIP3    H236473   6.252   4.396   1.505 -0.5227  1.2550  0.4888
 5020TIP3   OH236474   5.850   5.439  16.966 -0.3230  0.5334 -0.0569
 5020TIP3    H136475   5.934   5.439  17.011 -0.1520 -0.4138 -0.3424
 5020TIP3    H236476   5.817   5.349  16.977 -1.2871  0.8823  0.0335
 5021TIP3   OH236477   3.893   6.646   0.527 -0.2336 -0.1005  0.1116
 5021TIP3    H136478   3.864   6.665   0.438 -0.9994  1.7580  0.7067
 5021TIP3    H236479   3.812   6.628   0.575  0.2768 -2.5786  0.1643
 5022TIP3   OH236480   6.054   0.920  13.273 -0.1168 -0.3349  0.8930
 5022TIP3    H136481   6.008   0.898  13.354 -0.0758 -0.5241  0.8673
 5022TIP3    H236482   6.013   1.001  13.243 -0.3300 -0.4199  0.9498
 5023TIP3   OH236483   5.151   1.179   5.503  0.0460  0.2628  0.9434
 5023TIP3    H136484   5.209   1.113   5.540 -0.3596  0.0648  1.2299
 5023TIP3    H236485   5.202   1.260   5.507  0.9058 -0.1978 -0.2894
 5024TIP3   OH236486   2.733   2.064   0.142 -0.1721  0.0051  0.0302
 5024TIP3    H136487   2.638   2.079   0.141 -0.5283 -1.7968 -1.6959
 5024TIP3    H236488   2.758   2.072   0.050  0.8246 -2.2191  0.0584
 5025TIP3   OH236489   5.066   2.837   0.292  0.1914 -0.3410  0.1852
 5025TIP3    H136490   4.991   2.887   0.325  1.6312  2.0418  0.1178
 5025TIP3    H236491   5.119   2.819   0.370  0.7386  0.1919 -0.0506
 5026TIP3   OH236492   0.357   6.537  15.029  0.1619  0.4211  0.3049
 5026TIP3    H136493   0.356   6.447  15.061  3.9598  0.1938  0.2497
 5026TIP3    H236494   0.292   6.582  15.082 -2.9349 -2.5062 -0.6127
 5027TIP3   OH236495   1.066   0.763  11.641 -0.3004 -0.0606 -0.2725
 5027TIP3    H136496   0.993   0.812  11.680 -0.1210  1.2452 -1.4916
 5027TIP3    H236497   1.123   0.830  11.604  0.5661 -1.1589 -0.9861
 5028TIP3   OH236498   1.902   0.296   1.934  0.3231 -0.2552  0.7591
 5028TIP3    H136499   1.853   0.369   1.897  0.1319 -1.1420 -0.8546
 5028TIP3    H236500   1.993   0.323   1.928  0.1259  1.1181  3.1310
 5029TIP3   OH236501   3.596   0.774   6.838  0.0259  0.6096  0.3132
 5029TIP3    H136502   3.567   0.859   6.805  0.6056  1.0982  1.0495
 5029TIP3    H236503   3.516   0.721   6.840 -0.4775  1.3581  0.5309
 5030TIP3   OH236504   2.818   3.469   0.116  0.2076  0.0752  0.1683
 5030TIP3    H136505   2.789   3.419   0.193 -0.2997 -0.4220 -0.3364
 5030TIP3    H236506   2.848   3.552   0.152 -1.2941  0.3891  0.7753
 5031TIP3   OH236507   4.710   5.126   1.978  0.0337 -0.7517  0.0853
 5031TIP3    H136508   4.650   5.199   1.964  0.3350 -0.6923 -0.9989
 5031TIP3    H236509   4.699   5.103   2.071  1.8197  2.3586  1.2249
 5032TIP3   OH236510   4.885   3.239  16.877  0.5721 -0.0230  0.0574
 5032TIP3    H136511   4.924   3.309  16.929  1.9790 -0.0720 -0.8736
 5032TIP3    H236512   4.852   3.177  16.941 -0.5363  1.3659  0.9049
 5033TIP3   OH236513   1.472   5.119   4.952  0.1856 -0.4995 -0.4979
 5033TIP3    H136514   1.398   5.058   4.947  0.0776 -0.3541 -0.6820
 5033TIP3    H236515   1.547   5.063   4.971  0.2259 -0.8073 -1.4625
 5034TIP3   OH236516   4.778   0.353  15.264  0.5321  0.2138  0.3644
 5034TIP3    H136517   4.831   0.276  15.286  1.0880  0.6039  0.4201
 5034TIP3    H236518   4.798   0.416  15.333  0.7265  0.7139 -0.1447
 5035TIP3   OH236519   4.259   0.077  11.070  0.2696  0.3076 -0.2051
 5035TIP3    H136520   4.317   0.090  10.995  1.9892 -0.7589  0.8476
 5035TIP3    H236521   4.187   0.024  11.036  1.2839 -0.6016 -1.0168
 5036TIP3   OH236522   1.109   2.668   0.570  0.0282 -0.1140 -0.1041
 5036TIP3    H136523   1.093   2.738   0.506  0.8691  1.2964  1.1793
 5036TIP3    H236524   1.120   2.713   0.653  1.9984 -1.6589  0.5439
 5037TIP3   OH236525   0.583   3.584   3.902 -0.0635  0.4431  0.1098
 5037TIP3    H136526   0.566   3.592   3.808 -0.2443 -1.9539 -0.1196
 5037TIP3    H236527   0.678   3.588   3.910  0.1214 -1.6481 -0.5056
 5038TIP3   OH236528   0.724   0.507   2.915  0.4226  0.4439 -0.0407
 5038TIP3    H136529   0.643   0.537   2.874 -1.0132 -1.8889  0.8960
 5038TIP3    H236530   0.749   0.579   2.974 -1.5765  0.8161  0.4279
 5039TIP3   OH236531   0.623   6.309  11.293 -0.2534 -0.0792  0.5541
 5039TIP3    H136532   0.650   6.362  11.218  1.5917 -0.9416  0.5474
 5039TIP3    H236533   0.661   6.223  11.276  1.3736  0.0274  3.0806
 5040TIP3   OH236534   5.187   4.240   4.322  0.1967 -0.0927  0.9182
 5040TIP3    H136535   5.207   4.332   4.336  1.4592 -0.6991  3.9118
 5040TIP3    H236536   5.268   4.203   4.287 -0.8067  0.1223 -1.8834
 5041TIP3   OH236537   4.305   0.247  15.070 -0.0394  0.1122 -0.0173
 5041TIP3    H136538   4.354   0.220  15.147  0.5312 -0.4423 -0.5593
 5041TIP3    H236539   4.218   0.210  15.081 -0.9517  2.5063  1.7811
 5042TIP3   OH236540   3.199   4.084  13.313 -0.1203 -0.3393 -0.0690
 5042TIP3    H136541   3.147   4.145  13.365  0.4760 -0.1339  0.3007
 5042TIP3    H236542   3.218   4.012  13.373  3.0337  1.2060  1.0314
 5043TIP3   OH236543   4.921   5.044  15.412 -0.3160 -0.6044  0.6160
 5043TIP3    H136544   4.923   5.111  15.344 -3.4104 -0.6515  0.3384
 5043TIP3    H236545   4.989   4.981  15.386  0.3127  0.6790 -0.9868
 5044TIP3   OH236546   5.738   2.606   4.100  0.7017  0.4318  0.3295
 5044TIP3    H136547   5.654   2.567   4.127  0.4545  1.2286  0.7651
 5044TIP3    H236548   5.803   2.538   4.116  0.2706  0.1750  1.0196
 5045TIP3   OH236549   4.020   1.232  13.862 -0.5489  0.0803 -0.3507
 5045TIP3    H136550   3.976   1.147  13.853 -0.5076  0.0563 -0.3245
 5045TIP3    H236551   4.104   1.211  13.903 -0.5191  0.1282 -0.3883
 5046TIP3   OH236552   4.354   4.222   2.316  0.1290 -0.0832 -0.5443
 5046TIP3    H136553   4.280   4.227   2.256  1.1260  0.9203 -1.7420
 5046TIP3    H236554   4.389   4.134   2.302 -0.3023 -0.2443 -0.6312
 5047TIP3   OH236555   1.644   3.477  16.781  0.2716 -0.1286 -0.4137
 5047TIP3    H136556   1.698   3.433  16.715 -0.1057 -0.3875 -0.5511
 5047TIP3    H236557   1.627   3.411  16.847  1.0247  0.2552  0.1829
 5048TIP3   OH236558   3.971   4.193   2.520 -0.1880 -0.2821  0.2635
 5048TIP3    H136559   3.961   4.188   2.615  0.4291 -0.1077  0.3449
 5048TIP3    H236560   4.049   4.140   2.501 -0.7336 -0.9363 -0.2341
 5049TIP3   OH236561   5.222   3.453  16.609  0.1372 -0.0628 -0.1526
 5049TIP3    H136562   5.310   3.454  16.646  0.1373  0.2653 -0.1537
 5049TIP3    H236563   5.193   3.544  16.615  1.1016  0.5893 -3.2216
 5050TIP3   OH236564   1.886   0.649  11.260 -0.5171  0.0186 -0.4891
 5050TIP3    H136565   1.889   0.739  11.226 -0.7819 -0.0094 -0.5892
 5050TIP3    H236566   1.940   0.599  11.199  1.1955  0.4429  0.6161
 5051TIP3   OH236567   1.961   3.119  10.660 -1.1790 -0.4560 -0.2219
 5051TIP3    H136568   1.871   3.088  10.657 -1.2881 -0.0553 -2.5823
 5051TIP3    H236569   2.008   3.064  10.597 -0.5515  1.5480 -1.5911
 5052TIP3   OH236570   4.575   5.416  12.170 -0.0391 -0.6555 -0.5860
 5052TIP3    H136571   4.572   5.425  12.075  2.9026 -2.1246 -0.9197
 5052TIP3    H236572   4.611   5.329  12.185 -2.3415 -1.3019  1.9671
 5053TIP3   OH236573   4.812   4.205   5.907  0.2994  0.1186  0.0183
 5053TIP3    H136574   4.842   4.217   5.997  1.8448  0.2020 -0.4853
 5053TIP3    H236575   4.864   4.267   5.856 -0.3187 -0.1688 -0.9769
 5054TIP3   OH236576   5.681   5.743  10.477  0.0589 -0.3633  0.4297
 5054TIP3    H136577   5.763   5.789  10.495 -0.8695  0.8971  1.6892
 5054TIP3    H236578   5.632   5.803  10.420 -0.1437 -0.9407 -0.0125
 5055TIP3   OH236579   5.360   1.867  16.122  0.4853  0.1170  0.2448
 5055TIP3    H136580   5.408   1.922  16.183 -0.6834  1.7556 -0.2377
 5055TIP3    H236581   5.406   1.877  16.038 -0.1340  0.9649 -0.0080
 5056TIP3   OH236582   3.032   1.335  12.944  0.7863 -0.3009  0.1614
 5056TIP3    H136583   3.103   1.397  12.960 -0.6305  1.7795 -1.0506
 5056TIP3    H236584   2.967   1.356  13.012 -0.0727  0.1968 -0.7749
 5057TIP3   OH236585   1.997   6.045  15.917 -0.5290 -0.1289 -0.3394
 5057TIP3    H136586   2.076   6.037  15.863 -0.3504 -0.4539 -0.0390
 5057TIP3    H236587   1.975   5.954  15.940  0.3584  0.0792  1.5018
 5058TIP3   OH236588   2.424   1.676  12.571  0.2186 -0.2661  1.2867
 5058TIP3    H136589   2.493   1.610  12.578 -0.4737 -1.0008  1.3143
 5058TIP3    H236590   2.343   1.629  12.591 -0.0539  1.1710  4.0924
 5059TIP3   OH236591   0.684   1.711  11.900 -0.0573  0.1955 -0.5831
 5059TIP3    H136592   0.627   1.776  11.859 -1.0750 -0.3580 -0.0694
 5059TIP3    H236593   0.745   1.686  11.830  0.1113  1.4089 -0.8895
 5060TIP3   OH236594   4.007   1.273  11.099  0.5936  0.5340 -0.2790
 5060TIP3    H136595   3.993   1.344  11.161  0.4119 -1.0978  1.6580
 5060TIP3    H236596   3.920   1.234  11.087  1.1458 -1.2310  1.1277
 5061TIP3   OH236597   0.679   2.268  15.981 -0.3012 -0.2222 -0.1340
 5061TIP3    H136598   0.749   2.318  15.939 -0.4578  0.3532  0.2804
 5061TIP3    H236599   0.725   2.202  16.033 -0.0222  0.7354  0.8676
 5062TIP3   OH236600   4.129   2.312  12.231  0.2389 -0.3355  0.2920
 5062TIP3    H136601   4.169   2.398  12.246  0.0645 -0.0578 -0.7864
 5062TIP3    H236602   4.199   2.259  12.194 -0.4609  0.2977 -2.0762
 5063TIP3   OH236603   0.433   0.857   0.412 -0.1018 -0.1536 -0.6360
 5063TIP3    H136604   0.483   0.937   0.397  0.3529 -0.2134  0.4177
 5063TIP3    H236605   0.479   0.813   0.484 -2.0134  0.1152  0.8465
 5064TIP3   OH236606   1.179   2.807   3.192  0.2798  0.1900 -0.0098
 5064TIP3    H136607   1.140   2.889   3.160 -0.6297 -0.4557 -0.6003
 5064TIP3    H236608   1.135   2.792   3.276 -0.2330 -0.1678 -0.3390
 5065TIP3   OH236609   2.773   3.260   1.056 -0.1735  0.1912  0.8125
 5065TIP3    H136610   2.865   3.238   1.072 -0.0423 -1.3160 -1.5567
 5065TIP3    H236611   2.774   3.353   1.033  1.0289 -0.2072 -0.8667
 5066TIP3   OH236612   5.910   6.309   3.509  0.1730 -0.4115 -0.5233
 5066TIP3    H136613   5.941   6.248   3.577 -2.2078 -2.9195 -1.4882
 5066TIP3    H236614   5.976   6.303   3.440  0.8992 -0.4610  0.1616
 5067TIP3   OH236615   0.366   5.127  15.648  0.2200  0.2277  0.7878
 5067TIP3    H136616   0.409   5.111  15.731 -0.4999  0.5098  1.2267
 5067TIP3    H236617   0.277   5.155  15.672  0.1931  0.9024 -0.0516
 5068TIP3   OH236618   3.892   5.473   3.371 -0.1819  0.2799  0.6651
 5068TIP3    H136619   3.898   5.537   3.442  1.7390  0.8925 -0.0023
 5068TIP3    H236620   3.962   5.410   3.389  1.2901  1.2116 -1.3654
 5069TIP3   OH236621   5.177   2.444   4.151 -0.1176 -0.1872 -0.2555
 5069TIP3    H136622   5.219   2.526   4.178 -0.9800  0.7765 -1.6354
 5069TIP3    H236623   5.140   2.408   4.231  2.9059 -0.8981  0.9514
 5070TIP3   OH236624   0.039   1.161  11.135  0.2368 -0.1930  0.0315
 5070TIP3    H136625   0.014   1.069  11.126  0.5215 -0.0848 -2.6078
 5070TIP3    H236626  -0.044   1.209  11.129  0.3404 -0.1732 -1.7450
 5071TIP3   OH236627   4.715   4.156  14.354 -0.4203  0.0401 -0.3614
 5071TIP3    H136628   4.718   4.209  14.274 -0.2837 -0.0587 -0.4207
 5071TIP3    H236629   4.677   4.214  14.420 -2.6722 -0.5407 -1.0363
 5072TIP3   OH236630   1.874   1.430  13.834  0.3636  0.3985 -0.3748
 5072TIP3    H136631   1.804   1.485  13.799  0.0140  0.8275  0.9381
 5072TIP3    H236632   1.848   1.413  13.924  0.9447 -1.1553 -0.4751
 5073TIP3   OH236633   4.613   3.218   4.915  0.7232  0.4035 -0.2481
 5073TIP3    H136634   4.674   3.159   4.960  0.5215  0.8967  0.6999
 5073TIP3    H236635   4.583   3.168   4.839  0.4256 -0.7797  0.6130
 5074TIP3   OH236636   2.692   3.699   1.163  0.2258  0.4264  0.8472
 5074TIP3    H136637   2.766   3.754   1.139  1.7071 -1.5472  0.6372
 5074TIP3    H236638   2.687   3.634   1.094 -2.0619  0.7831  0.5981
 5075TIP3   OH236639   0.647   2.835   4.289 -0.2319 -0.0891  0.0033
 5075TIP3    H136640   0.678   2.789   4.367  0.3775 -2.7006 -1.6512
 5075TIP3    H236641   0.557   2.861   4.312 -0.1168 -0.8750  1.5278
 5076TIP3   OH236642   0.208   3.105  12.288  0.4257  0.5239  0.7424
 5076TIP3    H136643   0.116   3.084  12.274  0.7247 -0.4992  0.2076
 5076TIP3    H236644   0.231   3.164  12.216  0.5088 -0.2624  0.1039
 5077TIP3   OH236645   5.559   3.973  16.609 -0.4771 -0.2019  0.1907
 5077TIP3    H136646   5.625   3.932  16.664  0.8709  1.1614 -0.3458
 5077TIP3    H236647   5.524   3.902  16.556  1.4511 -0.7864 -0.3773
 5078TIP3   OH236648   2.344   0.261   0.452 -0.1904  0.5817 -0.1053
 5078TIP3    H136649   2.430   0.218   0.456 -0.2647  0.5056  0.9765
 5078TIP3    H236650   2.289   0.208   0.509 -0.3277  2.0251  1.1406
 5079TIP3   OH236651   4.375   4.758  16.050 -0.1970  0.0367  0.1884
 5079TIP3    H136652   4.388   4.685  15.989  1.6084 -0.1636  0.7435
 5079TIP3    H236653   4.284   4.784  16.037  0.3481  0.7932 -3.5155
 5080TIP3   OH236654   1.484   1.178  14.394 -0.0968  0.2382 -0.1321
 5080TIP3    H136655   1.559   1.119  14.401 -0.6714 -0.8746 -2.3279
 5080TIP3    H236656   1.519   1.264  14.414  0.9828 -0.6582  2.2253
 5081TIP3   OH236657   6.130   2.358   0.979  0.2576 -0.4755  0.4017
 5081TIP3    H136658   6.163   2.373   0.890  0.8618 -1.4848  0.4390
 5081TIP3    H236659   6.195   2.400   1.036 -0.7406  1.2269  0.3658
 5082TIP3   OH236660   6.246   1.979   5.599  0.3075  0.1791 -0.0102
 5082TIP3    H136661   6.238   1.967   5.504  0.8737  0.9827 -0.1709
 5082TIP3    H236662   6.164   2.020   5.625 -0.9203 -2.2569  0.2737
 5083TIP3   OH236663   0.048   2.807  14.826  0.1673 -0.9246  0.0751
 5083TIP3    H136664  -0.026   2.770  14.874  1.3807 -1.9902  1.2193
 5083TIP3    H236665   0.048   2.900  14.851  1.1966 -1.5597  2.9068
 5084TIP3   OH236666   3.476   2.211   1.410  0.7021 -0.1198  0.3663
 5084TIP3    H136667   3.387   2.209   1.376  1.4820 -0.1248 -1.8175
 5084TIP3    H236668   3.512   2.125   1.388  1.6834  0.3964 -0.1164
 5085TIP3   OH236669   0.772   1.214   3.346 -0.1176 -0.0931  0.4066
 5085TIP3    H136670   0.726   1.199   3.264 -1.0102  0.1740  0.8438
 5085TIP3    H236671   0.796   1.126   3.377 -2.0468 -0.4252  1.1144
 5086TIP3   OH236672   0.556   6.255  16.315  0.1963  0.0411 -0.3600
 5086TIP3    H136673   0.632   6.201  16.333 -0.9269 -1.0353  1.5196
 5086TIP3    H236674   0.531   6.234  16.225  1.4505 -0.4058 -0.6174
 5087TIP3   OH236675   4.691   6.556  11.858 -0.0196  0.0841  0.0385
 5087TIP3    H136676   4.619   6.531  11.800  1.5846 -2.2270 -1.0939
 5087TIP3    H236677   4.751   6.482  11.856  1.4638  1.0986  2.5192
 5088TIP3   OH236678   2.149   1.305  13.525 -0.5179 -0.2258 -0.0684
 5088TIP3    H136679   2.174   1.213  13.512  0.3337 -0.3501  2.1187
 5088TIP3    H236680   2.192   1.352  13.453  0.8695 -1.2747  0.0388
 5089TIP3   OH236681   2.825   4.908  11.595  0.4066  0.3182 -0.0059
 5089TIP3    H136682   2.847   4.816  11.584 -2.4186 -0.5909  1.0188
 5089TIP3    H236683   2.836   4.925  11.689  2.8459  1.6746 -0.4536
 5090TIP3   OH236684   4.997   5.912  14.270  0.2101 -0.1910  0.3557
 5090TIP3    H136685   5.047   5.968  14.328  1.1972 -1.4592  0.7787
 5090TIP3    H236686   5.043   5.918  14.185 -0.9445  1.2821 -0.1928
 5091TIP3   OH236687   6.320   0.598  15.534 -0.7881 -0.3765  0.6413
 5091TIP3    H136688   6.374   0.526  15.502 -0.0287  0.0709  0.8886
 5091TIP3    H236689   6.237   0.557  15.558 -0.0520 -1.3415  1.6724
 5092TIP3   OH236690   1.543   6.129   2.851 -0.3468 -0.2868  0.7077
 5092TIP3    H136691   1.498   6.198   2.802 -0.0728 -0.6036  0.0024
 5092TIP3    H236692   1.473   6.067   2.873 -0.3973 -0.3645  0.3344
 5093TIP3   OH236693   0.604   2.992  16.040  0.4849  0.3654  0.3546
 5093TIP3    H136694   0.627   3.084  16.047 -1.9858  0.9527  2.0528
 5093TIP3    H236695   0.553   2.986  15.959 -1.9839  1.2493  1.7162
 5094TIP3   OH236696   2.049   4.416   5.809 -0.1168  0.3957 -0.0699
 5094TIP3    H136697   2.109   4.374   5.748  1.2082  0.3710  1.2046
 5094TIP3    H236698   2.104   4.469   5.866 -1.2450  0.1495  1.3331
 5095TIP3   OH236699   0.053   1.236  10.846 -0.1461 -0.2378  0.2364
 5095TIP3    H136700   0.141   1.211  10.821  0.3913  0.1775  1.6123
 5095TIP3    H236701   0.004   1.239  10.764  1.0432 -0.7493 -0.5074
 5096TIP3   OH236702   4.027   4.432   2.044  0.1639  0.0868  0.0667
 5096TIP3    H136703   4.027   4.366   2.113  0.9118 -1.7190 -1.5693
 5096TIP3    H236704   4.075   4.391   1.972 -0.7653  1.8064 -1.6134
 5097TIP3   OH236705   6.389   2.168  17.275  0.2123  0.6464 -0.3792
 5097TIP3    H136706   6.365   2.091  17.326  1.7576  0.2422 -0.2007
 5097TIP3    H236707   6.406   2.134  17.187 -2.3101  1.3151 -1.2137
 5098TIP3   OH236708   3.876   4.963  12.494  0.3710  0.2759 -0.3670
 5098TIP3    H136709   3.963   4.968  12.534  0.8049 -2.8318 -0.6483
 5098TIP3    H236710   3.889   4.994  12.405  0.6465  1.9292  0.2148
 5099TIP3   OH236711   5.636   3.674  14.575  0.3942  0.2344 -0.1408
 5099TIP3    H136712   5.591   3.746  14.620  2.5959  0.5749  1.7102
 5099TIP3    H236713   5.596   3.595  14.610  0.3940  0.5374  0.5712
 5100TIP3   OH236714   3.596   0.014   0.830  0.0529 -0.0781  0.2635
 5100TIP3    H136715   3.568   0.001   0.740 -1.2669 -0.8370  0.7546
 5100TIP3    H236716   3.691   0.003   0.828  0.1592  0.9193 -1.1881
 5101TIP3   OH236717   6.343   1.633   2.069  0.3303 -0.0742  0.2311
 5101TIP3    H136718   6.359   1.572   1.998  0.0215 -0.0781  0.1635
 5101TIP3    H236719   6.348   1.580   2.149 -0.4451 -0.2894  0.1415
 5102TIP3   OH236720   1.949   2.555   3.627  0.5242  0.2095  0.4116
 5102TIP3    H136721   1.979   2.646   3.626  0.6564  0.1702 -0.8439
 5102TIP3    H236722   2.029   2.503   3.623  0.5752 -0.0383  3.2446
 5103TIP3   OH236723   2.974   5.389  12.906  0.3659 -0.9502 -0.1045
 5103TIP3    H136724   2.944   5.478  12.887 -0.5381 -1.3097 -0.4327
 5103TIP3    H236725   2.980   5.347  12.820  1.6809 -0.9561 -0.0401
 5104TIP3   OH236726   4.722   6.545  16.268  0.3699  0.0168  0.3909
 5104TIP3    H136727   4.812   6.572  16.250 -0.0201  2.1724  1.3029
 5104TIP3    H236728   4.678   6.552  16.183  0.6982  0.5876  0.2602
 5105TIP3   OH236729   1.661   5.649   0.367 -0.5418 -0.0552  0.1473
 5105TIP3    H136730   1.726   5.602   0.315  0.5909  1.3171  0.2576
 5105TIP3    H236731   1.589   5.588   0.376  0.4691 -1.3998 -0.5244
 5106TIP3   OH236732   3.532   1.830   5.575  0.6103  0.2915  0.1892
 5106TIP3    H136733   3.470   1.880   5.521  1.2117  0.3708 -0.4351
 5106TIP3    H236734   3.508   1.853   5.665  1.6909  2.7432 -0.0630
 5107TIP3   OH236735   3.148   5.300  14.050  0.2938  0.1598 -0.5121
 5107TIP3    H136736   3.190   5.338  13.973 -1.2553  0.7233 -1.1167
 5107TIP3    H236737   3.075   5.359  14.070  0.4948 -0.1248  1.2345
 5108TIP3   OH236738   3.376   2.838  11.400  0.1634  1.1306 -0.0477
 5108TIP3    H136739   3.396   2.745  11.410  0.1634  1.1264 -0.0856
 5108TIP3    H236740   3.421   2.864  11.320  2.1005  1.7262  1.1633
 5109TIP3   OH236741   2.319   3.152  15.915 -0.4157  0.6272 -0.3277
 5109TIP3    H136742   2.233   3.125  15.946 -1.0948  1.0196 -1.7383
 5109TIP3    H236743   2.381   3.114  15.977 -1.5453 -0.6149  0.0930
 5110TIP3   OH236744   5.693   1.425   1.758 -0.1808 -0.3673  0.2110
 5110TIP3    H136745   5.694   1.505   1.705 -0.4142 -0.3833  0.1810
 5110TIP3    H236746   5.616   1.377   1.728 -0.2151 -0.4594  0.4405
 5111TIP3   OH236747   2.914   4.512  13.041 -0.4747 -0.1890  0.3515
 5111TIP3    H136748   2.886   4.506  12.950 -1.8986 -1.9260  0.8484
 5111TIP3    H236749   2.940   4.423  13.064  2.1717  0.6508  0.9937
 5112TIP3   OH236750   3.255   2.865  13.949  0.6541 -0.3994 -0.5040
 5112TIP3    H136751   3.322   2.859  13.881  0.8017  0.5403 -0.4561
 5112TIP3    H236752   3.245   2.959  13.965  1.8581 -0.5938  1.9806
 5113TIP3   OH236753   2.272   1.684   1.383  0.3729 -0.5958 -0.0980
 5113TIP3    H136754   2.244   1.606   1.336 -1.1655  0.8836 -1.7809
 5113TIP3    H236755   2.204   1.698   1.448 -0.2311  0.2196 -0.8830
 5114TIP3   OH236756   3.945   4.523  13.725 -0.2379 -0.2626 -0.0647
 5114TIP3    H136757   3.966   4.472  13.803 -0.0976  0.4568  0.3785
 5114TIP3    H236758   4.000   4.601  13.731  0.5126 -0.6470 -1.3969
 5115TIP3   OH236759   6.344   1.097   5.249 -0.3234  0.6468  0.2219
 5115TIP3    H136760   6.268   1.135   5.204 -1.6975 -2.2885 -0.1464
 5115TIP3    H236761   6.330   1.119   5.341 -2.6623 -1.2665  0.4190
 5116TIP3   OH236762   2.293   4.493   5.995  0.5282  0.2718  0.2629
 5116TIP3    H136763   2.255   4.555   6.058  0.0296  1.2563 -0.9611
 5116TIP3    H236764   2.386   4.516   5.991  0.1495  1.7582 -1.0248
 5117TIP3   OH236765   1.921   0.239  13.100 -0.8990  0.5845 -0.0406
 5117TIP3    H136766   2.016   0.237  13.083 -0.6960 -1.1352  1.0151
 5117TIP3    H236767   1.914   0.232  13.195 -2.0762 -1.2403 -0.2105
 5118TIP3   OH236768   4.184   3.061  16.179  0.0672 -0.2844 -0.1980
 5118TIP3    H136769   4.204   3.139  16.127 -2.3371  0.0234 -0.8028
 5118TIP3    H236770   4.255   3.001  16.160  1.2351  1.2348 -0.8488
 5119TIP3   OH236771   5.144   2.986   3.154  0.8949  0.2108  0.7345
 5119TIP3    H136772   5.218   3.045   3.167  1.5657 -0.2390 -0.8018
 5119TIP3    H236773   5.105   3.014   3.071 -0.2017 -0.0450  1.1441
 5120TIP3   OH236774   6.410   1.271   5.713  0.2248 -0.2865  0.1208
 5120TIP3    H136775   6.480   1.280   5.648  0.8794  0.5545  0.9257
 5120TIP3    H236776   6.447   1.307   5.794 -0.7276 -0.9294  0.8611
 5121TIP3   OH236777   0.919   1.447   2.696  0.0397 -0.5145 -0.2308
 5121TIP3    H136778   0.895   1.367   2.648 -0.6615 -0.9201  0.7631
 5121TIP3    H236779   0.835   1.481   2.727  0.5588 -1.0461  1.9147
 5122TIP3   OH236780   3.546   6.568  16.719  0.7657 -0.0183  0.3964
 5122TIP3    H136781   3.465   6.600  16.760 -0.1445 -1.5229 -0.1564
 5122TIP3    H236782   3.614   6.626  16.753 -0.6205  1.7141  0.3558
 5123TIP3   OH236783   1.870   2.961  15.892  0.4532  0.0808  0.7812
 5123TIP3    H136784   1.796   2.903  15.873  1.8047 -1.9634  1.3926
 5123TIP3    H236785   1.831   3.035  15.938 -1.3023 -0.5356  0.3752
 5124TIP3   OH236786   1.646   4.833  11.940  0.0751  0.6990  0.1425
 5124TIP3    H136787   1.614   4.788  11.862  2.3432  0.8801 -0.9880
 5124TIP3    H236788   1.673   4.920  11.909 -0.8375  1.5437  1.5669
 5125TIP3   OH236789   5.318   3.794  16.750 -0.1930 -0.5961 -0.6484
 5125TIP3    H136790   5.374   3.719  16.770  0.3867 -0.1786 -0.6848
 5125TIP3    H236791   5.282   3.775  16.663 -0.1541 -0.8886 -0.6025
 5126TIP3   OH236792   5.008   6.298  13.016  0.2050  0.5376  0.4423
 5126TIP3    H136793   5.065   6.270  13.087  1.6677  0.0760 -0.8717
 5126TIP3    H236794   4.996   6.392  13.031  0.7299  0.5010  1.1223
 5127TIP3   OH236795   0.905   6.357   0.884  0.4037 -0.3331 -0.3334
 5127TIP3    H136796   0.884   6.265   0.897 -0.4889 -0.1946 -0.7670
 5127TIP3    H236797   0.972   6.357   0.816 -1.0435 -0.5580 -1.8070
 5128TIP3   OH236798   4.157   5.028  11.689 -0.6193 -0.1007  0.2403
 5128TIP3    H136799   4.165   5.098  11.754  1.6335 -0.2861  0.2310
 5128TIP3    H236800   4.068   4.995  11.701 -0.5728  0.4451  2.6497
 5129TIP3   OH236801   3.661   0.507  16.845  0.3992 -0.4731  0.1520
 5129TIP3    H136802   3.612   0.491  16.926 -0.2354 -0.9443 -0.3104
 5129TIP3    H236803   3.701   0.593  16.857 -2.0980  0.8520 -0.1630
 5130TIP3   OH236804   0.245   6.227   3.971  0.1207 -0.1450  0.4493
 5130TIP3    H136805   0.275   6.139   3.994  0.7411  0.4479  2.0220
 5130TIP3    H236806   0.237   6.225   3.875  0.7256 -1.7124  0.3995
 5131TIP3   OH236807   2.454   4.000  14.936  0.4977  0.2543  0.0231
 5131TIP3    H136808   2.423   3.989  14.847  0.9595  1.7621 -0.3641
 5131TIP3    H236809   2.546   3.977  14.933 -0.0245 -2.1222  0.6958
 5132TIP3   OH236810   2.107   3.372  15.292 -0.0145  0.4244  0.6156
 5132TIP3    H136811   2.078   3.460  15.267 -1.1403 -0.5233 -1.7286
 5132TIP3    H236812   2.169   3.346  15.223  0.8453 -0.3954  1.6424
 5133TIP3   OH236813   2.681   1.834  13.408 -0.3763  1.0784 -0.0135
 5133TIP3    H136814   2.692   1.750  13.451 -1.4585  0.9173 -0.0289
 5133TIP3    H236815   2.766   1.877  13.417 -0.1722  0.4755  1.0277
 5134TIP3   OH236816   4.350   2.063   3.941  0.3425  0.2664 -0.0127
 5134TIP3    H136817   4.317   2.148   3.910 -0.2482  0.6197  1.4854
 5134TIP3    H236818   4.384   2.021   3.863 -4.4109 -0.5097 -2.0365
 5135TIP3   OH236819   5.480   3.733  11.809  0.3698  0.5205 -0.7965
 5135TIP3    H136820   5.421   3.728  11.734 -0.4829 -0.4481 -0.0806
 5135TIP3    H236821   5.528   3.650  11.808  0.7827  0.7526 -0.6131
 5136TIP3   OH236822   3.438   4.038   1.465  0.0268 -0.3729 -0.2484
 5136TIP3    H136823   3.428   4.132   1.452 -0.4968 -0.6865 -2.8152
 5136TIP3    H236824   3.520   4.016   1.419  1.7726 -0.8162  2.8361
 5137TIP3   OH236825   0.237   1.953   3.108  0.4792 -0.1686 -0.0069
 5137TIP3    H136826   0.188   2.030   3.078  0.0756 -0.1905  0.5760
 5137TIP3    H236827   0.247   1.966   3.203 -1.4931 -1.8480  0.5146
 5138TIP3   OH236828   2.139   2.373  14.906 -0.0083  0.3409  0.3118
 5138TIP3    H136829   2.219   2.360  14.957 -1.0377  0.1191  1.9392
 5138TIP3    H236830   2.068   2.356  14.968 -1.3281 -0.3742 -1.3192
 5139TIP3   OH236831   0.882   5.341  13.224 -0.5035 -0.0151 -0.2377
 5139TIP3    H136832   0.835   5.416  13.259 -0.5160 -0.3142  0.4008
 5139TIP3    H236833   0.814   5.284  13.189 -0.6695 -0.6243  1.0245
 5140TIP3   OH236834   4.232   0.464   5.223  0.0755 -0.1833 -0.3628
 5140TIP3    H136835   4.258   0.422   5.305 -1.3803  0.9023  0.7273
 5140TIP3    H236836   4.261   0.555   5.233 -1.1864  0.2532 -0.5010
 5141TIP3   OH236837   3.179   3.363  12.304  0.3696  0.2746 -0.1201
 5141TIP3    H136838   3.186   3.450  12.343  1.4521 -0.0188  0.3934
 5141TIP3    H236839   3.111   3.319  12.356  1.6866 -0.0596  1.4128
 5142TIP3   OH236840   3.326   6.515  15.064 -0.5686  0.2154  0.5909
 5142TIP3    H136841   3.349   6.423  15.075 -0.7065  0.1500  0.3545
 5142TIP3    H236842   3.232   6.514  15.046 -0.7874  0.4906  1.6925
 5143TIP3   OH236843   2.278   3.103   6.318  0.6483  0.0151 -0.2169
 5143TIP3    H136844   2.250   3.116   6.227  0.6387 -1.0332 -0.3760
 5143TIP3    H236845   2.265   3.010   6.334  0.4237  0.2348  0.9513
 5144TIP3   OH236846   4.067   3.142   1.550  0.3858 -0.1438 -0.1341
 5144TIP3    H136847   4.028   3.108   1.631  1.2180 -1.0990 -0.1121
 5144TIP3    H236848   4.147   3.185   1.578  0.7011 -0.5192 -0.4448
 5145TIP3   OH236849   4.357   3.796  16.543  0.3694 -0.3370 -0.3253
 5145TIP3    H136850   4.360   3.892  16.544  1.2033 -0.3504  1.2866
 5145TIP3    H236851   4.445   3.769  16.567  0.1104 -1.5173 -0.6587
 5146TIP3   OH236852   2.605   5.461   5.603  0.2908  0.5116 -0.4542
 5146TIP3    H136853   2.575   5.424   5.520  0.2555 -1.8852  0.5608
 5146TIP3    H236854   2.663   5.395   5.640  0.3024  1.5023  1.4555
 5147TIP3   OH236855   0.857   2.509   4.141 -0.5650  0.3447 -0.5618
 5147TIP3    H136856   0.906   2.479   4.064 -3.1468 -0.4686 -1.9963
 5147TIP3    H236857   0.797   2.575   4.107  1.6653  3.8463  1.7362
 5148TIP3   OH236858   5.441   0.707   3.261  0.2879 -0.1864 -0.5072
 5148TIP3    H136859   5.426   0.740   3.172  2.0636 -1.0625 -1.1929
 5148TIP3    H236860   5.414   0.615   3.257 -1.0871  0.1622  0.3240
 5149TIP3   OH236861   6.490   2.016   4.727 -0.5638 -0.4121 -0.5332
 5149TIP3    H136862   6.459   2.045   4.813 -0.3023  1.3037 -0.9748
 5149TIP3    H236863   6.575   2.059   4.717 -0.5991 -0.5766 -1.6494
 5150TIP3   OH236864   5.576   6.130  13.832 -0.2285  0.0676 -0.7241
 5150TIP3    H136865   5.635   6.204  13.846  1.0475 -1.1727  0.9241
 5150TIP3    H236866   5.581   6.113  13.738  2.2661 -0.1064 -0.6406
 5151TIP3   OH236867   3.371   1.920  14.374 -0.0405 -0.1966 -0.8555
 5151TIP3    H136868   3.341   1.952  14.289 -3.2945 -1.0573 -0.1665
 5151TIP3    H236869   3.329   1.834  14.383  0.5647 -0.3133  1.4528
 5152TIP3   OH236870   5.252   3.453   0.196  0.2733 -0.3940 -0.1760
 5152TIP3    H136871   5.331   3.483   0.241  0.2395  0.6188 -0.7474
 5152TIP3    H236872   5.253   3.358   0.206  1.3325 -0.3578  0.2018
 5153TIP3   OH236873   4.642   6.466  14.984  1.1967  0.0375  0.6281
 5153TIP3    H136874   4.652   6.558  15.011  2.9742 -0.1013  0.5186
 5153TIP3    H236875   4.644   6.470  14.888 -0.9095  0.0718  0.5280
 5154TIP3   OH236876   3.427   4.790  12.179  0.1513  0.0541 -0.8890
 5154TIP3    H136877   3.393   4.701  12.168 -0.4698  0.1288  0.3072
 5154TIP3    H236878   3.420   4.829  12.092  1.7524 -1.4923 -1.7852
 5155TIP3   OH236879   5.027   3.183  13.589 -0.2336  0.1555 -0.0611
 5155TIP3    H136880   4.990   3.266  13.561  0.8891  0.4691 -0.7086
 5155TIP3    H236881   5.089   3.160  13.520  2.1866  0.6353  1.8087
 5156TIP3   OH236882   1.692   6.224   4.320 -0.4567 -0.1677  0.0818
 5156TIP3    H136883   1.772   6.202   4.367 -0.2032 -2.1976 -1.2010
 5156TIP3    H236884   1.721   6.273   4.243 -0.4717 -0.5335 -0.1599
 5157TIP3   OH236885   6.553   2.587   0.680  0.2009 -0.0455  0.5830
 5157TIP3    H136886   6.581   2.668   0.638  1.5119 -2.1727 -3.1879
 5157TIP3    H236887   6.622   2.569   0.744  1.3320  0.6008 -0.3862
 5158TIP3   OH236888   5.089   5.978   0.335  0.1260 -0.3303  0.0310
 5158TIP3    H136889   5.040   5.925   0.397 -0.0360 -2.0580 -1.4873
 5158TIP3    H236890   5.055   5.953   0.249  0.6081  1.6881 -0.8164
 5159TIP3   OH236891   3.467   2.059  11.399 -0.0665  0.7529  0.2820
 5159TIP3    H136892   3.376   2.048  11.428  0.4348  0.4566  1.7670
 5159TIP3    H236893   3.458   2.093  11.310 -1.6388 -1.2980 -0.4352
 5160TIP3   OH236894   5.408   1.948  15.589  0.3457  0.0989 -0.1987
 5160TIP3    H136895   5.443   1.955  15.501 -0.8060  0.4269 -0.6466
 5160TIP3    H236896   5.386   1.856  15.599  0.1668  0.1219 -0.3788
 5161TIP3   OH236897   0.106   0.001  11.631  0.3582 -0.0465  0.1812
 5161TIP3    H136898   0.178  -0.016  11.570 -1.0906 -0.2530 -1.5514
 5161TIP3    H236899   0.085  -0.085  11.667  0.2188 -0.1730 -0.1990
 5162TIP3   OH236900   2.097   5.083  14.309  0.2145 -0.4175  0.5658
 5162TIP3    H136901   2.077   5.030  14.386  2.0572 -0.4885  1.0460
 5162TIP3    H236902   2.121   5.019  14.242  3.7431 -0.2824  1.5322
 5163TIP3   OH236903   3.532   2.508   2.022  0.5545 -0.2347  0.2131
 5163TIP3    H136904   3.460   2.538   1.966 -0.1807 -0.2096  1.1405
 5163TIP3    H236905   3.501   2.524   2.112  1.6761 -0.3233  0.6390
 5164TIP3   OH236906   4.721   5.512   4.485  0.1192 -0.5957  0.5346
 5164TIP3    H136907   4.720   5.465   4.402  0.0230 -3.4740  2.0499
 5164TIP3    H236908   4.809   5.547   4.492  1.0837 -2.8512  0.4661
 5165TIP3   OH236909   5.119   3.986  15.451 -0.5215 -0.2739  0.0398
 5165TIP3    H136910   5.028   3.982  15.479 -0.1332 -1.4844  1.2723
 5165TIP3    H236911   5.133   4.077  15.424 -1.3933  0.6105  2.3648
 5166TIP3   OH236912   2.457   5.027  14.561  0.1187 -0.3014  0.0607
 5166TIP3    H136913   2.525   4.979  14.514 -0.4942 -0.7442 -0.4000
 5166TIP3    H236914   2.457   5.114  14.522  1.9301  0.4667  1.5789
 5167TIP3   OH236915   0.211   2.782   0.539  0.2610  0.3674 -0.0538
 5167TIP3    H136916   0.286   2.724   0.526 -0.1155  0.2231 -1.8699
 5167TIP3    H236917   0.223   2.851   0.473  0.7505  2.4769  2.0848
 5168TIP3   OH236918   3.223   4.903   1.979 -0.3711 -0.7435  0.5089
 5168TIP3    H136919   3.267   4.889   1.895 -0.1437 -1.8805  0.8008
 5168TIP3    H236920   3.225   4.818   2.022 -0.4342 -0.1698  1.7022
 5169TIP3   OH236921   2.144   4.754  11.353 -0.7036 -0.2011 -0.3352
 5169TIP3    H136922   2.211   4.822  11.345 -2.1482  1.1624 -1.4108
 5169TIP3    H236923   2.143   4.711  11.268 -2.1806  0.7952 -0.8612
 5170TIP3   OH236924   4.744   1.284  11.646  0.2750 -0.0572  0.0503
 5170TIP3    H136925   4.682   1.242  11.705 -0.6499  0.5438 -0.4742
 5170TIP3    H236926   4.701   1.283  11.561  2.0140 -1.8842 -0.9042
 5171TIP3   OH236927   6.579   0.515   5.695  0.4394  0.1539  0.0017
 5171TIP3    H136928   6.528   0.456   5.640 -0.4645  0.6550  0.2686
 5171TIP3    H236929   6.577   0.599   5.648 -0.5307  0.6475  0.8603
 5172TIP3   OH236930   0.101   0.592  13.404 -0.2955  0.1102 -1.0368
 5172TIP3    H136931   0.055   0.642  13.336 -0.6786 -0.1554 -0.9765
 5172TIP3    H236932   0.070   0.629  13.486 -0.0946  0.2000 -1.0018
 5173TIP3   OH236933   5.640   2.631  14.342  0.0485 -0.0213  0.2103
 5173TIP3    H136934   5.683   2.640  14.428 -0.0700 -1.4529  0.4450
 5173TIP3    H236935   5.548   2.647  14.360  0.2478  1.5606 -0.0212
 5174TIP3   OH236936   0.465   1.058   2.048  0.1080  0.3440 -0.1717
 5174TIP3    H136937   0.420   0.974   2.049 -1.4056  1.0701 -1.8408
 5174TIP3    H236938   0.437   1.101   2.129 -0.0129 -0.2996  0.1354
 5175TIP3   OH236939   3.363   0.789   2.551 -0.0826 -0.1183 -0.3212
 5175TIP3    H136940   3.402   0.876   2.558 -0.0164 -0.0650 -1.2393
 5175TIP3    H236941   3.386   0.746   2.633 -0.3796  0.8364  0.2702
 5176TIP3   OH236942   0.399   4.645  12.580  0.6381  0.4339 -0.0147
 5176TIP3    H136943   0.370   4.736  12.583 -1.0878 -0.1039  0.9448
 5176TIP3    H236944   0.344   4.599  12.644  0.2326 -1.6084 -1.6975
 5177TIP3   OH236945   0.834   2.079  10.649  0.4183 -0.4560 -0.3023
 5177TIP3    H136946   0.925   2.093  10.621  0.7371  0.2223  0.9976
 5177TIP3    H236947   0.811   2.159  10.697 -0.8620 -0.6334 -0.6045
 5178TIP3   OH236948   5.450   3.552  16.815 -0.4421 -0.2082  0.3504
 5178TIP3    H136949   5.537   3.519  16.790 -0.6203  0.7674 -1.8503
 5178TIP3    H236950   5.410   3.480  16.864  1.6803 -0.5841  1.6499
 5179TIP3   OH236951   2.614   2.839  14.670 -0.1746 -0.1528 -0.5141
 5179TIP3    H136952   2.704   2.862  14.695 -0.0703 -1.0018 -0.0774
 5179TIP3    H236953   2.561   2.867  14.745 -0.3853  1.0298 -1.0805
 5180TIP3   OH236954   4.688   4.459   0.350 -0.3861 -0.0981 -0.1492
 5180TIP3    H136955   4.697   4.471   0.444 -0.0369  1.2162 -0.3339
 5180TIP3    H236956   4.645   4.538   0.319  0.3168 -0.1099 -1.2184
 5181TIP3   OH236957   1.275   2.454   3.362  0.2616  0.2781 -0.0469
 5181TIP3    H136958   1.303   2.393   3.430  0.3092  0.2136 -0.1245
 5181TIP3    H236959   1.291   2.541   3.399  0.4925  0.2417 -0.0640
 5182TIP3   OH236960   5.813   5.810   3.951 -0.5392 -0.6993 -0.3720
 5182TIP3    H136961   5.868   5.819   3.872  0.5556 -1.3748  0.2835
 5182TIP3    H236962   5.792   5.900   3.976 -0.0806 -0.4409 -0.8806
 5183TIP3   OH236963   6.613   2.685  15.021 -0.0054 -0.5030  0.6477
 5183TIP3    H136964   6.638   2.607  15.072  1.3665 -0.5541 -0.0682
 5183TIP3    H236965   6.646   2.758  15.072  1.2577 -0.5478 -0.0911
 5184TIP3   OH236966   5.483   2.128  12.917 -0.3617  0.3526 -0.5829
 5184TIP3    H136967   5.487   2.222  12.904  0.5939  0.9363  2.8805
 5184TIP3    H236968   5.389   2.109  12.922 -0.5586  1.4393  0.2894
 5185TIP3   OH236969   0.713   1.355  14.361  0.0295  0.0129 -0.1566
 5185TIP3    H136970   0.632   1.395  14.327 -1.1535 -1.6503  0.5677
 5185TIP3    H236971   0.725   1.396  14.446 -0.1281  0.1772 -0.2113
 5186TIP3   OH236972   1.971   3.985   4.942  0.0289  0.9179  1.1008
 5186TIP3    H136973   2.014   3.940   5.015 -0.1008 -0.4075  0.3818
 5186TIP3    H236974   2.041   4.000   4.878 -0.3963 -0.5461  0.2615
 5187TIP3   OH236975   0.657   1.508  12.746  0.0035 -0.0201 -0.4622
 5187TIP3    H136976   0.669   1.538  12.656  1.1085  1.7722  0.2344
 5187TIP3    H236977   0.609   1.579  12.789 -0.9187 -1.0538  0.2817
 5188TIP3   OH236978   6.670   4.476  13.870 -0.0102  0.3043  0.6955
 5188TIP3    H136979   6.585   4.517  13.858  0.0772  0.1561 -0.5660
 5188TIP3    H236980   6.664   4.431  13.954 -0.3952  2.1788  1.7174
 5189TIP3   OH236981   0.446   5.917   3.035  0.3192 -0.2203  0.5313
 5189TIP3    H136982   0.377   5.940   2.973  2.3268 -2.3991 -2.8726
 5189TIP3    H236983   0.424   5.829   3.064  1.5261 -0.9663 -0.6393
 5190TIP3   OH236984   5.487   1.900  15.866 -0.2451 -0.6037  0.4536
 5190TIP3    H136985   5.557   1.965  15.858  1.4019 -2.1177  1.9408
 5190TIP3    H236986   5.477   1.866  15.777  0.9192 -0.3453  0.1997
 5191TIP3   OH236987   5.025   1.026   5.711 -0.0015  0.5054  0.6072
 5191TIP3    H136988   4.967   1.071   5.772  0.7443  0.1384  1.6081
 5191TIP3    H236989   5.111   1.063   5.728  0.4820 -0.7006  0.8649
 5192TIP3   OH236990   0.797   1.621   6.143  0.0821 -0.4045  0.4827
 5192TIP3    H136991   0.709   1.657   6.131  0.3925  0.2927  0.2348
 5192TIP3    H236992   0.815   1.634   6.236  0.4959  0.8213  0.2473
 5193TIP3   OH236993   3.349   4.518  12.897  0.4716  0.1187  0.0664
 5193TIP3    H136994   3.421   4.480  12.848  1.7947 -0.7278  2.5031
 5193TIP3    H236995   3.358   4.612  12.884  1.9234  0.0172  0.2031
 5194TIP3   OH236996   2.466   0.485  16.300  0.0251  0.1333  0.3160
 5194TIP3    H136997   2.498   0.445  16.219 -0.8075  0.1201 -0.0158
 5194TIP3    H236998   2.374   0.506  16.282  0.0179  0.7604  1.0228
 5195TIP3   OH236999   1.746   6.299   3.751 -0.2405 -0.8908 -0.1510
 5195TIP3    H137000   1.766   6.393   3.752 -1.0769 -0.6586  2.3933
 5195TIP3    H237001   1.651   6.295   3.743 -0.1871 -1.5543 -0.5078
 5196TIP3   OH237002   3.327   1.513  15.429  0.6202 -0.0132  0.4795
 5196TIP3    H137003   3.361   1.537  15.343 -0.1484  0.9589  0.4314
 5196TIP3    H237004   3.377   1.435  15.453  1.8076  0.4897 -0.2351
 5197TIP3   OH237005   6.183   5.189  13.037 -0.3217  0.2250  0.1778
 5197TIP3    H137006   6.252   5.123  13.032 -0.0554  0.5747 -2.3407
 5197TIP3    H237007   6.211   5.248  13.108  0.2999 -1.3752  1.3161
 5198TIP3   OH237008   2.467   1.026  10.642  0.0335  0.0246 -0.8569
 5198TIP3    H137009   2.422   0.947  10.670 -0.7898  0.7874  0.0348
 5198TIP3    H237010   2.397   1.084  10.611  0.7474 -0.1395 -2.9600
 5199TIP3   OH237011   3.166   5.076  11.356 -0.2094  0.1113  0.3492
 5199TIP3    H137012   3.170   5.161  11.400 -0.5413  1.0592 -1.3228
 5199TIP3    H237013   3.237   5.080  11.291 -0.5118 -0.6956 -0.0445
 5200TIP3   OH237014   0.353   3.023  14.636  0.2612  0.1707  0.0486
 5200TIP3    H137015   0.378   3.006  14.727 -0.3901 -1.0405  0.0245
 5200TIP3    H237016   0.402   3.102  14.612 -1.2656  1.9084  2.1608
 5201TIP3   OH237017   0.518   3.305  11.568  0.2181  0.8699 -0.2576
 5201TIP3    H137018   0.435   3.263  11.591  1.4382 -0.2534  2.5722
 5201TIP3    H237019   0.501   3.399  11.578 -0.8698  0.6939 -0.3582
 5202TIP3   OH237020   4.057   2.279  15.045  0.0972  0.1036 -0.6065
 5202TIP3    H137021   3.967   2.274  15.012 -0.5851 -1.4175  1.2866
 5202TIP3    H237022   4.081   2.371  15.037 -1.3888  0.4284 -1.7040
 5203TIP3   OH237023   1.637   3.293   4.958 -0.4862 -0.0232  0.7433
 5203TIP3    H137024   1.681   3.313   5.041  0.7288 -2.5548  0.8259
 5203TIP3    H237025   1.544   3.300   4.977 -0.2602  3.4605  1.1419
 5204TIP3   OH237026   4.328   0.999   3.017  0.1336 -0.2152 -0.1809
 5204TIP3    H137027   4.331   0.973   2.925 -2.2224 -0.3140 -0.2941
 5204TIP3    H237028   4.296   0.921   3.063 -0.6726  0.4530  0.4146
 5205TIP3   OH237029   5.296   3.968   2.736 -0.2998 -0.5124 -0.5988
 5205TIP3    H137030   5.386   3.954   2.766 -0.2542  0.6806 -0.1125
 5205TIP3    H237031   5.257   3.881   2.734  0.7414 -1.0002 -0.4164
 5206TIP3   OH237032   0.309   5.810   5.023 -0.0301  0.1879  0.2953
 5206TIP3    H137033   0.296   5.884   4.964 -0.9549 -0.8716 -0.9137
 5206TIP3    H237034   0.221   5.772   5.033  0.5686 -1.3762 -0.0424
 5207TIP3   OH237035   1.024   1.232  12.408  0.1138 -0.7902 -0.2739
 5207TIP3    H137036   1.013   1.243  12.314 -0.0261 -1.3736 -0.3251
 5207TIP3    H237037   1.096   1.170  12.417  0.6514 -0.1382  0.0157
 5208TIP3   OH237038   4.334   5.853   1.591 -0.4206  0.4930  0.2829
 5208TIP3    H137039   4.349   5.772   1.639 -1.1478 -0.2655 -0.7167
 5208TIP3    H237040   4.342   5.828   1.499  2.5709  2.2062 -0.0730
 5209TIP3   OH237041   1.267   1.890  12.478 -0.2234  0.5058  0.4384
 5209TIP3    H137042   1.314   1.818  12.519 -1.1343  0.3230  1.1957
 5209TIP3    H237043   1.308   1.969  12.514  2.4361  0.5360 -2.2009
 5210TIP3   OH237044   5.828   3.183   4.648 -0.4028 -0.2504 -0.0310
 5210TIP3    H137045   5.881   3.263   4.650  2.3494 -1.8904 -1.3605
 5210TIP3    H237046   5.772   3.194   4.571  0.5570  0.0917 -0.7059
 5211TIP3   OH237047   0.884   2.647   2.633 -0.3759  0.7947 -0.3993
 5211TIP3    H137048   0.961   2.678   2.585  0.1474 -1.6747 -1.3309
 5211TIP3    H237049   0.913   2.637   2.723 -0.3655  2.2374 -0.2272
 5212TIP3   OH237050   3.017   2.331  17.156  0.2064 -0.4079  0.1650
 5212TIP3    H137051   3.071   2.275  17.213  0.1096 -0.1729  0.4933
 5212TIP3    H237052   3.035   2.420  17.186  2.0455 -0.0704 -1.8091
 5213TIP3   OH237053   4.355   1.440  12.574  0.3680 -0.1354  0.0299
 5213TIP3    H137054   4.307   1.516  12.539  0.7210  0.1376  0.1269
 5213TIP3    H237055   4.393   1.398  12.497 -0.9666 -1.0262 -0.1745
 5214TIP3   OH237056   6.127   5.603  15.535 -0.3302 -0.3506  0.0493
 5214TIP3    H137057   6.042   5.568  15.561  0.1884 -0.0657  2.3061
 5214TIP3    H237058   6.118   5.698  15.548  0.4174 -0.3474  0.5335
 5215TIP3   OH237059   6.595   1.348  16.481 -0.0322  0.0409  1.0827
 5215TIP3    H137060   6.502   1.368  16.468  0.4876  4.1166  2.4096
 5215TIP3    H237061   6.641   1.408  16.422  1.8147 -0.6683  1.7315
 5216TIP3   OH237062   0.203   5.939  15.000  0.9870  0.4638  0.2532
 5216TIP3    H137063   0.125   5.966  14.950  0.5379  2.1984  1.7959
 5216TIP3    H237064   0.167   5.897  15.078  1.4766  2.4462  1.6299
 5217TIP3   OH237065   5.447   3.749   0.714 -0.1283  0.2233  0.2076
 5217TIP3    H137066   5.509   3.685   0.750 -0.6086 -1.9382 -2.4574
 5217TIP3    H237067   5.363   3.725   0.752 -0.2302 -0.4718 -0.4350
 5218TIP3   OH237068   4.885   5.790   5.951 -0.1286 -0.3589  0.0977
 5218TIP3    H137069   4.857   5.795   6.043 -2.1463  1.4619 -0.5286
 5218TIP3    H237070   4.813   5.745   5.907  0.7520 -1.0688 -0.6454
 5219TIP3   OH237071   1.616   0.829  16.491 -0.0005 -0.7845  0.3546
 5219TIP3    H137072   1.644   0.911  16.451  1.3091 -1.0779  0.6307
 5219TIP3    H237073   1.590   0.774  16.417  0.1042 -0.4811  0.0899
 5220TIP3   OH237074   1.315   5.217   3.919  0.3054 -0.0819  0.0028
 5220TIP3    H137075   1.360   5.249   3.997 -0.2545  1.1453 -0.1394
 5220TIP3    H237076   1.280   5.132   3.945 -0.7545  0.7398  1.4720
 5221TIP3   OH237077   0.236   3.937  15.803  0.7050 -0.5944 -0.1764
 5221TIP3    H137078   0.236   3.971  15.892 -0.5303  0.9930 -0.7421
 5221TIP3    H237079   0.327   3.915  15.786  1.3707  1.3326  0.6612
 5222TIP3   OH237080   4.472   6.576  17.025  0.1994  0.2472  0.1164
 5222TIP3    H137081   4.478   6.492  17.069  0.4215  0.4585  0.4936
 5222TIP3    H237082   4.387   6.574  16.981  0.1609 -0.1321  0.2057
 5223TIP3   OH237083   0.969   2.152  15.724 -0.1746 -0.2431  0.1902
 5223TIP3    H137084   0.958   2.069  15.678  0.1119  0.0210 -0.3654
 5223TIP3    H237085   0.993   2.214  15.655 -1.6368  0.5841  0.4042
 5224TIP3   OH237086   2.140   5.919   1.295 -0.2737 -0.2762 -0.2069
 5224TIP3    H137087   2.228   5.941   1.324 -0.3101  0.3392 -0.5512
 5224TIP3    H237088   2.093   5.895   1.375 -0.0389  0.2443  0.0913
 5225TIP3   OH237089   2.683   1.179  10.873  0.2977  0.2194 -0.0542
 5225TIP3    H137090   2.655   1.168  10.782  0.5338 -1.7723  0.0681
 5225TIP3    H237091   2.604   1.209  10.918  0.6510  3.1744 -1.1837
 5226TIP3   OH237092   0.898   4.861  12.160 -0.0314 -0.1136 -0.6123
 5226TIP3    H137093   0.809   4.836  12.187 -0.1756  0.6939 -0.3187
 5226TIP3    H237094   0.955   4.802  12.209 -0.4212 -0.9904 -1.1982
 5227TIP3   OH237095   5.320   6.541  14.211 -0.2566  0.0896 -0.2542
 5227TIP3    H137096   5.390   6.493  14.168 -0.8186 -0.5002 -0.5380
 5227TIP3    H237097   5.243   6.525  14.156 -0.6455  0.6133  0.1227
 5228TIP3   OH237098   0.132   3.160   4.591  0.0137  1.0071  0.1627
 5228TIP3    H137099   0.201   3.097   4.574 -0.5956 -0.0890  1.5658
 5228TIP3    H237100   0.169   3.244   4.564  1.7773  0.4183  0.6404
 5229TIP3   OH237101   0.485   2.407  13.646 -0.2058 -0.3849  0.0283
 5229TIP3    H137102   0.554   2.387  13.710  0.5805  0.8656 -0.3840
 5229TIP3    H237103   0.533   2.429  13.566 -1.1109  0.0377 -0.4094
 5230TIP3   OH237104   3.304   5.430   3.424  0.5903 -0.2942 -0.0450
 5230TIP3    H137105   3.224   5.389   3.456  0.5836 -0.4805 -0.2996
 5230TIP3    H237106   3.274   5.495   3.361  0.7152 -1.7856 -1.7388
 5231TIP3   OH237107   2.600   3.789  10.826  0.0992  0.8578  0.6565
 5231TIP3    H137108   2.569   3.701  10.803 -0.1273  1.2985 -0.7934
 5231TIP3    H237109   2.528   3.847  10.801  1.2779  1.7032 -0.9668
 5232TIP3   OH237110   5.934   3.133  15.891 -0.2533  0.4233 -0.4542
 5232TIP3    H137111   5.993   3.208  15.898  0.9562 -0.5441  0.0606
 5232TIP3    H237112   5.871   3.158  15.823 -0.3975  2.2309  0.3062
 5233TIP3   OH237113   5.567   0.436  13.041  0.0223  0.0859  0.1635
 5233TIP3    H137114   5.508   0.449  12.967  1.3108 -0.9737 -1.0967
 5233TIP3    H237115   5.530   0.491  13.111 -2.1612 -0.1875 -0.7015
 5234TIP3   OH237116   5.866   5.526  15.575  0.3949 -0.0018 -0.7642
 5234TIP3    H137117   5.824   5.443  15.554  0.2516  0.1923 -1.2512
 5234TIP3    H237118   5.793   5.587  15.590  0.4927  0.4054 -1.8861
 5235TIP3   OH237119   4.725   3.429  12.289 -0.4821 -0.0606  0.7524
 5235TIP3    H137120   4.779   3.364  12.243 -1.1628 -0.7803  0.9478
 5235TIP3    H237121   4.635   3.400  12.275 -0.9649  2.1200 -1.0627
 5236TIP3   OH237122   0.846   2.115   5.939  0.8432  0.3823  0.5474
 5236TIP3    H137123   0.774   2.052   5.937  1.3870 -0.3277  1.9212
 5236TIP3    H237124   0.811   2.190   5.988  0.5806  0.6469 -0.0421
 5237TIP3   OH237125   5.247   2.094   5.566  0.0656 -0.0576  0.1634
 5237TIP3    H137126   5.308   2.072   5.637  0.5194 -0.8393 -0.4503
 5237TIP3    H237127   5.161   2.093   5.607  0.2772 -0.9770  0.6073
 5238TIP3   OH237128   2.652   6.249   3.278  0.0647 -0.1721 -0.1489
 5238TIP3    H137129   2.709   6.219   3.207 -0.7599 -1.9630 -0.1149
 5238TIP3    H237130   2.612   6.329   3.245 -0.3976 -1.0355 -1.7987
 5239TIP3   OH237131   1.477   5.690  17.191 -0.3790 -0.5974 -0.1761
 5239TIP3    H137132   1.501   5.729  17.108  1.3886 -1.2426 -0.0080
 5239TIP3    H237133   1.389   5.656  17.177 -0.0415 -0.8748 -1.8519
 5240TIP3   OH237134   4.440   3.350  11.907  0.2613 -0.0359  0.2138
 5240TIP3    H137135   4.373   3.371  11.841  1.9088 -0.1317 -1.5705
 5240TIP3    H237136   4.447   3.430  11.959 -0.0080  0.6047 -0.6929
 5241TIP3   OH237137   1.272   3.727  15.226  0.1214  0.4565  0.5286
 5241TIP3    H137138   1.256   3.757  15.316  0.8455 -1.0276  1.2011
 5241TIP3    H237139   1.231   3.640  15.222 -0.5037  0.7948 -0.8077
 5242TIP3   OH237140   4.589   2.526   2.215  0.0596 -0.2295 -0.3861
 5242TIP3    H137141   4.648   2.452   2.204  0.9772  0.4436 -0.0962
 5242TIP3    H237142   4.539   2.505   2.294  2.2668  0.6883  1.3619
 5243TIP3   OH237143   6.276   1.316  13.419 -0.0409  0.4949 -0.2703
 5243TIP3    H137144   6.361   1.344  13.453 -0.9683  1.7418  1.1398
 5243TIP3    H237145   6.259   1.233  13.464 -0.6240  1.4450  1.3436
 5244TIP3   OH237146   6.203   1.519  11.221  0.8681  0.1324  0.3303
 5244TIP3    H137147   6.141   1.457  11.184  0.0591  0.5152  1.0220
 5244TIP3    H237148   6.289   1.479  11.205  0.4655 -0.3418 -0.7388
 5245TIP3   OH237149   1.406   5.727  11.350  0.0708 -0.4514 -0.3734
 5245TIP3    H137150   1.446   5.813  11.343  0.5205 -0.7056 -1.0358
 5245TIP3    H237151   1.338   5.726  11.283 -0.5360 -0.2984  0.2305
 5246TIP3   OH237152   0.087   6.004   3.520 -0.9347  0.4726 -0.3934
 5246TIP3    H137153   0.033   5.932   3.552 -1.4606  1.0746  0.0854
 5246TIP3    H237154   0.029   6.055   3.464 -0.9032  1.1746  0.1963
 5247TIP3   OH237155   3.082   0.751   3.251 -0.0932 -0.3482  0.8256
 5247TIP3    H137156   3.023   0.804   3.305  1.0621 -0.2405  2.0296
 5247TIP3    H237157   3.123   0.814   3.191 -1.7874 -0.5499 -0.6204
 5248TIP3   OH237158   5.973   0.902  11.958  0.2758  0.4407  0.2039
 5248TIP3    H137159   6.015   0.979  11.919  2.3331 -0.6373  0.1452
 5248TIP3    H237160   6.037   0.869  12.021 -1.1636 -0.4113  1.2920
 5249TIP3   OH237161   0.564   2.944   0.580 -0.6592 -0.4845  0.1144
 5249TIP3    H137162   0.579   2.886   0.506  1.4909  1.2059 -0.8679
 5249TIP3    H237163   0.494   3.003   0.550 -0.8568 -0.7611  0.0275
 5250TIP3   OH237164   2.146   5.028   0.783  0.0199  0.0218 -0.0814
 5250TIP3    H137165   2.052   5.049   0.786  0.3660  1.7837  3.5969
 5250TIP3    H237166   2.148   4.934   0.767 -2.3941 -0.1087 -0.0981
 5251TIP3   OH237167   3.376   5.369   5.361 -0.1663 -0.2719  0.1965
 5251TIP3    H137168   3.444   5.342   5.422 -0.5945  1.2202  1.3999
 5251TIP3    H237169   3.422   5.396   5.282  0.5120 -0.7254  0.4339
 5252TIP3   OH237170   5.827   1.172   2.317  0.0187  0.0333  0.1436
 5252TIP3    H137171   5.872   1.094   2.284  1.8848  0.2102  2.0343
 5252TIP3    H237172   5.851   1.241   2.256  3.5587  0.3979  1.6852
 5253TIP3   OH237173   4.909   0.686  12.738 -0.3180 -0.2337 -0.2882
 5253TIP3    H137174   4.894   0.753  12.804  0.3774 -0.0520 -0.3033
 5253TIP3    H237175   4.840   0.699  12.673 -1.5065 -0.9274  0.7935
 5254TIP3   OH237176   1.316   1.910  12.894  0.3358  0.5228  0.1949
 5254TIP3    H137177   1.368   1.947  12.823 -0.8505  1.6046 -0.1647
 5254TIP3    H237178   1.268   1.985  12.929 -1.9837 -0.6088 -0.3751
 5255TIP3   OH237179   6.582   3.489   1.490 -0.6161  0.6227  0.5954
 5255TIP3    H137180   6.623   3.472   1.574 -1.6726  0.4250  1.0937
 5255TIP3    H237181   6.654   3.511   1.431  0.1295  0.8336  1.5656
 5256TIP3   OH237182   1.559   1.586  11.380 -0.2340 -0.4543  0.0125
 5256TIP3    H137183   1.587   1.549  11.296 -0.6089 -1.5566  0.3636
 5256TIP3    H237184   1.499   1.657  11.356 -1.3475 -1.5847 -0.6543
 5257TIP3   OH237185   0.688   5.915   2.696 -0.2517 -0.3658  0.5568
 5257TIP3    H137186   0.762   5.868   2.657 -0.9226 -0.1788 -1.0408
 5257TIP3    H237187   0.627   5.927   2.623 -0.5883  2.0256  1.1681
 5258TIP3   OH237188   3.272   3.352   5.613 -0.3175 -0.2903 -0.1762
 5258TIP3    H137189   3.214   3.365   5.689  0.2146 -2.7116  0.7344
 5258TIP3    H237190   3.361   3.357   5.650  0.0788  1.2909 -1.1979
 5259TIP3   OH237191   3.614   2.755   2.108  0.4908  0.1176  0.0385
 5259TIP3    H137192   3.701   2.743   2.148  0.9708  0.4180 -0.8822
 5259TIP3    H237193   3.596   2.673   2.063  1.0203  0.5868 -1.0845
 5260TIP3   OH237194   3.140   4.083   4.917  0.3582 -0.5602 -0.3556
 5260TIP3    H137195   3.217   4.140   4.919  0.3051 -0.4935  0.9970
 5260TIP3    H237196   3.070   4.138   4.882  0.5600 -0.1209 -0.0843
 5261TIP3   OH237197   1.840   0.696   5.901  0.3378  0.5894 -0.1137
 5261TIP3    H137198   1.848   0.774   5.956  1.0812  1.7278 -1.7707
 5261TIP3    H237199   1.918   0.697   5.846  0.3121 -1.2917 -0.2257
 5262TIP3   OH237200   3.892   3.839  16.603  0.0150  0.5790 -0.3185
 5262TIP3    H137201   3.969   3.801  16.647  0.6236  0.8564 -1.1357
 5262TIP3    H237202   3.823   3.834  16.669  0.3880 -0.8701  0.0038
 5263TIP3   OH237203   4.705   4.035  16.748 -0.2883  0.5516  0.3780
 5263TIP3    H137204   4.780   4.055  16.804  0.0264  4.3521 -1.1527
 5263TIP3    H237205   4.629   4.049  16.804  0.0576  0.3869  0.9014
 5264TIP3   OH237206   3.767   0.518  12.922 -0.8906  0.7240 -0.0520
 5264TIP3    H137207   3.692   0.556  12.967 -1.2849  0.4704 -0.4855
 5264TIP3    H237208   3.734   0.493  12.836 -0.6993 -0.7260  0.2579
 5265TIP3   OH237209   2.756   2.111  15.620  1.0426  0.5889 -0.3543
 5265TIP3    H137210   2.845   2.087  15.595  0.4853 -2.2647  0.0632
 5265TIP3    H237211   2.700   2.059  15.563 -0.3465  1.3536  0.2683
 5266TIP3   OH237212   4.947   1.718  16.433 -0.3476  0.0211  0.3557
 5266TIP3    H137213   4.999   1.738  16.512 -0.4596 -0.6582  0.6061
 5266TIP3    H237214   4.983   1.776  16.366  1.7816 -1.4617  0.1241
 5267TIP3   OH237215   0.381   0.699  12.523  0.0466 -0.9949 -0.3940
 5267TIP3    H137216   0.444   0.737  12.584 -2.0696  0.6140  0.9239
 5267TIP3    H237217   0.414   0.723  12.436  2.3014 -2.0149  0.1193
 5268TIP3   OH237218   2.914   4.900  17.295  0.3644 -0.2495 -0.3883
 5268TIP3    H137219   2.895   4.993  17.284 -0.6745 -0.5851 -1.8287
 5268TIP3    H237220   2.897   4.882  17.387  3.1544  1.4888  0.5713
 5269TIP3   OH237221   2.640   4.949   1.223 -0.0814  0.3202  0.1659
 5269TIP3    H137222   2.609   4.965   1.312  0.2186  0.0585  0.3194
 5269TIP3    H237223   2.662   5.036   1.189  1.2254  0.2838  0.8756
 5270TIP3   OH237224   0.400   4.543   3.185 -0.1407  0.2139  0.0057
 5270TIP3    H137225   0.442   4.614   3.233  1.6080 -1.2204  0.7491
 5270TIP3    H237226   0.452   4.465   3.207 -1.8455 -1.2733 -0.9138
 5271TIP3   OH237227   0.387   6.127  14.548  0.3768 -1.1704  0.4965
 5271TIP3    H137228   0.482   6.117  14.553  0.3151 -1.8998  0.3285
 5271TIP3    H237229   0.369   6.210  14.593  0.9507 -1.8249  2.0292
 5272TIP3   OH237230   2.230   2.902   5.896  0.1244 -0.1201  0.8273
 5272TIP3    H137231   2.153   2.856   5.862 -0.3167  0.4183  1.0821
 5272TIP3    H237232   2.292   2.832   5.917 -0.0148 -0.5133 -0.0502
 5273TIP3   OH237233   2.235   4.738   4.141  0.0248  0.3744  0.3690
 5273TIP3    H137234   2.236   4.681   4.064 -0.3055 -0.5249  1.0152
 5273TIP3    H237235   2.250   4.825   4.106  1.6724 -0.2319 -0.5186
 5274TIP3   OH237236   3.557   0.393   1.696  0.2147 -0.0863  0.1354
 5274TIP3    H137237   3.498   0.355   1.630 -0.0828  0.1320  0.2748
 5274TIP3    H237238   3.550   0.334   1.771 -0.5679  0.4610  0.5065
 5275TIP3   OH237239   1.763   5.058   2.702  0.4594 -0.6635 -0.3919
 5275TIP3    H137240   1.776   4.967   2.727  1.4452  0.4588  4.1575
 5275TIP3    H237241   1.848   5.099   2.716 -0.7044  1.4834  1.1113
 5276TIP3   OH237242   1.803   0.867  15.523  0.1382  0.2251  0.0307
 5276TIP3    H137243   1.891   0.890  15.493  0.9205  1.1793  2.7766
 5276TIP3    H237244   1.767   0.815  15.452  1.8621  2.0969 -2.4080
 5277TIP3   OH237245   2.233   0.363   2.531 -0.3663 -0.4669  0.3280
 5277TIP3    H137246   2.144   0.386   2.503 -0.2281  2.1374  1.6603
 5277TIP3    H237247   2.289   0.398   2.462 -0.3091 -1.8726 -0.3777
 5278TIP3   OH237248   2.095   2.192  11.973  0.3765 -0.0001 -0.5087
 5278TIP3    H137249   2.097   2.214  11.879 -2.9267 -1.2687 -1.0384
 5278TIP3    H237250   2.014   2.233  12.005 -0.0538 -1.8981  1.0690
 5279TIP3   OH237251   0.501   0.257   3.823 -0.1867 -0.1337  0.3836
 5279TIP3    H137252   0.458   0.172   3.829  0.4812 -0.4389  0.9975
 5279TIP3    H237253   0.434   0.316   3.789 -1.6679 -0.1690  3.0374
 5280TIP3   OH237254   3.754   5.159  14.529  0.3384 -0.1027  0.0834
 5280TIP3    H137255   3.769   5.094  14.598  0.4670 -2.3863 -1.9290
 5280TIP3    H237256   3.819   5.137  14.462  0.0314  1.8356 -0.9147
 5281TIP3   OH237257   3.348   2.610  15.596  0.1115  0.0316  0.0911
 5281TIP3    H137258   3.271   2.627  15.542 -0.1440  1.2351  0.8035
 5281TIP3    H237259   3.362   2.516  15.587 -1.4058 -0.2114 -0.1175
 5282TIP3   OH237260   3.072   3.330  11.017  0.5934 -0.3065  0.1692
 5282TIP3    H137261   3.082   3.296  11.106 -3.4868  0.2613  1.0610
 5282TIP3    H237262   3.089   3.424  11.024  3.9638 -0.7056 -0.6240
 5283TIP3   OH237263   0.745   3.998  15.190  0.3640 -0.6118  0.4397
 5283TIP3    H137264   0.773   4.030  15.104 -1.0271 -0.4744  0.0178
 5283TIP3    H237265   0.699   3.916  15.171  0.5589 -0.8862  1.1262
 5284TIP3   OH237266   1.856   4.916  16.174  0.3366  0.0901  0.2334
 5284TIP3    H137267   1.775   4.918  16.123  1.6561 -2.0633 -2.1445
 5284TIP3    H237268   1.846   4.841  16.233 -0.2387  1.1911  1.6108
 5285TIP3   OH237269   1.419   0.036   2.143  0.3773 -0.2744 -0.1604
 5285TIP3    H137270   1.387   0.019   2.055 -0.6035  0.8187 -0.0473
 5285TIP3    H237271   1.513   0.021   2.139  0.1152 -1.8459 -0.9659
 5286TIP3   OH237272   0.062   2.906   2.238 -0.5437 -0.3965  0.3475
 5286TIP3    H137273   0.113   2.894   2.157 -0.0175 -0.1487  0.6356
 5286TIP3    H237274   0.103   2.847   2.301 -1.1201 -0.7842  0.3670
 5287TIP3   OH237275   1.766   0.656   2.663 -0.2890  0.7081  0.1466
 5287TIP3    H137276   1.760   0.733   2.607  0.8117  0.4235 -0.3905
 5287TIP3    H237277   1.848   0.614   2.638 -0.8834 -0.6728  0.3814
 5288TIP3   OH237278   6.639   5.127  14.575 -0.2199  0.4551 -0.3336
 5288TIP3    H137279   6.554   5.084  14.586  0.5726 -0.8443  1.1277
 5288TIP3    H237280   6.637   5.201  14.635  0.3726 -0.7643  1.2729
 5289TIP3   OH237281   5.258   1.058  12.806  0.1825 -0.6690  0.0384
 5289TIP3    H137282   5.289   1.137  12.849 -0.1083 -0.7475  0.3904
 5289TIP3    H237283   5.169   1.078  12.778  0.4224 -0.5618 -0.6729
 5290TIP3   OH237284   4.528   2.964   0.901 -0.4375  0.0461  0.0905
 5290TIP3    H137285   4.480   3.047   0.897  1.9852  1.4822 -1.3169
 5290TIP3    H237286   4.527   2.940   0.993  0.7735  2.9195  0.9652
 5291TIP3   OH237287   0.763   2.514   2.056 -0.2093  0.1649  0.4313
 5291TIP3    H137288   0.793   2.443   2.112 -0.8021  0.7877  1.5805
 5291TIP3    H237289   0.833   2.579   2.061  0.3607 -0.3428 -0.6675
 5292TIP3   OH237290   3.624   4.947  11.691 -0.6113  0.4086 -0.2945
 5292TIP3    H137291   3.553   4.949  11.627  0.1085 -0.3317 -1.1399
 5292TIP3    H237292   3.675   4.869  11.668 -0.8316 -0.4059  1.7252
 5293TIP3   OH237293   2.665   5.646  14.427  0.3573 -0.0903 -0.2458
 5293TIP3    H137294   2.584   5.602  14.399 -0.1553  0.7784 -0.1472
 5293TIP3    H237295   2.717   5.576  14.467 -0.4591 -0.6080 -0.0634
 5294TIP3   OH237296   1.325   6.508   2.670 -0.1029  0.0062 -0.2103
 5294TIP3    H137297   1.268   6.584   2.679 -0.9399 -0.5133 -0.9109
 5294TIP3    H237298   1.298   6.468   2.587  1.7973  0.1595 -0.9594
 5295TIP3   OH237299   5.224   1.038   0.222  0.6678  0.1404 -0.1987
 5295TIP3    H137300   5.277   1.021   0.300 -0.8681 -2.2579  0.3993
 5295TIP3    H237301   5.195   1.129   0.233  1.3943  0.2165  1.4318
 5296TIP3   OH237302   2.406   1.734  13.406  0.2130 -0.6389  0.3140
 5296TIP3    H137303   2.427   1.813  13.357 -1.0505 -0.3730  0.1653
 5296TIP3    H237304   2.410   1.664  13.340 -1.9074 -0.2261 -0.3408
 5297TIP3   OH237305   1.854   5.522   1.943  0.3362 -0.2171 -0.5684
 5297TIP3    H137306   1.830   5.431   1.958  1.0569 -0.4766 -0.9250
 5297TIP3    H237307   1.866   5.529   1.848  1.0816  0.0361 -0.4621
 5298TIP3   OH237308   2.616   2.408  11.820  0.1810  0.1158  0.0606
 5298TIP3    H137309   2.544   2.364  11.867  0.9474  0.1635  1.3385
 5298TIP3    H237310   2.669   2.336  11.785  0.2046  0.0554  0.2171
 5299TIP3   OH237311   4.297   6.492   1.746 -0.0991 -0.0966  0.1808
 5299TIP3    H137312   4.289   6.430   1.819 -0.9429 -1.2174 -0.8165
 5299TIP3    H237313   4.388   6.481   1.716 -0.3019 -1.0576 -0.1324
 5300TIP3   OH237314   4.134   2.714   6.407 -0.2645 -0.3715  0.7516
 5300TIP3    H137315   4.163   2.647   6.345  0.4158 -0.2409  0.9298
 5300TIP3    H237316   4.212   2.765   6.427 -0.9799  1.2008 -0.2512
 5301TIP3   OH237317   0.790   2.283   1.301 -0.0433 -0.0827  0.5613
 5301TIP3    H137318   0.874   2.321   1.276 -1.2771  1.3651 -1.7822
 5301TIP3    H237319   0.804   2.188   1.296  1.3263  0.1342 -0.2337
 5302TIP3   OH237320   6.171   2.104   3.896 -0.0536 -0.1391 -0.2004
 5302TIP3    H137321   6.262   2.130   3.879  0.6302 -1.3432  1.3502
 5302TIP3    H237322   6.141   2.164   3.963  0.0641 -0.5753  0.2494
 5303TIP3   OH237323   4.342   4.661   5.091 -0.1393  0.4262  0.6694
 5303TIP3    H137324   4.367   4.581   5.137 -1.3039 -0.1570  0.3280
 5303TIP3    H237325   4.256   4.684   5.127 -0.0358  1.2472  0.4152
 5304TIP3   OH237326   6.124   0.450   5.488  0.3017  0.8034 -0.1115
 5304TIP3    H137327   6.033   0.480   5.483 -0.0418 -0.1317  0.2919
 5304TIP3    H237328   6.157   0.485   5.570 -0.0306  0.2825  0.2511
 5305TIP3   OH237329   3.976   6.411   4.259  0.4532  0.0067  0.5187
 5305TIP3    H137330   3.941   6.409   4.170  1.1990 -1.1173  0.2374
 5305TIP3    H237331   4.056   6.361   4.255  0.9118  0.5986  1.6713
 5306TIP3   OH237332   6.089   3.683   0.895  0.0276  0.0035  0.1249
 5306TIP3    H137333   6.136   3.658   0.815  1.5991 -1.1715  1.3677
 5306TIP3    H237334   5.998   3.693   0.866  0.5726 -0.2034 -1.8408
 5307TIP3   OH237335   1.985   6.313   0.925  0.1709 -1.0557 -0.6491
 5307TIP3    H137336   2.014   6.270   1.005 -0.6864 -0.3820  0.0522
 5307TIP3    H237337   1.896   6.342   0.945 -0.1045 -0.9923 -1.8976
 5308TIP3   OH237338   1.558   6.507  16.194 -0.2694 -0.0837  0.0605
 5308TIP3    H137339   1.580   6.446  16.264  1.9069  0.1101 -0.3733
 5308TIP3    H237340   1.603   6.472  16.117 -4.0734 -1.3291 -1.8256
 5309TIP3   OH237341   0.967   5.043   5.277  0.1608 -0.0096 -0.1903
 5309TIP3    H137342   0.962   5.138   5.270  0.7610 -0.0096 -0.7481
 5309TIP3    H237343   0.977   5.013   5.186 -1.7334 -0.7188 -0.2175
 5310TIP3   OH237344   3.402   1.211  16.008 -0.8692  0.0899  0.0940
 5310TIP3    H137345   3.311   1.210  15.978  0.1371 -0.8261 -3.4808
 5310TIP3    H237346   3.436   1.295  15.979  0.4058 -1.2104 -2.5356
 5311TIP3   OH237347   6.166   0.237  12.743 -0.2539 -0.2455  0.3596
 5311TIP3    H137348   6.252   0.196  12.732  0.0921  0.2818  1.0935
 5311TIP3    H237349   6.181   0.311  12.801 -0.8639  0.9625 -0.9633
 5312TIP3   OH237350   0.314   1.086   5.279 -0.1592  0.1719 -0.4905
 5312TIP3    H137351   0.362   1.115   5.202  0.7299  0.7475  0.2521
 5312TIP3    H237352   0.227   1.123   5.269  0.0081  0.4030 -1.1254
 5313TIP3   OH237353   3.593   3.493   1.862 -0.3758 -0.1534  0.3510
 5313TIP3    H137354   3.533   3.564   1.882 -0.0059 -0.0044  0.9672
 5313TIP3    H237355   3.573   3.426   1.928 -1.3310 -1.0040 -0.7623
 5314TIP3   OH237356   2.709   1.266   0.978  0.4503 -0.5071 -0.1851
 5314TIP3    H137357   2.794   1.263   0.933  0.2758 -1.1956 -0.4732
 5314TIP3    H237358   2.654   1.205   0.930 -0.9003  1.5228 -1.3761
 5315TIP3   OH237359   1.021   1.583  13.863 -0.1745  0.2777 -0.5752
 5315TIP3    H137360   1.074   1.536  13.798 -2.2106 -0.5614 -1.7128
 5315TIP3    H237361   1.083   1.642  13.905  1.2838  0.8345 -3.2447
 5316TIP3   OH237362   6.239   1.192   0.248  0.3053  0.0382  0.0669
 5316TIP3    H137363   6.334   1.184   0.246  0.1861 -1.4633 -1.0240
 5316TIP3    H237364   6.219   1.260   0.184  0.6178  0.1156  0.0510
 5317TIP3   OH237365   2.028   2.149  17.106  0.5960 -0.2168  0.3488
 5317TIP3    H137366   2.122   2.132  17.107  0.6046 -0.2432 -0.3963
 5317TIP3    H237367   2.011   2.196  17.187  1.3317  0.2005  0.2672
 5318TIP3   OH237368   4.677   1.483  12.804  0.0768  0.4944  0.7189
 5318TIP3    H137369   4.657   1.541  12.878 -0.7185  0.5872  0.4444
 5318TIP3    H237370   4.765   1.452  12.821  0.3753  1.4950  1.0668
 5319TIP3   OH237371   4.875   2.245  10.679  0.3330 -0.0705 -0.4479
 5319TIP3    H137372   4.897   2.232  10.587 -0.3634 -0.8265 -0.5161
 5319TIP3    H237373   4.939   2.309  10.710  1.0224 -0.3406 -1.2719
 5320TIP3   OH237374   3.098   2.401   3.519  0.5544  0.6773 -0.9840
 5320TIP3    H137375   3.139   2.412   3.605 -1.4920 -1.0085  0.2912
 5320TIP3    H237376   3.008   2.376   3.538  0.6636 -2.2925 -3.5369
 5321TIP3   OH237377   1.469   2.767   0.514  0.2752 -0.3252 -0.0894
 5321TIP3    H137378   1.488   2.856   0.543  0.1539 -0.1511 -0.5348
 5321TIP3    H237379   1.468   2.715   0.594  1.5588 -0.1456  0.0694
 5322TIP3   OH237380   0.666   6.290   2.766  0.3682 -0.4070  0.6843
 5322TIP3    H137381   0.585   6.285   2.815 -0.1874  0.4642 -0.1181
 5322TIP3    H237382   0.639   6.308   2.676  1.4870  1.9337  0.7429
 5323TIP3   OH237383   5.407   5.940   3.111 -0.1136  0.3108 -0.1993
 5323TIP3    H137384   5.493   5.949   3.070 -0.2032 -1.7421 -0.9153
 5323TIP3    H237385   5.424   5.950   3.204  1.0777 -1.0751 -0.2489
 5324TIP3   OH237386   2.712   3.967  15.292  0.0412 -0.3240 -0.0474
 5324TIP3    H137387   2.745   3.937  15.376  1.4437  1.4779  0.1054
 5324TIP3    H237388   2.623   3.997  15.310  0.6587  0.9431  1.0487
 5325TIP3   OH237389   0.196   1.719  14.850  0.2791  0.0361  0.2251
 5325TIP3    H137390   0.181   1.625  14.845 -1.0196  0.2874 -1.0076
 5325TIP3    H237391   0.110   1.756  14.873 -0.3543  1.2367 -3.4972
 5326TIP3   OH237392   2.647   1.351  14.438 -0.1166 -0.7278  0.3613
 5326TIP3    H137393   2.707   1.396  14.378 -2.4404  1.1518 -0.6948
 5326TIP3    H237394   2.632   1.265  14.397  1.1817 -0.9187  0.2402
 5327TIP3   OH237395   3.859   5.441  15.718 -0.5450  0.2780 -0.0695
 5327TIP3    H137396   3.859   5.519  15.663  1.3499  1.3967  1.4020
 5327TIP3    H237397   3.794   5.460  15.786 -0.4467  0.3682 -0.0001
 5328TIP3   OH237398   4.738   0.734  11.494  0.2866 -0.0686 -0.2345
 5328TIP3    H137399   4.662   0.687  11.529  0.8704 -0.5803  0.3869
 5328TIP3    H237400   4.792   0.665  11.454  0.2289  0.3470 -1.0394
 5329TIP3   OH237401   0.292   5.534   3.794 -0.2125 -0.2449 -0.4406
 5329TIP3    H137402   0.347   5.573   3.726 -1.5034 -0.4281 -1.6225
 5329TIP3    H237403   0.262   5.608   3.846  0.0344 -0.0099 -0.6298
 5330TIP3   OH237404   5.474   3.893  13.417  0.4879 -0.0236 -0.2431
 5330TIP3    H137405   5.398   3.892  13.474  1.3046  2.3278  1.0190
 5330TIP3    H237406   5.457   3.963  13.355  2.5366  2.2927  1.5959
 5331TIP3   OH237407   3.227   2.379   5.668 -0.2281 -0.7419  0.5597
 5331TIP3    H137408   3.314   2.390   5.630 -0.1587 -1.3553  0.5392
 5331TIP3    H237409   3.214   2.457   5.722  1.0824 -1.5359  2.0653
 5332TIP3   OH237410   2.102   6.696  15.082 -0.2362  0.0753  0.0690
 5332TIP3    H137411   2.085   6.604  15.064  1.7926 -0.2622 -0.2950
 5332TIP3    H237412   2.041   6.743  15.025 -0.8530 -1.0228 -0.2131
 5333TIP3   OH237413   0.427   3.614   5.075  0.1755 -1.1646 -0.0253
 5333TIP3    H137414   0.471   3.694   5.104 -0.1209 -0.8525 -0.4260
 5333TIP3    H237415   0.434   3.616   4.979 -2.1469 -0.2477 -0.2288
 5334TIP3   OH237416   4.097   1.284   3.160  0.0164  0.2461 -0.4099
 5334TIP3    H137417   4.170   1.345   3.157 -0.3649  0.9659  2.1601
 5334TIP3    H237418   4.022   1.338   3.188 -0.4107 -1.2743  1.5681
 5335TIP3   OH237419   2.861   2.285  14.026 -0.2387 -0.1359 -0.0915
 5335TIP3    H137420   2.879   2.208  13.972 -1.2638  0.3195 -1.1357
 5335TIP3    H237421   2.919   2.276  14.101  1.7192 -0.4492 -1.5778
 5336TIP3   OH237422   2.003   6.266   4.241 -0.0747 -0.2767  0.2665
 5336TIP3    H137423   2.037   6.210   4.170  1.0678  0.1745  0.4411
 5336TIP3    H237424   2.071   6.331   4.254 -1.6296  1.5516 -0.3325
 5337TIP3   OH237425   2.242   1.213  13.786 -0.5354  0.1961 -0.3487
 5337TIP3    H137426   2.220   1.198  13.694 -0.1310 -0.8506 -0.2961
 5337TIP3    H237427   2.157   1.213  13.830 -0.7355  0.7457 -0.7229
 5338TIP3   OH237428   5.692   2.646   4.747  0.2436 -0.2718 -0.2889
 5338TIP3    H137429   5.653   2.730   4.770  1.2614  0.1893 -0.1824
 5338TIP3    H237430   5.626   2.581   4.771 -0.9461  0.5404 -1.2485
 5339TIP3   OH237431   6.612   5.481  15.179 -0.2143 -0.2601 -0.1385
 5339TIP3    H137432   6.692   5.509  15.135 -0.5660  1.0875  0.0352
 5339TIP3    H237433   6.577   5.412  15.123 -0.2366  0.8714 -1.5999
 5340TIP3   OH237434   3.904   3.472   1.985  0.0146 -0.2824 -0.4599
 5340TIP3    H137435   3.880   3.540   2.047 -1.2245  0.8928 -2.1568
 5340TIP3    H237436   3.823   3.451   1.939  0.7258 -1.7139 -1.1411
 5341TIP3   OH237437   1.462   1.061   0.555 -0.0884  0.2932  0.5207
 5341TIP3    H137438   1.403   1.132   0.580 -2.3465 -2.0342  2.4291
 5341TIP3    H237439   1.404   0.994   0.517  1.8211 -0.8379 -0.5692
 5342TIP3   OH237440   5.236   5.280  16.476 -0.8135  1.0296 -0.2993
 5342TIP3    H137441   5.164   5.234  16.433 -0.5174  0.5962 -0.3387
 5342TIP3    H237442   5.235   5.247  16.566  0.0102  0.2035 -0.5792
 5343TIP3   OH237443   5.270   4.636   2.255  0.1751  0.1170  0.1206
 5343TIP3    H137444   5.238   4.620   2.343  0.0434 -0.1982  0.0155
 5343TIP3    H237445   5.244   4.559   2.205  0.1559  0.3407 -0.2196
 5344TIP3   OH237446   6.046   3.505  10.474  0.0553 -0.3536  0.3851
 5344TIP3    H137447   5.957   3.470  10.483 -0.0318 -0.0596  0.7286
 5344TIP3    H237448   6.035   3.583  10.420 -0.1984  0.7444  1.9306
 5345TIP3   OH237449   6.558   5.458   0.379 -0.4628 -0.2007 -0.1995
 5345TIP3    H137450   6.504   5.464   0.457 -1.7338  0.0816 -1.0747
 5345TIP3    H237451   6.522   5.524   0.320  0.1785 -0.7260 -1.2077
 5346TIP3   OH237452   3.656   5.151   0.467  0.2239  0.2947  1.1640
 5346TIP3    H137453   3.631   5.232   0.423  1.5052 -0.0313 -0.2325
 5346TIP3    H237454   3.572   5.112   0.493 -0.5528  0.9347 -0.2138
 5347TIP3   OH237455   6.684   4.564  12.330  0.0028  1.1814 -0.2999
 5347TIP3    H137456   6.666   4.574  12.424  3.6820  0.5206  0.6520
 5347TIP3    H237457   6.599   4.576  12.288 -1.4768  3.6208  2.9192
 5348TIP3   OH237458   2.632   6.527   5.331 -1.0010 -0.5848  0.4032
 5348TIP3    H137459   2.632   6.588   5.257 -0.6702 -1.3588 -0.2435
 5348TIP3    H237460   2.562   6.559   5.388 -0.2793  0.9023  0.5034
 5349TIP3   OH237461   3.158   5.206   2.205 -0.2175 -0.0592 -0.1885
 5349TIP3    H137462   3.175   5.182   2.296  0.8212  2.3958  0.3456
 5349TIP3    H237463   3.139   5.123   2.161 -0.5026 -1.3389  2.1907
 5350TIP3   OH237464   5.074   5.766  14.756  0.5968  0.3955 -0.3390
 5350TIP3    H137465   5.130   5.690  14.752 -0.0613 -0.0570 -1.8498
 5350TIP3    H237466   5.126   5.837  14.718 -0.1114 -0.2392 -2.6393
 5351TIP3   OH237467   2.784   5.383   4.461 -0.0307  0.4746  0.8221
 5351TIP3    H137468   2.739   5.311   4.505  0.9733 -0.4827  0.3239
 5351TIP3    H237469   2.876   5.370   4.481  0.4978 -0.0937 -1.6071
 5352TIP3   OH237470   1.506   6.520  11.616 -0.0144 -0.0920  0.2371
 5352TIP3    H137471   1.497   6.450  11.551 -0.0639  0.4570 -0.3588
 5352TIP3    H237472   1.534   6.475  11.696 -0.7490 -0.8817  0.0657
 5353TIP3   OH237473   0.101   0.740   4.671 -0.0533  0.0877 -0.0243
 5353TIP3    H137474   0.102   0.765   4.763  3.2515 -1.6152  0.5801
 5353TIP3    H237475   0.132   0.818   4.624  0.1212  0.3690  0.5568
 5354TIP3   OH237476   3.392   4.493  17.135  0.4652  0.3355  0.5269
 5354TIP3    H137477   3.411   4.572  17.085  0.0203  0.5146  0.6264
 5354TIP3    H237478   3.335   4.523  17.206 -0.6229 -0.2371 -0.0667
 5355TIP3   OH237479   1.813   1.430  11.734 -0.4752  0.1299 -0.3138
 5355TIP3    H137480   1.816   1.517  11.693  0.8187  1.1300  1.7588
 5355TIP3    H237481   1.750   1.440  11.806 -0.8341 -0.8687 -0.4732
 5356TIP3   OH237482   2.834   3.556   2.057  0.0361  0.6057  0.5020
 5356TIP3    H137483   2.928   3.536   2.052  0.2506  1.1912  1.7192
 5356TIP3    H237484   2.822   3.625   1.992 -0.0191 -0.9626 -1.2232
 5357TIP3   OH237485   5.645   0.303  15.067 -0.0729 -0.5260  0.5491
 5357TIP3    H137486   5.663   0.209  15.054 -0.6077 -0.8149  1.7719
 5357TIP3    H237487   5.669   0.319  15.158  1.2836  0.8583 -0.0091
 5358TIP3   OH237488   0.433   1.239  13.712  0.1987  0.3433 -0.4996
 5358TIP3    H137489   0.361   1.266  13.769  2.4059  1.5087  1.9405
 5358TIP3    H237490   0.390   1.206  13.633 -3.0148 -0.0275  1.2354
 5359TIP3   OH237491   6.236   4.400   1.109  0.1529 -0.1859 -0.2536
 5359TIP3    H137492   6.305   4.464   1.090  0.1502  1.1815  3.4636
 5359TIP3    H237493   6.282   4.317   1.121  0.5239 -0.2913 -2.0644
 5360TIP3   OH237494   1.035   2.428  16.347  0.2311 -0.1373  0.1733
 5360TIP3    H137495   0.959   2.487  16.353 -0.3107 -0.8454  0.3691
 5360TIP3    H237496   1.066   2.438  16.257  0.8067  1.2394  0.4856
 5361TIP3   OH237497   3.097   3.014   6.288 -0.1664 -0.3406  0.2210
 5361TIP3    H137498   3.134   3.096   6.255 -0.3458 -0.2871  0.1519
 5361TIP3    H237499   3.174   2.959   6.305  0.0953  0.5320  2.1820
 5362TIP3   OH237500   1.797   2.861  15.198 -0.1665 -0.0691 -0.3992
 5362TIP3    H137501   1.804   2.815  15.282 -0.6806 -1.0313 -0.8730
 5362TIP3    H237502   1.739   2.935  15.216  0.0741 -0.0171  0.1963
 5363TIP3   OH237503   5.631   2.689   5.505  0.6968 -0.1222 -0.2041
 5363TIP3    H137504   5.654   2.619   5.443  0.7539 -0.6860  0.4344
 5363TIP3    H237505   5.571   2.746   5.456  0.7869 -0.5250 -0.7951
 5364TIP3   OH237506   1.524   3.751   1.507  0.5169 -0.7115 -0.6480
 5364TIP3    H137507   1.488   3.662   1.508  2.5701 -1.5873 -0.2177
 5364TIP3    H237508   1.610   3.742   1.466  0.1222  1.3856 -2.0764
 5365TIP3   OH237509   1.995   5.156   5.674  0.4637  0.0426  0.2395
 5365TIP3    H137510   2.031   5.228   5.725 -0.3980  0.5680  0.1243
 5365TIP3    H237511   2.071   5.102   5.653  1.2519  1.3132 -0.3212
 5366TIP3   OH237512   2.959   3.079  17.150 -0.1107 -0.2806  0.1979
 5366TIP3    H137513   2.943   3.071  17.056  2.3214 -0.1096 -0.3031
 5366TIP3    H237514   2.904   3.152  17.178  0.0112  0.4492 -1.3701
 5367TIP3   OH237515   4.705   5.954  14.692 -0.1454  0.3222  0.0657
 5367TIP3    H137516   4.670   5.879  14.741 -0.1580  0.3327  0.0725
 5367TIP3    H237517   4.784   5.920  14.650 -0.5696  0.0913 -0.5556
 5368TIP3   OH237518   1.649   3.046  17.200  0.7603  0.0050  0.0851
 5368TIP3    H137519   1.568   3.086  17.171 -0.0162 -0.3015  1.6961
 5368TIP3    H237520   1.632   2.952  17.198  2.2729 -0.3039 -2.8446
 5369TIP3   OH237521   3.858   6.380  11.772 -0.2207 -0.6078 -0.6507
 5369TIP3    H137522   3.894   6.309  11.720 -1.4169 -1.1527 -0.7791
 5369TIP3    H237523   3.779   6.406  11.724  0.0344  0.6055 -0.4492
 5370TIP3   OH237524   5.720   5.553   5.218 -0.4878 -0.2176 -0.2117
 5370TIP3    H137525   5.655   5.485   5.199 -1.5305  0.6461  0.1781
 5370TIP3    H237526   5.804   5.507   5.216 -1.0689 -1.2856 -1.0950
 5371TIP3   OH237527   0.993   3.508  12.841 -0.6705 -0.0763 -0.1291
 5371TIP3    H137528   1.010   3.422  12.879  1.4723  0.4193  0.1325
 5371TIP3    H237529   1.078   3.538  12.809 -1.8032  0.9508 -2.3960
 5372TIP3   OH237530   6.742   2.267   2.108  0.2110 -0.8453  0.7380
 5372TIP3    H137531   6.723   2.211   2.183 -1.7228 -1.5677 -0.2235
 5372TIP3    H237532   6.753   2.207   2.035  0.2939 -0.0812  0.1115
 5373TIP3   OH237533   2.093   6.236  12.750  0.2652 -0.5036  0.4005
 5373TIP3    H137534   2.128   6.148  12.737  0.4487 -0.3280 -0.3155
 5373TIP3    H237535   2.145   6.272  12.821 -0.3654 -1.2662  1.2801
 5374TIP3   OH237536   5.510   5.951   5.423 -0.5877 -0.2833 -0.2899
 5374TIP3    H137537   5.528   5.861   5.451 -0.5252 -0.1199  0.2098
 5374TIP3    H237538   5.515   5.948   5.328  0.8151 -0.5231 -0.2407
 5375TIP3   OH237539   2.558   2.529  14.034  0.2560 -0.4466  0.3113
 5375TIP3    H137540   2.576   2.576  13.953  1.6003 -0.6027  0.5035
 5375TIP3    H237541   2.644   2.505  14.068 -0.3242 -1.2411  1.2832
 5376TIP3   OH237542   1.991   2.260  15.114  0.1283  0.4417  0.3756
 5376TIP3    H137543   1.945   2.196  15.060  1.6251  0.0978 -0.5648
 5376TIP3    H237544   2.063   2.212  15.153  0.3451  1.1953  0.9252
 5377TIP3   OH237545   2.198   4.920  14.610 -0.1588 -0.4588  1.0042
 5377TIP3    H137546   2.278   4.972  14.610  0.4153 -1.3332  1.0146
 5377TIP3    H237547   2.135   4.973  14.658 -0.1807  1.1335 -0.6727
 5378TIP3   OH237548   1.733   5.187  16.401  0.1311  0.0943 -0.0246
 5378TIP3    H137549   1.806   5.231  16.446  1.3121 -0.3209 -1.4398
 5378TIP3    H237550   1.690   5.137  16.470  0.6667  1.0040  1.0157
 5379TIP3   OH237551   4.237   5.991   5.606  0.5710 -0.2725 -0.4675
 5379TIP3    H137552   4.306   5.978   5.671  0.2723 -0.8657 -0.2559
 5379TIP3    H237553   4.269   5.949   5.527  1.3555  1.2959 -1.0139
 5380TIP3   OH237554   3.133   1.954   0.078  0.0009  0.4487  0.5341
 5380TIP3    H137555   3.217   1.933   0.121  1.0448 -1.3070 -2.1080
 5380TIP3    H237556   3.067   1.912   0.133  0.9704  0.5927  1.8676
 5381TIP3   OH237557   3.480   4.232  11.008 -0.5305  0.1783 -0.2104
 5381TIP3    H137558   3.454   4.323  10.994 -2.1662 -0.4589 -1.6463
 5381TIP3    H237559   3.510   4.202  10.922 -0.5393 -0.8008  0.1215
 5382TIP3   OH237560   5.178   1.844   1.806 -0.2506  0.3845 -0.0801
 5382TIP3    H137561   5.257   1.871   1.853  0.1482  0.4954 -0.8002
 5382TIP3    H237562   5.135   1.926   1.782 -1.8433  0.3474  2.3257
 5383TIP3   OH237563   3.184   5.342  10.700 -0.1564  0.1203  0.1372
 5383TIP3    H137564   3.135   5.397  10.761 -1.6643 -0.7154 -0.2877
 5383TIP3    H237565   3.223   5.274  10.755 -0.9203 -0.2149  0.2748
 5384TIP3   OH237566   6.556   1.223   5.469 -0.2960  0.6787  0.3237
 5384TIP3    H137567   6.492   1.151   5.469  0.3320  0.0921  1.3976
 5384TIP3    H237568   6.640   1.180   5.456 -0.0997  1.4490 -1.0955
 5385TIP3   OH237569   0.377   6.752  11.523 -0.1378  0.4311 -0.4862
 5385TIP3    H137570   0.433   6.814  11.569 -0.0210  0.0880 -0.1683
 5385TIP3    H237571   0.437   6.685  11.489 -0.1681  0.8827 -1.4811
 5386TIP3   OH237572   4.588   3.920  11.856 -0.6207 -0.4151  0.2575
 5386TIP3    H137573   4.496   3.900  11.875 -0.1288 -1.6825  1.4807
 5386TIP3    H237574   4.635   3.895  11.936  0.6255  1.6864  0.2628
 5387TIP3   OH237575   5.652   1.145   0.628 -0.3512  0.1062 -0.4806
 5387TIP3    H137576   5.651   1.233   0.593  2.4229 -0.2596 -1.7457
 5387TIP3    H237577   5.571   1.105   0.595 -1.8249  2.1618  0.3818
 5388TIP3   OH237578   5.776   6.002   1.890  0.0212  0.5435 -0.0552
 5388TIP3    H137579   5.856   5.952   1.877 -0.9277 -0.8245 -0.9580
 5388TIP3    H237580   5.761   6.047   1.807 -0.2698  0.5865  0.0175
 5389TIP3   OH237581   4.033   0.233  12.868 -0.1187 -0.0913  0.7284
 5389TIP3    H137582   4.065   0.189  12.947 -0.1618  1.9878  1.9758
 5389TIP3    H237583   3.945   0.199  12.855  0.0810 -0.8322  1.2652
 5390TIP3   OH237584   1.450   2.212  13.133 -0.3519 -0.1982  0.3387
 5390TIP3    H137585   1.458   2.200  13.227  0.5232  1.2524  0.4939
 5390TIP3    H237586   1.500   2.140  13.095  1.2206  0.4663  1.0591
 5391TIP3   OH237587   6.598   0.115   2.564 -0.2830 -0.3723  0.0128
 5391TIP3    H137588   6.598   0.100   2.659 -0.0971  2.8806  0.6416
 5391TIP3    H237589   6.507   0.102   2.538 -0.7465  0.6454  1.0388
 5392TIP3   OH237590   0.562   0.169  11.658  0.2599 -0.2750 -0.2496
 5392TIP3    H137591   0.527   0.185  11.746  2.0235 -0.9197  0.6207
 5392TIP3    H237592   0.608   0.249  11.635  0.6040 -0.4520 -0.1801
 5393TIP3   OH237593   6.621   1.135  13.566  0.8922  0.1539 -0.3208
 5393TIP3    H137594   6.581   1.081  13.498 -0.2074  0.3907  0.1204
 5393TIP3    H237595   6.669   1.073  13.620  0.7876 -0.1951 -0.6192
 5394TIP3   OH237596   3.189   1.639  15.816  0.3679 -0.3246 -0.2797
 5394TIP3    H137597   3.275   1.681  15.818  1.2071 -1.9687 -0.2738
 5394TIP3    H237598   3.127   1.710  15.831  1.8578  0.5390  2.4852
 5395TIP3   OH237599   1.417   5.434  12.356 -0.0157  0.0349 -0.2004
 5395TIP3    H137600   1.436   5.486  12.435  1.6068 -0.0007 -0.5161
 5395TIP3    H237601   1.393   5.348  12.390 -1.6742  0.6673  0.3003
 5396TIP3   OH237602   5.041   2.467  12.035 -0.6475  0.5735  0.0064
 5396TIP3    H137603   4.977   2.455  12.104 -0.0296  1.1636  0.7047
 5396TIP3    H237604   5.080   2.381  12.022  1.4360  0.9811  2.6417
 5397TIP3   OH237605   5.011   4.395   5.958 -0.4317  0.5229  0.0401
 5397TIP3    H137606   5.011   4.486   5.928 -0.1169  0.4280 -0.2524
 5397TIP3    H237607   5.004   4.401   6.053 -2.0956  0.8197 -0.0624
 5398TIP3   OH237608   1.523   5.807  14.460 -0.3461 -0.4540  0.2203
 5398TIP3    H137609   1.613   5.784  14.437 -0.5694 -0.7637 -0.3875
 5398TIP3    H237610   1.515   5.899  14.435  0.0285 -0.2021  1.0066
 5399TIP3   OH237611   6.333   1.443  12.081 -0.0358  0.3628 -0.6067
 5399TIP3    H137612   6.259   1.383  12.076 -1.3835  1.9218 -0.0772
 5399TIP3    H237613   6.294   1.529  12.096  1.9714  0.7484  4.1498
 5400TIP3   OH237614   6.590   0.463   6.025 -0.0478 -1.0708 -0.5769
 5400TIP3    H137615   6.600   0.371   6.048  1.1650 -0.1566  3.2632
 5400TIP3    H237616   6.678   0.492   6.000  0.9418  0.0959  3.5348
 5401TIP3   OH237617   3.820   1.728  11.826 -0.0224  0.5135 -0.4784
 5401TIP3    H137618   3.764   1.796  11.861  0.3863  0.8399 -0.4484
 5401TIP3    H237619   3.776   1.698  11.747  0.2054  1.3964 -0.9513
 5402TIP3   OH237620   1.543   5.148  16.974 -0.0576 -0.5714  0.6527
 5402TIP3    H137621   1.611   5.146  16.907 -0.3445 -3.0509  0.3274
 5402TIP3    H237622   1.587   5.184  17.051 -0.0153  3.4010 -1.0298
 5403TIP3   OH237623   2.248   2.460   1.737  0.5144  0.0546  0.6147
 5403TIP3    H137624   2.343   2.467   1.731  0.9043 -2.6341  1.8696
 5403TIP3    H237625   2.222   2.410   1.660 -0.2363  2.4711 -0.8018
 5404TIP3   OH237626   2.655   0.790   4.103 -0.4831 -0.2117  0.0960
 5404TIP3    H137627   2.732   0.732   4.097 -0.5774 -0.3490  0.2042
 5404TIP3    H237628   2.678   0.854   4.170 -0.6051 -0.4705  0.3857
 5405TIP3   OH237629   4.745   3.466   0.153 -0.6987  0.2224  0.4654
 5405TIP3    H137630   4.836   3.484   0.176 -0.2621 -0.7821 -0.3852
 5405TIP3    H237631   4.702   3.450   0.237 -0.3081  1.5475  0.9472
 5406TIP3   OH237632   5.653   6.423  11.668 -0.1899  0.5759  0.1638
 5406TIP3    H137633   5.566   6.423  11.709  0.9084  1.1177  2.6869
 5406TIP3    H237634   5.691   6.507  11.691  1.1480  0.2054 -0.5739
 5407TIP3   OH237635   4.075   5.132  17.375 -0.3528 -0.3211 -0.0777
 5407TIP3    H137636   4.118   5.117  17.290 -1.0646  0.5720 -0.6050
 5407TIP3    H237637   3.995   5.080  17.370 -0.7748  0.3474 -0.2603
 5408TIP3   OH237638   4.850   3.365   2.474  0.4671  0.1199 -0.4537
 5408TIP3    H137639   4.800   3.445   2.458 -1.1265 -0.6766  0.3273
 5408TIP3    H237640   4.784   3.299   2.493  1.7875 -1.2374 -0.4210
 5409TIP3   OH237641   2.239   0.515   0.516 -0.3095 -0.5253 -0.3507
 5409TIP3    H137642   2.313   0.554   0.469  0.3652 -2.6522 -1.2120
 5409TIP3    H237643   2.242   0.422   0.491 -0.5569 -1.5877  3.0707
 5410TIP3   OH237644   6.233   5.731   2.354 -0.3383 -0.0383  0.1720
 5410TIP3    H137645   6.145   5.740   2.319  0.1825 -0.2147 -1.2318
 5410TIP3    H237646   6.228   5.655   2.412 -0.2922 -2.5479 -2.8473
 5411TIP3   OH237647   2.538   6.614  14.388 -0.3219  0.1879 -0.2320
 5411TIP3    H137648   2.606   6.679  14.406 -0.8563  0.6141  0.3132
 5411TIP3    H237649   2.557   6.542  14.448  1.8874 -1.4491 -2.6714
 5412TIP3   OH237650   3.391   5.634  13.000  0.0801 -0.4086  0.6153
 5412TIP3    H137651   3.305   5.668  12.975  0.9570  1.0860 -0.4455
 5412TIP3    H237652   3.450   5.664  12.932  1.5730 -0.9437  1.6274
 5413TIP3   OH237653   4.073   4.126  13.266 -0.4102  0.2278 -0.0411
 5413TIP3    H137654   4.007   4.061  13.288 -0.7705 -0.6296 -3.1222
 5413TIP3    H237655   4.024   4.207  13.253 -0.3346  0.4667  1.0574
 5414TIP3   OH237656   0.067   3.751   0.289 -0.1384 -0.1038  0.3421
 5414TIP3    H137657   0.022   3.691   0.348 -2.4570 -0.6341 -1.7876
 5414TIP3    H237658   0.081   3.700   0.210 -1.6831  1.9044 -1.3316
 5415TIP3   OH237659   0.431   3.645   0.374 -0.2425  0.2700 -0.6239
 5415TIP3    H137660   0.426   3.701   0.451  2.8813 -3.7527  3.0073
 5415TIP3    H237661   0.361   3.581   0.385  1.3222 -1.4287  0.1031
 5416TIP3   OH237662   1.104   0.569  11.988  0.0089 -0.5394  0.1953
 5416TIP3    H137663   1.067   0.488  12.023  0.8997 -0.4286  1.4742
 5416TIP3    H237664   1.032   0.631  11.989 -0.1867 -0.7611  1.1368
 5417TIP3   OH237665   5.436   4.310  12.211  0.2753 -0.3565 -0.0138
 5417TIP3    H137666   5.439   4.273  12.299 -0.4691 -0.1444  0.1071
 5417TIP3    H237667   5.378   4.252  12.162  0.3646 -0.2466 -0.2516
 5418TIP3   OH237668   0.284   6.124  10.735 -0.6511  0.1298 -0.2141
 5418TIP3    H137669   0.195   6.112  10.700 -1.5910  0.2740  1.9637
 5418TIP3    H237670   0.315   6.205  10.695 -1.6114  0.2298 -0.7999
 5419TIP3   OH237671   5.192   2.773   0.053  0.1752  0.5520  0.3847
 5419TIP3    H137672   5.138   2.773   0.132  0.2528  0.4186  0.4378
 5419TIP3    H237673   5.236   2.688   0.054 -0.0300  0.4377  0.0589
 5420TIP3   OH237674   1.323   3.855   3.936  0.5512 -0.2533  0.3203
 5420TIP3    H137675   1.357   3.769   3.959 -0.3210 -0.4275  1.0222
 5420TIP3    H237676   1.261   3.876   4.006  2.7979  2.1869  1.7478
 5421TIP3   OH237677   3.897   2.226  12.988 -0.3148 -0.3232  0.0804
 5421TIP3    H137678   3.970   2.178  12.951  0.8206 -1.1860  3.2009
 5421TIP3    H237679   3.821   2.169  12.974  0.3357 -1.2671  0.3003
 5422TIP3   OH237680   5.802   6.448  17.322  0.3331 -0.3969  0.2035
 5422TIP3    H137681   5.888   6.428  17.286 -0.2497  1.7486 -2.7051
 5422TIP3    H237682   5.745   6.378  17.289  0.4394 -0.2387 -0.3247
 5423TIP3   OH237683   5.100   6.564   2.576 -0.1158  0.1063 -0.2221
 5423TIP3    H137684   5.160   6.619   2.525 -0.4123 -0.0494 -0.7429
 5423TIP3    H237685   5.119   6.475   2.547 -1.4369  0.1511 -1.2886
 5424TIP3   OH237686   4.235   4.304   2.717  0.1057 -0.1364  0.1499
 5424TIP3    H137687   4.142   4.308   2.738  0.0015  1.9130 -0.4489
 5424TIP3    H237688   4.248   4.218   2.677 -1.7950  0.0373 -0.9236
 5425TIP3   OH237689   4.253   5.572  15.170 -0.1927  0.8425  0.2320
 5425TIP3    H137690   4.274   5.483  15.144 -0.0329  0.4546  1.6163
 5425TIP3    H237691   4.177   5.564  15.228  0.4293  1.4851  1.1711
 5426TIP3   OH237692   5.278   0.246  16.422  0.4758 -0.2134  0.3731
 5426TIP3    H137693   5.253   0.172  16.478 -0.3959 -0.5649 -0.4692
 5426TIP3    H237694   5.196   0.290  16.402  0.8242  0.1079 -0.3685
 5427TIP3   OH237695   6.125   5.123   5.820  0.1314  0.4510  0.6456
 5427TIP3    H137696   6.203   5.178   5.823  0.2619  0.2857  0.2595
 5427TIP3    H237697   6.158   5.033   5.821  0.0488  0.3521 -1.4168
 5428TIP3   OH237698   1.061   3.262  15.047 -0.1399 -0.6304 -0.4838
 5428TIP3    H137699   1.008   3.247  15.125  0.6134  0.1643  0.2104
 5428TIP3    H237700   1.002   3.245  14.974 -1.2317 -0.1698  0.2587
 5429TIP3   OH237701   0.377   1.667   2.993 -0.1511  0.5697 -0.1648
 5429TIP3    H137702   0.371   1.763   2.995 -1.6616  0.4910  1.3396
 5429TIP3    H237703   0.379   1.641   3.085  1.5368 -0.8086 -0.5542
 5430TIP3   OH237704   4.438   0.063  12.785 -0.2646  0.2370  0.6071
 5430TIP3    H137705   4.420   0.067  12.691 -0.7233 -0.5324  0.6619
 5430TIP3    H237706   4.420   0.152  12.816  0.4679  0.6624 -0.1281
 5431TIP3   OH237707   4.419   1.875  15.991  0.3412  0.0068  0.5079
 5431TIP3    H137708   4.403   1.783  16.014 -0.1664 -0.1353 -0.3527
 5431TIP3    H237709   4.365   1.925  16.053 -1.3989 -0.3872 -0.6001
 5432TIP3   OH237710   3.975   3.899   5.186 -0.3776  0.1568 -0.3528
 5432TIP3    H137711   3.889   3.859   5.176 -0.0522 -0.3557 -1.1932
 5432TIP3    H237712   4.007   3.868   5.271  0.7080 -3.0616 -1.7752
 5433TIP3   OH237713   0.982   1.135   2.129  0.0218 -0.3149  0.4468
 5433TIP3    H137714   0.969   1.083   2.208 -0.7431  0.3281  0.7500
 5433TIP3    H237715   1.068   1.107   2.096 -0.0537 -1.2339  1.0046
 5434TIP3   OH237716   6.245   2.850  17.068 -0.0558 -0.2436 -0.8768
 5434TIP3    H137717   6.298   2.786  17.117  0.0810  0.5793  0.0809
 5434TIP3    H237718   6.304   2.923  17.052 -0.4984  0.0726 -1.0828
 5435TIP3   OH237719   0.873   0.506   4.832  0.7897 -0.1825  0.3359
 5435TIP3    H137720   0.795   0.549   4.866  0.0987 -0.6971 -0.5505
 5435TIP3    H237721   0.900   0.560   4.758 -0.4713 -1.5363 -1.2052
 5436TIP3   OH237722   4.748   3.846  14.174 -0.2163  0.3419 -0.1589
 5436TIP3    H137723   4.658   3.856  14.143 -0.4516 -0.4209  0.2556
 5436TIP3    H237724   4.783   3.772  14.126 -0.3494 -0.3961  0.8447
 5437TIP3   OH237725   2.220   2.139  14.744  0.5699 -0.0325 -0.3184
 5437TIP3    H137726   2.128   2.121  14.762  0.5370 -0.6242 -1.0320
 5437TIP3    H237727   2.255   2.170  14.827 -0.8508  2.6405 -0.5859
 5438TIP3   OH237728   2.082   1.238   5.001 -0.2083 -1.2177 -0.6322
 5438TIP3    H137729   2.027   1.211   5.074  0.6346  0.0215  0.4908
 5438TIP3    H237730   2.168   1.199   5.020  0.8128  1.4040  0.6030
 5439TIP3   OH237731   2.407   1.804  17.267 -0.0863  0.5211  0.2737
 5439TIP3    H137732   2.350   1.728  17.273 -0.2479  0.5744 -0.5404
 5439TIP3    H237733   2.387   1.843  17.182  2.1827 -0.2807 -0.7082
 5440TIP3   OH237734   0.177   2.364   4.187  0.3026  0.3141 -0.3889
 5440TIP3    H137735   0.190   2.421   4.111  1.5199  0.5262 -0.0435
 5440TIP3    H237736   0.247   2.299   4.180 -1.5431 -1.7099 -1.2308
 5441TIP3   OH237737   2.787   5.746  13.781  0.2254  0.5239  0.1377
 5441TIP3    H137738   2.818   5.740  13.691  3.1537  1.3386  0.9597
 5441TIP3    H237739   2.811   5.835  13.809 -0.4512  0.2333  1.7751
 5442TIP3   OH237740   3.200   1.683  11.323 -0.6869  0.1940  0.2118
 5442TIP3    H137741   3.296   1.685  11.318 -0.5691  0.6901  1.9747
 5442TIP3    H237742   3.171   1.738  11.250  0.3229 -0.5085 -0.7651
 5443TIP3   OH237743   3.363   6.575  13.137  0.0255  0.7131  0.3054
 5443TIP3    H137744   3.410   6.547  13.216 -0.0652  0.1923  0.1759
 5443TIP3    H237745   3.405   6.657  13.112 -0.8900  1.6828  1.7372
 5444TIP3   OH237746   2.717   5.244   3.240  0.1540  0.0726  0.2587
 5444TIP3    H137747   2.780   5.292   3.294  1.0012  1.6558 -1.9613
 5444TIP3    H237748   2.771   5.204   3.171 -0.8370 -2.1060  0.6901
 5445TIP3   OH237749   4.993   6.319   3.038 -0.3601 -0.1704 -0.0660
 5445TIP3    H137750   4.981   6.283   2.950 -1.9382 -0.3653  0.2087
 5445TIP3    H237751   4.952   6.255   3.096  0.9645 -0.2187  0.8658
 5446TIP3   OH237752   4.664   5.056  17.358 -0.3278 -0.2411  0.3156
 5446TIP3    H137753   4.628   5.048  17.270  2.8679 -1.2626 -1.0252
 5446TIP3    H237754   4.627   4.981  17.406 -0.8293 -0.6007 -0.6132
 5447TIP3   OH237755   6.439   2.441  11.667  0.0325 -0.3459 -0.1351
 5447TIP3    H137756   6.400   2.527  11.649 -1.2591 -0.3126  2.4139
 5447TIP3    H237757   6.509   2.460  11.731  0.6116 -1.0655 -0.5434
 5448TIP3   OH237758   6.035   1.735   0.873  0.2693 -0.3709 -0.3361
 5448TIP3    H137759   6.077   1.766   0.792 -0.7551  1.9781 -0.0484
 5448TIP3    H237760   6.078   1.785   0.942  0.0654 -1.2203  0.4054
 5449TIP3   OH237761   2.701   3.244   3.867  0.6203 -0.2185 -0.5068
 5449TIP3    H137762   2.682   3.285   3.783 -0.4301 -1.4315 -0.8975
 5449TIP3    H237763   2.743   3.312   3.919 -0.9731  1.3393 -1.1602
 5450TIP3   OH237764   6.410   0.934   5.757  0.6331  0.2128  0.2747
 5450TIP3    H137765   6.389   0.850   5.797 -0.3738 -0.1571 -0.9324
 5450TIP3    H237766   6.505   0.937   5.754  0.6970 -1.3750 -0.5967
 5451TIP3   OH237767   6.127   5.176  14.452 -0.2259  0.2248  0.1422
 5451TIP3    H137768   6.034   5.155  14.457 -0.8941  2.5755 -0.8491
 5451TIP3    H237769   6.162   5.114  14.388 -0.2416 -2.9915  2.9636
 5452TIP3   OH237770   0.470   6.624   2.520 -0.2227  0.1133  0.5776
 5452TIP3    H137771   0.490   6.534   2.495  0.5792  0.3570  0.3043
 5452TIP3    H237772   0.499   6.677   2.445 -0.4491  0.6177  0.8414
 5453TIP3   OH237773   2.576   6.436  13.947 -0.3649  0.3797  0.1275
 5453TIP3    H137774   2.549   6.508  14.004  0.8801 -0.7225  2.2286
 5453TIP3    H237775   2.669   6.424  13.966  0.5238  0.8695 -3.2538
 5454TIP3   OH237776   3.091   4.318  14.129 -0.2532  0.1466  0.6891
 5454TIP3    H137777   3.177   4.284  14.155  0.2408  0.1070 -0.8913
 5454TIP3    H237778   3.095   4.411  14.147 -0.1408  0.0254  1.2937
 5455TIP3   OH237779   3.324   0.513  13.367  0.3341 -0.2049 -0.3722
 5455TIP3    H137780   3.306   0.420  13.382  0.7777 -0.2578 -0.1483
 5455TIP3    H237781   3.249   0.558  13.406 -0.1820 -0.4920 -1.0221
 5456TIP3   OH237782   2.149   5.395  13.556 -0.1664 -0.6213  0.1133
 5456TIP3    H137783   2.147   5.489  13.535  1.7905 -0.3555  0.8720
 5456TIP3    H237784   2.136   5.352  13.471  1.8584  0.3917 -0.8006
 5457TIP3   OH237785   0.211   2.775  15.747  0.1899  0.5291  0.6416
 5457TIP3    H137786   0.137   2.715  15.740 -0.9266  1.7861  1.0888
 5457TIP3    H237787   0.233   2.776  15.840  0.8856  0.0519  0.4919
 5458TIP3   OH237788   5.634   5.954   4.834  0.0128  0.1169  0.0789
 5458TIP3    H137789   5.538   5.953   4.841  0.1464  0.0136  3.4283
 5458TIP3    H237790   5.663   5.885   4.894  2.2275  0.7927 -0.1434
 5459TIP3   OH237791   0.132   0.234   3.384  0.1080 -0.2238 -0.2063
 5459TIP3    H137792   0.192   0.259   3.314  0.0754  1.1853  0.2478
 5459TIP3    H237793   0.046   0.232   3.342  0.0322  1.0147 -0.1271
 5460TIP3   OH237794   5.170   2.889  15.147  0.1774 -0.4676 -0.7373
 5460TIP3    H137795   5.246   2.932  15.185 -1.0936  0.0530  1.4315
 5460TIP3    H237796   5.177   2.798  15.176 -1.4505  0.1843  2.1513
 5461TIP3   OH237797   0.413   4.459   4.921  0.0398 -0.1028  0.5898
 5461TIP3    H137798   0.473   4.518   4.876  1.4863 -1.1428  1.0703
 5461TIP3    H237799   0.326   4.481   4.886  0.6390  1.6627  0.1226
 5462TIP3   OH237800   5.499   0.121   2.492  0.1698 -0.0797 -0.5357
 5462TIP3    H137801   5.586   0.159   2.499  0.2730 -0.1417 -1.3768
 5462TIP3    H237802   5.481   0.085   2.579  0.7500  0.4176 -0.2053
 5463TIP3   OH237803   3.379   5.422  13.169  0.2917 -0.1624 -0.2230
 5463TIP3    H137804   3.400   5.512  13.147  1.0556 -0.3280 -0.1955
 5463TIP3    H237805   3.284   5.415  13.156  0.3304  0.4594 -0.8707
 5464TIP3   OH237806   3.703   1.337   2.962  0.3930  0.3896 -0.4329
 5464TIP3    H137807   3.725   1.247   2.985  1.2571  0.6721 -0.1159
 5464TIP3    H237808   3.699   1.382   3.047 -0.4222  0.5689 -0.5600
 5465TIP3   OH237809   1.721   0.409  11.874 -0.3708 -0.8806  0.4363
 5465TIP3    H137810   1.695   0.341  11.936 -0.0736 -1.2749  0.1392
 5465TIP3    H237811   1.813   0.390  11.854 -0.2719 -0.3674  0.3766
 5466TIP3   OH237812   5.556   4.435  15.157  0.1044 -0.1555 -0.1251
 5466TIP3    H137813   5.556   4.355  15.104 -0.6331  0.5318 -1.2153
 5466TIP3    H237814   5.616   4.494  15.111  0.8555 -0.1665  0.8225
 5467TIP3   OH237815   4.702   6.266  11.878  0.1596 -0.1582 -0.2521
 5467TIP3    H137816   4.744   6.277  11.964 -0.0343 -0.6567 -0.0903
 5467TIP3    H237817   4.717   6.175  11.855 -0.7352 -0.3208 -0.2420
 5468TIP3   OH237818   3.578   0.811  16.165  0.5156  0.1230  0.5766
 5468TIP3    H137819   3.512   0.864  16.209  0.3605 -0.8427  1.5311
 5468TIP3    H237820   3.652   0.811  16.226  1.5857  1.5144 -0.6408
 5469TIP3   OH237821   2.522   4.358  11.639  0.1366  0.1536 -0.0877
 5469TIP3    H137822   2.611   4.390  11.622  0.0354  1.3978  1.4229
 5469TIP3    H237823   2.528   4.317  11.726 -0.7154  0.0719 -0.0628
 5470TIP3   OH237824   5.111   1.282  12.829  0.2332 -0.1892  0.1583
 5470TIP3    H137825   5.015   1.281  12.840  0.2224 -2.4373  0.3779
 5470TIP3    H237826   5.144   1.306  12.915 -0.1120  0.8806  0.0121
 5471TIP3   OH237827   1.545   0.648   1.027 -1.0723 -0.8303  0.3497
 5471TIP3    H137828   1.596   0.723   1.055 -0.8790 -0.8387  0.0250
 5471TIP3    H237829   1.494   0.623   1.104  1.6918 -2.7622  1.6892
 5472TIP3   OH237830   3.602   5.364  15.366  0.1380 -0.3376  0.1253
 5472TIP3    H137831   3.677   5.308  15.389  0.7458  0.4127  0.0200
 5472TIP3    H237832   3.556   5.377  15.449  0.9379  0.3502  0.4770
 5473TIP3   OH237833   1.978   3.085  10.945 -0.2538 -0.1581 -0.1007
 5473TIP3    H137834   2.074   3.078  10.949 -0.3957 -2.4165  0.4541
 5473TIP3    H237835   1.960   3.108  10.854  0.8064  0.3845 -0.1945
 5474TIP3   OH237836   0.897   2.917   4.935  0.3083 -0.1504 -0.5569
 5474TIP3    H137837   0.962   2.931   4.867 -0.3055  2.5770 -0.6833
 5474TIP3    H237838   0.865   2.828   4.920  1.8006 -0.4371 -2.3776
 5475TIP3   OH237839   4.108   1.632   4.028 -0.1025 -0.2493  0.2658
 5475TIP3    H137840   4.188   1.682   4.041  0.1706 -0.8596  0.9841
 5475TIP3    H237841   4.044   1.675   4.086 -0.9995  1.7082 -1.9970
 5476TIP3   OH237842   1.557   2.108   1.977 -0.0075  0.0554  0.4180
 5476TIP3    H137843   1.544   2.169   2.050  0.7069  2.3320 -1.2577
 5476TIP3    H237844   1.650   2.117   1.954  0.4659 -2.6927  0.9115
 5477TIP3   OH237845   6.462   0.556   4.500  0.8257 -0.2608  0.3262
 5477TIP3    H137846   6.512   0.478   4.525  1.2786 -1.3117 -3.2221
 5477TIP3    H237847   6.525   0.611   4.453 -0.1370  0.9784  0.4430
 5478TIP3   OH237848   3.287   0.753   4.836  0.1388 -0.1834 -0.2789
 5478TIP3    H137849   3.198   0.775   4.808  0.1453  0.3506  0.1124
 5478TIP3    H237850   3.343   0.787   4.767  0.0356 -0.6092 -0.5761
 5479TIP3   OH237851   1.075   2.267  10.862 -0.2197 -0.2378 -0.1689
 5479TIP3    H137852   1.122   2.189  10.891  1.8368  0.5391 -1.2090
 5479TIP3    H237853   1.043   2.243  10.774  0.8638  0.2288 -0.7070
 5480TIP3   OH237854   2.585   6.585  16.742  0.0262  0.1580 -0.5299
 5480TIP3    H137855   2.630   6.529  16.805  0.2389  0.7794 -0.1225
 5480TIP3    H237856   2.631   6.669  16.747 -0.8050  0.6274 -0.5216
 5481TIP3   OH237857   3.841   6.469  13.534  0.2585 -0.2206 -0.1577
 5481TIP3    H137858   3.833   6.548  13.588 -0.0558 -0.3107 -0.0667
 5481TIP3    H237859   3.798   6.400  13.585  0.5967 -0.4693 -0.2024
 5482TIP3   OH237860   3.721   2.541  16.594 -0.5952  0.0512 -0.1447
 5482TIP3    H137861   3.660   2.471  16.572 -1.2623  0.7632 -0.6301
 5482TIP3    H237862   3.687   2.579  16.675 -1.0213  0.6734 -0.5987
 5483TIP3   OH237863   6.255   3.527   4.313  0.9075 -0.3989  0.4420
 5483TIP3    H137864   6.175   3.510   4.263 -0.9001  0.0640  2.9417
 5483TIP3    H237865   6.281   3.615   4.286 -0.7668  0.3586  1.1475
 5484TIP3   OH237866   2.371   6.389  16.777 -0.4957  0.3284  0.4786
 5484TIP3    H137867   2.437   6.458  16.766  0.0097 -0.1851  0.2527
 5484TIP3    H237868   2.401   6.318  16.721 -1.1989  0.0493  0.4434
 5485TIP3   OH237869   5.087   5.819   4.519  0.2193 -0.3864 -0.7515
 5485TIP3    H137870   5.055   5.906   4.545  1.4386 -0.1271  0.0114
 5485TIP3    H237871   5.132   5.834   4.436  1.3384 -0.0577 -0.1056
 5486TIP3   OH237872   0.626   4.907   1.155  0.3434 -0.1004  0.1933
 5486TIP3    H137873   0.654   4.939   1.070 -0.4571  2.8605  0.9403
 5486TIP3    H237874   0.681   4.953   1.218 -0.3582 -0.7985  1.3659
 5487TIP3   OH237875   3.229   1.566  12.988  0.0919 -0.2149 -0.5748
 5487TIP3    H137876   3.204   1.607  13.071 -1.3994 -0.5826 -0.8131
 5487TIP3    H237877   3.253   1.639  12.931  1.1115  0.0427  0.1648
 5488TIP3   OH237878   4.398   1.651   2.274  0.7061  0.2060 -0.4396
 5488TIP3    H137879   4.413   1.683   2.363 -0.2182  0.0515 -0.2198
 5488TIP3    H237880   4.423   1.725   2.218 -0.9394  1.1829  0.0426
 5489TIP3   OH237881   2.181   2.843  13.984 -0.0520  0.2049  0.1031
 5489TIP3    H137882   2.203   2.768  14.039  1.2337  1.5767  1.5754
 5489TIP3    H237883   2.255   2.851  13.923 -2.1890 -2.2950 -3.1725
 5490TIP3   OH237884   4.248   6.346   3.254 -0.6444 -0.2055  0.1496
 5490TIP3    H137885   4.220   6.433   3.282 -1.3301 -0.6268  0.8295
 5490TIP3    H237886   4.277   6.304   3.335 -0.4050 -0.6388 -0.1601
 5491TIP3   OH237887   1.378   5.628   1.201  0.2843  0.0722  0.1466
 5491TIP3    H137888   1.338   5.561   1.147 -1.9357  1.9360 -0.7001
 5491TIP3    H237889   1.426   5.683   1.140  0.0122  0.6401  0.4282
 5492TIP3   OH237890   3.190   4.091   1.192 -0.2689 -0.4705  0.6607
 5492TIP3    H137891   3.199   4.146   1.270  0.1774  0.4261 -0.0111
 5492TIP3    H237892   3.254   4.126   1.130 -1.5911 -0.2698 -0.6376
 5493TIP3   OH237893   6.106   1.450   3.268  0.3670  0.4589 -0.2199
 5493TIP3    H137894   6.147   1.390   3.330 -1.9568 -1.4754 -0.3977
 5493TIP3    H237895   6.039   1.398   3.225  0.5996  2.2637 -3.0219
 5494TIP3   OH237896   0.735   3.643  17.359  0.5711 -0.6392  0.2807
 5494TIP3    H137897   0.665   3.675  17.302  0.1053 -2.3923 -0.1835
 5494TIP3    H237898   0.689   3.608  17.435  1.0387 -0.5655  0.6013
 5495TIP3   OH237899   5.445   0.771  15.750  0.4068 -0.5366 -0.5904
 5495TIP3    H137900   5.374   0.830  15.726  2.1775  2.6460  1.2445
 5495TIP3    H237901   5.402   0.702  15.801 -1.5153  0.6840 -0.4335
 5496TIP3   OH237902   3.802   4.413   0.086 -0.1817  0.1984 -0.4628
 5496TIP3    H137903   3.849   4.445   0.009  0.4933 -0.6198 -0.4040
 5496TIP3    H237904   3.711   4.439   0.071  0.5516  3.7645  0.4437
 5497TIP3   OH237905   3.454   0.121   3.200 -0.1951 -0.0028  0.5813
 5497TIP3    H137906   3.441   0.048   3.139  0.8076  1.0689 -1.0058
 5497TIP3    H237907   3.497   0.188   3.147  2.4673  0.3285  2.9375
 5498TIP3   OH237908   5.168   4.566   3.406 -0.2032  0.5440 -0.0994
 5498TIP3    H137909   5.110   4.553   3.332  0.2360 -0.5947 -0.2578
 5498TIP3    H237910   5.216   4.647   3.385 -1.1235  1.0363 -0.3448
 5499TIP3   OH237911   1.338   3.941   2.945 -0.3205  0.2724  0.1737
 5499TIP3    H137912   1.390   3.968   2.869 -0.0207  0.8232  0.5654
 5499TIP3    H237913   1.312   3.851   2.925  0.7435 -0.0046 -0.0584
 5500TIP3   OH237914   4.390   4.635   3.585 -0.0817 -0.1322 -0.3116
 5500TIP3    H137915   4.362   4.598   3.502  1.0985 -0.6017 -0.5256
 5500TIP3    H237916   4.484   4.616   3.589  0.0821  0.7968  0.6514
 5501TIP3   OH237917   3.005   4.704  16.632  0.2962  0.2475  0.2784
 5501TIP3    H137918   3.018   4.655  16.551 -1.4581 -0.2918  0.3010
 5501TIP3    H237919   3.060   4.659  16.696 -0.2192 -0.8597 -0.0310
 5502TIP3   OH237920   0.004   5.688  11.210  0.6135  0.6860  0.2162
 5502TIP3    H137921   0.082   5.634  11.221  1.7236  1.6669 -2.0726
 5502TIP3    H237922  -0.067   5.625  11.197  1.4309 -0.2408  0.0979
 5503TIP3   OH237923   4.694   2.268  13.465 -0.1796 -0.0860 -0.0154
 5503TIP3    H137924   4.787   2.291  13.464  0.6449 -2.9757  0.9251
 5503TIP3    H237925   4.663   2.295  13.551 -0.0313  0.2474 -0.0658
 5504TIP3   OH237926   3.380   1.788  17.138  0.2478 -0.2967 -0.4405
 5504TIP3    H137927   3.303   1.764  17.189  0.7928  0.0056  0.5462
 5504TIP3    H237928   3.360   1.876  17.105 -0.3300 -0.7083 -1.2233
 5505TIP3   OH237929   1.178   3.274  16.970 -0.7407  0.2821 -0.2894
 5505TIP3    H137930   1.237   3.221  17.023 -2.4780 -2.8506 -1.2514
 5505TIP3    H237931   1.094   3.272  17.017 -0.9951  1.8343 -0.6126
 5506TIP3   OH237932   2.534   1.632   2.047 -0.2270  0.4325 -0.2293
 5506TIP3    H137933   2.557   1.657   2.136 -0.4172 -2.7706  0.8779
 5506TIP3    H237934   2.609   1.580   2.017 -0.7264  0.3784 -1.4468
 5507TIP3   OH237935   1.455   1.038   5.002  0.1541 -0.1202  0.1541
 5507TIP3    H137936   1.364   1.051   4.975  0.3046  0.4758 -0.0979
 5507TIP3    H237937   1.495   1.125   4.991  1.2917 -0.8346 -1.7407
 5508TIP3   OH237938   2.372   2.915  11.268 -0.4773 -0.0568  0.7953
 5508TIP3    H137939   2.368   2.911  11.172  0.6269 -1.9584  0.7731
 5508TIP3    H237940   2.462   2.892  11.289 -0.2569  1.8882  2.2867
 5509TIP3   OH237941   2.510   2.463   3.645  0.3097  0.4582 -0.1960
 5509TIP3    H137942   2.489   2.529   3.579 -1.5694  2.7766  2.4657
 5509TIP3    H237943   2.460   2.386   3.619 -0.9338  1.5429 -1.1112
 5510TIP3   OH237944   6.300   1.736  14.220  0.1646 -0.3337  0.0444
 5510TIP3    H137945   6.370   1.705  14.278  0.1699  0.8613  0.7128
 5510TIP3    H237946   6.282   1.662  14.163 -2.1933 -2.9354  3.6878
 5511TIP3   OH237947   2.031   2.721   5.389  0.2992 -0.2825  0.5610
 5511TIP3    H137948   2.086   2.664   5.334 -0.8628 -0.9167  0.0215
 5511TIP3    H237949   2.088   2.795   5.411  0.5705  0.5020 -2.3192
 5512TIP3   OH237950   4.322   0.853  15.507  0.2118  0.1839 -0.1365
 5512TIP3    H137951   4.413   0.868  15.533 -0.3062  2.8683  0.3646
 5512TIP3    H237952   4.270   0.902  15.571 -1.4274  1.2271 -2.1472
 5513TIP3   OH237953   4.251   4.205   3.798  0.2415 -0.1734 -0.2793
 5513TIP3    H137954   4.323   4.229   3.857 -0.0239  1.0990 -0.4371
 5513TIP3    H237955   4.186   4.274   3.811 -0.0377 -0.1391 -1.7085
 5514TIP3   OH237956   4.028   1.058  13.096  0.0948  0.2554  0.0678
 5514TIP3    H137957   4.026   1.103  13.180  0.3732 -0.3236  0.3957
 5514TIP3    H237958   4.050   0.967  13.118  1.9678  0.4588 -0.7751
 5515TIP3   OH237959   0.440   3.381   0.012 -0.3296 -0.8476 -0.5394
 5515TIP3    H137960   0.450   3.393  -0.082  0.7991 -1.5836 -0.5290
 5515TIP3    H237961   0.453   3.468   0.049 -1.8712 -0.3443 -1.1231
 5516TIP3   OH237962   2.081   6.251  11.868 -0.0139 -0.5399 -0.2968
 5516TIP3    H137963   2.129   6.332  11.881  1.0819 -1.4758  1.8528
 5516TIP3    H237964   2.148   6.186  11.847 -0.6467 -1.3183  0.0353
 5517TIP3   OH237965   3.607   5.382  14.423 -0.3614  0.1275  0.4417
 5517TIP3    H137966   3.654   5.302  14.445 -0.8609 -0.5602 -0.8785
 5517TIP3    H237967   3.674   5.440  14.386 -0.3349 -0.4341 -0.4138
 5518TIP3   OH237968   4.392   0.596  15.716  0.3689 -0.5025 -0.0956
 5518TIP3    H137969   4.484   0.569  15.709  0.2511 -1.3443  1.2484
 5518TIP3    H237970   4.396   0.690  15.733  0.9187 -0.3104 -1.1635
 5519TIP3   OH237971   4.289   5.211   6.289  0.0489  0.4670  0.5503
 5519TIP3    H137972   4.230   5.173   6.354 -0.5540  0.8407  0.2299
 5519TIP3    H237973   4.377   5.201   6.327  0.1977 -3.2388 -0.4471
 5520TIP3   OH237974   4.544   1.624   5.606 -0.4033  0.2605 -0.6794
 5520TIP3    H137975   4.551   1.531   5.584  0.0615  0.0173  0.4363
 5520TIP3    H237976   4.634   1.650   5.628 -0.2756  1.3328 -2.2960
 5521TIP3   OH237977   3.425   2.460   5.321 -0.2544 -0.1088  0.0818
 5521TIP3    H137978   3.440   2.424   5.408 -0.5915  1.8067  0.9713
 5521TIP3    H237979   3.346   2.513   5.329  0.1490  0.7514 -1.1833
 5522TIP3   OH237980   0.653   0.510   3.644  0.5870  0.2246  0.1106
 5522TIP3    H137981   0.689   0.422   3.633  0.9714  0.2914  0.7975
 5522TIP3    H237982   0.729   0.567   3.655  0.3099  0.5066  0.6067
 5523TIP3   OH237983   2.092   0.215  11.664  0.0837  0.1663 -0.0520
 5523TIP3    H137984   2.017   0.179  11.617  0.0638 -1.7560  1.3385
 5523TIP3    H237985   2.114   0.294  11.616 -1.8318 -0.0657 -1.4407
 5524TIP3   OH237986   0.899   1.640  12.409 -0.4773 -0.1350 -0.4132
 5524TIP3    H137987   0.909   1.720  12.460  0.3685 -0.4267 -0.0951
 5524TIP3    H237988   0.932   1.663  12.322  0.6006 -0.3657 -0.0822
 5525TIP3   OH237989   2.234   6.478  11.761 -0.4559 -0.7361  0.0764
 5525TIP3    H137990   2.192   6.553  11.804 -1.8463 -0.7153 -1.2117
 5525TIP3    H237991   2.319   6.512  11.733 -1.0263  0.3738 -0.4029
 5526TIP3   OH237992   4.073   3.323   1.256 -0.1617  0.6764  0.3069
 5526TIP3    H137993   4.053   3.367   1.338  0.8812 -0.0208  0.9612
 5526TIP3    H237994   4.000   3.262   1.243 -0.3439  0.8086  0.7082
 5527TIP3   OH237995   3.446   6.241  13.346  0.2112  0.0526 -0.0694
 5527TIP3    H137996   3.410   6.227  13.259  0.2233  1.1943 -0.2745
 5527TIP3    H237997   3.411   6.170  13.399 -1.3094  0.4098 -0.5614
 5528TIP3   OH237998   4.924   0.454   4.250 -0.2186 -0.1603  0.0121
 5528TIP3    H137999   4.899   0.538   4.287  0.4438  0.4069 -0.7776
 5528TIP3    H238000   4.844   0.419   4.212 -0.5148  0.0740  0.4112
 5529TIP3   OH238001   4.662   3.412  15.593  0.0848 -0.0363  0.3568
 5529TIP3    H138002   4.587   3.452  15.549 -0.1996 -1.5042 -0.5486
 5529TIP3    H238003   4.737   3.462  15.562 -0.4304  1.0196  0.7562
 5530TIP3   OH238004   0.035   0.665   3.244  0.0960  0.1962  0.3931
 5530TIP3    H138005  -0.043   0.680   3.190  0.3906  2.2995  0.4651
 5530TIP3    H238006   0.082   0.595   3.199 -1.6664 -0.8964  0.1816
 5531TIP3   OH238007   1.469   4.308   3.533  0.1099  0.1586 -0.3142
 5531TIP3    H138008   1.476   4.365   3.610  1.6453  0.1061 -0.3909
 5531TIP3    H238009   1.514   4.356   3.463 -0.6462 -0.1161 -1.0141
 5532TIP3   OH238010   6.266   3.726   3.360  0.5113 -0.1142  0.0107
 5532TIP3    H138011   6.319   3.653   3.327 -0.0825 -0.7783  0.4910
 5532TIP3    H238012   6.262   3.788   3.287  2.4608  0.2527  0.1604
 5533TIP3   OH238013   4.355   0.290   6.020 -0.1525 -0.0670 -0.0120
 5533TIP3    H138014   4.326   0.320   6.107 -0.0572  0.5974 -0.2075
 5533TIP3    H238015   4.291   0.223   5.996 -0.8987  0.5989  0.0493
 5534TIP3   OH238016   4.874   0.831   0.867 -0.4730 -0.2864  0.0419
 5534TIP3    H138017   4.912   0.793   0.788  1.2739  0.4032  0.5173
 5534TIP3    H238018   4.805   0.889   0.835  0.6792  0.5268 -1.0297
 5535TIP3   OH238019   4.137   0.287  11.192 -0.3808  0.1558  0.0415
 5535TIP3    H138020   4.122   0.217  11.255 -2.4262 -0.0237 -0.5914
 5535TIP3    H238021   4.177   0.244  11.117  1.0746  0.1990  0.7504
 5536TIP3   OH238022   3.778   0.103   1.404 -0.3288  0.4400  0.1677
 5536TIP3    H138023   3.858   0.135   1.446  0.6768 -1.2449 -0.3826
 5536TIP3    H238024   3.729   0.183   1.385  0.4904  1.4360  1.8976
 5537TIP3   OH238025   2.713   6.721   1.253  0.4319  0.1251  0.4737
 5537TIP3    H138026   2.661   6.791   1.214 -1.1448  0.1102  2.3912
 5537TIP3    H238027   2.792   6.764   1.286 -0.2025  0.8993  1.0152
 5538TIP3   OH238028   4.894   1.903  12.650  0.0118  0.0807  0.0472
 5538TIP3    H138029   4.912   1.827  12.706  1.5420  0.7528  0.5232
 5538TIP3    H238030   4.977   1.950  12.645 -1.0128  2.0551  0.2511
 5539TIP3   OH238031   6.441   6.100   2.648 -0.3448  0.0135  0.0466
 5539TIP3    H138032   6.410   6.182   2.611 -0.8012 -0.8344 -1.5622
 5539TIP3    H238033   6.436   6.037   2.575  2.3674 -0.8702  0.4698
 5540TIP3   OH238034   5.551   1.959   3.698  0.5350  0.1229  0.3532
 5540TIP3    H138035   5.581   1.900   3.629  0.3517  0.6139 -0.1565
 5540TIP3    H238036   5.631   2.004   3.728  0.2599  2.2491 -1.7758
 5541TIP3   OH238037   5.540   6.163  16.727 -0.1044 -0.5112 -0.4236
 5541TIP3    H138038   5.550   6.076  16.765 -0.0966 -0.6199 -0.6735
 5541TIP3    H238039   5.563   6.223  16.798 -0.9763 -0.6942  0.0201
 5542TIP3   OH238040   3.908   0.269   5.331 -0.4061 -0.1705  0.0577
 5542TIP3    H138041   3.922   0.297   5.241  0.8349  3.4690  1.1960
 5542TIP3    H238042   3.994   0.237   5.360 -0.2102  0.7498  0.5341
 5543TIP3   OH238043   0.534   3.893   6.510  0.1100 -0.5906  0.2413
 5543TIP3    H138044   0.566   3.803   6.521 -1.8645 -1.1863  1.6054
 5543TIP3    H238045   0.461   3.900   6.572 -1.3787  1.1683 -1.6057
 5544TIP3   OH238046   3.054   5.276   4.514  0.3487  0.0323  0.2864
 5544TIP3    H138047   3.065   5.181   4.505 -0.1329  0.1542 -2.2926
 5544TIP3    H238048   3.143   5.311   4.516  0.5281 -0.4317  1.1349
 5545TIP3   OH238049   4.109   2.991   5.440  0.7242  0.3851 -0.3736
 5545TIP3    H138050   4.086   2.966   5.350 -0.1892  1.7331 -0.5452
 5545TIP3    H238051   4.141   3.081   5.432 -2.3212  1.7419  0.9794
 5546TIP3   OH238052   0.439   5.522  12.736  0.2191  0.4992  0.3453
 5546TIP3    H138053   0.432   5.577  12.658  1.2476  0.9804  0.5662
 5546TIP3    H238054   0.500   5.569  12.793  1.2509 -0.9218  0.4804
 5547TIP3   OH238055   4.544   4.916  12.501 -0.3751 -0.0246  0.1125
 5547TIP3    H138056   4.598   4.952  12.571 -0.6227 -0.2900  0.4406
 5547TIP3    H238057   4.494   4.991  12.468  0.4609  0.2946 -0.4396
 5548TIP3   OH238058   0.887   0.784  12.706 -0.3643 -0.3389 -0.2989
 5548TIP3    H138059   0.816   0.779  12.770 -0.8879 -0.6991 -0.9001
 5548TIP3    H238060   0.910   0.693  12.688 -1.0547 -0.2961 -1.5224
 5549TIP3   OH238061   1.747   0.709  16.035  0.2592 -0.2882  0.0604
 5549TIP3    H138062   1.681   0.731  15.969 -1.5814 -2.5510  1.0260
 5549TIP3    H238063   1.827   0.695  15.985 -0.0137  2.1287 -1.1998
 5550TIP3   OH238064   0.095   6.251  13.427 -0.0084 -0.7806  0.4172
 5550TIP3    H138065   0.069   6.327  13.479  1.4071 -0.5945  0.8870
 5550TIP3    H238066   0.018   6.194  13.428 -0.0984 -0.7106  2.6129
 5551TIP3   OH238067   5.644   6.373  12.641  0.1685 -0.1377 -0.3421
 5551TIP3    H138068   5.576   6.432  12.607 -0.1594  1.3591  2.5713
 5551TIP3    H238069   5.595   6.307  12.690  0.7245 -0.4507 -0.2029
 5552TIP3   OH238070   4.737   5.388   5.209 -0.0595  0.4051  0.6930
 5552TIP3    H138071   4.761   5.298   5.186  1.5404  1.3410 -1.7926
 5552TIP3    H238072   4.641   5.389   5.206 -0.0749 -1.0404 -0.1456
 5553TIP3   OH238073   6.279   6.409  14.031 -0.4677 -0.1393  0.5297
 5553TIP3    H138074   6.281   6.317  14.058  0.0092  0.2323  1.8292
 5553TIP3    H238075   6.355   6.420  13.975  2.1251  0.4199  3.8469
 5554TIP3   OH238076   0.714   2.452  13.462 -0.2601  0.7788  0.3188
 5554TIP3    H138077   0.713   2.545  13.436 -0.6481  0.4790 -0.8098
 5554TIP3    H238078   0.731   2.405  13.380 -1.0819 -0.2041  0.6939
 5555TIP3   OH238079   2.497   3.147  11.497  0.4933  0.0446 -0.4273
 5555TIP3    H138080   2.452   3.186  11.573  3.4591 -0.1841  1.6481
 5555TIP3    H238081   2.499   3.053  11.516  3.7229  0.2319  0.8747
 5556TIP3   OH238082   4.011   5.027   4.726 -0.0692  0.2365 -0.2936
 5556TIP3    H138083   3.949   5.084   4.681 -1.3623 -0.4967  0.4882
 5556TIP3    H238084   4.091   5.032   4.674 -2.0179 -2.0509 -3.8827
 5557TIP3   OH238085   2.685   1.859   4.417  0.1771 -0.1783  0.5050
 5557TIP3    H138086   2.592   1.864   4.393  0.0819  1.8331  1.0888
 5557TIP3    H238087   2.695   1.774   4.459 -1.2577 -0.6809 -0.1099
 5558TIP3   OH238088   1.691   6.110  12.097  0.0991 -0.2879 -0.0562
 5558TIP3    H138089   1.628   6.180  12.080  0.0512 -0.0676  0.9594
 5558TIP3    H238090   1.652   6.059  12.167  0.0346 -1.4815 -0.9411
 5559TIP3   OH238091   2.085   5.403  15.613 -0.4236 -0.2532 -0.3096
 5559TIP3    H138092   2.133   5.322  15.627  0.5143  0.1676 -0.9325
 5559TIP3    H238093   1.994   5.376  15.600 -0.7540 -0.9298  2.7318
 5560TIP3   OH238094   2.984   3.833  16.028  0.1687  0.1471 -0.4806
 5560TIP3    H138095   3.071   3.860  16.060 -1.4682  0.7413  4.2292
 5560TIP3    H238096   2.975   3.743  16.058 -0.8257  0.0915 -0.9474
 5561TIP3   OH238097   0.527   0.186   2.014 -0.2841 -0.3772  0.2491
 5561TIP3    H138098   0.464   0.114   2.003 -0.6254 -0.3536  1.7946
 5561TIP3    H238099   0.612   0.145   1.998 -0.5794 -0.7829 -0.3162
 5562TIP3   OH238100   4.672   1.939  15.853  0.7161  0.4205 -0.4744
 5562TIP3    H138101   4.615   1.879  15.901 -1.7291  2.1680 -0.9703
 5562TIP3    H238102   4.695   2.006  15.918 -0.9510  1.7075 -1.1297
 5563TIP3   OH238103   4.178   5.008   1.732 -0.1238  0.1038 -0.0430
 5563TIP3    H138104   4.172   5.098   1.700  0.4063  0.8239  1.7889
 5563TIP3    H238105   4.169   5.015   1.827  1.8774 -1.5611  0.3413
 5564TIP3   OH238106   2.853   2.759   2.276  0.0394  0.1856 -0.1276
 5564TIP3    H138107   2.930   2.773   2.331 -0.6696 -1.8815  1.5090
 5564TIP3    H238108   2.866   2.673   2.237 -1.0214  0.2149 -0.5839
 5565TIP3   OH238109   2.410   0.144  13.360  0.4319  0.3089 -0.1741
 5565TIP3    H138110   2.449   0.057  13.366 -2.4873 -1.2523 -1.7248
 5565TIP3    H238111   2.336   0.142  13.422 -0.1002  1.4200 -0.7310
 5566TIP3   OH238112   2.182   4.135  11.998  0.5938  0.0121 -0.1739
 5566TIP3    H138113   2.249   4.159  12.061  0.1269  1.0473 -0.0576
 5566TIP3    H238114   2.116   4.088  12.049  0.4752  0.3724  0.0037
 5567TIP3   OH238115   5.559   6.171   2.765 -0.0952  0.7229 -0.2940
 5567TIP3    H138116   5.600   6.116   2.698 -3.4778 -1.2004 -1.0335
 5567TIP3    H238117   5.605   6.148   2.846  1.0114 -0.4475 -1.2095
 5568TIP3   OH238118   6.153   5.803  12.210 -0.1357 -0.5494 -0.1458
 5568TIP3    H138119   6.131   5.878  12.155 -1.7315 -1.5355 -0.9190
 5568TIP3    H238120   6.205   5.746  12.154 -1.6146 -1.4735 -0.6208
 5569TIP3   OH238121   6.213   3.330  15.743  0.0600 -0.4347  0.0011
 5569TIP3    H138122   6.295   3.358  15.702 -0.5527 -0.1755 -1.1040
 5569TIP3    H238123   6.191   3.248  15.699 -0.0695 -0.7166  0.5823
 5570TIP3   OH238124   0.717   2.058  13.568 -0.2100 -0.6485  0.1242
 5570TIP3    H138125   0.763   2.082  13.649 -0.0220  0.7235 -0.3688
 5570TIP3    H238126   0.769   1.986  13.532 -0.5062 -1.5413  1.3907
 5571TIP3   OH238127   1.515   0.021   1.458 -0.1505 -0.0779 -0.3858
 5571TIP3    H138128   1.441  -0.015   1.408 -1.0116  1.5211 -0.3160
 5571TIP3    H238129   1.587   0.024   1.396 -0.7627  0.3887 -1.0903
 5572TIP3   OH238130   3.866   6.247   6.250 -0.2618 -0.0302 -0.3940
 5572TIP3    H138131   3.825   6.334   6.249 -0.5658 -0.1377  0.7794
 5572TIP3    H238132   3.955   6.262   6.219  0.1765  0.9937  1.1842
 5573TIP3   OH238133   1.279   4.079  13.095  0.5968  0.0240  0.0036
 5573TIP3    H138134   1.368   4.116  13.092  1.2107 -1.4222 -1.8338
 5573TIP3    H238135   1.223   4.153  13.119  2.1633  1.2769 -0.0310
 5574TIP3   OH238136   1.369   0.012   4.699  0.4416 -0.3753  0.2319
 5574TIP3    H138137   1.463   0.004   4.687  0.2543  0.3513 -2.4636
 5574TIP3    H238138   1.335  -0.077   4.690  0.8875 -0.7163  1.7689
 5575TIP3   OH238139   1.312   2.614   1.324 -0.2219 -0.2034 -0.5969
 5575TIP3    H138140   1.321   2.676   1.252 -2.1238  1.1312  0.2245
 5575TIP3    H238141   1.402   2.587   1.344  0.6248  1.7948 -1.4211
 5576TIP3   OH238142   4.808   3.007   3.521  0.2733  1.0033  0.1585
 5576TIP3    H138143   4.822   3.021   3.428 -2.1540  1.6530 -0.1811
 5576TIP3    H238144   4.868   3.068   3.565  2.4856 -0.3156 -0.8685
 5577TIP3   OH238145   2.847   0.440  12.821  0.4046 -0.7518  0.0195
 5577TIP3    H138146   2.854   0.345  12.813 -1.1804 -0.8263 -1.0245
 5577TIP3    H238147   2.754   0.457  12.829  0.6815  0.7073  0.5160
 5578TIP3   OH238148   1.930   1.949   3.538  0.0681  0.3873  0.4302
 5578TIP3    H138149   1.871   1.903   3.597 -0.0265  2.2338  1.8840
 5578TIP3    H238150   1.897   1.929   3.451  0.5326 -2.8588  0.8894
 5579TIP3   OH238151   2.823   1.101  16.816 -0.6260 -0.2483 -0.0227
 5579TIP3    H138152   2.838   1.186  16.858  2.5569 -1.0940  0.8375
 5579TIP3    H238153   2.770   1.052  16.879 -2.8531  1.1261 -0.7011
 5580TIP3   OH238154   6.087   3.471   1.077  0.2334 -0.4248  0.0775
 5580TIP3    H138155   6.132   3.482   0.993  1.4494 -2.2847  0.4288
 5580TIP3    H238156   6.085   3.559   1.115  0.8962  0.2093 -1.2857
 5581TIP3   OH238157   4.317   3.433  11.688  0.0039 -0.3947 -0.2521
 5581TIP3    H138158   4.276   3.514  11.660 -1.2408 -1.4475 -1.6903
 5581TIP3    H238159   4.407   3.439  11.655 -1.2429 -1.3656 -4.4926
 5582TIP3   OH238160   1.460   0.829  13.552  0.1057 -0.2646 -0.0793
 5582TIP3    H138161   1.425   0.780  13.626  2.0540 -3.1611 -0.8709
 5582TIP3    H238162   1.382   0.856  13.502 -1.2131  1.2889  2.6153
 5583TIP3   OH238163   6.372   0.151   0.744  0.2682  0.1795 -0.7569
 5583TIP3    H138164   6.353   0.222   0.805  1.8606 -0.4779  0.5711
 5583TIP3    H238165   6.337   0.073   0.787  3.3109 -0.6464  0.5167
 5584TIP3   OH238166   1.056   4.895  14.466  0.4520  0.3615 -0.2596
 5584TIP3    H138167   1.018   4.936  14.388  0.0609  1.3511  0.4371
 5584TIP3    H238168   1.123   4.957  14.496  0.3327  0.1766  0.4103
 5585TIP3   OH238169   0.870   4.820   2.575  0.3396 -0.1529  0.2334
 5585TIP3    H138170   0.856   4.833   2.481  1.6025 -0.3577  0.0070
 5585TIP3    H238171   0.964   4.830   2.587 -0.0060  1.8320  1.7969
 5586TIP3   OH238172   5.300   3.161  14.483 -0.7047 -0.3355 -0.3028
 5586TIP3    H138173   5.298   3.243  14.434 -1.2670 -0.9881 -1.4456
 5586TIP3    H238174   5.313   3.094  14.416  0.0375 -1.1642  0.6389
 5587TIP3   OH238175   3.908   3.702   3.799  0.3716  0.0534  0.5602
 5587TIP3    H138176   3.969   3.642   3.841 -0.2115 -1.3624 -0.4970
 5587TIP3    H238177   3.943   3.713   3.710 -1.5405 -1.9241 -0.5483
 5588TIP3   OH238178   2.370   4.153   5.062  0.1547 -0.8926  0.0574
 5588TIP3    H138179   2.434   4.165   5.133  0.8984 -2.0253 -0.4044
 5588TIP3    H238180   2.423   4.138   4.984 -0.5509 -4.7232  0.1242
 5589TIP3   OH238181   3.565   3.101   2.644 -0.0265  0.0117 -0.1566
 5589TIP3    H138182   3.654   3.071   2.665 -0.8737 -2.1664  0.6306
 5589TIP3    H238183   3.522   3.024   2.607 -1.6341  0.9906 -0.4007
 5590TIP3   OH238184   3.348   3.742  17.357 -0.1328 -0.2050 -0.0059
 5590TIP3    H138185   3.275   3.788  17.398  0.3879 -0.1027  0.8420
 5590TIP3    H238186   3.312   3.706  17.277 -1.1497 -0.2760  0.4639
 5591TIP3   OH238187   6.408   0.429   1.554 -0.0813  0.1232  0.3546
 5591TIP3    H138188   6.485   0.480   1.527 -0.0383 -0.7976 -1.4680
 5591TIP3    H238189   6.418   0.346   1.507 -1.9207 -0.2252  0.5223
 5592TIP3   OH238190   2.008   5.603   2.394 -0.0919  0.3974 -0.3993
 5592TIP3    H138191   1.916   5.629   2.388 -1.0331 -2.2066  0.8082
 5592TIP3    H238192   2.054   5.682   2.423 -2.0692  1.5851 -0.3157
 5593TIP3   OH238193   3.731   6.468   6.198  0.2318  0.2007  0.2239
 5593TIP3    H138194   3.648   6.475   6.246 -0.5005 -0.3065 -0.9245
 5593TIP3    H238195   3.706   6.431   6.114  1.6982 -0.3571  0.0140
 5594TIP3   OH238196   1.711   5.113   2.182 -0.2971 -0.5311  0.4360
 5594TIP3    H138197   1.761   5.085   2.259 -0.1754 -1.6886 -0.0402
 5594TIP3    H238198   1.619   5.103   2.207 -0.2644 -2.1604  0.0340
 5595TIP3   OH238199   3.898   3.216  16.267  0.2282  0.4218 -0.0008
 5595TIP3    H138200   3.984   3.174  16.258  0.2309  0.5056 -0.3886
 5595TIP3    H238201   3.913   3.307  16.243 -0.2891  0.0963 -1.7193
 5596TIP3   OH238202   2.025   2.282  16.879 -0.2040  0.5320 -0.8168
 5596TIP3    H138203   1.998   2.216  16.816  0.1846 -1.3406  0.8533
 5596TIP3    H238204   2.042   2.233  16.960  1.3941  2.5006  0.1639
 5597TIP3   OH238205   3.063   6.307  14.063 -0.2884  0.3317 -0.2460
 5597TIP3    H138206   3.087   6.215  14.056  0.1426  0.3900  0.3679
 5597TIP3    H238207   3.142   6.350  14.095 -0.2599  1.0367 -1.2323
 5598TIP3   OH238208   5.967   0.939   5.826 -0.4761  0.1251  0.0973
 5598TIP3    H138209   5.976   1.032   5.803 -0.4940 -0.1910 -1.2502
 5598TIP3    H238210   5.873   0.923   5.826 -0.4817  0.1326  0.5044
 5599TIP3   OH238211   4.012   4.155   5.911  0.4315 -0.5260  0.4455
 5599TIP3    H138212   4.043   4.067   5.934 -0.5971 -0.5082  2.0050
 5599TIP3    H238213   4.029   4.208   5.989  0.6854  0.5932 -0.3397
 5600TIP3   OH238214   0.060   1.860  15.112  0.4014  0.7030  0.0570
 5600TIP3    H138215  -0.035   1.859  15.108  0.4181  1.5055 -1.1073
 5600TIP3    H238216   0.086   1.768  15.104 -0.2710  0.4708  0.4765
 5601TIP3   OH238217   6.208   0.599   5.709  0.2711  0.0813 -0.4118
 5601TIP3    H138218   6.232   0.650   5.787  3.0800 -0.0976 -1.0505
 5601TIP3    H238219   6.149   0.656   5.660 -1.0110  0.4637  1.4867
 5602TIP3   OH238220   3.991   6.749  11.008 -0.1238  0.1573  0.5594
 5602TIP3    H138221   3.937   6.692  10.954 -0.1195  1.5719 -1.0117
 5602TIP3    H238222   3.932   6.777  11.079 -0.0137 -2.0039  1.5811
 5603TIP3   OH238223   5.283   5.692  16.122 -0.4364 -0.1421 -0.2297
 5603TIP3    H138224   5.190   5.695  16.144 -0.2290  1.7341  0.5932
 5603TIP3    H238225   5.301   5.778  16.085  0.6320 -1.0746 -1.9969
 5604TIP3   OH238226   5.113   3.591   5.385 -0.2647 -0.2186 -0.5795
 5604TIP3    H138227   5.199   3.590   5.342 -0.6185 -1.5998 -1.3299
 5604TIP3    H238228   5.126   3.541   5.466 -0.2086  0.1334 -0.3718
 5605TIP3   OH238229   0.790   2.165   0.288 -0.2673  0.2200  0.5783
 5605TIP3    H138230   0.811   2.121   0.206 -0.9123  0.0392  0.5014
 5605TIP3    H238231   0.823   2.254   0.277 -2.2241  0.8437 -0.7396
 5606TIP3   OH238232   4.162   0.607  17.204 -0.2245 -0.0034 -0.7034
 5606TIP3    H138233   4.211   0.632  17.126  0.6879  0.7656  0.0798
 5606TIP3    H238234   4.227   0.606  17.274 -1.2356  0.5456  0.2857
 5607TIP3   OH238235   5.585   1.377  12.856 -0.3993 -0.3044  0.3671
 5607TIP3    H138236   5.636   1.458  12.860 -2.3835  1.0024  1.0929
 5607TIP3    H238237   5.524   1.391  12.783 -2.3209 -0.0843  1.9246
 5608TIP3   OH238238   0.732   2.806  15.355 -0.7237  0.5450  0.1789
 5608TIP3    H138239   0.774   2.891  15.368 -0.8603  0.3482  2.1799
 5608TIP3    H238240   0.646   2.815  15.397 -0.5408 -0.7239  0.8631
 5609TIP3   OH238241   1.911   6.089   1.168 -0.1299  0.1790  0.2214
 5609TIP3    H138242   1.993   6.124   1.133 -0.2025  0.9525  0.7880
 5609TIP3    H238243   1.933   6.061   1.257 -0.8240  1.8840  0.9643
 5610TIP3   OH238244   5.781   2.325  15.194 -0.5089  0.4221  0.4894
 5610TIP3    H138245   5.714   2.257  15.201 -0.1911  0.1045  0.4426
 5610TIP3    H238246   5.783   2.346  15.101  0.8875 -1.0285  0.1424
 5611TIP3   OH238247   1.964   2.653   0.671  0.3571 -0.2897 -0.4095
 5611TIP3    H138248   1.997   2.575   0.717 -2.6727 -1.1161  0.6436
 5611TIP3    H238249   1.928   2.708   0.741 -1.0980  0.1603 -1.4631
 5612TIP3   OH238250   4.065   2.041  11.973  0.3236  0.0482  0.2399
 5612TIP3    H138251   4.142   2.074  12.020  0.3267  1.1015 -0.4562
 5612TIP3    H238252   4.059   1.949  11.998  1.8500 -0.0737  0.2487
 5613TIP3   OH238253   0.635   4.059   3.017  0.6374 -0.4282  0.4342
 5613TIP3    H138254   0.687   4.019   3.086  1.4378 -0.3053 -0.0883
 5613TIP3    H238255   0.694   4.122   2.976 -0.1019  0.1205  0.1952
 5614TIP3   OH238256   3.344   4.340   2.753  0.2609  0.1270  0.4810
 5614TIP3    H138257   3.373   4.346   2.662  1.2596  0.0528  0.7864
 5614TIP3    H238258   3.364   4.426   2.791 -0.3495  0.2320  0.5822
 5615TIP3   OH238259   1.839   5.924  12.549  0.2067  0.2104  0.0897
 5615TIP3    H138260   1.916   5.977  12.527  0.1869 -0.8234 -2.9818
 5615TIP3    H238261   1.765   5.976  12.519 -0.2502  0.5841  1.7567
 5616TIP3   OH238262   5.476   6.046  17.085  0.4420  0.2799  0.9202
 5616TIP3    H138263   5.496   6.011  16.999 -1.3396 -0.3938  0.7305
 5616TIP3    H238264   5.383   6.069  17.080  0.6230  1.4230  2.2647
 5617TIP3   OH238265   3.112   1.421   3.342  0.1003  0.3794  0.1846
 5617TIP3    H138266   3.034   1.449   3.390 -0.3917 -2.2427  1.0471
 5617TIP3    H238267   3.174   1.393   3.410  0.6051 -0.4414 -0.5943
 5618TIP3   OH238268   0.570   5.283   1.323 -0.3904 -0.4739 -0.5513
 5618TIP3    H138269   0.603   5.197   1.349  2.7949  0.9570  0.6394
 5618TIP3    H238270   0.496   5.299   1.382  1.6579 -0.7135  2.3026
 5619TIP3   OH238271   2.759   5.745   6.527 -0.0935 -0.4785 -0.0990
 5619TIP3    H138272   2.845   5.706   6.516 -0.2804 -1.0214  0.3194
 5619TIP3    H238273   2.764   5.794   6.609 -0.1093 -0.3062 -0.2002
 5620TIP3   OH238274   5.866   3.629   1.522  0.2836 -0.3800 -0.0371
 5620TIP3    H138275   5.912   3.616   1.439 -0.2042 -2.0287 -0.0942
 5620TIP3    H238276   5.847   3.540   1.553 -0.5138  0.2197  1.2989
 5621TIP3   OH238277   0.157   1.121   3.472  0.1107  0.0661 -0.0244
 5621TIP3    H138278   0.150   1.216   3.485  0.7511 -0.0971  1.8650
 5621TIP3    H238279   0.171   1.110   3.378 -0.3453  1.8116 -0.3278
 5622TIP3   OH238280   5.282   5.820   3.884  0.2966 -0.3891 -0.2511
 5622TIP3    H138281   5.198   5.798   3.924  0.3406 -1.7478 -0.8667
 5622TIP3    H238282   5.308   5.901   3.928  0.6455 -2.0833  2.9512
 5623TIP3   OH238283   1.804   1.928   1.284 -0.7805 -0.2216 -0.1727
 5623TIP3    H138284   1.848   1.844   1.294 -0.0078  0.1917 -0.0316
 5623TIP3    H238285   1.760   1.942   1.368  0.2532  0.1674  0.3129
 5624TIP3   OH238286   3.039   2.842  10.676 -0.0587  0.4647 -0.1555
 5624TIP3    H138287   3.116   2.786  10.686  1.9874  2.8782 -1.3581
 5624TIP3    H238288   2.974   2.786  10.632  1.1279 -1.4973  0.4672
 5625TIP3   OH238289   5.119   2.278   0.163  0.3551 -0.1703  0.4170
 5625TIP3    H138290   5.077   2.353   0.204  1.9760  0.5337  0.8842
 5625TIP3    H238291   5.115   2.297   0.069  0.9271  0.6396  0.5385
 5626TIP3   OH238292   2.245   1.068  17.346  0.1481  0.1134 -0.0186
 5626TIP3    H138293   2.171   1.054  17.288 -0.6442 -1.9736  1.4071
 5626TIP3    H238294   2.238   1.160  17.371  0.3254  1.0139 -2.8366
 5627TIP3   OH238295   4.390   5.007  11.000  0.1871  0.0947 -0.3446
 5627TIP3    H138296   4.456   4.999  10.931 -0.3389 -1.3507 -0.7066
 5627TIP3    H238297   4.394   4.924  11.047 -2.2936 -0.5986 -1.2064
 5628TIP3   OH238298   4.337   1.972   1.468 -0.1731 -0.0289 -0.8279
 5628TIP3    H138299   4.381   1.887   1.467  1.7780  0.8872 -2.5990
 5628TIP3    H238300   4.406   2.035   1.488 -1.4582  1.1985 -0.0747
 5629TIP3   OH238301   4.133   3.557  15.626 -0.1569 -0.5100  0.0155
 5629TIP3    H138302   4.221   3.581  15.655  1.2039 -2.4119 -2.2016
 5629TIP3    H238303   4.115   3.474  15.669 -0.7105 -0.3594  0.0912
 5630TIP3   OH238304   4.074   3.644   1.644 -0.1674  0.3377 -0.1604
 5630TIP3    H138305   4.098   3.636   1.737  0.8652  1.3089 -0.3288
 5630TIP3    H238306   3.980   3.661   1.645 -0.2158  0.0641  0.6970
 5631TIP3   OH238307   3.203   0.136  12.872  0.1909  0.2337  0.0349
 5631TIP3    H138308   3.188   0.218  12.824  1.2963  0.1956 -0.4034
 5631TIP3    H238309   3.265   0.087  12.817  1.6827  0.2876  1.6019
 5632TIP3   OH238310   2.907   5.880   2.686  0.2198 -0.2014  0.2271
 5632TIP3    H138311   2.961   5.810   2.723  0.4455  0.1865  0.6325
 5632TIP3    H238312   2.957   5.960   2.701 -0.2010  0.0934  0.0828
 5633TIP3   OH238313   6.540   2.058  12.676 -0.1121  0.3612  0.0839
 5633TIP3    H138314   6.498   2.117  12.738 -0.0121  2.1090 -1.4136
 5633TIP3    H238315   6.586   2.116  12.615  0.5392 -1.3060 -1.0999
 5634TIP3   OH238316   5.435   6.044   5.878  0.0041 -0.0835 -0.4925
 5634TIP3    H138317   5.470   6.104   5.943 -0.9689  1.1413 -1.0597
 5634TIP3    H238318   5.499   6.045   5.807  1.6540 -2.3021  0.8406
 5635TIP3   OH238319   4.169   3.545   5.856  0.1091 -0.8180  0.3804
 5635TIP3    H138320   4.220   3.567   5.934  1.6642 -1.1316 -0.5156
 5635TIP3    H238321   4.202   3.604   5.789 -2.0820  0.3114  0.2237
 5636TIP3   OH238322   6.669   2.243  11.458  0.2760 -0.4559  0.6232
 5636TIP3    H138323   6.581   2.224  11.425  0.4691  2.1353 -1.7485
 5636TIP3    H238324   6.727   2.210  11.389  0.9364  1.2448  0.3326
 5637TIP3   OH238325   2.671   1.082  11.698  0.2197  0.2381 -0.2391
 5637TIP3    H138326   2.725   1.128  11.762 -0.7787  1.9309 -0.5343
 5637TIP3    H238327   2.581   1.097  11.728 -0.1713 -1.0502 -0.7015
 5638TIP3   OH238328   0.448   1.339   4.704  0.1075 -0.1550  0.4834
 5638TIP3    H138329   0.526   1.384   4.737 -0.6905  1.2318  0.5569
 5638TIP3    H238330   0.428   1.383   4.621 -0.1142 -1.0703  0.0303
 5639TIP3   OH238331   5.876   2.522   0.761 -0.3015  0.1703  0.1164
 5639TIP3    H138332   5.783   2.544   0.754 -0.4138 -0.2572  0.2271
 5639TIP3    H238333   5.915   2.552   0.679 -0.1938  1.9823  0.7785
 5640TIP3   OH238334   0.686   3.273   1.873 -0.3467 -0.2056  0.4261
 5640TIP3    H138335   0.758   3.236   1.821  0.4092 -0.3629  1.5522
 5640TIP3    H238336   0.701   3.368   1.869 -1.3486 -0.0709 -1.1122
 5641TIP3   OH238337   1.175   1.147  10.768  0.0200  0.0005 -0.3152
 5641TIP3    H138338   1.135   1.231  10.790  0.1198 -0.3190  1.1572
 5641TIP3    H238339   1.240   1.132  10.836  1.7281 -0.1655 -1.8873
 5642TIP3   OH238340   2.035   4.536  11.789 -0.0950  0.4183 -0.6263
 5642TIP3    H138341   1.946   4.533  11.752  0.5238 -0.2527 -2.1618
 5642TIP3    H238342   2.079   4.603  11.736  0.6613 -0.1466 -0.7090
 5643TIP3   OH238343   0.130   4.186  16.768  0.1298  0.6967 -0.0939
 5643TIP3    H138344   0.133   4.159  16.859 -0.1744  0.0332 -0.2725
 5643TIP3    H238345   0.052   4.242  16.761 -1.3694 -1.3365 -0.4724
 5644TIP3   OH238346   6.342   0.301   2.505 -0.4547 -0.0347  0.0541
 5644TIP3    H138347   6.356   0.271   2.595 -1.9342 -0.8996  0.0271
 5644TIP3    H238348   6.375   0.391   2.504 -1.2306  0.2979  1.7017
 5645TIP3   OH238349   5.010   0.387  11.767  0.0779 -0.1587  0.3140
 5645TIP3    H138350   5.083   0.336  11.733 -0.5440 -1.1218  0.3999
 5645TIP3    H238351   5.049   0.471  11.792  1.2057 -0.7556  0.6120
 5646TIP3   OH238352   2.666   4.564   0.484 -0.6133 -0.5560  0.4469
 5646TIP3    H138353   2.672   4.544   0.391 -0.4029 -0.8717  0.5288
 5646TIP3    H238354   2.597   4.507   0.517 -1.0212 -0.1054  0.3952
 5647TIP3   OH238355   1.963   2.386   5.039  0.1327 -0.6937  0.3853
 5647TIP3    H138356   1.884   2.349   5.078 -0.9837 -1.4682 -2.3730
 5647TIP3    H238357   2.002   2.314   4.990  1.5927  0.1552  0.2482
 5648TIP3   OH238358   5.889   3.080   4.328  0.5291  0.0757  0.4981
 5648TIP3    H138359   5.810   3.056   4.376 -0.0705  1.8949  0.4818
 5648TIP3    H238360   5.859   3.139   4.259  1.7375 -0.2616 -0.3663
 5649TIP3   OH238361   4.998   3.077   0.977  0.3693  0.0122  1.0566
 5649TIP3    H138362   4.935   3.024   0.930  0.4403  0.0209  0.9519
 5649TIP3    H238363   5.081   3.029   0.970  0.6081  0.5206  0.2929
 5650TIP3   OH238364   2.052   2.722  11.462 -0.4149  0.1986  0.2021
 5650TIP3    H138365   2.139   2.746  11.496 -0.1062 -1.3279  0.5347
 5650TIP3    H238366   1.996   2.723  11.540 -0.4397  0.0271  0.1860
 5651TIP3   OH238367   0.908   1.635  16.354 -0.5040 -0.0540  0.4174
 5651TIP3    H138368   0.849   1.576  16.305 -1.8359  1.9761 -0.5708
 5651TIP3    H238369   0.872   1.635  16.443  1.9438 -3.7857  1.6665
 5652TIP3   OH238370   4.865   3.849  13.187  0.2259 -0.9022 -0.0087
 5652TIP3    H138371   4.869   3.944  13.201 -0.4949 -0.5648 -1.7821
 5652TIP3    H238372   4.902   3.836  13.100  1.8995 -2.4775  0.8753
 5653TIP3   OH238373   1.189   1.118   4.964 -0.2081  0.4592 -0.0537
 5653TIP3    H138374   1.169   1.180   4.894  0.8509  1.4879  0.5134
 5653TIP3    H238375   1.177   1.168   5.045 -0.1484 -0.3215  0.4523
 5654TIP3   OH238376   5.908   2.977  16.602  0.2922  0.0856  0.1056
 5654TIP3    H138377   5.983   3.031  16.624  0.3292  0.2659 -0.4497
 5654TIP3    H238378   5.852   3.034  16.549 -0.9526  0.4432  1.7164
 5655TIP3   OH238379   4.929   6.074  16.435 -0.0381  0.5550  0.1138
 5655TIP3    H138380   4.977   6.111  16.509 -0.7087 -0.0395  0.8748
 5655TIP3    H238381   4.852   6.130  16.427  0.0432  0.6281 -0.1422
 5656TIP3   OH238382   1.247   3.539  11.358  0.4564  0.3842  0.3726
 5656TIP3    H138383   1.329   3.489  11.352  0.0575 -0.1908 -0.5105
 5656TIP3    H238384   1.272   3.629  11.335  1.0648  0.4823  1.3578
 5657TIP3   OH238385   3.751   5.647   6.549 -0.5295  0.0282 -0.2869
 5657TIP3    H138386   3.672   5.624   6.499 -1.1192  3.0656 -0.9526
 5657TIP3    H238387   3.725   5.638   6.641 -1.3764  0.1220 -0.5102
 5658TIP3   OH238388   6.571   3.804   3.586  0.2837  0.1467 -0.3546
 5658TIP3    H138389   6.531   3.855   3.515 -0.1096  2.0869  1.1600
 5658TIP3    H238390   6.658   3.842   3.596  1.1744 -1.5759 -1.1702
 5659TIP3   OH238391   0.944   3.686  14.856 -0.3823  0.5628  0.0843
 5659TIP3    H138392   0.919   3.704  14.765  1.1596 -0.5052 -0.6017
 5659TIP3    H238393   1.040   3.693  14.856 -0.3898  1.2562  1.8101
 5660TIP3   OH238394   1.753   5.461  11.180  0.5901 -0.2755 -0.2191
 5660TIP3    H138395   1.676   5.493  11.135  0.6933 -0.6412 -0.6647
 5660TIP3    H238396   1.719   5.416  11.258  0.2259 -1.8161 -1.2240
 5661TIP3   OH238397   4.507   0.589  12.421  0.5941 -0.3560 -0.1112
 5661TIP3    H138398   4.472   0.673  12.392 -2.8899 -0.9727  1.7650
 5661TIP3    H238399   4.503   0.532  12.344 -0.7075  0.1811 -0.4484
 5662TIP3   OH238400   3.372   4.316  16.914  0.4195  0.4268  0.1136
 5662TIP3    H138401   3.452   4.264  16.906 -0.8828 -1.8010  0.8569
 5662TIP3    H238402   3.393   4.380  16.983  1.5800 -0.0490  0.2309
 5663TIP3   OH238403   1.035   4.877   1.036  0.2073 -0.4751  0.2565
 5663TIP3    H138404   0.956   4.916   0.998  0.0342  0.1083  1.1817
 5663TIP3    H238405   1.100   4.947   1.032 -0.1063 -0.0381  1.9335
 5664TIP3   OH238406   1.118   4.391   3.950  0.3316  0.3553 -0.2878
 5664TIP3    H138407   1.153   4.302   3.947 -1.5969 -0.4255 -1.1169
 5664TIP3    H238408   1.036   4.383   3.999  0.8019  1.9632  0.8586
 5665TIP3   OH238409   0.548   2.787  12.204 -0.0846  0.1149  0.0087
 5665TIP3    H138410   0.535   2.882  12.194 -1.9422 -0.2157 -1.3787
 5665TIP3    H238411   0.639   2.772  12.180  0.3795  1.5860  0.7064
 5666TIP3   OH238412   3.515   5.439  10.816  0.2268 -0.2699 -0.0903
 5666TIP3    H138413   3.499   5.371  10.751  0.0399 -0.1426 -0.1769
 5666TIP3    H238414   3.428   5.469  10.842  0.2987 -0.3557  0.2557
 5667TIP3   OH238415   5.526   1.998   6.187  0.5992 -0.2740 -0.5431
 5667TIP3    H138416   5.618   1.990   6.213  0.8092 -1.4754 -1.5753
 5667TIP3    H238417   5.483   1.923   6.228 -0.4806  1.6100  2.0158
 5668TIP3   OH238418   1.944   3.648   3.419  0.0882  0.3899 -0.3564
 5668TIP3    H138419   1.942   3.667   3.325  0.9569  0.0238 -0.4654
 5668TIP3    H238420   1.970   3.730   3.460  2.0453 -0.0257 -0.6651
 5669TIP3   OH238421   1.709   6.510  16.839  0.5214  0.1255  1.0317
 5669TIP3    H138422   1.756   6.446  16.892  0.9330 -0.8633 -0.4760
 5669TIP3    H238423   1.620   6.477  16.834  1.0273 -1.1186 -0.8405
 5670TIP3   OH238424   6.277   5.760   1.786 -0.0270 -0.4231 -0.1191
 5670TIP3    H138425   6.280   5.674   1.828 -0.4002 -0.7851 -0.8091
 5670TIP3    H238426   6.300   5.742   1.695 -0.6779  0.1242 -0.4012
 5671TIP3   OH238427   4.275   3.410  13.224  0.1987  0.0229 -0.2480
 5671TIP3    H138428   4.335   3.339  13.202  0.5155  0.1832  0.0968
 5671TIP3    H238429   4.222   3.376  13.296 -0.5656 -0.3537 -0.9710
 5672TIP3   OH238430   1.254   0.150   3.122  0.2458  0.3061 -0.1506
 5672TIP3    H138431   1.201   0.214   3.168 -0.1696  0.4041 -0.7635
 5672TIP3    H238432   1.205   0.068   3.130 -0.5424  0.5994 -1.5933
 5673TIP3   OH238433   5.561   2.838   0.784  0.1692  0.2804  0.0816
 5673TIP3    H138434   5.546   2.745   0.805 -0.1387  0.4895  0.8286
 5673TIP3    H238435   5.646   2.858   0.825  0.2702  0.3138 -0.1412
 5674TIP3   OH238436   0.548   0.795  12.718  0.1828 -0.2644 -0.1575
 5674TIP3    H138437   0.563   0.727  12.783  1.2618 -0.6522 -0.7749
 5674TIP3    H238438   0.544   0.876  12.768  0.8777 -0.5650  0.3972
 5675TIP3   OH238439   2.822   0.156   3.758 -0.3631  0.7974 -0.2285
 5675TIP3    H138440   2.870   0.228   3.718  0.1744  0.0665 -0.9323
 5675TIP3    H238441   2.808   0.094   3.687 -2.3030  0.9380 -0.0456
 5676TIP3   OH238442   5.992   3.815   3.219  0.5790 -0.2134 -0.9192
 5676TIP3    H138443   6.015   3.733   3.263 -1.0320 -1.5166 -2.3317
 5676TIP3    H238444   6.019   3.801   3.128 -0.2637  0.5805 -1.3085
 5677TIP3   OH238445   2.973   1.186   3.992 -0.4296  0.1113 -0.0022
 5677TIP3    H138446   2.960   1.144   4.077 -1.7394 -2.1034 -1.1869
 5677TIP3    H238447   3.030   1.260   4.010 -0.4436 -0.4407  2.7457
 5678TIP3   OH238448   1.308   0.410   4.896 -0.7538 -0.1457 -0.7957
 5678TIP3    H138449   1.327   0.318   4.914  0.2580  0.1918 -0.0282
 5678TIP3    H238450   1.218   0.410   4.863 -0.5920 -1.4611 -1.3065
 5679TIP3   OH238451   0.096   3.986  12.263  0.3403  0.6408 -0.3175
 5679TIP3    H138452   0.121   3.921  12.198  1.4981  2.2921 -1.6218
 5679TIP3    H238453   0.002   3.997  12.251  0.2683 -0.2421 -0.5989
 5680TIP3   OH238454   6.353   0.036  12.767  0.6465  0.0377 -0.1700
 5680TIP3    H138455   6.284  -0.031  12.764  1.7661 -1.1491 -0.1782
 5680TIP3    H238456   6.427  -0.008  12.808  1.7550  0.9708 -1.1237
 5681TIP3   OH238457   6.582   2.438  12.718 -0.0349 -0.8282 -0.2340
 5681TIP3    H138458   6.555   2.399  12.801 -1.3455  0.6084  0.0649
 5681TIP3    H238459   6.630   2.517  12.743 -0.7442 -0.1911 -0.8185
 5682TIP3   OH238460   0.284   3.483   0.684 -0.2531 -0.4584  0.2440
 5682TIP3    H138461   0.373   3.450   0.684  0.1723  0.6590  0.2246
 5682TIP3    H238462   0.251   3.465   0.596  0.4012  0.3109 -0.1586
 5683TIP3   OH238463   2.281   0.162  16.826  0.4124 -0.2013  0.3716
 5683TIP3    H138464   2.235   0.207  16.896  1.6725  0.5603  0.7403
 5683TIP3    H238465   2.226   0.174  16.749  0.9230  2.4466  0.3245
 5684TIP3   OH238466   5.749   3.719   5.493 -0.1419 -0.6548  0.0110
 5684TIP3    H138467   5.793   3.764   5.566 -0.0694  0.3403 -0.6344
 5684TIP3    H238468   5.663   3.760   5.488 -0.5242 -1.4254  0.1729
 5685TIP3   OH238469   5.257   0.474   4.694 -0.2706 -0.0178 -0.4755
 5685TIP3    H138470   5.309   0.534   4.747 -0.9710  0.1077  0.0803
 5685TIP3    H238471   5.169   0.511   4.694 -0.6208 -0.8223 -0.4660
 5686TIP3   OH238472   0.073   6.376  11.846 -0.0344  0.2218 -0.1132
 5686TIP3    H138473   0.031   6.325  11.917  0.4034 -2.1906 -1.4801
 5686TIP3    H238474   0.044   6.466  11.862 -0.4956 -0.3071  2.7253
 5687TIP3   OH238475   4.570   5.916  10.956 -0.1232  0.0527  0.3212
 5687TIP3    H138476   4.641   5.860  10.925  2.4357  3.2377 -0.1009
 5687TIP3    H238477   4.596   5.943  11.043  0.5718  3.1893 -0.7369
 5688TIP3   OH238478   6.435   1.012  17.158 -0.5314 -0.4414  0.2266
 5688TIP3    H138479   6.446   0.929  17.112  0.5650 -0.7652  1.0228
 5688TIP3    H238480   6.417   1.076  17.089  1.1460 -0.8858 -0.6905
 5689TIP3   OH238481   5.441   3.166   0.908  0.0292  0.4186 -0.8550
 5689TIP3    H138482   5.376   3.128   0.850  0.1278 -0.9473 -0.1087
 5689TIP3    H238483   5.392   3.191   0.986  0.6050 -2.5214  0.5896
 5690TIP3   OH238484   0.974   4.360   5.026  0.6993  0.4083  0.3696
 5690TIP3    H138485   0.951   4.400   5.110  0.8370 -0.8765  1.0387
 5690TIP3    H238486   0.977   4.266   5.044  0.6396  0.1042 -1.0992
 5691TIP3   OH238487   4.123   1.618  15.561 -0.3711 -0.1271  0.0775
 5691TIP3    H138488   4.206   1.621  15.608 -0.0932 -1.4696 -0.2736
 5691TIP3    H238489   4.118   1.528  15.528 -2.8915 -0.7026  1.7720
 5692TIP3   OH238490   5.073   4.051  16.706  0.4402  0.5458 -0.2803
 5692TIP3    H138491   5.090   4.055  16.612  0.0799 -2.4358 -0.5523
 5692TIP3    H238492   4.982   4.078  16.716 -0.8599 -2.9779 -1.4005
 5693TIP3   OH238493   3.834   3.265   4.738 -0.3572  0.4055  0.6837
 5693TIP3    H138494   3.751   3.299   4.705 -0.8801  0.4114  1.9594
 5693TIP3    H238495   3.809   3.190   4.792  0.4236  0.6631  1.4239
 5694TIP3   OH238496   4.637   5.646   6.065  0.3718 -0.0521 -0.0447
 5694TIP3    H138497   4.630   5.675   5.974  0.1756  1.6216  0.4635
 5694TIP3    H238498   4.658   5.726   6.114 -0.7695 -0.6627  1.5312
 5695TIP3   OH238499   3.849   3.959  12.913 -0.4968 -0.4414  0.3213
 5695TIP3    H138500   3.941   3.970  12.889 -1.5272  0.5043 -4.0693
 5695TIP3    H238501   3.821   4.046  12.940 -0.6543 -0.1004 -0.8873
 5696TIP3   OH238502   6.699   2.943  10.832 -0.1966  0.4821  0.6701
 5696TIP3    H138503   6.700   2.848  10.844  0.3147  0.5190  0.9519
 5696TIP3    H238504   6.748   2.977  10.906  0.6066  0.8923 -0.0372
 5697TIP3   OH238505   4.435   2.186   0.072 -0.0803  0.2546 -0.6105
 5697TIP3    H138506   4.501   2.204   0.005  0.7144 -3.4238 -1.0342
 5697TIP3    H238507   4.486   2.163   0.150 -0.8583 -0.5290 -0.3144
 5698TIP3   OH238508   1.066   1.867   3.103  0.1846 -0.4314  0.2320
 5698TIP3    H138509   1.130   1.811   3.146 -1.0063 -2.0259  0.0523
 5698TIP3    H238510   1.020   1.808   3.042 -2.0741  0.3594  1.0453
 5699TIP3   OH238511   0.751   0.132   0.859 -0.2393  0.3299 -0.3168
 5699TIP3    H138512   0.698   0.186   0.918 -1.0622  0.3948 -1.1087
 5699TIP3    H238513   0.690   0.068   0.823 -0.1107  1.2524 -2.2829
 5700TIP3   OH238514   6.068   3.462   0.506 -0.0391  0.1454 -0.1070
 5700TIP3    H138515   6.121   3.387   0.477  0.5173  0.3924  0.2396
 5700TIP3    H238516   5.983   3.449   0.464 -0.2659 -1.1888  0.6845
 5701TIP3   OH238517   3.051   2.941  10.953 -0.2782 -0.1665  1.0531
 5701TIP3    H138518   3.145   2.953  10.963 -0.1401 -0.6644  0.4437
 5701TIP3    H238519   3.038   2.929  10.859 -1.0234  0.4608  1.0639
 5702TIP3   OH238520   2.339   2.130   4.447  0.8089 -0.9135  0.1449
 5702TIP3    H138521   2.429   2.162   4.444  1.8442 -3.5982 -0.7531
 5702TIP3    H238522   2.285   2.208   4.436  3.0208  0.7155  0.1970
 5703TIP3   OH238523   2.074   6.552  17.158 -0.2578  0.0113  0.1986
 5703TIP3    H138524   2.006   6.507  17.207  0.5849 -1.8032 -0.2083
 5703TIP3    H238525   2.129   6.593  17.226 -0.3968 -0.5521  0.6604
 5704TIP3   OH238526   3.282   5.940  15.168 -0.4235  1.2002 -0.1784
 5704TIP3    H138527   3.271   6.030  15.138 -0.3421  0.9519 -0.9829
 5704TIP3    H238528   3.307   5.892  15.090 -0.1183  0.5403  0.3168
 5705TIP3   OH238529   4.193   4.363   3.033 -0.2195  0.1934  0.3618
 5705TIP3    H138530   4.192   4.442   2.978  0.5423 -0.5167 -0.6991
 5705TIP3    H238531   4.144   4.389   3.111 -1.6184  1.1346 -0.7628
 5706TIP3   OH238532   1.046   0.418   5.505  0.0959 -0.3183 -0.1646
 5706TIP3    H138533   1.036   0.482   5.434  0.2002 -0.7604 -0.5766
 5706TIP3    H238534   0.975   0.356   5.492  0.0473 -0.3427  0.1900
 5707TIP3   OH238535   5.611   5.673  15.905 -0.1635  0.3827 -0.3408
 5707TIP3    H138536   5.615   5.662  16.001  0.1635 -0.0991 -0.4060
 5707TIP3    H238537   5.518   5.687  15.887 -0.3507 -0.3783 -0.0283
 5708TIP3   OH238538   5.483   5.166  11.501 -0.1485  0.0043 -0.2798
 5708TIP3    H138539   5.504   5.133  11.588 -0.7826  0.9073  0.2343
 5708TIP3    H238540   5.434   5.095  11.460  2.8499 -1.7253 -1.1363
 5709TIP3   OH238541   4.535   5.999  15.590 -0.3612  0.3963 -0.8770
 5709TIP3    H138542   4.544   6.041  15.505 -1.9760  1.2107 -0.6806
 5709TIP3    H238543   4.493   5.915  15.571  0.0250  0.2140 -0.9474
 5710TIP3   OH238544   1.675   2.723  11.982  0.3466 -0.5898 -0.3788
 5710TIP3    H138545   1.673   2.648  12.041 -2.5415 -0.5812 -0.3173
 5710TIP3    H238546   1.676   2.685  11.894  3.9535 -0.5986 -0.4709
 5711TIP3   OH238547   4.187   4.272   5.744 -0.0315  0.2259  0.2460
 5711TIP3    H138548   4.189   4.217   5.665 -0.0586  1.0885 -0.3633
 5711TIP3    H238549   4.116   4.235   5.796  1.6824 -2.0377  1.1254
 5712TIP3   OH238550   4.309   0.368  16.774 -0.3306  0.0856 -0.0434
 5712TIP3    H138551   4.279   0.283  16.743 -1.8916  0.9173 -0.9673
 5712TIP3    H238552   4.404   0.367  16.762 -0.1364 -1.9664  1.1646
 5713TIP3   OH238553   0.291   1.745   6.409  0.0756 -0.2381 -0.0117
 5713TIP3    H138554   0.301   1.694   6.329  0.2597 -0.8250  0.3780
 5713TIP3    H238555   0.376   1.786   6.423 -0.0991  0.2476 -0.3737
 5714TIP3   OH238556   4.198   5.308   2.196  0.1923 -0.0558  0.4194
 5714TIP3    H138557   4.249   5.244   2.245 -0.3169 -1.5896 -0.9736
 5714TIP3    H238558   4.259   5.343   2.131  0.4126  0.7491  1.0447
 5715TIP3   OH238559   4.174   5.411  14.631  0.2762  1.0044 -0.5597
 5715TIP3    H138560   4.079   5.419  14.633  0.2833  1.5989 -1.8881
 5715TIP3    H238561   4.194   5.352  14.704 -0.8851  2.7607  1.2745
 5716TIP3   OH238562   1.801   1.171   1.151 -0.5217  0.0319 -0.6699
 5716TIP3    H138563   1.798   1.121   1.070 -0.2355 -1.0435 -0.0367
 5716TIP3    H238564   1.823   1.260   1.124  2.6766 -0.8989 -1.5791
 5717TIP3   OH238565   1.120   4.509   5.378  0.0130  0.4295 -0.4253
 5717TIP3    H138566   1.201   4.474   5.341  0.1709 -0.1235  0.4095
 5717TIP3    H238567   1.055   4.498   5.309  0.4868  0.2091 -0.8427
 5718TIP3   OH238568   5.276   2.725   6.193 -0.5042 -0.7527 -0.1647
 5718TIP3    H138569   5.203   2.766   6.238 -1.7674 -0.8072 -2.0615
 5718TIP3    H238570   5.351   2.781   6.212 -0.9087 -0.9135  2.1278
 5719TIP3   OH238571   3.303   2.647   5.469  0.6680 -0.0186 -0.9842
 5719TIP3    H138572   3.341   2.713   5.412 -0.6651  0.0329 -1.8542
 5719TIP3    H238573   3.247   2.696   5.529  1.7774 -0.1082  0.1560
 5720TIP3   OH238574   3.302   4.989   4.331 -0.1022 -0.3230 -0.6618
 5720TIP3    H138575   3.346   4.929   4.391  0.2912 -0.1251 -0.7524
 5720TIP3    H238576   3.372   5.023   4.276 -0.2920  0.3759 -0.4795
 5721TIP3   OH238577   5.790   4.659  11.647 -0.0521  0.0337  0.1309
 5721TIP3    H138578   5.735   4.738  11.643 -0.2704 -0.1595 -0.7804
 5721TIP3    H238579   5.811   4.639  11.556  2.1540  0.5166  0.4797
 5722TIP3   OH238580   2.659   3.432   3.673 -0.1468  0.2429  0.2411
 5722TIP3    H138581   2.739   3.463   3.631  1.2380 -2.4088  0.6608
 5722TIP3    H238582   2.599   3.416   3.600 -0.2956  2.1827 -0.0916
 5723TIP3   OH238583   6.423   5.067  12.980  0.4316  0.0274 -0.1859
 5723TIP3    H138584   6.508   5.024  12.987 -0.6306 -2.2403 -0.4511
 5723TIP3    H238585   6.419   5.099  12.890  1.0327  0.2730 -0.1302
 5724TIP3   OH238586   1.423   0.658  14.633  0.2839  0.0414 -0.3090
 5724TIP3    H138587   1.367   0.724  14.591  0.5409 -0.0160 -0.7527
 5724TIP3    H238588   1.407   0.668  14.727  2.4323  2.7093 -0.1046
 5725TIP3   OH238589   3.189   1.371   1.561 -0.3034 -0.0213  0.2399
 5725TIP3    H138590   3.230   1.423   1.492 -1.1060  0.7940  0.3650
 5725TIP3    H238591   3.100   1.405   1.567 -1.1438 -2.0130 -0.2811
 5726TIP3   OH238592   6.621   0.792  16.781  0.5166 -0.4120 -0.1498
 5726TIP3    H138593   6.616   0.785  16.876 -0.5694 -1.8043 -0.2741
 5726TIP3    H238594   6.559   0.726  16.749 -0.0036  0.8369 -1.8237
 5727TIP3   OH238595   2.472   3.833   1.290  0.2551 -0.1342  0.0245
 5727TIP3    H138596   2.513   3.772   1.229  0.8809  0.8503 -0.5804
 5727TIP3    H238597   2.407   3.880   1.238  0.2929  0.2165  0.2839
 5728TIP3   OH238598   2.599   2.441  12.621  0.7147  0.4293  0.1251
 5728TIP3    H138599   2.529   2.487  12.668  0.0291 -0.5344  0.0817
 5728TIP3    H238600   2.560   2.419  12.536  1.1519  0.0900  0.0113
 5729TIP3   OH238601   1.156   5.666  16.769 -0.2334 -0.4215  0.4293
 5729TIP3    H138602   1.182   5.613  16.844  1.0910 -1.9859 -1.0200
 5729TIP3    H238603   1.213   5.636  16.698  0.9820  3.3608 -0.4193
 5730TIP3   OH238604   4.033   6.664  15.169  0.4194 -0.1578 -0.8337
 5730TIP3    H138605   4.033   6.571  15.149 -0.3357 -0.5477  0.8421
 5730TIP3    H238606   3.951   6.697  15.132 -0.2550 -0.5730  0.2478
 5731TIP3   OH238607   0.374   1.906   5.069 -0.4050 -0.0476 -0.1007
 5731TIP3    H138608   0.356   1.990   5.027 -1.6870 -0.4928 -0.4549
 5731TIP3    H238609   0.377   1.927   5.163  0.5225  0.5968 -0.2592
 5732TIP3   OH238610   2.774   1.861   3.079  0.9507 -0.0651  0.0530
 5732TIP3    H138611   2.812   1.790   3.129 -2.2397 -1.7600  0.3214
 5732TIP3    H238612   2.744   1.924   3.144  0.4068 -0.2971  0.0246
 5733TIP3   OH238613   4.165   2.503   5.443  0.1568  0.3500  0.4797
 5733TIP3    H138614   4.164   2.527   5.350 -2.3641 -1.3595 -0.0669
 5733TIP3    H238615   4.216   2.422   5.446 -1.7209 -0.9358  0.0553
 5734TIP3   OH238616   0.108   0.704  16.725  0.5197  0.3589 -0.5592
 5734TIP3    H138617   0.162   0.751  16.789  0.0448 -2.5061  2.2086
 5734TIP3    H238618   0.023   0.749  16.727 -0.0365 -0.5829  2.2712
 5735TIP3   OH238619   4.677   2.189  12.334  0.0130 -0.0942 -0.0091
 5735TIP3    H138620   4.587   2.202  12.305  0.0608 -0.3896 -0.2912
 5735TIP3    H238621   4.670   2.124  12.404 -0.0717  0.4167  0.4623
 5736TIP3   OH238622   3.914   3.209  15.286  0.7975 -0.3711  0.2636
 5736TIP3    H138623   3.933   3.296  15.319 -0.4133  0.3101 -0.7841
 5736TIP3    H238624   3.909   3.219  15.191 -1.3982 -1.1336  0.2398
 5737TIP3   OH238625   2.469   0.192   4.138 -0.1944  0.2098  0.0248
 5737TIP3    H138626   2.386   0.192   4.090  1.0106  0.9565 -2.2533
 5737TIP3    H238627   2.513   0.111   4.109  1.0826  1.2867 -1.2599
 5738TIP3   OH238628   1.915   4.116  11.784  0.5999 -0.4962 -0.7419
 5738TIP3    H138629   1.995   4.089  11.741  2.3548 -0.7012  2.3401
 5738TIP3    H238630   1.940   4.194  11.835 -1.3902 -0.0435 -0.3630
 5739TIP3   OH238631   2.100   1.534   4.113 -0.0579  0.2391 -0.8014
 5739TIP3    H138632   2.158   1.463   4.139 -1.7634 -0.8196  0.2264
 5739TIP3    H238633   2.041   1.496   4.048 -1.6492  0.3842  0.5007
 5740TIP3   OH238634   5.470   0.555  10.752  0.1420  0.2404 -0.4578
 5740TIP3    H138635   5.402   0.489  10.743  1.4841 -1.1385 -0.8305
 5740TIP3    H238636   5.535   0.515  10.810  1.3325  0.9301 -1.2770
 5741TIP3   OH238637   1.674   6.562   5.598 -0.6071  0.6030 -0.2295
 5741TIP3    H138638   1.722   6.637   5.563 -3.0669  2.3566 -0.0373
 5741TIP3    H238639   1.625   6.528   5.524  0.9076 -1.2633 -0.4559
 5742TIP3   OH238640   0.856   3.668  13.140 -0.1465  0.1228  0.4082
 5742TIP3    H138641   0.913   3.619  13.199  0.7744 -0.9783 -1.3302
 5742TIP3    H238642   0.915   3.723  13.089 -0.9063  0.9466  0.3971
 5743TIP3   OH238643   4.672   3.396   0.394 -0.3838 -0.4635  0.5353
 5743TIP3    H138644   4.729   3.374   0.468  1.8615 -0.6011 -1.1277
 5743TIP3    H238645   4.607   3.457   0.431  2.0999  1.4089  2.1257
 5744TIP3   OH238646   2.236   4.839   1.848 -0.2862  0.5953 -0.2016
 5744TIP3    H138647   2.290   4.839   1.927 -1.9983  0.1097  1.0309
 5744TIP3    H238648   2.181   4.761   1.857 -0.8572  0.8000 -1.6562
 5745TIP3   OH238649   6.675   3.555  16.782 -0.0164 -0.0575 -0.3240
 5745TIP3    H138650   6.604   3.591  16.836  0.5619  0.6341 -0.0094
 5745TIP3    H238651   6.690   3.622  16.716 -1.2076 -1.1989 -1.8405
 5746TIP3   OH238652   3.205   4.269   1.415  0.6541 -0.0856  0.0998
 5746TIP3    H138653   3.135   4.330   1.435  1.1618  0.3107  0.7090
 5746TIP3    H238654   3.277   4.295   1.472  0.5353 -1.9052  1.1689
 5747TIP3   OH238655   4.911   0.334   6.557 -0.1867 -0.6529  0.2437
 5747TIP3    H138656   4.867   0.298   6.480 -0.9600 -0.8978  0.7893
 5747TIP3    H238657   5.000   0.354   6.527 -0.6732 -0.1130 -0.8861
 5748TIP3   OH238658   3.054   3.287   1.918 -0.1741  0.0690 -0.0365
 5748TIP3    H138659   2.984   3.341   1.881  1.6268  2.7839  0.2350
 5748TIP3    H238660   3.080   3.333   1.997  4.2088  1.2184 -1.8975
 5749TIP3   OH238661   4.489   4.612   1.066  0.8298  0.0826 -0.0488
 5749TIP3    H138662   4.540   4.532   1.057 -0.8281 -1.0351  0.0232
 5749TIP3    H238663   4.414   4.587   1.120 -0.1709  1.4481 -0.7261
 5750TIP3   OH238664   5.083   2.648   1.766 -0.5185 -0.0443  0.5633
 5750TIP3    H138665   5.127   2.583   1.711 -3.0952 -1.8655  0.4674
 5750TIP3    H238666   5.020   2.690   1.708 -2.5169 -1.2302  1.7395
 5751TIP3   OH238667   0.254   5.263  11.044 -0.4425 -0.4237  0.5636
 5751TIP3    H138668   0.217   5.331  10.988  0.1187  0.3788  1.1394
 5751TIP3    H238669   0.242   5.182  10.995 -0.0021  0.2541 -0.6926
 5752TIP3   OH238670   1.608   5.463  13.868 -0.2669  0.3461 -0.2281
 5752TIP3    H138671   1.529   5.466  13.814 -1.8662 -0.7887  1.9049
 5752TIP3    H238672   1.680   5.457  13.805 -1.7797  1.9852 -2.2791
 5753TIP3   OH238673   5.273   0.849  10.653  0.0834  0.1092 -0.1608
 5753TIP3    H138674   5.211   0.878  10.720  1.4072  0.3242  1.0098
 5753TIP3    H238675   5.268   0.915  10.585 -0.2417  0.6654  0.3909
 5754TIP3   OH238676   4.491   1.461   3.778  0.1129  0.7272 -0.3036
 5754TIP3    H138677   4.399   1.451   3.804 -0.0466  2.2863 -0.2221
 5754TIP3    H238678   4.488   1.455   3.682  0.0351  0.0219 -0.2625
 5755TIP3   OH238679   4.064   2.477   3.854  0.1754  0.2439  0.0058
 5755TIP3    H138680   4.040   2.567   3.833  0.7088  0.0703 -1.4639
 5755TIP3    H238681   4.140   2.485   3.911 -0.2822  0.7240  0.5609
 5756TIP3   OH238682   6.291   6.306  16.210 -0.3586 -0.6360 -0.0084
 5756TIP3    H138683   6.271   6.223  16.168 -1.5010 -1.3689  1.8386
 5756TIP3    H238684   6.226   6.367  16.173 -0.5856 -0.9746 -0.1766
 5757TIP3   OH238685   6.748   5.701   0.010 -0.1486  0.3366 -0.1195
 5757TIP3    H138686   6.665   5.666  -0.021  0.8339 -1.7101 -0.6426
 5757TIP3    H238687   6.790   5.738  -0.068  1.0958 -2.2592 -0.7905
 5758TIP3   OH238688   6.047   4.273  15.472 -0.1130  0.0280  0.5130
 5758TIP3    H138689   6.125   4.315  15.510 -0.6914  0.1045  1.6339
 5758TIP3    H238690   5.989   4.346  15.451  0.0979 -0.0295 -0.3367
 5759TIP3   OH238691   1.910   2.002   5.128 -0.1738  0.2315 -0.4913
 5759TIP3    H138692   1.974   1.940   5.094 -0.1930  1.0423 -2.1085
 5759TIP3    H238693   1.850   2.017   5.055  0.7023  3.2870 -0.7272
 5760TIP3   OH238694   0.530   5.828   5.159  0.2093 -0.1892  0.0456
 5760TIP3    H138695   0.438   5.819   5.134  0.6733  0.3273 -1.9990
 5760TIP3    H238696   0.577   5.838   5.076  1.9687  0.8554  1.0998
 5761TIP3   OH238697   4.829   5.500   3.332 -0.4808 -0.7116  0.2067
 5761TIP3    H138698   4.814   5.587   3.369  1.3035  0.1682 -1.0190
 5761TIP3    H238699   4.764   5.492   3.262 -2.4006 -1.4990  1.9602
 5762TIP3   OH238700   4.912   1.740  17.208  0.3865 -0.0922 -0.4068
 5762TIP3    H138701   4.824   1.702  17.213  0.6981 -0.6736  1.4304
 5762TIP3    H238702   4.897   1.833  17.190 -0.6870  0.0755  1.1576
 5763TIP3   OH238703   2.062   2.051   3.205  0.2038  0.3123 -0.6457
 5763TIP3    H138704   2.035   2.138   3.176  0.1290  0.4397 -0.1933
 5763TIP3    H238705   1.981   2.001   3.211 -0.0552  0.8917  1.3864
 5764TIP3   OH238706   6.431   5.427  12.456 -0.0317 -0.1499  0.1118
 5764TIP3    H138707   6.345   5.384  12.450  0.7215 -1.5874 -0.7068
 5764TIP3    H238708   6.483   5.368  12.511  0.2614  1.0527  1.1692
 5765TIP3   OH238709   6.052   0.522   3.735 -0.2979  0.2741  0.3387
 5765TIP3    H138710   6.062   0.605   3.688  0.7548  0.4952  0.9251
 5765TIP3    H238711   6.107   0.532   3.812  0.2622 -1.1772  0.1508
 5766TIP3   OH238712   5.264   6.019  13.846 -0.3376  0.3381 -0.5749
 5766TIP3    H138713   5.325   5.948  13.864 -1.8843 -1.0544 -0.5618
 5766TIP3    H238714   5.291   6.053  13.760  0.9225  0.3187 -0.2063
 5767TIP3   OH238715   5.958   6.186  12.416 -0.6444  0.3580  0.2132
 5767TIP3    H138716   5.875   6.199  12.462 -0.2568  0.9533  0.7563
 5767TIP3    H238717   6.008   6.266  12.433 -0.0927  0.1551 -0.4002
 5768TIP3   OH238718   4.101   1.731   5.116 -0.2059 -0.0719  0.1460
 5768TIP3    H138719   4.077   1.668   5.185  1.7072  0.1211  1.0707
 5768TIP3    H238720   4.163   1.683   5.061 -2.1686 -0.4296 -1.9086
 5769TIP3   OH238721   6.521   4.315   4.672  0.3997  0.2970  0.2610
 5769TIP3    H138722   6.586   4.383   4.654 -0.8726  1.6849  0.6353
 5769TIP3    H238723   6.444   4.343   4.622 -0.5278 -0.2268  1.3491
 5770TIP3   OH238724   1.918   4.515  16.123 -0.3444  0.1254 -0.0657
 5770TIP3    H138725   1.859   4.444  16.098 -0.9807  0.3482  0.7201
 5770TIP3    H238726   1.926   4.507  16.218 -1.0796  1.5500  0.1605
 5771TIP3   OH238727   4.858   0.924  14.859  0.1982 -0.0273  0.8504
 5771TIP3    H138728   4.813   0.978  14.794  0.8375 -1.3198 -0.7202
 5771TIP3    H238729   4.800   0.848  14.871 -0.5330  0.7572  2.7906
 5772TIP3   OH238730   1.425   2.141   0.068  0.2465  0.1573 -0.0115
 5772TIP3    H138731   1.503   2.157   0.016  0.9033 -1.7665  0.3165
 5772TIP3    H238732   1.363   2.100   0.007 -0.7738  2.1388 -0.4098
 5773TIP3   OH238733   4.296   0.127   0.260  0.4292 -0.3750  0.3113
 5773TIP3    H138734   4.372   0.184   0.246  1.7974 -1.9764  0.8253
 5773TIP3    H238735   4.288   0.122   0.355 -1.3666  1.0184  0.2889
 5774TIP3   OH238736   1.841   1.936  10.692  0.0598 -0.6923  0.0909
 5774TIP3    H138737   1.852   2.023  10.654  1.8258 -0.4705  1.0230
 5774TIP3    H238738   1.749   1.914  10.676 -0.6950  1.7697  0.7398
 5775TIP3   OH238739   2.945   1.968  15.447  0.0952  0.5228  0.3751
 5775TIP3    H138740   2.994   1.893  15.480  1.0439  0.9033 -0.1258
 5775TIP3    H238741   2.902   1.936  15.368 -0.2277  0.2679  0.6522
 5776TIP3   OH238742   0.929   3.335  15.604 -0.3953 -0.4094  0.0614
 5776TIP3    H138743   0.984   3.297  15.535 -2.2745  0.5869 -2.1171
 5776TIP3    H238744   0.986   3.399  15.647  0.4309 -0.0342 -1.5102
 5777TIP3   OH238745   5.067   1.297  13.111  0.0739 -0.0160 -0.2171
 5777TIP3    H138746   5.000   1.230  13.124  1.2450 -0.9779  1.2761
 5777TIP3    H238747   5.142   1.266  13.162  0.9787  1.9814 -0.2237
 5778TIP3   OH238748   4.123   5.285  14.399 -0.0356 -0.7549  0.9820
 5778TIP3    H138749   4.149   5.319  14.484 -0.1157  0.8203  0.4048
 5778TIP3    H238750   4.204   5.277  14.350 -0.2522  1.0979  0.2613
 5779TIP3   OH238751   6.040   0.293   0.741 -0.2237  0.1370 -0.2490
 5779TIP3    H138752   6.118   0.275   0.793 -1.0083  1.2672  1.3918
 5779TIP3    H238753   5.967   0.274   0.800 -1.1817 -0.0502 -1.4589
 5780TIP3   OH238754   6.202   3.420   3.031  0.3705  0.2176  0.3718
 5780TIP3    H138755   6.117   3.389   3.060  0.0390  0.2805 -0.4943
 5780TIP3    H238756   6.212   3.384   2.943  0.1257  2.2497 -0.5409
 5781TIP3   OH238757   2.620   3.775  16.519 -0.0320  0.0640 -0.6477
 5781TIP3    H138758   2.683   3.844  16.540 -0.8717  0.2654  1.4659
 5781TIP3    H238759   2.572   3.809  16.443  0.6376  1.0842 -0.6389
 5782TIP3   OH238760   3.290   4.066  12.612  0.0194 -0.0199 -0.1281
 5782TIP3    H138761   3.341   4.141  12.643  0.9524  0.0507 -1.6969
 5782TIP3    H238762   3.340   3.989  12.640 -0.9985 -0.0953  1.5833
 5783TIP3   OH238763   2.140   6.527  16.676  0.1908 -0.1979  0.2524
 5783TIP3    H138764   2.073   6.540  16.744 -1.2090 -1.6507 -0.7591
 5783TIP3    H238765   2.214   6.488  16.723  0.3310  1.3567  1.3860
 5784TIP3   OH238766   0.135   4.543  15.657  0.1328 -0.5896  0.3484
 5784TIP3    H138767   0.120   4.449  15.652 -0.1362 -0.4919 -1.2051
 5784TIP3    H238768   0.225   4.554  15.625 -0.1014 -0.2627 -0.2147
 5785TIP3   OH238769   0.290   5.324  12.888  0.0073  0.4858  0.4021
 5785TIP3    H138770   0.344   5.270  12.946  0.4623 -1.3826 -1.6052
 5785TIP3    H238771   0.349   5.393  12.858 -0.2165  1.4359  2.0304
 5786TIP3   OH238772   1.238   3.845  13.982  0.0070  0.8674 -0.4004
 5786TIP3    H138773   1.278   3.785  14.045 -0.2802  0.7952 -0.2863
 5786TIP3    H238774   1.153   3.867  14.021  0.3701  1.8370 -0.1299
 5787TIP3   OH238775   2.143   1.392   6.542  0.3528  0.2373  0.4095
 5787TIP3    H138776   2.087   1.468   6.528 -1.2135 -1.0341 -0.5837
 5787TIP3    H238777   2.100   1.343   6.613  1.0112 -0.0250  0.6378
 5788TIP3   OH238778   5.430   2.219   5.968 -0.5696  0.1142 -0.4276
 5788TIP3    H138779   5.411   2.206   6.061  0.1312 -1.4492 -0.4524
 5788TIP3    H238780   5.391   2.143   5.925  1.1585 -0.4558 -1.0811
 5789TIP3   OH238781   6.696   2.140  15.280  0.2084  0.0858  0.2192
 5789TIP3    H138782   6.726   2.118  15.192 -1.6048 -1.8588  0.0065
 5789TIP3    H238783   6.600   2.142  15.273  0.0401  0.3158  2.0565
 5790TIP3   OH238784   3.922   3.141   0.149  0.3410 -0.1651  0.7200
 5790TIP3    H138785   3.829   3.158   0.160  0.0758  0.8039 -2.2472
 5790TIP3    H238786   3.960   3.226   0.127  1.6799 -0.7859  0.5112
 5791TIP3   OH238787   2.461   3.402   2.708  0.4022  0.7945  0.1543
 5791TIP3    H138788   2.400   3.464   2.669  1.3136  0.7118 -1.4993
 5791TIP3    H238789   2.408   3.325   2.727  0.0603  0.4912 -1.8132
 5792TIP3   OH238790   2.985   6.067   0.109  0.3551 -0.2510  0.9939
 5792TIP3    H138791   3.027   5.983   0.123  0.6070 -0.2116  0.5004
 5792TIP3    H238792   2.908   6.065   0.165  1.2758 -0.1198  2.3149
 5793TIP3   OH238793   1.529   0.558  11.178  0.0829  0.0235 -0.0077
 5793TIP3    H138794   1.477   0.637  11.166  1.7748  0.9663 -1.8504
 5793TIP3    H238795   1.594   0.562  11.108  2.0007 -1.5670  1.5661
 5794TIP3   OH238796   6.593   6.478  16.253  0.0165  0.1677  0.4498
 5794TIP3    H138797   6.554   6.403  16.297  1.0231 -1.0099 -0.5907
 5794TIP3    H238798   6.635   6.442  16.175 -0.5696  1.9956 -0.7997
 5795TIP3   OH238799   2.229   0.331  17.059  0.2547 -0.6523 -0.2420
 5795TIP3    H138800   2.310   0.329  17.109  0.5287  2.3693 -0.4185
 5795TIP3    H238801   2.161   0.305  17.121  0.7154  1.9875  1.5288
 5796TIP3   OH238802   6.506   4.798   5.492 -0.6774 -0.3002 -1.0975
 5796TIP3    H138803   6.495   4.796   5.397 -0.3397  1.1457 -1.1873
 5796TIP3    H238804   6.564   4.724   5.511  0.9325  0.6062 -2.2821
 5797TIP3   OH238805   5.748   3.935  13.392 -0.0378 -0.0179 -0.4592
 5797TIP3    H138806   5.656   3.907  13.399  0.3528 -1.1036  0.7837
 5797TIP3    H238807   5.794   3.859  13.358  0.4602  0.3920 -0.7150
 5798TIP3   OH238808   4.638   1.321   0.020 -0.6462 -0.2287 -0.4474
 5798TIP3    H138809   4.657   1.274   0.101  0.8239 -2.5804 -2.0095
 5798TIP3    H238810   4.691   1.400   0.024  0.6886 -1.1204  0.2343
 5799TIP3   OH238811   6.375   5.421  11.465  0.1456  0.5829 -0.5864
 5799TIP3    H138812   6.391   5.509  11.500  2.5827 -0.2167  0.5970
 5799TIP3    H238813   6.429   5.417  11.386 -1.2297  0.6381 -1.5639
 5800TIP3   OH238814   4.039   3.510  11.816 -0.1557 -0.1920 -0.0956
 5800TIP3    H138815   4.108   3.444  11.825  0.6189  0.0641 -2.9760
 5800TIP3    H238816   4.064   3.559  11.738 -2.9801  0.6917 -0.5379
 5801TIP3   OH238817   2.804   4.272   2.238  0.1045  0.0602 -0.0292
 5801TIP3    H138818   2.857   4.326   2.180 -1.3154  2.4880  0.7884
 5801TIP3    H238819   2.762   4.334   2.298 -0.5939 -2.0841  1.8741
 5802TIP3   OH238820   0.904   1.802   6.359 -0.4359  0.3155 -0.2223
 5802TIP3    H138821   0.949   1.837   6.436 -2.0408 -0.3913  1.1028
 5802TIP3    H238822   0.828   1.858   6.347 -1.5766 -1.0407  0.3018
 5803TIP3   OH238823   6.086   4.752   4.456 -0.1276 -0.1826  0.1811
 5803TIP3    H138824   6.062   4.765   4.548  0.9739 -0.8610  0.5824
 5803TIP3    H238825   6.005   4.721   4.414 -0.3084 -1.1725  1.2160
 5804TIP3   OH238826   6.025   4.568   5.127  0.4736 -0.7424 -0.3255
 5804TIP3    H138827   6.118   4.587   5.114  0.4780 -1.6150 -1.6759
 5804TIP3    H238828   6.011   4.484   5.085 -0.7484 -1.0710  0.6695
 5805TIP3   OH238829   0.032   2.738  11.405 -0.5220 -0.2159 -0.4209
 5805TIP3    H138830   0.006   2.666  11.462 -0.6198 -1.4530 -1.9525
 5805TIP3    H238831   0.021   2.703  11.316  2.5008  0.5331 -1.2239
 5806TIP3   OH238832   2.861   1.059  13.430 -0.5102  0.3339 -0.1901
 5806TIP3    H138833   2.917   0.982  13.429  0.2400  0.7518 -3.8829
 5806TIP3    H238834   2.845   1.077  13.523  0.5163 -3.3090  0.8147
 5807TIP3   OH238835   0.507   2.090   3.133  0.3369  0.3226  0.0096
 5807TIP3    H138836   0.431   2.036   3.113  0.4032 -0.1842  1.0948
 5807TIP3    H238837   0.556   2.094   3.050  0.3962 -1.3635 -0.0623
 5808TIP3   OH238838   4.064   4.424   3.791  0.8050 -0.6588 -0.1348
 5808TIP3    H138839   4.042   4.456   3.704  0.9390  0.7160  0.3145
 5808TIP3    H238840   4.064   4.502   3.847 -0.7989 -1.6926  1.4352
 5809TIP3   OH238841   6.738   1.091   0.304 -0.2929  0.1670 -0.1806
 5809TIP3    H138842   6.705   1.099   0.393 -1.2891  1.1322 -0.6135
 5809TIP3    H238843   6.704   1.006   0.274  0.5265 -0.4336  0.5245
 5810TIP3   OH238844   4.887   1.966  10.247  0.0464 -0.0490 -0.5407
 5810TIP3    H138845   4.965   1.913  10.267 -1.2354 -1.9269 -0.2058
 5810TIP3    H238846   4.905   2.051  10.287  0.1989 -1.7183  3.4100
 5811TIP3   OH238847   2.221   5.314   5.216 -0.2646 -0.2811 -0.2521
 5811TIP3    H138848   2.201   5.349   5.129 -0.8807  0.0940  0.0359
 5811TIP3    H238849   2.156   5.353   5.273 -0.5481 -1.3838  0.2022
 5812TIP3   OH238850   1.132   2.120  15.171 -0.0135 -0.4383  0.6830
 5812TIP3    H138851   1.115   2.145  15.080 -0.4231 -2.4492  0.1600
 5812TIP3    H238852   1.152   2.027  15.167 -0.3291 -0.6444  2.7031
 5813TIP3   OH238853   4.525   6.027   2.184 -0.1355  0.7336  0.6163
 5813TIP3    H138854   4.472   6.100   2.218 -1.3633 -0.5224  1.5049
 5813TIP3    H238855   4.493   5.950   2.231  1.2382 -0.3728 -0.1890
 5814TIP3   OH238856   2.124   0.628   3.224  0.1308  0.4836  0.0170
 5814TIP3    H138857   2.135   0.546   3.177 -1.2745 -0.1822  0.7589
 5814TIP3    H238858   2.211   0.668   3.226  0.7379 -0.7610 -0.7641
 5815TIP3   OH238859   6.234   3.663   6.464  0.0394 -0.1429  0.1024
 5815TIP3    H138860   6.313   3.624   6.428 -0.0230 -0.0625 -0.1205
 5815TIP3    H238861   6.252   3.757   6.468 -0.6269  0.0801 -1.4563
 5816TIP3   OH238862   5.042   3.087   1.882  0.7578 -0.3832 -0.1797
 5816TIP3    H138863   4.996   3.170   1.872  0.7832 -0.3695 -0.1859
 5816TIP3    H238864   5.120   3.110   1.933  0.5743 -0.4698  0.1456
 5817TIP3   OH238865   6.425   1.881   1.984  0.4538 -0.4878 -0.1263
 5817TIP3    H138866   6.393   1.799   2.023 -0.2961 -0.8012 -1.3378
 5817TIP3    H238867   6.464   1.854   1.900  1.0168  0.2942 -0.1237
 5818TIP3   OH238868   2.575   6.087   1.712 -0.4494  0.0558  0.4721
 5818TIP3    H138869   2.570   6.080   1.807  1.7396  1.1123  0.7285
 5818TIP3    H238870   2.663   6.059   1.690 -0.5290  0.9248 -1.1171
 5819TIP3   OH238871   3.249   3.093   5.926 -0.2788 -0.3859 -0.2129
 5819TIP3    H138872   3.294   3.142   5.995 -0.0575 -0.0611 -0.5891
 5819TIP3    H238873   3.291   3.007   5.926  0.2425 -0.1301 -0.4674
 5820TIP3   OH238874   5.288   4.247   1.546  1.4979 -0.6201  0.1411
 5820TIP3    H138875   5.259   4.328   1.587  0.5497 -1.0767  0.3940
 5820TIP3    H238876   5.311   4.273   1.457 -1.9079 -0.5767 -0.8638
 5821TIP3   OH238877   0.568   1.043  16.582  0.2445  0.1144  0.8510
 5821TIP3    H138878   0.474   1.036  16.596 -0.2984  1.7053 -1.3332
 5821TIP3    H238879   0.591   0.966  16.530 -0.2848  0.7020 -0.2896
 5822TIP3   OH238880   4.653   3.313   4.287  0.0939 -0.6009  0.0726
 5822TIP3    H138881   4.713   3.355   4.349 -0.2286 -0.6231  0.3977
 5822TIP3    H238882   4.619   3.385   4.234  0.6358 -0.6223 -0.3106
 5823TIP3   OH238883   4.071   5.050  14.632 -0.0321 -0.4373 -0.1362
 5823TIP3    H138884   4.000   5.028  14.693  0.6098  0.2206  0.8928
 5823TIP3    H238885   4.042   5.017  14.547 -2.3096  1.1954 -0.0819
 5824TIP3   OH238886   2.372   3.888  12.972  0.3559  0.3632  0.0457
 5824TIP3    H138887   2.464   3.864  12.972  1.1287  2.8659  2.3559
 5824TIP3    H238888   2.346   3.885  13.064 -1.2964  1.5964 -0.3231
 5825TIP3   OH238889   5.178   2.848  13.455  0.0586  0.4960  0.2328
 5825TIP3    H138890   5.085   2.856  13.433  0.2504 -0.5723 -1.0747
 5825TIP3    H238891   5.223   2.852  13.371  1.2328  1.2129  0.8686
 5826TIP3   OH238892   2.552   0.841  12.329 -0.7001  0.5034  0.0569
 5826TIP3    H138893   2.554   0.935  12.311  0.9165  0.4554 -0.1387
 5826TIP3    H238894   2.549   0.800  12.243  2.0795  0.3626 -0.0646
 5827TIP3   OH238895   5.638   2.817  16.462 -0.3005  0.0850  0.5660
 5827TIP3    H138896   5.615   2.828  16.554 -2.2240 -1.3510  0.3432
 5827TIP3    H238897   5.581   2.746  16.432  0.9202 -0.1036 -1.5077
 5828TIP3   OH238898   5.207   3.318   0.485  0.0901  0.9789 -0.0977
 5828TIP3    H138899   5.291   3.309   0.530 -0.5536 -1.1557  0.8507
 5828TIP3    H238900   5.227   3.295   0.394  0.7663  1.8049 -0.1668
 5829TIP3   OH238901   1.254   6.277   2.845 -0.4563  0.5406  0.5129
 5829TIP3    H138902   1.255   6.346   2.778  0.7742  0.0957  0.0502
 5829TIP3    H238903   1.251   6.195   2.795  1.9060  0.1474  0.9132
 5830TIP3   OH238904   6.346   0.965   1.864 -0.7133  0.5372  0.0909
 5830TIP3    H138905   6.309   0.877   1.861  2.2351 -0.8339 -0.6996
 5830TIP3    H238906   6.311   1.010   1.787 -0.0893 -0.9987 -1.1438
 5831TIP3   OH238907   3.534   2.554   6.212  0.5048 -0.1602 -0.1818
 5831TIP3    H138908   3.627   2.574   6.225 -0.0044  1.7735  0.8420
 5831TIP3    H238909   3.498   2.546   6.301 -0.3238 -0.9411 -0.5621
 5832TIP3   OH238910   0.283   5.110  14.410 -0.2369 -0.7273 -0.0642
 5832TIP3    H138911   0.204   5.087  14.362 -0.5501 -0.0439  0.1111
 5832TIP3    H238912   0.257   5.108  14.502 -1.2651  3.5485 -0.0778
 5833TIP3   OH238913   2.622   4.569  13.716 -0.4783 -0.0450 -0.6703
 5833TIP3    H138914   2.669   4.630  13.771  0.2006 -0.1720 -1.0955
 5833TIP3    H238915   2.584   4.623  13.646 -0.0988 -0.0666 -0.8984
 5834TIP3   OH238916   1.119   1.382   1.868 -0.3262 -0.5736 -0.5587
 5834TIP3    H138917   1.101   1.424   1.784 -0.9782 -3.2077 -1.8419
 5834TIP3    H238918   1.039   1.333   1.887 -0.1696 -0.0760  1.6167
 5835TIP3   OH238919   1.479   5.398  10.247  0.5012  0.1983 -0.4828
 5835TIP3    H138920   1.386   5.416  10.254  0.3326 -0.9399  0.4505
 5835TIP3    H238921   1.511   5.397  10.338  1.6239  1.4767 -0.8176
 5836TIP3   OH238922   5.989   1.549   0.477 -0.0969 -0.2354 -0.5950
 5836TIP3    H138923   6.036   1.619   0.523 -0.2138  0.5619 -1.6377
 5836TIP3    H238924   5.920   1.595   0.429 -2.3422 -1.4133  1.3045
 5837TIP3   OH238925   1.568   6.155  15.219 -0.2996 -0.1085 -0.2007
 5837TIP3    H138926   1.596   6.113  15.300 -0.8589  0.1686  0.1396
 5837TIP3    H238927   1.607   6.101  15.150 -0.8645 -1.1022  0.2280
 5838TIP3   OH238928   3.303   4.971  16.199  0.1766  0.3531 -0.2966
 5838TIP3    H138929   3.312   4.876  16.192 -1.0157  0.3449 -2.3356
 5838TIP3    H238930   3.219   4.985  16.242  0.3908  0.5002  0.0822
 5839TIP3   OH238931   5.016   1.042  16.166  0.0584 -0.3101  0.2374
 5839TIP3    H138932   5.052   1.067  16.251  0.7843 -1.6948  0.3676
 5839TIP3    H238933   4.962   0.966  16.184 -0.5989 -0.0116 -0.4081
 5840TIP3   OH238934   3.569   0.531   6.642  0.1767 -0.0236 -0.1904
 5840TIP3    H138935   3.481   0.534   6.679  0.2127  2.9578 -0.1403
 5840TIP3    H238936   3.623   0.496   6.712 -0.6247  0.2821  0.6025
 5841TIP3   OH238937   6.305   6.517  14.404 -0.0119  0.1899  0.0499
 5841TIP3    H138938   6.339   6.437  14.363 -0.9800  0.1709 -0.7538
 5841TIP3    H238939   6.330   6.587  14.344 -2.6971  0.0031 -1.4386
 5842TIP3   OH238940   3.694   4.923   4.825 -0.6415  0.4503  0.9124
 5842TIP3    H138941   3.606   4.890   4.813 -0.8770  1.2661  0.3045
 5842TIP3    H238942   3.684   5.001   4.880 -0.5432  1.6403 -0.6903
 5843TIP3   OH238943   4.216   1.088   0.162 -0.3896  0.4747 -0.1160
 5843TIP3    H138944   4.228   1.167   0.215  0.3138  0.9492 -0.9653
 5843TIP3    H238945   4.298   1.080   0.112 -0.8900 -0.1753 -0.8463
 5844TIP3   OH238946   5.766   5.921   0.014  0.4060 -0.0555 -0.0700
 5844TIP3    H138947   5.852   5.913  -0.028 -0.1500 -0.4945 -1.1578
 5844TIP3    H238948   5.772   5.866   0.092  1.0288 -0.2741 -0.2647
 5845TIP3   OH238949   5.174   6.544  13.502 -0.4227  0.0760  0.0657
 5845TIP3    H138950   5.133   6.576  13.582 -0.5340 -0.4052  0.2066
 5845TIP3    H238951   5.181   6.449  13.515  1.7578  0.2519  0.5311
 5846TIP3   OH238952   3.086   0.967  13.721 -0.4092 -0.2541 -0.5213
 5846TIP3    H138953   2.998   0.996  13.695 -0.5972 -1.2376 -1.0389
 5846TIP3    H238954   3.114   0.910  13.649  1.1375  0.9548 -0.9221
 5847TIP3   OH238955   4.580   6.158  14.912  0.0697 -0.0822 -0.1955
 5847TIP3    H138956   4.572   6.199  14.826 -2.0455 -1.4957 -0.7489
 5847TIP3    H238957   4.675   6.152  14.926  0.4718  1.4523 -1.7521
 5848TIP3   OH238958   5.729   0.302   2.515 -0.0235  0.2435  0.6320
 5848TIP3    H138959   5.766   0.324   2.600  1.6019  0.4132 -0.0747
 5848TIP3    H238960   5.800   0.256   2.469 -0.3398  1.4076 -1.1483
 5849TIP3   OH238961   4.712   6.349  13.877 -0.2802  0.0606 -0.3365
 5849TIP3    H138962   4.663   6.267  13.886 -2.5879  1.2675 -1.0235
 5849TIP3    H238963   4.767   6.336  13.801  0.6811 -1.4188  0.5607
 5850TIP3   OH238964   3.978   0.916  12.419  0.5139 -0.2722 -0.0201
 5850TIP3    H138965   3.960   0.974  12.345 -0.1507 -1.4598 -0.8230
 5850TIP3    H238966   3.995   0.976  12.493 -1.4942  0.9430 -0.4787
 5851TIP3   OH238967   6.392   0.561   4.865  0.5001  0.3477  0.3983
 5851TIP3    H138968   6.334   0.547   4.791  0.5632 -0.8308  0.5552
 5851TIP3    H238969   6.376   0.652   4.891  1.1034  1.0703 -1.5660
 5852TIP3   OH238970   2.476   2.252   0.713 -0.2669 -0.2227  0.1383
 5852TIP3    H138971   2.428   2.204   0.781  1.9827 -1.2351  1.1452
 5852TIP3    H238972   2.563   2.212   0.713  0.5918  1.4689 -1.5978
 5853TIP3   OH238973   6.595   6.709  11.118 -0.2028  0.6619 -0.6505
 5853TIP3    H138974   6.591   6.774  11.048 -1.2967  0.6144 -0.6643
 5853TIP3    H238975   6.634   6.632  11.078  1.9561  1.5611 -0.4020
 5854TIP3   OH238976   0.333   1.604   2.304  0.3388  0.3153  0.3381
 5854TIP3    H138977   0.240   1.586   2.319  0.3206 -3.2361 -2.6665
 5854TIP3    H238978   0.378   1.544   2.364  0.5731 -0.3367 -0.4735
 5855TIP3   OH238979   0.416   3.583   1.168  0.0152  0.0626 -0.2375
 5855TIP3    H138980   0.478   3.514   1.193 -0.8140 -0.6097  0.0066
 5855TIP3    H238981   0.467   3.640   1.111  0.3161 -1.6068 -1.7431
 5856TIP3   OH238982   2.976   2.293  16.665 -0.2924 -0.6674 -0.8348
 5856TIP3    H138983   2.900   2.267  16.717  1.6632 -1.0430  2.1009
 5856TIP3    H238984   2.962   2.386  16.647 -0.5262 -0.1632  1.5820
 5857TIP3   OH238985   2.201   1.073   3.386  0.4955  0.5565 -0.2834
 5857TIP3    H138986   2.265   1.044   3.451  1.2284 -0.2694 -1.3345
 5857TIP3    H238987   2.116   1.048   3.421  1.0264 -2.0822 -0.6956
 5858TIP3   OH238988   2.129   1.240   0.843 -0.6969  0.2536  0.0135
 5858TIP3    H138989   2.158   1.328   0.818 -0.0287 -0.0873 -0.4199
 5858TIP3    H238990   2.195   1.210   0.906  0.6424 -0.9946 -1.8676
 5859TIP3   OH238991   3.246   1.169   0.325 -0.2403  0.1568  0.1077
 5859TIP3    H138992   3.171   1.142   0.271  0.6974  0.1711 -1.2358
 5859TIP3    H238993   3.323   1.137   0.278  0.6758  1.1938  0.8445
 5860TIP3   OH238994   5.103   3.146   4.002  0.1906 -0.7446 -0.5529
 5860TIP3    H138995   5.095   3.241   4.012  0.2424 -0.6674 -1.2082
 5860TIP3    H238996   5.191   3.126   4.033  0.1508 -0.5884 -0.3388
 5861TIP3   OH238997   6.037   0.014  11.720  0.2673 -0.1171  0.1014
 5861TIP3    H138998   6.005   0.085  11.776 -0.7237 -0.0371 -0.5430
 5861TIP3    H238999   6.063   0.057  11.639  4.5751  0.2365  1.3918
 5862TIP3   OH239000   6.533   6.059   4.463  0.0680  0.0087  0.6986
 5862TIP3    H139001   6.588   6.132   4.436 -0.0799  0.2478  1.0278
 5862TIP3    H239002   6.462   6.056   4.399  0.5249 -0.3794  0.2012
 5863TIP3   OH239003   0.838   0.397  13.067  0.2280 -0.4384  0.3516
 5863TIP3    H139004   0.864   0.307  13.086  0.2778 -0.0143  2.5703
 5863TIP3    H239005   0.755   0.388  13.019  1.2206 -1.6590 -1.2223
 5864TIP3   OH239006   4.952   0.664  13.785 -0.0105  0.0602 -0.3573
 5864TIP3    H139007   4.913   0.736  13.834 -1.8257  0.3503 -2.1037
 5864TIP3    H239008   4.949   0.589  13.845 -0.8263  0.7326  0.4505
 5865TIP3   OH239009   4.753   5.591  11.838  0.5885 -0.6940  0.7880
 5865TIP3    H139010   4.800   5.591  11.922  0.0767 -1.5076  1.0880
 5865TIP3    H239011   4.717   5.680  11.831 -0.4921 -0.9979  2.0871
 5866TIP3   OH239012   6.635   4.897  15.246 -0.2410 -0.1071  0.5155
 5866TIP3    H139013   6.569   4.951  15.203 -1.4416  1.0512  3.5531
 5866TIP3    H239014   6.601   4.807  15.238  0.5505 -0.2559 -2.4327
 5867TIP3   OH239015   4.774   2.467   4.766 -0.7857 -0.1700 -0.4351
 5867TIP3    H139016   4.696   2.462   4.822 -1.3243  1.3617 -1.0058
 5867TIP3    H239017   4.744   2.509   4.686  0.6019  0.3019 -0.7386
 5868TIP3   OH239018   1.473   2.421   5.072 -0.0817 -0.2168  0.1482
 5868TIP3    H139019   1.403   2.468   5.117 -1.4078 -0.5124 -1.5168
 5868TIP3    H239020   1.443   2.330   5.070  2.8368 -1.6000  4.1477
 5869TIP3   OH239021   2.130   1.031   0.329  0.3018  0.5165  0.2635
 5869TIP3    H139022   2.088   1.096   0.273  0.0273  0.3846  0.3140
 5869TIP3    H239023   2.057   0.987   0.374  0.3629 -0.8235 -0.8528
 5870TIP3   OH239024   5.868   3.820   5.779 -0.5632  0.0686  0.3387
 5870TIP3    H139025   5.774   3.810   5.793 -0.5472  0.5979  0.8317
 5870TIP3    H239026   5.890   3.906   5.815  0.2263 -0.3230  0.8196
 5871TIP3   OH239027   5.843   6.033   3.284  0.1020  0.6757  0.1237
 5871TIP3    H139028   5.799   6.032   3.369  1.2493  1.1855  0.7439
 5871TIP3    H239029   5.804   5.959   3.236 -1.2028  0.9419  0.7383
 5872TIP3   OH239030   4.721   6.029   6.536 -0.7586  0.2491 -0.3582
 5872TIP3    H139031   4.771   5.951   6.513 -0.4379  0.3650 -0.0609
 5872TIP3    H239032   4.638   5.996   6.570 -1.1501  0.0689 -1.4564
 5873TIP3   OH239033   1.227   1.683  17.355 -0.0846 -0.0555 -0.0953
 5873TIP3    H139034   1.174   1.606  17.340  0.3745 -0.4359  0.2126
 5873TIP3    H239035   1.306   1.651  17.399  0.0422  0.6030  0.1852
 5874TIP3   OH239036   4.244   4.294   6.514 -0.1949 -0.3978  0.3377
 5874TIP3    H139037   4.207   4.259   6.596 -0.7678  0.5363  0.4966
 5874TIP3    H239038   4.181   4.360   6.486  1.4468  1.4080  0.7109
 5875TIP3   OH239039   3.802   0.510   0.087  0.1196  0.0281  0.4404
 5875TIP3    H139040   3.896   0.522   0.095 -0.0234  0.8569  0.9569
 5875TIP3    H239041   3.768   0.598   0.069 -0.4539 -0.4164 -0.8016
 5876TIP3   OH239042   6.260   5.382   2.418  0.0251  0.4605  0.1879
 5876TIP3    H139043   6.243   5.443   2.490  3.5688 -0.2736  1.8256
 5876TIP3    H239044   6.340   5.415   2.377 -0.9351 -0.1512 -2.3800
 5877TIP3   OH239045   4.798   4.967   3.358  0.3890  0.6261 -0.2745
 5877TIP3    H139046   4.886   4.964   3.319  0.3332 -0.2355 -0.3500
 5877TIP3    H239047   4.785   4.879   3.394  0.8642  1.6771  2.6703
 5878TIP3   OH239048   3.241   3.838  13.455 -0.3621  0.2523  0.3028
 5878TIP3    H139049   3.303   3.885  13.511  0.1636 -0.5625  0.4189
 5878TIP3    H239050   3.157   3.847  13.500 -0.2338  0.9071  0.4242
 5879TIP3   OH239051   4.169   0.504  15.875 -0.4804 -0.3838  0.1753
 5879TIP3    H139052   4.204   0.533  15.791 -0.7998 -0.2699  0.0795
 5879TIP3    H239053   4.239   0.451  15.913  0.3158  0.9213  0.5829
 5880TIP3   OH239054   4.587   3.150   2.313 -0.1460 -0.2663  0.7008
 5880TIP3    H139055   4.512   3.209   2.312 -0.1209 -0.2070 -1.1860
 5880TIP3    H239056   4.621   3.156   2.402 -0.1152  2.6124  0.5965
 5881TIP3   OH239057   1.752   0.367   0.084  0.0811 -0.2224 -0.3235
 5881TIP3    H139058   1.696   0.440   0.058 -1.4551 -0.9632  0.8124
 5881TIP3    H239059   1.710   0.289   0.048 -0.1736 -0.8908  1.3637
 5882TIP3   OH239060   0.010   3.690  14.331  0.4802  0.1782  1.1399
 5882TIP3    H139061  -0.042   3.751  14.278  0.2859  0.2862  1.4450
 5882TIP3    H239062   0.016   3.733  14.417  1.6294  0.4670  0.9310
 5883TIP3   OH239063   4.271   5.024  12.987  0.1246 -0.2442 -0.5652
 5883TIP3    H139064   4.200   5.076  13.024  0.4143 -0.7089  0.6773
 5883TIP3    H239065   4.273   4.944  13.040  1.5162 -0.2756 -0.6231
 5884TIP3   OH239066   4.066   1.993   3.361  0.3663 -0.1928  0.1752
 5884TIP3    H139067   4.026   2.015   3.277  0.5249 -1.9087 -0.3895
 5884TIP3    H239068   4.148   1.949   3.338  1.3850  1.0443  1.2820
 5885TIP3   OH239069   0.314   6.641   0.298 -0.2907 -0.3793 -0.4115
 5885TIP3    H139070   0.409   6.632   0.303 -0.0018  2.4402  1.2991
 5885TIP3    H239071   0.280   6.562   0.339  1.4361  0.1069  2.1665
 5886TIP3   OH239072   5.892   3.388   1.680  0.4446  0.1239 -1.0681
 5886TIP3    H139073   5.955   3.328   1.720 -1.0145 -1.1243 -0.5600
 5886TIP3    H239074   5.833   3.411   1.751  1.2939  2.6928 -1.1056
 5887TIP3   OH239075   4.421   6.622  12.296 -0.6372 -0.3122 -0.8963
 5887TIP3    H139076   4.509   6.595  12.268  0.7644  2.8990 -0.1540
 5887TIP3    H239077   4.389   6.550  12.349  0.1677 -2.9225 -3.6783
 5888TIP3   OH239078   4.823   2.257   4.563 -0.1651  0.1612 -0.4850
 5888TIP3    H139079   4.832   2.318   4.636 -0.4108  0.6034 -0.8190
 5888TIP3    H239080   4.729   2.244   4.553 -0.1237 -0.0959 -0.5642
 5889TIP3   OH239081   0.622   4.220   6.378  0.0761  0.1218 -0.1059
 5889TIP3    H139082   0.555   4.247   6.441 -1.1520 -0.4328 -1.1201
 5889TIP3    H239083   0.624   4.289   6.313  0.6811  0.2523  0.0446
 5890TIP3   OH239084   5.017   6.247  12.306 -0.5320  0.4732 -0.1989
 5890TIP3    H139085   5.050   6.174  12.358  1.3702  0.5843 -1.1412
 5890TIP3    H239086   4.933   6.270  12.346 -0.0007 -0.6172  1.6481
 5891TIP3   OH239087   0.680   4.920   5.802 -0.1781  0.1503 -0.7906
 5891TIP3    H139088   0.774   4.912   5.813 -0.2354 -0.7361 -0.8709
 5891TIP3    H239089   0.658   5.004   5.843  0.3878 -0.4703  0.8760
 5892TIP3   OH239090   2.081   4.488  13.424 -0.0315 -0.4461 -0.8128
 5892TIP3    H139091   2.139   4.477  13.499 -1.4845  0.7394  0.5501
 5892TIP3    H239092   2.095   4.578  13.396 -0.3108 -0.5342 -1.2476
 5893TIP3   OH239093   4.145   1.956   2.397  0.0863  0.3125 -0.1979
 5893TIP3    H139094   4.222   1.952   2.454 -0.6666  0.0082  0.8327
 5893TIP3    H239095   4.131   2.049   2.383  0.3118  0.3909  0.0782
 5894TIP3   OH239096   5.509   6.120  12.767  0.4438  0.4449 -0.5263
 5894TIP3    H139097   5.513   6.028  12.743 -0.2928  0.3121 -0.1790
 5894TIP3    H239098   5.585   6.133  12.824  0.0349 -0.2003  0.2008
 5895TIP3   OH239099   2.250   2.131  15.696  1.2627 -0.1173 -0.0308
 5895TIP3    H139100   2.274   2.051  15.742  1.6857 -0.0763 -0.1771
 5895TIP3    H239101   2.193   2.177  15.758  1.2256 -0.4082  0.1560
 5896TIP3   OH239102   3.141   2.211  17.361  0.6603 -0.0971 -0.3322
 5896TIP3    H139103   3.149   2.124  17.399  3.5452  0.0177 -0.3910
 5896TIP3    H239104   3.102   2.265  17.430 -2.1578 -1.5720 -0.6622
 5897TIP3   OH239105   1.618   6.620  17.385  0.2053 -0.1354  0.0342
 5897TIP3    H139106   1.641   6.675  17.460 -0.0949 -0.8612  0.6685
 5897TIP3    H239107   1.555   6.557  17.420  1.2535 -1.4931 -0.4258
 5898TIP3   OH239108   0.502   4.789  14.837 -0.2649 -0.2366 -0.1585
 5898TIP3    H139109   0.415   4.762  14.866 -1.0469  1.4002 -0.8358
 5898TIP3    H239110   0.489   4.821  14.748  0.5264  2.3098  0.5595
 5899TIP3   OH239111   0.467   4.406   2.860  0.2056  0.0209 -0.3978
 5899TIP3    H139112   0.460   4.498   2.885 -0.2090 -0.5407  1.7678
 5899TIP3    H239113   0.417   4.400   2.778  0.7712  1.8127 -0.9318
 5900TIP3   OH239114   1.494   2.922   5.490 -0.5815  0.3199 -0.1604
 5900TIP3    H139115   1.437   2.971   5.431 -0.1353  1.1904  0.1315
 5900TIP3    H239116   1.478   2.830   5.467 -0.1651  0.6419 -1.8662
 5901TIP3   OH239117   3.968   2.640   6.704  0.2292  0.0343  0.1122
 5901TIP3    H139118   4.041   2.701   6.716  0.7687 -0.5508 -0.0670
 5901TIP3    H239119   4.009   2.562   6.665 -0.6346  0.0117 -0.8019
 5902TIP3   OH239120   5.537   3.329  15.404 -0.1769 -0.1712 -0.0738
 5902TIP3    H139121   5.627   3.336  15.371 -0.0645  0.4787  0.3621
 5902TIP3    H239122   5.533   3.241  15.442  0.7331  0.3114  1.2258
 5903TIP3   OH239123   3.239   4.965   6.531  0.2260 -0.1066 -0.6097
 5903TIP3    H139124   3.210   4.994   6.618  0.5493  1.0787 -0.8692
 5903TIP3    H239125   3.313   4.907   6.548 -0.5051 -0.9006 -0.0583
 5904TIP3   OH239126   5.080   5.659  14.018 -0.6881 -0.3042 -0.5743
 5904TIP3    H139127   5.063   5.591  14.084 -1.2991  1.2536  0.9562
 5904TIP3    H239128   5.173   5.681  14.030 -1.1956  1.1792  1.0427
 5905TIP3   OH239129   6.513   6.354  13.916 -0.4835 -0.2332 -0.2891
 5905TIP3    H139130   6.541   6.360  14.008 -0.4659 -1.8126 -0.1690
 5905TIP3    H239131   6.569   6.287  13.878  0.1912  1.0968 -1.7460
 5906TIP3   OH239132   5.333   5.279   0.508 -0.0441  0.2095  0.1094
 5906TIP3    H139133   5.328   5.340   0.434  1.3726  1.6742  1.1570
 5906TIP3    H239134   5.293   5.199   0.475 -1.5771  1.5462 -1.4722
 5907TIP3   OH239135   6.687   3.730   2.243  0.2533  0.0042 -0.3432
 5907TIP3    H139136   6.658   3.646   2.278  1.0238 -1.1008 -2.2074
 5907TIP3    H239137   6.752   3.761   2.306 -0.8702 -0.2172  0.9626
 5908TIP3   OH239138   0.558   0.205  16.398 -0.3153 -0.1867 -0.0515
 5908TIP3    H139139   0.618   0.280  16.397 -0.3811 -0.1380 -0.5151
 5908TIP3    H239140   0.609   0.134  16.358 -0.7684  0.0173 -1.0347
 5909TIP3   OH239141   2.041   0.253   0.717  0.3476  0.3301  0.0477
 5909TIP3    H139142   1.997   0.204   0.786 -0.2997  1.3563  0.3849
 5909TIP3    H239143   2.090   0.187   0.668  1.2125 -0.3619  1.7742
 5910TIP3   OH239144   5.008   3.098  14.199  0.3935  0.0463 -0.0184
 5910TIP3    H139145   5.071   3.155  14.154  1.0586 -0.0083  0.8100
 5910TIP3    H239146   5.007   3.131  14.289  2.0087 -2.1933  0.9071
 5911TIP3   OH239147   2.281   0.379  16.547  0.5577  0.6142 -0.0463
 5911TIP3    H139148   2.263   0.290  16.517  0.8737  0.5552 -0.0700
 5911TIP3    H239149   2.195   0.418  16.560  0.3821 -0.1286  1.2694
 5912TIP3   OH239150   5.998   1.352   0.668 -0.5960  0.4488  0.5112
 5912TIP3    H139151   6.019   1.423   0.607  2.3548 -0.1172  0.7261
 5912TIP3    H239152   5.973   1.396   0.749 -1.3041  1.1882 -0.0858
 5913TIP3   OH239153   1.838   0.593   0.401 -0.0499  0.9872 -0.5156
 5913TIP3    H139154   1.877   0.594   0.314 -3.6800  0.7857 -2.3626
 5913TIP3    H239155   1.873   0.514   0.442  1.3908  0.8161 -1.9491
 5914TIP3   OH239156   5.385   1.288  15.787  0.4484 -0.7988 -0.9524
 5914TIP3    H139157   5.418   1.199  15.796  1.3159 -0.6385 -2.2904
 5914TIP3    H239158   5.339   1.289  15.703 -2.3836 -0.7848  0.4852
 5915TIP3   OH239159   5.207   5.727  15.628  0.0493 -0.3175 -0.7759
 5915TIP3    H139160   5.142   5.784  15.669  0.5625  0.0487 -0.4517
 5915TIP3    H239161   5.287   5.780  15.625  0.3433 -0.7721 -1.1300
 5916TIP3   OH239162   0.574   5.967  15.695 -0.7222 -0.3788 -0.2905
 5916TIP3    H139163   0.496   5.999  15.740 -0.4728 -0.3161  0.1068
 5916TIP3    H239164   0.558   5.874  15.681 -1.4332 -0.1068 -1.4117
 5917TIP3   OH239165   4.369   6.089  16.874 -0.5482  0.0744  0.5739
 5917TIP3    H139166   4.334   6.000  16.883  0.5312 -0.2898  1.3214
 5917TIP3    H239167   4.387   6.097  16.780 -0.1334 -0.6982  0.5770
 5918TIP3   OH239168   0.146   1.443   2.789  0.0669 -0.2984  0.1680
 5918TIP3    H139169   0.071   1.460   2.846 -0.8282 -1.1267 -0.7238
 5918TIP3    H239170   0.123   1.362   2.743  1.5722 -0.6373 -0.0246
 5919TIP3   OH239171   3.498   5.493  16.375  0.0169 -0.0481 -0.0152
 5919TIP3    H139172   3.487   5.584  16.347 -2.5982 -0.5292 -0.7669
 5919TIP3    H239173   3.519   5.500  16.468 -2.7356  1.3383  0.6196
 5920TIP3   OH239174   0.232   5.417   2.347  0.2192 -0.3168  0.0882
 5920TIP3    H139175   0.213   5.496   2.398 -2.5126  0.1390 -1.4329
 5920TIP3    H239176   0.319   5.431   2.312  0.0070  1.8240  0.2703
 5921TIP3   OH239177   2.595   0.837  15.397 -0.7255 -0.1043 -0.4009
 5921TIP3    H139178   2.557   0.918  15.364  1.3938  1.0025 -0.3020
 5921TIP3    H239179   2.590   0.776  15.323 -2.6875 -0.0645 -0.3565
 5922TIP3   OH239180   6.713   1.740   1.390 -0.6749  0.2645  0.3069
 5922TIP3    H139181   6.761   1.762   1.470 -1.2934  0.9261  0.5055
 5922TIP3    H239182   6.771   1.768   1.319 -0.3577  0.1762  0.5277
 5923TIP3   OH239183   3.145   0.143   2.938 -0.1378 -0.0660 -0.1268
 5923TIP3    H139184   3.159   0.234   2.909 -1.1351  0.5618  1.2692
 5923TIP3    H239185   3.232   0.103   2.934  0.2098  0.7514 -1.3706
 5924TIP3   OH239186   0.466   5.298   0.653  0.5280  0.2175 -0.0294
 5924TIP3    H139187   0.453   5.309   0.558 -0.1000  1.4667  0.1805
 5924TIP3    H239188   0.554   5.261   0.660  1.1028  1.2769 -1.0681
 5925TIP3   OH239189   0.803   6.608   3.001  0.3426 -0.0059 -0.0367
 5925TIP3    H139190   0.864   6.681   2.992 -0.5852  0.7480 -0.3853
 5925TIP3    H239191   0.730   6.631   2.944  0.2532 -1.4498 -0.5399
 5926TIP3   OH239192   2.775   2.908  15.027  0.8676  0.2334  0.5738
 5926TIP3    H139193   2.781   2.920  15.122 -0.5269 -0.3791  0.7644
 5926TIP3    H239194   2.756   2.815  15.016  1.8908  0.1162 -0.3713
 5927TIP3   OH239195   0.186   6.403   5.178  0.5754  0.8083 -0.8212
 5927TIP3    H139196   0.231   6.487   5.173 -0.6654  1.6773  1.2468
 5927TIP3    H239197   0.094   6.425   5.188  0.4136 -0.6323  2.1333
 5928TIP3   OH239198   3.987   5.384  11.997  0.0046  0.0823  0.4467
 5928TIP3    H139199   3.955   5.469  12.029 -0.0726 -0.3569  1.6009
 5928TIP3    H239200   3.909   5.340  11.965 -0.3486 -0.4173  1.9219
 5929TIP3   OH239201   5.669   6.409  14.223  0.0140  0.7199  0.6563
 5929TIP3    H139202   5.730   6.482  14.234 -1.8738  2.2002  1.6960
 5929TIP3    H239203   5.688   6.351  14.297  2.0822 -0.3777 -0.6156
 5930TIP3   OH239204   4.974   6.423  16.638  0.3453 -0.0156 -0.0116
 5930TIP3    H139205   5.039   6.386  16.577 -0.0891  0.7649 -0.9610
 5930TIP3    H239206   5.013   6.505  16.668 -0.3197  0.6192 -0.8339
 5931TIP3   OH239207   0.985   0.831   0.179 -0.3291  0.1541  0.3140
 5931TIP3    H139208   0.960   0.832   0.271 -0.8474 -0.7590  0.2027
 5931TIP3    H239209   1.080   0.819   0.179 -0.3486  0.0093  0.7309
 5932TIP3   OH239210   2.514   6.629   5.861 -0.8360 -0.5022  0.1166
 5932TIP3    H139211   2.540   6.604   5.772  1.2472 -0.3837  0.6412
 5932TIP3    H239212   2.422   6.652   5.853 -0.4838  0.3882 -2.2071
 5933TIP3   OH239213   3.019   2.672   5.367 -0.3451 -0.3585  0.0959
 5933TIP3    H139214   3.075   2.703   5.438 -0.4293 -2.2181  1.0231
 5933TIP3    H239215   3.046   2.724   5.291  1.9418 -0.5044  0.7348
 5934TIP3   OH239216   0.319   1.289  15.825 -0.0507 -0.1268 -0.5817
 5934TIP3    H139217   0.348   1.350  15.757  1.7897 -0.7986 -0.4703
 5934TIP3    H239218   0.382   1.218  15.821 -0.0757 -0.3343  1.6229
 5935TIP3   OH239219   3.978   2.972   3.986  0.9195 -0.2564 -0.5771
 5935TIP3    H139220   4.025   3.054   3.968  1.6850 -0.2702  1.1526
 5935TIP3    H239221   4.004   2.914   3.915  0.9043  0.7660 -1.4583
 5936TIP3   OH239222   4.108   0.573   4.638 -0.2479  0.6998  0.2912
 5936TIP3    H139223   4.052   0.608   4.707  0.6495 -0.2482  1.5584
 5936TIP3    H239224   4.178   0.637   4.629  0.0069  0.4955  0.7754
 5937TIP3   OH239225   1.303   0.750  12.034 -0.4751 -0.0582 -0.0986
 5937TIP3    H139226   1.337   0.760  11.945 -0.0060  0.3396  0.1247
 5937TIP3    H239227   1.242   0.676  12.027  0.1563 -0.5555 -0.5745
 5938TIP3   OH239228   2.443   1.349   6.557 -0.3099 -0.2140  0.7124
 5938TIP3    H139229   2.446   1.383   6.647  0.9627 -0.3217  0.7363
 5938TIP3    H239230   2.521   1.387   6.515  0.5602 -2.2083  0.4160
 5939TIP3   OH239231   6.132   3.496  11.554  0.2859  0.4001  0.1490
 5939TIP3    H139232   6.167   3.463  11.637 -0.9566 -2.3728 -0.3196
 5939TIP3    H239233   6.181   3.449  11.487 -0.9107  0.1852 -0.5978
 5940TIP3   OH239234   4.447   5.702  13.094 -0.3475  0.4128  0.5881
 5940TIP3    H139235   4.430   5.635  13.028 -0.4539  0.1565  0.8734
 5940TIP3    H239236   4.425   5.660  13.177  0.6721  0.4180  0.8737
 5941TIP3   OH239237   5.098   1.485   4.632  0.3446  0.1305  0.1943
 5941TIP3    H139238   5.021   1.541   4.646  1.8881  1.7870  2.7652
 5941TIP3    H239239   5.169   1.546   4.612  1.1264 -1.3516 -1.9496
 5942TIP3   OH239240   4.666   3.439  14.666  0.4801 -0.2277  0.6902
 5942TIP3    H139241   4.593   3.453  14.606  0.3126 -0.8574  0.7421
 5942TIP3    H239242   4.709   3.524  14.672  0.1183 -0.0071  0.1757
 5943TIP3   OH239243   5.541   2.001   4.181  0.2348 -0.0554 -0.1533
 5943TIP3    H139244   5.534   1.990   4.275 -1.5080 -1.5340 -0.3966
 5943TIP3    H239245   5.556   1.913   4.147  0.1744  0.3550 -1.2933
 5944TIP3   OH239246   5.682   5.745  16.557 -0.0292 -0.8296 -0.4174
 5944TIP3    H139247   5.659   5.663  16.602  1.1691 -0.1760  1.5355
 5944TIP3    H239248   5.597   5.784  16.534 -0.6755 -1.6617  0.4404
 5945TIP3   OH239249   0.534   0.741  17.277  0.1881 -0.1987 -0.1391
 5945TIP3    H139250   0.601   0.773  17.337 -1.9401  2.1598  1.1745
 5945TIP3    H239251   0.509   0.818  17.226 -0.9978 -1.1857 -1.1044
 5946TIP3   OH239252   5.476   3.557   0.324 -0.4978  0.3272  0.0311
 5946TIP3    H139253   5.489   3.495   0.395 -0.2834 -1.0819 -1.2035
 5946TIP3    H239254   5.482   3.643   0.366  0.2476 -0.4519  1.5921
 5947TIP3   OH239255   5.538   3.441  11.164 -0.1439  0.0233  0.1205
 5947TIP3    H139256   5.571   3.486  11.086  0.2950 -1.1608 -0.3904
 5947TIP3    H239257   5.443   3.446  11.155 -0.2346  3.1535  1.4266
 5948TIP3   OH239258   6.626   1.392   6.030 -0.1252  0.1542 -0.2614
 5948TIP3    H139259   6.546   1.444   6.033 -1.0824 -1.2803  0.1462
 5948TIP3    H239260   6.639   1.361   6.119  1.1048  0.6468 -0.2465
 5949TIP3   OH239261   6.275   0.791  16.108  0.4641 -0.0329 -0.1623
 5949TIP3    H139262   6.274   0.734  16.031 -0.3585 -1.4158  0.8116
 5949TIP3    H239263   6.357   0.839  16.102  0.5382 -0.3272 -1.7489
 5950TIP3   OH239264   5.746   1.521   3.906  0.0846 -0.0332 -0.9554
 5950TIP3    H139265   5.699   1.602   3.924  0.9123  0.2988 -0.2555
 5950TIP3    H239266   5.838   1.545   3.906  0.5738 -1.4674  2.2896
 5951TIP3   OH239267   6.278   4.924   4.733  0.3903  0.7506 -0.3466
 5951TIP3    H139268   6.208   4.980   4.767 -0.3281 -0.4963  0.2998
 5951TIP3    H239269   6.354   4.946   4.785  0.1028  1.0681 -0.0531
 5952TIP3   OH239270   4.010   2.063  16.872 -0.1027 -0.0747 -0.0251
 5952TIP3    H139271   4.025   2.155  16.854  1.0900 -0.7356 -2.9434
 5952TIP3    H239272   4.063   2.045  16.950  2.5065  0.9958 -1.4299
 5953TIP3   OH239273   1.538   4.625   0.271 -0.1990 -0.1589 -0.5459
 5953TIP3    H139274   1.619   4.576   0.261  0.9958  1.7047 -0.4803
 5953TIP3    H239275   1.563   4.705   0.318 -2.2896 -0.0690  0.5379
 5954TIP3   OH239276   5.032   5.669   1.191 -0.1892  0.0224  0.9688
 5954TIP3    H139277   4.973   5.634   1.124  0.0818 -0.8590  1.1716
 5954TIP3    H239278   5.015   5.615   1.268 -0.5422  1.0693  1.6361
 5955TIP3   OH239279   2.278   3.852  10.957  0.6703 -0.0959 -0.3746
 5955TIP3    H139280   2.273   3.871  10.864  0.5711 -1.7162 -0.7248
 5955TIP3    H239281   2.262   3.758  10.964  1.6964 -0.2014  1.1792
 5956TIP3   OH239282   1.010   6.745  12.256  0.0285 -0.6516 -0.0144
 5956TIP3    H139283   1.028   6.829  12.214 -0.7652 -0.5175 -0.1020
 5956TIP3    H239284   1.021   6.762  12.349  3.5439 -1.3694 -0.1556
 5957TIP3   OH239285   6.596   2.784   6.356  0.3149  0.5371 -0.0256
 5957TIP3    H139286   6.564   2.870   6.385  0.4810  0.3988  0.5793
 5957TIP3    H239287   6.690   2.787   6.372  0.0337 -0.5843  2.2009
 5958TIP3   OH239288   4.463   5.058   0.849  0.4572  0.3095  0.3182
 5958TIP3    H139289   4.419   5.011   0.778 -1.6921  1.6012  0.6805
 5958TIP3    H239290   4.456   4.999   0.924  0.5488 -0.0680  0.0333
 5959TIP3   OH239291   0.666   2.633  11.038 -0.1076 -0.1604 -0.0528
 5959TIP3    H139292   0.595   2.680  11.081  0.3779  0.6947 -0.1609
 5959TIP3    H239293   0.699   2.572  11.104 -2.0648 -1.8299 -0.5450
 5960TIP3   OH239294   4.131   2.985  14.657 -0.9912 -0.3077 -0.6034
 5960TIP3    H139295   4.110   2.895  14.632  0.4996 -0.3168 -2.0252
 5960TIP3    H239296   4.226   2.984  14.673 -0.9960  0.9549 -0.3905
 5961TIP3   OH239297   2.733   0.811  11.816  0.3918  0.2777 -0.0247
 5961TIP3    H139298   2.736   0.827  11.721  0.5900  1.3433  0.1404
 5961TIP3    H239299   2.808   0.860  11.850 -0.0421  0.4079  0.7478
 5962TIP3   OH239300   3.782   1.055   1.111  0.1271  0.2563 -0.3789
 5962TIP3    H139301   3.824   1.124   1.161 -1.8154  2.6404 -1.7578
 5962TIP3    H239302   3.707   1.028   1.164 -1.2119  1.9051 -1.3081
 5963TIP3   OH239303   2.335   3.890  16.432 -0.1751 -0.3412  0.1273
 5963TIP3    H139304   2.314   3.818  16.372  0.1485 -2.0448  1.9216
 5963TIP3    H239305   2.289   3.867  16.513  1.0736  0.7597  1.1904
 5964TIP3   OH239306   2.935   5.563  14.920  0.4071  0.5878 -0.5005
 5964TIP3    H139307   2.858   5.517  14.952 -2.0928  3.2033 -2.2375
 5964TIP3    H239308   2.967   5.612  14.996 -0.5316  0.5531 -0.0714
 5965TIP3   OH239309   5.013   3.711   0.421  0.5590  0.1000 -0.1416
 5965TIP3    H139310   5.002   3.649   0.348  0.2157  0.4288 -0.3733
 5965TIP3    H239311   4.934   3.701   0.473  0.1355  0.9042 -0.6138
 5966TIP3   OH239312   3.784   2.225   2.514  0.1038 -0.6318 -0.6002
 5966TIP3    H139313   3.797   2.319   2.525 -0.0087 -0.5847 -0.8385
 5966TIP3    H239314   3.734   2.198   2.591  0.0728 -0.4807 -0.5671
 5967TIP3   OH239315   1.271   1.969  17.315 -0.2396  0.2802 -0.2487
 5967TIP3    H139316   1.255   1.879  17.289  0.4286 -0.0957  0.6224
 5967TIP3    H239317   1.202   2.019  17.270 -0.8593 -0.6995 -0.4168
 5968TIP3   OH239318   6.440   6.336   0.144  0.1952 -0.2028 -0.5644
 5968TIP3    H139319   6.436   6.289   0.061 -0.6944 -1.0246 -0.0732
 5968TIP3    H239320   6.531   6.366   0.150  0.0209  0.8693 -2.3627
 5969TIP3   OH239321   0.475   6.603  13.242  0.4177 -0.3500  0.9104
 5969TIP3    H139322   0.530   6.621  13.165  1.8767 -2.1379  1.4787
 5969TIP3    H239323   0.436   6.517  13.224 -0.0135 -0.3362  1.7406
 5970TIP3   OH239324   5.882   0.338  13.551  0.1847  0.2795  0.1651
 5970TIP3    H139325   5.845   0.313  13.466  0.8566  0.2704 -0.1299
 5970TIP3    H239326   5.826   0.295  13.616 -1.7608  2.1443 -0.1805
 5971TIP3   OH239327   3.177   1.286   2.096  0.1077  0.3657  0.1527
 5971TIP3    H139328   3.162   1.251   2.008  0.5110 -2.2259  1.0390
 5971TIP3    H239329   3.272   1.296   2.101  0.2104 -0.7931  0.7258
 5972TIP3   OH239330   3.401   2.027  15.826 -1.0663 -0.2541 -0.3917
 5972TIP3    H139331   3.335   2.080  15.783  0.3048  1.1894 -0.7927
 5972TIP3    H239332   3.459   1.999  15.755 -0.5813 -0.5268  0.1064
 5973TIP3   OH239333   1.128   1.092   0.557  0.2290 -0.5776  0.3221
 5973TIP3    H139334   1.134   1.086   0.652 -1.3248  2.1069  0.6924
 5973TIP3    H239335   1.103   1.004   0.528 -2.0800 -0.8149  2.7181
 5974TIP3   OH239336   5.609   5.375  14.790  0.4893 -0.4877 -0.3796
 5974TIP3    H139337   5.620   5.449  14.850  1.3141 -1.5524  0.8414
 5974TIP3    H239338   5.526   5.335  14.817  0.1556 -0.1498 -0.8921
 5975TIP3   OH239339   1.229   5.167  15.524  0.2835  0.4006 -0.1096
 5975TIP3    H139340   1.146   5.170  15.571  0.1268  1.1730 -0.4181
 5975TIP3    H239341   1.262   5.257  15.528  0.8762  0.2016 -0.3961
 5976TIP3   OH239342   5.909   0.987   5.372  0.1092  0.3935  0.2705
 5976TIP3    H139343   5.909   1.082   5.360 -1.2602  0.4195  0.3107
 5976TIP3    H239344   5.993   0.958   5.337  0.4881  1.6009  0.1425
 5977TIP3   OH239345   6.345   3.338   0.823  0.1080  0.4295  0.4146
 5977TIP3    H139346   6.435   3.306   0.826  0.2995  1.0268  1.3185
 5977TIP3    H239347   6.292   3.263   0.848  0.1987 -0.3825 -1.5873
 5978TIP3   OH239348   1.615   4.242  14.302  0.2814 -0.3654 -0.4076
 5978TIP3    H139349   1.566   4.160  14.305  1.8929 -1.4869 -2.2999
 5978TIP3    H239350   1.619   4.264  14.209  2.1930  0.3720 -0.2042
 5979TIP3   OH239351   3.618   4.033   1.818  0.1945  0.3625 -0.2707
 5979TIP3    H139352   3.697   4.069   1.860 -1.0602  1.1971  1.5126
 5979TIP3    H239353   3.600   4.094   1.746  0.9212  0.4330 -0.3979
 5980TIP3   OH239354   4.432   3.231   0.874  0.3247 -0.1421 -0.2012
 5980TIP3    H139355   4.473   3.292   0.814  0.0778 -1.5475 -1.8796
 5980TIP3    H239356   4.339   3.252   0.872 -0.1278 -1.9284 -2.6021
 5981TIP3   OH239357   0.330   2.939  15.329  0.5215 -0.0743  0.4749
 5981TIP3    H139358   0.271   3.013  15.317 -0.2895 -1.0311 -2.2219
 5981TIP3    H239359   0.416   2.971  15.301  0.3908  0.1707  0.3532
 5982TIP3   OH239360   5.148   4.561   6.980 -0.0627 -0.5377 -0.7122
 5982TIP3    H139361   5.202   4.482   6.986  0.9492  0.0191 -2.0183
 5982TIP3    H239362   5.065   4.530   6.945  0.4305 -0.9933 -1.5129
 5983TIP3   OH239363   4.354   4.909   6.389 -0.4746  0.7982  0.0450
 5983TIP3    H139364   4.380   4.985   6.442  0.8183 -1.2180  2.5132
 5983TIP3    H239365   4.259   4.905   6.400 -0.2575  0.4041  2.4703
 5984TIP3   OH239366   4.727   0.396  12.354  0.7126 -0.2311  0.2292
 5984TIP3    H139367   4.667   0.395  12.427 -1.2120 -0.4128 -1.2817
 5984TIP3    H239368   4.791   0.327  12.374 -0.6641 -1.3258  1.0411
 5985TIP3   OH239369   0.800   5.000   4.150 -0.2261 -0.2240  0.2500
 5985TIP3    H139370   0.879   5.054   4.158  0.4564 -0.8877 -1.3734
 5985TIP3    H239371   0.728   5.059   4.170  0.5201  1.2413 -1.1243
 5986TIP3   OH239372   6.322   1.004  12.304 -0.1213  0.8248  0.0896
 5986TIP3    H139373   6.387   1.030  12.369  0.5762  2.4406 -1.1735
 5986TIP3    H239374   6.366   0.935  12.253 -0.7197 -0.5431  1.3364
 5987TIP3   OH239375   2.394   4.971   4.039 -0.3778 -0.0193 -0.5813
 5987TIP3    H139376   2.392   5.030   3.963 -3.4550 -0.8953 -1.3202
 5987TIP3    H239377   2.482   4.983   4.076  0.1684  2.7494 -2.4311
 5988TIP3   OH239378   0.929   4.106   3.845 -0.2992 -0.0037  0.5395
 5988TIP3    H139379   0.880   4.027   3.823  0.4034 -0.2384 -0.1966
 5988TIP3    H239380   0.869   4.178   3.824  0.3986 -0.1785 -2.4620
 5989TIP3   OH239381   5.049   1.890   1.331 -0.0596 -0.5510  0.2438
 5989TIP3    H139382   5.102   1.904   1.409 -0.6059 -1.5660  0.8218
 5989TIP3    H239383   5.111   1.860   1.265  0.3364 -0.1505  0.4275
 5990TIP3   OH239384   0.194   3.707  12.541  0.2599  0.5142  0.0060
 5990TIP3    H139385   0.248   3.772  12.494  1.3790  1.5390  2.5254
 5990TIP3    H239386   0.258   3.649  12.582 -0.6781 -0.3792  0.2240
 5991TIP3   OH239387   6.049   5.951  17.362  0.3673  0.6173  0.1503
 5991TIP3    H139388   6.002   5.879  17.319  0.4493  0.9995 -0.5875
 5991TIP3    H239389   6.140   5.921  17.365  0.2150  0.2203  0.8502
 5992TIP3   OH239390   2.074   3.039  12.130 -0.0717  0.2447 -0.3313
 5992TIP3    H139391   2.154   3.003  12.169 -0.3620  1.9454  2.0187
 5992TIP3    H239392   2.019   2.963  12.113  1.4782 -0.8417 -0.7255
 5993TIP3   OH239393   2.956   2.669   3.834  0.2810 -0.4481  0.0937
 5993TIP3    H139394   2.934   2.687   3.925 -0.0857 -2.9645  0.5730
 5993TIP3    H239395   2.879   2.625   3.799  1.3582 -1.7964 -0.6788
 5994TIP3   OH239396   2.577   4.881  12.314  0.1925  0.4103  0.6003
 5994TIP3    H139397   2.509   4.902  12.251  1.4992 -4.3736 -3.0218
 5994TIP3    H239398   2.657   4.918  12.276  0.6389 -0.3147  0.8193
 5995TIP3   OH239399   1.411   4.333  11.587 -0.0926 -0.2384  0.2841
 5995TIP3    H139400   1.489   4.340  11.531  0.1673  0.3413  0.7140
 5995TIP3    H239401   1.436   4.269  11.654  0.1285  0.1792  0.6034
 5996TIP3   OH239402   6.042   1.366  12.436  0.2958  0.3165  0.4677
 5996TIP3    H139403   6.105   1.303  12.401  1.5878  1.3871  0.7593
 5996TIP3    H239404   6.014   1.416  12.359  3.6196  3.0976  0.7933
 5997TIP3   OH239405   1.352   6.218  17.226  0.3241  0.6197 -0.5870
 5997TIP3    H139406   1.347   6.129  17.192 -0.9133  0.3243  0.2952
 5997TIP3    H239407   1.315   6.212  17.314 -1.3960  2.3059 -1.1280
 5998TIP3   OH239408   6.330   1.984  12.967  0.1263  0.5243 -0.3034
 5998TIP3    H139409   6.339   1.903  13.017  1.5755  0.0594 -1.2649
 5998TIP3    H239410   6.236   1.991  12.951  0.0744 -1.8159 -1.5091
 5999TIP3   OH239411   0.407   5.410   2.113  0.2693 -0.3862 -0.5728
 5999TIP3    H139412   0.325   5.455   2.096  0.0283 -1.1674 -1.5971
 5999TIP3    H239413   0.474   5.465   2.071  0.0579 -0.6361 -1.2405
 6000TIP3   OH239414   6.137   6.507   3.063 -0.2044 -0.1713 -0.6387
 6000TIP3    H139415   6.167   6.480   3.150  0.6417  2.3490 -0.0646
 6000TIP3    H239416   6.042   6.496   3.067 -0.0490 -1.3989  0.1061
 6001TIP3   OH239417   3.101   1.156   1.330  0.3508  0.1921  0.2998
 6001TIP3    H139418   3.075   1.107   1.408  0.5997 -0.8454 -0.2620
 6001TIP3    H239419   3.194   1.136   1.319  0.3061  0.3060 -0.2866
 6002TIP3   OH239420   6.486   6.131  12.760  0.1358  0.2054 -0.3116
 6002TIP3    H139421   6.538   6.209  12.741  0.3538  0.0400 -0.3989
 6002TIP3    H239422   6.550   6.059  12.762  0.0602  0.1526  0.6278
 6003TIP3   OH239423   3.389   0.364  14.266 -0.1248 -0.2490 -0.0712
 6003TIP3    H139424   3.409   0.271  14.277  1.0099 -0.3412 -2.3230
 6003TIP3    H239425   3.382   0.397  14.356  1.0368 -2.1813  0.8136
 6004TIP3   OH239426   4.914   4.301   4.984  0.0012  0.2161 -0.1252
 6004TIP3    H139427   4.977   4.297   4.912 -1.8269 -0.6773 -1.7676
 6004TIP3    H239428   4.885   4.210   4.995  0.0085  0.3936  1.5503
 6005TIP3   OH239429   6.165   4.024   0.943  0.0947  0.4090 -0.1981
 6005TIP3    H139430   6.107   4.026   0.867 -0.7145 -0.7132  0.3590
 6005TIP3    H239431   6.224   3.950   0.925 -0.6067 -0.3700  0.5859
 6006TIP3   OH239432   1.789   3.683   1.267 -0.1438  0.3202  0.1884
 6006TIP3    H139433   1.784   3.590   1.246  0.5488  0.1921  0.5466
 6006TIP3    H239434   1.827   3.685   1.355 -1.6677  0.8901  0.8553
 6007TIP3   OH239435   4.779   4.801  16.301 -0.3524 -0.7995  0.4917
 6007TIP3    H139436   4.687   4.779  16.313 -0.9991  0.5150 -1.4985
 6007TIP3    H239437   4.804   4.758  16.219  0.7027 -0.8147  0.8041
 6008TIP3   OH239438   0.498   0.378  11.456  0.1202 -0.0653  0.7115
 6008TIP3    H139439   0.544   0.366  11.373  2.2317  0.1685  1.7712
 6008TIP3    H239440   0.422   0.320  11.450 -0.5726  0.9844 -1.8866
 6009TIP3   OH239441   2.417   3.924   1.535  0.2168 -0.1773 -1.1058
 6009TIP3    H139442   2.374   3.842   1.560 -1.2062  0.5676 -1.0300
 6009TIP3    H239443   2.447   3.908   1.445  0.2523 -0.8860 -0.9778
 6010TIP3   OH239444   0.881   6.698  15.789 -0.6217 -0.2671 -0.4277
 6010TIP3    H139445   0.878   6.639  15.714  1.8850 -1.2261  0.1435
 6010TIP3    H239446   0.894   6.640  15.864  2.2348  0.9296  0.1232
 6011TIP3   OH239447   2.364   3.710  15.315 -0.5910 -0.2045 -0.6475
 6011TIP3    H139448   2.381   3.804  15.322  0.0655 -0.4308  1.5347
 6011TIP3    H239449   2.269   3.703  15.314 -0.7189  0.3922  2.0421
 6012TIP3   OH239450   6.711   2.930   3.748  0.2477 -0.0568  0.1601
 6012TIP3    H139451   6.678   2.997   3.688 -0.5038 -0.4325  0.1481
 6012TIP3    H239452   6.712   2.973   3.833 -0.7693 -0.1955  0.2507
 6013TIP3   OH239453   4.161   6.317   2.977 -0.5557  0.2606  0.6310
 6013TIP3    H139454   4.234   6.331   3.038  0.6372  0.0239 -0.6714
 6013TIP3    H239455   4.104   6.255   3.021  0.0455  0.4294  1.6883
 6014TIP3   OH239456   1.292   3.764   3.303 -0.6635  0.6539 -0.0072
 6014TIP3    H139457   1.258   3.839   3.351 -2.3953  0.2513 -0.5029
 6014TIP3    H239458   1.387   3.776   3.301 -0.7522  1.7959  1.5895
 6015TIP3   OH239459   3.504   0.861   3.023 -0.3140  0.1075  0.3243
 6015TIP3    H139460   3.496   0.807   3.101 -0.0954  1.5707  1.3945
 6015TIP3    H239461   3.421   0.908   3.018  0.3965  1.4952  0.8532
 6016TIP3   OH239462   2.757   0.076   4.914  0.5952 -0.1859 -0.1781
 6016TIP3    H139463   2.672   0.120   4.902  0.1747 -0.8587  0.2426
 6016TIP3    H239464   2.783   0.049   4.826 -0.9108 -2.2556 -0.0775
 6017TIP3   OH239465   2.597   4.750   3.393  0.5930  0.4114 -0.1791
 6017TIP3    H139466   2.661   4.715   3.455 -0.9641 -0.3913  1.0456
 6017TIP3    H239467   2.587   4.842   3.417 -1.0190 -0.2025  1.7664
 6018TIP3   OH239468   2.999   3.938  13.126 -0.5383 -0.2697  0.3310
 6018TIP3    H139469   3.056   3.862  13.129  0.7427  0.6528  2.4540
 6018TIP3    H239470   2.930   3.919  13.190 -0.2048  0.3299  0.8824
 6019TIP3   OH239471   0.806   4.147   5.349 -0.4195  0.3305  0.3224
 6019TIP3    H139472   0.769   4.085   5.412  1.8554 -0.1090  1.3179
 6019TIP3    H239473   0.889   4.108   5.323 -0.0636  1.8138 -0.8965
 6020TIP3   OH239474   1.611   1.790  14.499  0.1117  0.2005 -0.2298
 6020TIP3    H139475   1.534   1.740  14.475 -1.4052  1.7025  1.2026
 6020TIP3    H239476   1.684   1.728  14.491 -1.4846 -1.8519  0.2923
 6021TIP3   OH239477   0.465   4.662   2.948 -0.3854 -0.5138 -0.6705
 6021TIP3    H139478   0.435   4.609   3.022  0.1974 -1.8085 -1.3175
 6021TIP3    H239479   0.554   4.689   2.972 -0.8682  0.6629 -0.1138
 6022TIP3   OH239480   4.249   0.590  16.553 -0.0221  0.3846  0.2967
 6022TIP3    H139481   4.267   0.526  16.485 -0.2617  2.1913 -1.5584
 6022TIP3    H239482   4.170   0.559  16.596 -0.2026 -0.4949 -0.6466
 6023TIP3   OH239483   4.068   0.601  13.540  0.0995 -0.1826 -0.0373
 6023TIP3    H139484   3.991   0.572  13.589 -0.1356 -0.4800 -0.5758
 6023TIP3    H239485   4.109   0.667  13.597 -2.1543  2.1500 -0.9106
 6024TIP3   OH239486   1.640   1.451   1.812  0.0157  0.3670  0.3637
 6024TIP3    H139487   1.692   1.470   1.891  0.9545  0.5463 -0.2775
 6024TIP3    H239488   1.556   1.494   1.828 -0.2310 -0.5785  1.7611
 6025TIP3   OH239489   0.030   3.562  13.831 -0.1317 -0.3587  0.2140
 6025TIP3    H139490  -0.020   3.630  13.784 -0.1981 -1.2917 -1.1329
 6025TIP3    H239491  -0.018   3.550  13.913 -0.2852  1.0015  0.3567
 6026TIP3   OH239492   1.912   3.264   1.894  0.0471 -0.0370  0.1897
 6026TIP3    H139493   2.004   3.270   1.870 -0.4384  0.1334 -1.7997
 6026TIP3    H239494   1.895   3.170   1.899  0.0232 -0.1006 -0.8369
 6027TIP3   OH239495   0.717   3.886  16.778  0.5445  0.5233 -0.4969
 6027TIP3    H139496   0.785   3.819  16.789  0.9861  0.6823 -2.1037
 6027TIP3    H239497   0.678   3.867  16.693 -1.6212  0.2998  0.4877
 6028TIP3   OH239498   6.013   5.450  15.141 -0.1139  0.6159  0.0900
 6028TIP3    H139499   5.964   5.524  15.176 -0.4408  0.9095 -0.9661
 6028TIP3    H239500   6.105   5.476  15.148 -0.2668  1.6270 -1.3596
 6029TIP3   OH239501   0.111   0.390  14.256  0.0067 -0.0937 -0.0914
 6029TIP3    H139502   0.188   0.344  14.224  0.6003 -0.7556  2.1114
 6029TIP3    H239503   0.046   0.379  14.187  1.4328 -0.7137 -1.3858
 6030TIP3   OH239504   2.166   0.514  15.485  0.3683  0.0201  0.2865
 6030TIP3    H139505   2.160   0.544  15.394 -0.7218 -2.1695 -0.4170
 6030TIP3    H239506   2.179   0.595  15.535 -0.0903  1.4054 -1.6898
 6031TIP3   OH239507   0.165   2.118   4.930  0.2318  0.5990 -0.9513
 6031TIP3    H139508   0.103   2.050   4.902 -0.4130  0.7661  0.0036
 6031TIP3    H239509   0.109   2.188   4.965  0.9709  0.2200  1.1152
 6032TIP3   OH239510   2.799   2.946   3.302 -0.1397  0.2149 -0.2612
 6032TIP3    H139511   2.797   2.947   3.206 -0.0832  0.0084 -0.2665
 6032TIP3    H239512   2.849   2.867   3.323 -0.9487 -0.2505 -0.0538
 6033TIP3   OH239513   6.203   5.936  11.954  0.8981 -0.0105 -0.4201
 6033TIP3    H139514   6.139   5.996  11.991  1.5263 -0.3643  1.3536
 6033TIP3    H239515   6.262   5.992  11.904 -0.3182  0.4091 -1.4430
 6034TIP3   OH239516   5.652   6.690  11.462  0.1814  0.0051  0.5277
 6034TIP3    H139517   5.559   6.664  11.461  0.5515 -1.3820 -0.2090
 6034TIP3    H239518   5.679   6.676  11.553  0.4590 -2.7272  0.1054
 6035TIP3   OH239519   3.646   0.920  12.484 -0.2856 -0.2091  0.0806
 6035TIP3    H139520   3.565   0.963  12.511 -0.2603 -1.1332  1.7779
 6035TIP3    H239521   3.693   0.986  12.434 -1.1348  1.0448  0.8879
 6036TIP3   OH239522   3.868   2.709   3.227  0.4520 -0.4282  0.0848
 6036TIP3    H139523   3.845   2.744   3.313  2.5921 -3.5135  2.1304
 6036TIP3    H239524   3.785   2.696   3.183 -1.0321 -1.4838  2.9223
 6037TIP3   OH239525   4.580   0.177   1.616  0.0372 -0.2457  0.6139
 6037TIP3    H139526   4.507   0.208   1.563  0.2719 -1.4455 -0.4787
 6037TIP3    H239527   4.541   0.111   1.674  0.1852 -0.7258  0.1834
 6038TIP3   OH239528   4.244   2.949   0.303  0.2336  0.0647 -0.0898
 6038TIP3    H139529   4.179   2.880   0.287  1.9391 -1.3400 -1.2964
 6038TIP3    H239530   4.203   3.005   0.370 -1.0592 -2.3210  1.2575
 6039TIP3   OH239531   4.170   3.770  13.971 -0.2232  0.0648  0.2248
 6039TIP3    H139532   4.158   3.676  13.978  1.3186 -0.1293  0.6307
 6039TIP3    H239533   4.146   3.804  14.057 -1.3037  0.1178 -0.0883
 6040TIP3   OH239534   2.491   2.885  12.796 -0.3624  0.0022  0.7113
 6040TIP3    H139535   2.425   2.820  12.776 -0.0503  0.1934 -1.0931
 6040TIP3    H239536   2.455   2.935  12.869 -1.5997 -0.7347  0.6219
 6041TIP3   OH239537   5.146   6.166  12.831 -0.3578  0.4732  0.1970
 6041TIP3    H139538   5.149   6.082  12.877 -1.1041 -0.1545 -0.8658
 6041TIP3    H239539   5.108   6.226  12.895 -0.3898 -0.1280  0.7615
 6042TIP3   OH239540   4.909   0.566   1.300 -0.3406  0.0799  0.2382
 6042TIP3    H139541   4.931   0.478   1.269  0.1521  0.2574  0.0807
 6042TIP3    H239542   4.879   0.612   1.222 -3.1508 -0.7049  0.7276
 6043TIP3   OH239543   0.534   4.926   0.271 -0.4793  0.2491  0.4307
 6043TIP3    H139544   0.486   5.008   0.280 -0.6829  0.2523 -0.6337
 6043TIP3    H239545   0.610   4.937   0.328 -0.5314  1.1517  0.3462
 6044TIP3   OH239546   5.133   2.032  14.645  0.0383 -0.9180 -0.2727
 6044TIP3    H139547   5.219   2.019  14.605  0.6754 -0.7374  1.0153
 6044TIP3    H239548   5.111   1.948  14.685  1.3903  0.0171  2.7176
 6045TIP3   OH239549   6.336   2.336  14.526 -0.1755  0.1153 -0.1065
 6045TIP3    H139550   6.258   2.369  14.480  0.6600 -0.9737 -2.5122
 6045TIP3    H239551   6.404   2.400  14.506 -0.2470  0.7319  1.4689
 6046TIP3   OH239552   0.721   5.062   1.366 -0.0606 -0.3293 -0.1973
 6046TIP3    H139553   0.795   5.121   1.381 -1.6187  1.5254  0.6884
 6046TIP3    H239554   0.692   5.038   1.454 -1.1333 -0.1677 -0.4910
 6047TIP3   OH239555   5.715   4.651   3.688 -0.3423  0.2522  0.2483
 6047TIP3    H139556   5.735   4.681   3.776  0.6800  2.4338 -0.6680
 6047TIP3    H239557   5.679   4.728   3.643 -1.1365 -0.8845 -1.1607
 6048TIP3   OH239558   4.636   5.887   0.865 -0.2067 -0.2209  0.3894
 6048TIP3    H139559   4.637   5.923   0.953 -0.1925 -0.1286  0.3518
 6048TIP3    H239560   4.550   5.909   0.830  0.3361  1.1231 -0.1828
 6049TIP3   OH239561   4.716   0.229   4.149 -0.4781 -0.6897  0.5131
 6049TIP3    H139562   4.668   0.230   4.233  0.6940 -0.1066  1.2030
 6049TIP3    H239563   4.649   0.247   4.083 -1.4638 -1.3441  1.3012
 6050TIP3   OH239564   2.231   5.612   1.843 -0.3576  0.0796 -0.0720
 6050TIP3    H139565   2.206   5.519   1.845  3.3789 -1.0684  0.6162
 6050TIP3    H239566   2.224   5.640   1.934 -0.3483  0.1505 -0.0933
 6051TIP3   OH239567   4.784   0.192  11.812  0.1748 -0.1636  0.3180
 6051TIP3    H139568   4.875   0.212  11.791  1.2240 -1.9193  2.6657
 6051TIP3    H239569   4.744   0.170  11.728  2.3619 -0.8292 -0.6198
 6052TIP3   OH239570   2.925   5.377   2.577 -0.0815 -0.2973 -0.0450
 6052TIP3    H139571   2.907   5.336   2.661 -0.5767  0.4391  0.2240
 6052TIP3    H239572   2.898   5.312   2.512  0.8555 -1.0998  0.3553
 6053TIP3   OH239573   1.347   0.081  14.065 -0.3208  0.5895  0.0009
 6053TIP3    H139574   1.311   0.015  14.005  1.1756 -0.4654  0.2128
 6053TIP3    H239575   1.378   0.151  14.008  0.8094 -0.2672 -0.4816
 6054TIP3   OH239576   4.617   4.783  15.105  0.3872  0.0232 -0.1306
 6054TIP3    H139577   4.626   4.841  15.029  2.1872  0.0354  0.0509
 6054TIP3    H239578   4.680   4.713  15.089  0.6549 -0.0780  1.2569
 6055TIP3   OH239579   5.316   1.401   5.449  0.2013  0.2406 -0.3397
 6055TIP3    H139580   5.308   1.482   5.399 -0.9640  0.3402 -0.0157
 6055TIP3    H239581   5.403   1.367   5.425  0.4052  1.1990 -1.0354
 6056TIP3   OH239582   4.090   6.150  16.752 -0.5346  1.0533  0.2764
 6056TIP3    H139583   4.107   6.066  16.711 -0.0157  2.5657 -2.8970
 6056TIP3    H239584   3.995   6.155  16.760 -0.6853  0.8857 -1.2508
 6057TIP3   OH239585   5.845   6.080  16.831  0.3148  0.5829  0.2722
 6057TIP3    H139586   5.823   6.042  16.916 -2.4276 -0.7528 -0.8945
 6057TIP3    H239587   5.906   6.017  16.792 -0.2445 -0.0505  0.3822
 6058TIP3   OH239588   2.916   4.846  12.074 -0.2462  0.4284  0.6864
 6058TIP3    H139589   2.878   4.883  11.994 -0.4715  1.0439  1.0709
 6058TIP3    H239590   2.995   4.897  12.089  0.3984 -0.4150  0.2563
 6059TIP3   OH239591   6.751   5.755   3.641  0.6555 -0.0462 -0.3475
 6059TIP3    H139592   6.794   5.744   3.726 -2.3062 -1.7059  1.0993
 6059TIP3    H239593   6.675   5.698   3.645  1.1306 -1.3848 -4.7608
 6060TIP3   OH239594   5.960   3.324  12.683 -0.3609 -0.6080 -0.2094
 6060TIP3    H139595   5.968   3.242  12.634 -0.1369  0.2037 -1.6080
 6060TIP3    H239596   5.868   3.348  12.675 -0.6444 -1.2278  1.0776
 6061TIP3   OH239597   5.429   3.405  14.248  0.3939  0.5321 -0.4474
 6061TIP3    H139598   5.446   3.486  14.295  1.8797  0.2027 -0.3628
 6061TIP3    H239599   5.467   3.337  14.304  0.3863 -0.0788 -1.1768
 6062TIP3   OH239600   6.351   0.585   1.282  0.1577  0.4807  0.3351
 6062TIP3    H139601   6.438   0.599   1.319  0.0409 -0.2610  0.9091
 6062TIP3    H239602   6.310   0.521   1.340 -0.9741  1.2228  0.3946
 6063TIP3   OH239603   1.869   2.015  15.521  0.2241 -0.3777 -0.0431
 6063TIP3    H139604   1.927   2.089  15.503  0.0786 -0.3803 -0.5415
 6063TIP3    H239605   1.907   1.973  15.598  0.3469  0.1746  0.2076
 6064TIP3   OH239606   3.731   4.507   1.807  0.4215  0.1637 -0.4221
 6064TIP3    H139607   3.688   4.582   1.848 -0.9471 -1.7081  1.7879
 6064TIP3    H239608   3.804   4.545   1.758  0.2597  2.8537  1.2398
 6065TIP3   OH239609   5.929   2.250   1.789 -0.2823  0.2194 -0.0390
 6065TIP3    H139610   5.969   2.303   1.858 -0.1486  0.6922 -0.4742
 6065TIP3    H239611   5.947   2.159   1.815 -1.3207  0.3373  1.2125
 6066TIP3   OH239612   1.060   5.164   3.097  0.5472 -0.1058 -0.8775
 6066TIP3    H139613   1.046   5.109   3.019  0.2139  0.4449 -1.2105
 6066TIP3    H239614   1.047   5.104   3.171  0.0911 -0.4588 -1.2334
 6067TIP3   OH239615   6.679   5.464   3.915  0.1068  0.1071 -0.0921
 6067TIP3    H139616   6.670   5.396   3.981 -0.2016 -1.6396 -1.8543
 6067TIP3    H239617   6.590   5.477   3.881  0.1892  1.2894  0.0885
 6068TIP3   OH239618   3.220   2.647   2.613  0.3288 -0.6345 -0.1707
 6068TIP3    H139619   3.148   2.706   2.631  1.0135 -0.0566  0.7923
 6068TIP3    H239620   3.186   2.586   2.548 -1.3255 -0.9485  0.9317
 6069TIP3   OH239621   4.615   2.066  15.112  0.0958  0.0009  0.1978
 6069TIP3    H139622   4.539   2.050  15.056 -0.0105  2.3085 -0.4307
 6069TIP3    H239623   4.686   2.015  15.073 -0.0217  1.4058 -2.0488
 6070TIP3   OH239624   6.399   4.759   4.155 -0.1135 -0.3804  0.0444
 6070TIP3    H139625   6.337   4.690   4.177 -0.7773  0.9524  2.8698
 6070TIP3    H239626   6.350   4.840   4.170  1.2656  0.7216 -1.1195
 6071TIP3   OH239627   1.683   4.298  15.309 -0.2444 -0.2319  0.2579
 6071TIP3    H139628   1.724   4.212  15.315  0.2040  0.0321  1.2465
 6071TIP3    H239629   1.589   4.280  15.319 -0.1403 -0.5935  0.6082
 6072TIP3   OH239630   3.297   1.161   3.889  0.2130  0.0396  0.8498
 6072TIP3    H139631   3.248   1.120   3.960 -1.1431 -0.1845 -0.1567
 6072TIP3    H239632   3.239   1.230   3.857  0.7456  0.0713 -0.0799
 6073TIP3   OH239633   4.100   1.933   4.180  0.4917 -0.3990 -0.2123
 6073TIP3    H139634   4.061   1.868   4.239  1.5080  1.0657  2.2131
 6073TIP3    H239635   4.188   1.901   4.164  0.1906 -0.8372 -1.0776
 6074TIP3   OH239636   2.227   3.058  12.886 -0.3508 -0.0670  0.1397
 6074TIP3    H139637   2.291   3.102  12.831 -0.5199 -0.1957 -0.1587
 6074TIP3    H239638   2.142   3.077  12.846 -0.6070  0.9958  1.1253
 6075TIP3   OH239639   5.003   0.302  16.334  0.1024  0.6529 -0.2492
 6075TIP3    H139640   5.016   0.368  16.266 -1.1149 -1.2994 -2.5360
 6075TIP3    H239641   5.038   0.221  16.295 -2.2276 -0.9031  0.6567
 6076TIP3   OH239642   6.507   3.905   1.259 -0.5671 -0.9414 -0.3232
 6076TIP3    H139643   6.539   3.906   1.169 -0.2324  0.3342 -0.2098
 6076TIP3    H239644   6.585   3.919   1.312 -0.7742 -1.6055  0.1728
 6077TIP3   OH239645   4.871   2.186  14.004 -0.1661 -0.1577 -0.1201
 6077TIP3    H139646   4.943   2.243  13.973  1.1223 -0.5153  2.0326
 6077TIP3    H239647   4.851   2.219  14.092 -0.1251 -2.3454  0.7558
 6078TIP3   OH239648   2.365   2.609   0.952  0.3217 -0.1931 -0.0319
 6078TIP3    H139649   2.439   2.604   0.891 -0.3440  0.4612 -0.9243
 6078TIP3    H239650   2.322   2.692   0.929 -1.4470 -1.1781 -0.4185
 6079TIP3   OH239651   6.538   6.158  16.211  0.4921 -0.5429 -0.0896
 6079TIP3    H139652   6.462   6.216  16.208 -0.2686 -1.4655  0.6613
 6079TIP3    H239653   6.523   6.094  16.141  0.1089 -1.2607  0.6294
 6080TIP3   OH239654   0.667   5.831   4.927 -0.3601 -0.1150 -0.4259
 6080TIP3    H139655   0.723   5.908   4.943 -0.2256  0.0154 -1.4676
 6080TIP3    H239656   0.719   5.757   4.959 -0.6692  0.2452  0.9960
 6081TIP3   OH239657   0.926   1.789  12.161 -0.1212 -0.6740 -1.1374
 6081TIP3    H139658   1.004   1.844  12.154  0.4807 -1.3097  0.3013
 6081TIP3    H239659   0.877   1.808  12.081 -0.1852  2.2975 -0.4912
 6082TIP3   OH239660   2.457   3.265  13.824  0.6835 -0.2004 -0.3678
 6082TIP3    H139661   2.468   3.178  13.862  0.9912  0.3891  0.9596
 6082TIP3    H239662   2.424   3.318  13.896 -0.8862  0.4802 -1.5383
 6083TIP3   OH239663   3.550   3.319   2.075 -0.1925 -0.7985 -0.4673
 6083TIP3    H139664   3.613   3.248   2.091  1.4539  0.7827  0.3795
 6083TIP3    H239665   3.466   3.274   2.066  1.1333 -3.0847 -2.5494
 6084TIP3   OH239666   2.356   1.508  12.886 -0.8631  0.2825  0.0494
 6084TIP3    H139667   2.451   1.507  12.886 -0.8615  0.3724 -0.4271
 6084TIP3    H239668   2.330   1.417  12.871 -0.8555  0.2445  0.2593
 6085TIP3   OH239669   1.372   2.850  14.328 -0.1619  0.0885  0.2040
 6085TIP3    H139670   1.281   2.856  14.297 -0.7455  2.2816  2.0903
 6085TIP3    H239671   1.370   2.778  14.391 -0.2978 -0.6017 -0.5652
 6086TIP3   OH239672   2.890   1.890   4.165 -0.1937  0.0745  0.3210
 6086TIP3    H139673   2.797   1.896   4.142 -0.1323 -0.3090 -0.0556
 6086TIP3    H239674   2.914   1.978   4.192 -0.3043  0.5574 -1.0412
 6087TIP3   OH239675   2.938   6.290   4.798  0.4529  0.2753 -0.2209
 6087TIP3    H139676   2.943   6.210   4.747 -0.4514  0.3948 -0.5166
 6087TIP3    H239677   3.028   6.323   4.801  0.6041 -0.0272 -1.2531
 6088TIP3   OH239678   1.259   4.815  11.890 -0.3282  0.6654 -0.6323
 6088TIP3    H139679   1.311   4.863  11.826  0.1722  2.6444  1.1444
 6088TIP3    H239680   1.170   4.815  11.854  0.0743  1.0275 -1.6740
 6089TIP3   OH239681   2.948   3.891   6.483 -0.3565 -0.1118  0.4499
 6089TIP3    H139682   2.898   3.925   6.409 -0.8689  0.6655  1.1305
 6089TIP3    H239683   3.039   3.911   6.461 -0.6381  1.9706  0.8914
 6090TIP3   OH239684   6.015   2.223   5.656 -0.1340  0.0382  0.0259
 6090TIP3    H139685   5.948   2.282   5.691  0.0391  1.0357 -1.2636
 6090TIP3    H239686   6.092   2.237   5.711 -0.5317 -0.0714  0.6232
 6091TIP3   OH239687   2.652   0.867  15.852 -0.4461  0.5723 -1.2497
 6091TIP3    H139688   2.727   0.922  15.874 -1.9639  1.6282  1.9001
 6091TIP3    H239689   2.681   0.778  15.872 -0.3924  1.1149  1.6087
 6092TIP3   OH239690   3.975   3.649  13.363  0.3918 -0.5185 -0.0312
 6092TIP3    H139691   3.933   3.614  13.285 -0.0225 -0.9497  0.3762
 6092TIP3    H239692   4.066   3.665  13.338 -0.0564  0.6233 -0.9949
 6093TIP3   OH239693   3.188   6.596   0.658 -0.2287 -0.3454  0.0214
 6093TIP3    H139694   3.109   6.649   0.660 -0.0669 -0.0786 -0.6036
 6093TIP3    H239695   3.257   6.653   0.692 -0.4828 -0.9150  1.6077
 6094TIP3   OH239696   2.030   3.037   5.590 -1.0071  0.0301 -0.0660
 6094TIP3    H139697   2.094   2.974   5.558 -0.9564 -0.4667  0.9890
 6094TIP3    H239698   1.975   2.987   5.651 -0.1584  1.2658  1.8191
 6095TIP3   OH239699   4.191   5.509   5.113 -0.0615 -0.0048  1.1988
 6095TIP3    H139700   4.102   5.474   5.119  0.6102 -1.9939  0.4579
 6095TIP3    H239701   4.231   5.488   5.197 -0.0723  0.1973  1.2531
 6096TIP3   OH239702   3.200   6.001   1.098 -0.2885 -0.0872 -0.1861
 6096TIP3    H139703   3.255   6.064   1.145 -0.2386  0.3797 -0.8469
 6096TIP3    H239704   3.214   6.022   1.006  0.6359 -1.8452 -0.4770
 6097TIP3   OH239705   3.034   5.400   3.232 -0.1237  0.5497  0.1407
 6097TIP3    H139706   2.983   5.463   3.283 -0.6950 -0.6986  1.2018
 6097TIP3    H239707   3.104   5.451   3.193 -2.1571  2.3556 -1.4021
 6098TIP3   OH239708   2.839   6.472  14.483 -0.0484 -0.4454 -0.7081
 6098TIP3    H139709   2.823   6.537  14.413  0.2296 -0.2230 -0.5701
 6098TIP3    H239710   2.857   6.391  14.436 -1.6328 -0.7400 -0.8677
 6099TIP3   OH239711   3.538   6.495  11.316 -0.2742  0.1333  0.1222
 6099TIP3    H139712   3.537   6.591  11.309  0.1285  0.1818  0.6350
 6099TIP3    H239713   3.519   6.465  11.228  0.1625  0.6909 -0.1756
 6100TIP3   OH239714   3.234   4.684  11.781 -0.9304  0.2839 -0.0392
 6100TIP3    H139715   3.198   4.765  11.746 -0.8342  0.3171 -0.0612
 6100TIP3    H239716   3.210   4.684  11.873  1.4344  1.6889  0.6541
 6101TIP3   OH239717   3.865   2.661  12.603 -0.2842 -0.3755 -0.0697
 6101TIP3    H139718   3.840   2.573  12.633  0.1263 -0.4559  0.0417
 6101TIP3    H239719   3.862   2.715  12.682  0.0668 -0.4236 -0.0240
 6102TIP3   OH239720   2.197   3.575   4.588 -0.0751  0.1965 -0.3712
 6102TIP3    H139721   2.206   3.484   4.618  2.0554  0.1395 -1.0242
 6102TIP3    H239722   2.140   3.569   4.512 -1.7457 -0.2543  0.8404
 6103TIP3   OH239723   5.666   5.786  12.432 -0.8108  0.0436  0.3651
 6103TIP3    H139724   5.643   5.722  12.365 -0.1329  0.5564 -0.3744
 6103TIP3    H239725   5.760   5.798  12.423 -0.3868 -1.1572  2.5726
 6104TIP3   OH239726   3.839   1.331  17.252 -0.2455  0.5826  0.5717
 6104TIP3    H139727   3.782   1.405  17.271  0.8318  1.6030 -0.0844
 6104TIP3    H239728   3.848   1.285  17.336 -2.1496  0.2821  0.6497
 6105TIP3   OH239729   1.936   5.370   2.519  0.3854 -0.3193 -0.3085
 6105TIP3    H139730   1.898   5.407   2.599 -3.6836 -0.2606 -2.0343
 6105TIP3    H239731   1.966   5.447   2.470  0.2071 -0.0967 -0.0735
 6106TIP3   OH239732   5.204   0.366   6.577  0.4468  0.1627 -0.2549
 6106TIP3    H139733   5.209   0.285   6.526 -0.2741  0.3571 -0.6442
 6106TIP3    H239734   5.295   0.390   6.593  0.6745 -0.2256 -0.9406
 6107TIP3   OH239735   1.748   1.826   2.273  0.0187  0.2973  0.2838
 6107TIP3    H139736   1.753   1.745   2.323 -1.8805 -1.8446 -2.7182
 6107TIP3    H239737   1.830   1.829   2.224 -0.5048 -0.6371 -0.6846
 6108TIP3   OH239738   0.802   2.098  12.607 -0.2747 -0.4352  0.1280
 6108TIP3    H139739   0.849   2.102  12.690  2.0416  1.0184 -1.1265
 6108TIP3    H239740   0.742   2.173  12.609  2.2969  1.8203 -0.7704
 6109TIP3   OH239741   4.281   0.173   4.095 -0.1895  0.2218 -0.1439
 6109TIP3    H139742   4.277   0.171   4.190 -1.5412  1.0581 -0.1488
 6109TIP3    H239743   4.372   0.194   4.075  0.1895 -0.2968  0.9356
 6110TIP3   OH239744   2.402   5.102  14.020  0.2339  0.6489 -0.1205
 6110TIP3    H139745   2.355   5.169  13.970  0.4906  0.2463 -0.9365
 6110TIP3    H239746   2.491   5.104  13.985 -0.2921 -1.6568 -1.8463
 6111TIP3   OH239747   5.155   6.501   3.187  0.3064  0.1265  0.2839
 6111TIP3    H139748   5.189   6.556   3.116 -1.7237  0.0802 -0.8324
 6111TIP3    H239749   5.110   6.429   3.141 -1.1860  0.1774  1.5774
 6112TIP3   OH239750   4.094   1.194   1.191 -0.1381 -0.2961  0.1157
 6112TIP3    H139751   4.036   1.269   1.181 -0.7467 -0.7180  0.4755
 6112TIP3    H239752   4.162   1.208   1.124 -1.4940 -0.6033 -1.4020
 6113TIP3   OH239753   5.102   5.307  15.269 -0.3400  0.1975 -0.3831
 6113TIP3    H139754   5.014   5.269  15.267 -0.1488 -0.3006  0.1611
 6113TIP3    H239755   5.088   5.400  15.286 -0.7731  0.1710 -0.5775
 6114TIP3   OH239756   6.272   2.987  12.399 -0.3031 -0.4117 -0.5509
 6114TIP3    H139757   6.267   3.019  12.489 -0.9361 -0.3371 -0.6051
 6114TIP3    H239758   6.266   2.891  12.408 -3.5086 -0.3317 -0.6511
 6115TIP3   OH239759   2.065   2.575   2.984  0.2476  0.2497  0.5225
 6115TIP3    H139760   1.990   2.633   2.972  1.3376  1.3823 -1.2562
 6115TIP3    H239761   2.065   2.554   3.077 -0.4045  2.8450  1.1712
 6116TIP3   OH239762   6.687   1.357  16.971 -0.0872  0.0881 -0.1969
 6116TIP3    H139763   6.654   1.367  16.881 -0.0795 -3.8522 -0.8277
 6116TIP3    H239764   6.616   1.390  17.026 -0.4283  1.8529 -1.5976
 6117TIP3   OH239765   6.276   6.344   5.973  0.1676 -0.2079  0.1627
 6117TIP3    H139766   6.335   6.298   5.913  0.8912 -0.5781  1.1267
 6117TIP3    H239767   6.330   6.362   6.050 -0.8388 -0.0616  0.8506
 6118TIP3   OH239768   4.401   0.717  11.254  0.4531 -0.4466 -0.0802
 6118TIP3    H139769   4.317   0.705  11.298  0.3886 -1.0106 -0.3513
 6118TIP3    H239770   4.452   0.640  11.278  0.5446 -0.5874 -0.7130
 6119TIP3   OH239771   2.147   2.452  12.305 -0.2634  0.2724 -0.1075
 6119TIP3    H139772   2.105   2.457  12.391 -1.1776 -1.2386 -0.4284
 6119TIP3    H239773   2.100   2.382  12.260  0.5590  0.6823 -1.6489
 6120TIP3   OH239774   1.200   2.694  12.267  0.1426 -0.2230  0.3892
 6120TIP3    H139775   1.150   2.775  12.271 -0.2305 -0.4796  1.0875
 6120TIP3    H239776   1.251   2.701  12.186  0.3157  0.8114  0.5778
 6121TIP3   OH239777   0.108   6.568   2.709  0.6270 -0.3906  0.3543
 6121TIP3    H139778   0.181   6.592   2.767  1.9766 -1.5845 -0.7694
 6121TIP3    H239779   0.113   6.632   2.638 -0.3298  0.3848  0.9576
 6122TIP3   OH239780   5.737   4.202  16.071 -0.3153 -0.1526 -0.0215
 6122TIP3    H139781   5.819   4.151  16.072 -0.7036 -0.7909 -0.0722
 6122TIP3    H239782   5.746   4.260  15.995  0.3024  0.1395  0.2696
 6123TIP3   OH239783   4.281   0.412  16.330 -0.2092  0.4141 -0.6948
 6123TIP3    H139784   4.232   0.476  16.278 -1.3507  0.1221 -0.0154
 6123TIP3    H239785   4.331   0.362  16.266 -2.3495 -0.6060 -1.6869
 6124TIP3   OH239786   6.648   6.666  17.040  0.3223 -0.0828 -0.0741
 6124TIP3    H139787   6.643   6.588  16.985  0.0063  0.6865 -1.1718
 6124TIP3    H239788   6.561   6.674  17.080  1.0318 -1.5988  1.9649
 6125TIP3   OH239789   1.748   6.009  13.145  0.3262 -0.6976 -0.4194
 6125TIP3    H139790   1.780   5.985  13.058 -0.8109 -1.1475 -0.7320
 6125TIP3    H239791   1.796   5.951  13.204  2.7407  1.0744 -0.4717
 6126TIP3   OH239792   2.617   3.027   5.930  0.3424 -0.0582  0.8121
 6126TIP3    H139793   2.601   2.974   6.008 -0.1450  0.6577  1.2094
 6126TIP3    H239794   2.543   3.008   5.872  1.1595 -1.2789  0.1157
 6127TIP3   OH239795   0.491   0.924  10.557  0.0668 -0.1375 -0.1084
 6127TIP3    H139796   0.459   1.014  10.547 -0.4886 -0.2848  0.2799
 6127TIP3    H239797   0.501   0.892  10.467  2.3901  1.0228 -0.3150
 6128TIP3   OH239798   2.249   4.573  13.909 -0.0082 -0.3160 -0.1341
 6128TIP3    H139799   2.251   4.500  13.971 -1.6583  0.3316  0.7130
 6128TIP3    H239800   2.290   4.646  13.956  1.8336 -0.6748 -1.0544
 6129TIP3   OH239801   6.229   2.964  13.733 -0.4257  0.1622 -0.5033
 6129TIP3    H139802   6.165   3.000  13.793 -1.4406 -1.4794 -0.5361
 6129TIP3    H239803   6.304   2.941  13.788 -0.6740  0.2417 -0.1311
 6130TIP3   OH239804   1.557   2.472   1.354 -1.0425 -0.4621  0.4485
 6130TIP3    H139805   1.644   2.482   1.394 -1.3046  0.2509  0.8524
 6130TIP3    H239806   1.516   2.401   1.403 -1.3238  0.3368  1.4077
 6131TIP3   OH239807   0.667   4.929  11.406  0.1481 -0.2289  0.2141
 6131TIP3    H139808   0.757   4.958  11.420  0.0452 -0.3822  1.2140
 6131TIP3    H239809   0.645   4.879  11.484 -1.4419  1.3640  0.8374
 6132TIP3   OH239810   4.640   2.222   2.460 -0.5579 -0.1092 -0.0362
 6132TIP3    H139811   4.623   2.160   2.531  0.3207  0.5725  0.7820
 6132TIP3    H239812   4.664   2.167   2.385  2.1520 -0.7331  1.1952
 6133TIP3   OH239813   4.542   2.028   1.226  0.5035  0.3167 -0.2709
 6133TIP3    H139814   4.626   2.071   1.245  0.0186  1.6055 -0.9201
 6133TIP3    H239815   4.565   1.959   1.163  1.3995 -0.8898  1.3079
 6134TIP3   OH239816   4.782   5.329   3.953  0.0106  0.0604 -0.4009
 6134TIP3    H139817   4.834   5.261   3.997  1.3669  1.0873 -0.3434
 6134TIP3    H239818   4.692   5.313   3.981  0.3297 -1.5882 -0.2479
 6135TIP3   OH239819   4.018   1.596   6.031  0.6420  0.8325  0.7193
 6135TIP3    H139820   3.959   1.647   5.977  0.1643  1.1530  1.5247
 6135TIP3    H239821   3.966   1.571   6.107  0.5602 -1.6465 -0.0439
 6136TIP3   OH239822   3.995   2.134   2.969 -0.1312 -0.3672  0.7296
 6136TIP3    H139823   3.947   2.095   3.042 -0.7559  0.4765  0.7886
 6136TIP3    H239824   3.967   2.084   2.892 -0.6120 -0.3021  0.8593
 6137TIP3   OH239825   3.054   5.843  15.278  0.6688 -0.0969 -0.1045
 6137TIP3    H139826   3.127   5.897  15.249  0.0643  0.3836 -0.7527
 6137TIP3    H239827   2.991   5.845  15.206  0.4787 -1.3889  0.0041
 6138TIP3   OH239828   3.762   0.852   2.928  0.4427  0.0588 -0.2110
 6138TIP3    H139829   3.801   0.770   2.958 -0.4109 -0.6248 -0.9138
 6138TIP3    H239830   3.670   0.845   2.954  0.2581  0.5664 -0.7252
 6139TIP3   OH239831   5.684   3.243   3.524 -0.0469 -0.0287 -0.4998
 6139TIP3    H139832   5.622   3.261   3.595  1.8414 -0.4322  1.3655
 6139TIP3    H239833   5.746   3.316   3.527  1.9570 -1.6885  0.5304
 6140TIP3   OH239834   4.944   3.927  15.144 -0.0015 -0.4847  0.6494
 6140TIP3    H139835   4.882   3.901  15.076  0.8871 -0.6477 -0.1098
 6140TIP3    H239836   4.920   4.017  15.165  1.3349  0.5286 -1.7694
 6141TIP3   OH239837   0.082   0.635   3.516 -0.1330  0.4208  0.1321
 6141TIP3    H139838   0.070   0.626   3.421 -2.2089  0.2186  0.3771
 6141TIP3    H239839   0.084   0.730   3.530 -0.5968  0.4592 -0.0415
 6142TIP3   OH239840   5.169   0.060  12.880  0.4498 -0.3451 -0.4349
 6142TIP3    H139841   5.236   0.118  12.914  0.3665 -1.0634  1.0330
 6142TIP3    H239842   5.087   0.093  12.917  0.1761 -0.3262 -1.0497
 6143TIP3   OH239843   4.980   5.729  16.781 -0.2228  0.4547  0.7977
 6143TIP3    H139844   4.979   5.646  16.830 -0.0438 -1.2419 -1.8600
 6143TIP3    H239845   5.043   5.713  16.710 -0.5399  2.7180 -0.0526
 6144TIP3   OH239846   4.765   2.808  16.607 -0.3239 -0.4664  0.1055
 6144TIP3    H139847   4.679   2.766  16.615 -1.1315  1.0406 -0.3651
 6144TIP3    H239848   4.807   2.761  16.534 -1.3042 -0.3308 -0.5666
 6145TIP3   OH239849   5.396   6.562   0.980  0.0758  0.1985 -0.8370
 6145TIP3    H139850   5.413   6.504   1.055  0.6468  0.3563 -0.8338
 6145TIP3    H239851   5.320   6.524   0.936 -1.4716  1.1500  0.8877
 6146TIP3   OH239852   2.545   6.086   4.268  0.4624 -0.2289 -0.1530
 6146TIP3    H139853   2.533   6.086   4.173  3.7622 -0.5859 -0.6840
 6146TIP3    H239854   2.600   6.010   4.286 -0.9701 -0.8343  2.2637
 6147TIP3   OH239855   0.726   1.324  17.345  0.2867  0.5358 -0.0649
 6147TIP3    H139856   0.769   1.405  17.372  2.2812 -0.8895  1.3296
 6147TIP3    H239857   0.697   1.284  17.427  0.9102 -0.9646 -0.5429
 6148TIP3   OH239858   0.811   5.435   1.327 -0.1678  0.2867 -0.1319
 6148TIP3    H139859   0.723   5.398   1.320 -0.2319  0.4574 -0.2443
 6148TIP3    H239860   0.799   5.528   1.308  0.3561 -0.0590 -2.4608
 6149TIP3   OH239861   1.564   1.056   2.396  0.0295  0.4551  0.3164
 6149TIP3    H139862   1.518   1.132   2.360 -2.2152  0.0903  2.1810
 6149TIP3    H239863   1.606   1.089   2.475 -3.8224 -0.6892  3.1616
 6150TIP3   OH239864   6.420   6.187  13.060 -0.1559  0.6899  0.2071
 6150TIP3    H139865   6.428   6.179  12.965 -1.1608  1.3341  0.0474
 6150TIP3    H239866   6.378   6.105  13.088  0.4542  0.3512  0.1536
 6151TIP3   OH239867   0.131   3.166  14.580  0.0507  0.2374  0.2209
 6151TIP3    H139868   0.049   3.125  14.554  0.1154  0.0577  0.2934
 6151TIP3    H239869   0.192   3.092  14.590  1.0878  0.5225 -2.8313
 6152TIP3   OH239870   2.713   4.462   0.242  0.0792 -0.1026  0.5867
 6152TIP3    H139871   2.682   4.376   0.215 -0.0023 -0.2376  1.0966
 6152TIP3    H239872   2.808   4.457   0.235  0.0002  0.5265 -1.6305
 6153TIP3   OH239873   3.094   2.996  14.198  0.1163 -0.2671  0.0503
 6153TIP3    H139874   3.010   2.951  14.191  0.4973 -0.9491 -0.1315
 6153TIP3    H239875   3.073   3.088  14.184 -0.5515 -0.4739 -0.3096
 6154TIP3   OH239876   3.962   3.828   5.734 -0.2175 -0.2147 -0.0434
 6154TIP3    H139877   3.876   3.855   5.766 -0.3379 -0.6716  0.0301
 6154TIP3    H239878   3.998   3.775   5.805  0.1797  0.0833 -0.0221
 6155TIP3   OH239879   4.436   2.698   6.174 -0.7765  0.1483  0.0708
 6155TIP3    H139880   4.445   2.742   6.259 -1.2815 -0.8712  0.6686
 6155TIP3    H239881   4.355   2.648   6.181 -0.8149  0.0306 -1.0177
 6156TIP3   OH239882   2.281   5.352  12.339 -0.7624 -0.3140 -0.4182
 6156TIP3    H139883   2.243   5.294  12.405  1.6768 -0.9110  0.5776
 6156TIP3    H239884   2.326   5.420  12.389  0.2877 -0.1896 -1.4749
 6157TIP3   OH239885   2.691   0.084   2.076 -0.1182  0.1152 -0.2907
 6157TIP3    H139886   2.643   0.097   2.159  2.6579 -0.5008  1.5397
 6157TIP3    H239887   2.753   0.157   2.073  2.8703 -2.1887  0.5755
 6158TIP3   OH239888   5.610   2.329   1.716 -0.6160  0.3363  0.4705
 6158TIP3    H139889   5.644   2.242   1.739 -1.2568  0.2912  1.2981
 6158TIP3    H239890   5.686   2.386   1.718 -0.5112  0.1783  1.9841
 6159TIP3   OH239891   5.014   5.449   4.050  0.2615 -0.0019  0.1714
 6159TIP3    H139892   4.924   5.464   4.024  0.8150  2.3482 -0.6227
 6159TIP3    H239893   5.066   5.499   3.988  1.9827  0.4840  1.9000
 6160TIP3   OH239894   1.161   5.055  15.218 -0.5683  0.3553  1.0166
 6160TIP3    H139895   1.189   5.105  15.294  1.3298 -0.6684  1.0561
 6160TIP3    H239896   1.242   5.023  15.179 -1.3724  1.6406 -2.0448
 6161TIP3   OH239897   5.784   4.889  13.054  0.2869  0.1622  0.0746
 6161TIP3    H139898   5.742   4.939  13.124 -0.2872 -0.3860  0.1332
 6161TIP3    H239899   5.868   4.933  13.040 -1.0869  2.5297 -1.4100
 6162TIP3   OH239900   5.202   3.844  15.129 -0.3095 -0.0120 -0.1581
 6162TIP3    H139901   5.195   3.758  15.170  1.1527 -0.1532 -0.1551
 6162TIP3    H239902   5.115   3.883  15.140 -0.7108 -1.0915  0.7011
 6163TIP3   OH239903   1.320   4.012  11.489 -0.5256  0.1296  0.4589
 6163TIP3    H139904   1.274   4.036  11.569  0.2784  1.0959  0.6522
 6163TIP3    H239905   1.376   4.087  11.470  1.6377 -1.3239  0.7105
 6164TIP3   OH239906   3.354   5.341   2.110 -0.3310 -0.3102 -0.4928
 6164TIP3    H139907   3.362   5.421   2.162  0.2916 -0.7218  0.0633
 6164TIP3    H239908   3.273   5.300   2.142 -0.7681  0.2014 -0.9343
 6165TIP3   OH239909   1.442   3.423   3.077  0.2866 -0.0500 -0.4927
 6165TIP3    H139910   1.401   3.385   2.999  2.0969 -0.3543 -1.3398
 6165TIP3    H239911   1.488   3.350   3.118 -0.5319  0.1354  0.8198
 6166TIP3   OH239912   2.136   4.815   0.090  0.1907  0.5084 -0.6703
 6166TIP3    H139913   2.074   4.759   0.137  2.9865  0.2195  3.0991
 6166TIP3    H239914   2.179   4.756   0.028  0.4240 -0.6204  0.5204
 6167TIP3   OH239915   1.776   6.020  11.831 -0.1043 -0.2627 -0.3590
 6167TIP3    H139916   1.738   6.050  11.913  2.0863  0.2392  0.5378
 6167TIP3    H239917   1.712   5.959  11.795 -0.6928 -1.2888  2.2420
 6168TIP3   OH239918   2.719   6.142  14.042  0.2755  0.1565 -0.2588
 6168TIP3    H139919   2.633   6.157  14.003 -0.4555 -0.2121  1.1374
 6168TIP3    H239920   2.734   6.219  14.096  0.4623 -0.1453  0.1214
 6169TIP3   OH239921   2.481   5.002   3.455  0.1014  0.1388  0.2254
 6169TIP3    H139922   2.414   5.021   3.520 -1.0368  0.5220 -1.0338
 6169TIP3    H239923   2.486   5.082   3.402 -0.1564 -0.7399 -1.1523
 6170TIP3   OH239924   6.211   3.972  11.751  0.1206  0.2670  0.3149
 6170TIP3    H139925   6.209   3.919  11.671  1.1009 -0.9871  1.0763
 6170TIP3    H239926   6.189   3.910  11.821  2.2098  0.5841  1.3405
 6171TIP3   OH239927   3.144   1.569  13.791  0.3216  0.1261 -0.2514
 6171TIP3    H139928   3.119   1.487  13.749  0.3783  0.3883 -0.7967
 6171TIP3    H239929   3.234   1.584  13.765 -0.2783  1.3347 -1.7313
 6172TIP3   OH239930   5.124   4.979   2.509 -0.6428  0.0548  0.0371
 6172TIP3    H139931   5.124   4.952   2.417  0.1515 -0.5758  0.2113
 6172TIP3    H239932   5.072   4.913   2.554 -0.5828  0.0669  0.1253
 6173TIP3   OH239933   5.068   3.428   3.083 -0.3189  0.1779  0.2516
 6173TIP3    H139934   5.041   3.388   3.166 -0.2118  2.7748  1.6442
 6173TIP3    H239935   5.141   3.374   3.053 -0.6241 -1.0667  1.6393
 6174TIP3   OH239936   0.805   2.704  12.298  0.2063  0.2047  0.3635
 6174TIP3    H139937   0.797   2.665  12.210 -1.1582 -1.3192  1.0916
 6174TIP3    H239938   0.725   2.675  12.343  0.7921  1.1188  2.0482
 6175TIP3   OH239939   6.550   5.881  13.135 -0.2487 -0.1782  0.9443
 6175TIP3    H139940   6.537   5.788  13.119 -0.3005 -0.0096 -0.0894
 6175TIP3    H239941   6.475   5.907  13.189 -0.8314 -0.5170  0.3192
 6176TIP3   OH239942   3.997   3.711  11.329 -0.6513  0.0585 -0.4623
 6176TIP3    H139943   4.048   3.787  11.299  0.4376 -0.5849 -0.2988
 6176TIP3    H239944   3.917   3.714  11.277  0.1318  0.3324 -1.7083
 6177TIP3   OH239945   1.360   4.280  13.664  0.8926  0.7462  0.0596
 6177TIP3    H139946   1.315   4.207  13.622 -0.9757  2.1151 -0.4237
 6177TIP3    H239947   1.389   4.244  13.748  0.1019 -0.5704 -0.1939
 6178TIP3   OH239948   5.337   3.158  13.989 -0.4276  0.4709 -0.4224
 6178TIP3    H139949   5.283   3.190  13.917  0.2647  1.4308 -0.5365
 6178TIP3    H239950   5.290   3.188  14.068 -1.9727 -1.8412 -0.3707
 6179TIP3   OH239951   2.854   6.345  17.263 -0.1032 -0.3903 -0.0129
 6179TIP3    H139952   2.767   6.332  17.225  0.9493  0.1124 -2.8099
 6179TIP3    H239953   2.886   6.426  17.224  1.5605 -0.4578  1.1039
 6180TIP3   OH239954   1.934   5.281  14.182  0.3690 -0.5255 -0.0982
 6180TIP3    H139955   1.933   5.366  14.227  2.1826 -0.4649 -0.0676
 6180TIP3    H239956   1.971   5.221  14.246  1.2902 -0.8184 -0.8737
 6181TIP3   OH239957   2.761   0.622  11.567  0.1182 -0.1126  0.0423
 6181TIP3    H139958   2.718   0.705  11.546 -0.5245 -0.7569 -1.3273
 6181TIP3    H239959   2.716   0.558  11.512 -0.0819 -1.5574  1.7777
 6182TIP3   OH239960   3.556   5.448   0.255 -0.4553 -0.4795 -0.0221
 6182TIP3    H139961   3.470   5.479   0.227 -0.2126  0.0426 -0.2087
 6182TIP3    H239962   3.581   5.384   0.189  0.3415  1.1216 -1.3484
 6183TIP3   OH239963   4.610   5.521  17.014 -0.0577 -1.0617  0.0670
 6183TIP3    H139964   4.613   5.449  17.077 -0.3894 -1.0280  0.1184
 6183TIP3    H239965   4.531   5.506  16.963 -0.9628  0.0947  1.0693
 6184TIP3   OH239966   5.577   6.311   0.664  0.1984 -0.3448 -0.1421
 6184TIP3    H139967   5.611   6.273   0.583  1.5992  0.7549 -0.1148
 6184TIP3    H239968   5.533   6.391   0.635 -0.6941 -0.7647  0.0349
 6185TIP3   OH239969   1.636   4.836   0.421 -0.7930  0.0323  0.9069
 6185TIP3    H139970   1.564   4.899   0.427 -1.0722 -0.1834 -0.0057
 6185TIP3    H239971   1.617   4.771   0.488 -3.7444 -2.3074 -1.8706
 6186TIP3   OH239972   2.919   6.064  15.516  0.4018 -0.6207  0.0495
 6186TIP3    H139973   2.935   5.983  15.468 -0.3197 -0.5993 -0.2420
 6186TIP3    H239974   2.823   6.073  15.517  0.4564 -0.0051  0.4643
 6187TIP3   OH239975   0.432   1.396   5.954 -0.4519  0.0990  0.4264
 6187TIP3    H139976   0.388   1.314   5.933 -0.5082  0.0712  0.6466
 6187TIP3    H239977   0.453   1.388   6.047  1.9578 -0.8116 -0.1286
 6188TIP3   OH239978   2.531   5.062   0.301 -0.2576 -0.0893 -0.0655
 6188TIP3    H139979   2.487   5.062   0.216 -0.6701 -1.2027  0.1311
 6188TIP3    H239980   2.533   4.970   0.327  0.1050  0.2076  1.0106
 6189TIP3   OH239981   5.365   1.365  16.597 -0.9547 -0.5532  0.2153
 6189TIP3    H139982   5.311   1.425  16.649 -0.6152 -0.4322  0.4347
 6189TIP3    H239983   5.448   1.361  16.644  0.0308  1.0084 -1.2714
 6190TIP3   OH239984   2.001   5.054  11.140 -0.7209  0.1183  0.6105
 6190TIP3    H139985   2.030   4.987  11.078  3.0023  0.9310  1.2526
 6190TIP3    H239986   1.978   5.129  11.086  1.0839  0.3403  0.1137
 6191TIP3   OH239987   3.852   3.872   1.042  0.2714 -0.0323 -0.0613
 6191TIP3    H139988   3.884   3.795   0.996  0.0072 -0.2326  0.0864
 6191TIP3    H239989   3.793   3.838   1.109  0.4168  0.2767  0.2285
 6192TIP3   OH239990   6.591   3.257   3.388 -0.0541 -0.5287  0.2819
 6192TIP3    H139991   6.557   3.252   3.299 -0.5358 -1.0739  0.4947
 6192TIP3    H239992   6.686   3.267   3.376 -0.0519 -1.1331 -0.2920
 6193TIP3   OH239993   5.963   0.306  11.782  0.3242  0.1239 -0.4309
 6193TIP3    H139994   5.884   0.296  11.730  0.5785  0.5009 -0.8969
 6193TIP3    H239995   5.932   0.329  11.869 -0.1082 -0.6419 -0.3738
 6194TIP3   OH239996   0.019   1.837   0.015 -0.2986 -0.6257 -0.1501
 6194TIP3    H139997  -0.017   1.829   0.104 -2.5569 -0.1140 -0.9566
 6194TIP3    H239998   0.111   1.810   0.024 -0.5326 -0.8471  2.2730
 6195TIP3   OH239999   4.081   6.514  11.891 -0.0656 -0.2449  0.2997
 6195TIP3    H140000   4.000   6.464  11.880  0.2452 -0.9863  1.1560
 6195TIP3    H240001   4.054   6.605  11.888 -0.5017 -0.3927 -2.4248
 6196TIP3   OH240002   0.840   0.421  14.225 -0.2124  0.4759 -0.5908
 6196TIP3    H140003   0.796   0.348  14.268 -0.0986  0.0941 -1.1081
 6196TIP3    H240004   0.933   0.403  14.237 -0.1868  0.8178 -0.2612
 6197TIP3   OH240005   2.425   6.586   5.548 -0.1457 -0.2668  0.1510
 6197TIP3    H140006   2.411   6.503   5.502 -2.2627  0.3050 -0.3385
 6197TIP3    H240007   2.345   6.599   5.600  1.1650  0.2972  2.1788
 6198TIP3   OH240008   0.648   3.864  16.513  0.3772 -0.2404 -0.1018
 6198TIP3    H140009   0.570   3.890  16.463  0.8734 -0.2094 -0.8655
 6198TIP3    H240010   0.715   3.927  16.488  0.3497  0.4142  1.4060
 6199TIP3   OH240011   3.106   0.559   0.846  0.1314  0.1569  0.0364
 6199TIP3    H140012   3.056   0.540   0.926  2.8415  0.0827  1.8484
 6199TIP3    H240013   3.105   0.654   0.839  1.5889  0.3136  1.4236
 6200TIP3   OH240014   4.407   2.351   3.496 -0.6763 -0.4156  0.1504
 6200TIP3    H140015   4.313   2.367   3.489 -0.2054  2.4084 -1.1404
 6200TIP3    H240016   4.441   2.372   3.410  1.4750  1.7473  1.4192
 6201TIP3   OH240017   0.123   1.319   0.492  0.2581 -0.2492 -0.2916
 6201TIP3    H140018   0.067   1.275   0.556  1.4046 -0.5976  0.4934
 6201TIP3    H240019   0.075   1.312   0.410 -1.4746  0.6097  0.5864
 6202TIP3   OH240020   3.560   5.698   3.643  0.1399 -0.1200  0.0565
 6202TIP3    H140021   3.555   5.609   3.609 -1.1306  0.7524 -2.3006
 6202TIP3    H240022   3.474   5.715   3.681 -0.2272  0.6437 -1.0707
 6203TIP3   OH240023   2.627   0.889   3.838  0.2930  0.4048  0.5442
 6203TIP3    H140024   2.649   0.839   3.916  1.3501 -2.5297 -1.4706
 6203TIP3    H240025   2.549   0.848   3.803 -0.4247  1.9503  0.2164
 6204TIP3   OH240026   3.835   6.735   5.108 -0.0553  0.4308  0.0376
 6204TIP3    H140027   3.814   6.813   5.159  0.2502  0.1923  0.5452
 6204TIP3    H240028   3.794   6.749   5.023 -0.6298  0.8108  0.3725
 6205TIP3   OH240029   3.738   5.789   6.029 -0.2911  0.3541 -0.1645
 6205TIP3    H140030   3.715   5.872   6.072 -0.4236 -0.6306  1.7906
 6205TIP3    H240031   3.711   5.722   6.091 -2.0730 -1.2985 -2.5406
 6206TIP3   OH240032   1.603   0.135   4.088  0.3875 -0.6529  1.1381
 6206TIP3    H140033   1.698   0.132   4.098  0.3973  0.5112  1.5324
 6206TIP3    H240034   1.584   0.068   4.022  1.5855 -0.2393  0.3374
 6207TIP3   OH240035   5.282   6.170   5.375  0.6729 -0.0025  0.2549
 6207TIP3    H140036   5.209   6.112   5.396  0.8023 -0.5116 -0.6265
 6207TIP3    H240037   5.360   6.117   5.389  0.8743  0.4861  1.0299
 6208TIP3   OH240038   4.772   2.032  11.655  0.4211 -0.2645 -0.0557
 6208TIP3    H140039   4.833   2.029  11.581  2.4748  0.6110  1.4833
 6208TIP3    H240040   4.829   2.042  11.732 -1.6068 -1.2052  1.6646
 6209TIP3   OH240041   2.950   3.400  14.472  0.1151  0.2498 -0.2410
 6209TIP3    H140042   2.889   3.351  14.528 -0.8676 -0.1901 -1.6488
 6209TIP3    H240043   2.901   3.478  14.445  0.7623  0.7188 -0.0988
 6210TIP3   OH240044   2.178   0.432  14.498 -0.1944 -0.8334  0.0539
 6210TIP3    H140045   2.195   0.369  14.568 -0.4783  0.7904  1.6457
 6210TIP3    H240046   2.143   0.379  14.426 -1.3003 -2.3811  1.6589
 6211TIP3   OH240047   0.866   0.867  10.634 -0.2515 -0.5745  0.2095
 6211TIP3    H140048   0.881   0.773  10.622 -1.5640 -0.6847 -0.7747
 6211TIP3    H240049   0.776   0.873  10.666  0.6308  0.2326  2.8810
 6212TIP3   OH240050   3.963   1.445   0.313 -0.4476  0.0220  0.0025
 6212TIP3    H140051   3.897   1.511   0.290 -1.6158 -0.9777  0.3870
 6212TIP3    H240052   4.020   1.489   0.376  0.5273  1.5702 -1.8342
 6213TIP3   OH240053   2.414   0.759   1.021  0.7317  0.1734  0.0494
 6213TIP3    H140054   2.497   0.717   1.042  0.1919 -0.4628  0.9527
 6213TIP3    H240055   2.379   0.788   1.105 -1.2150 -1.9501  0.0642
 6214TIP3   OH240056   0.094   4.966  11.516  0.1039 -0.2707  0.2549
 6214TIP3    H140057   0.131   5.053  11.531  0.2883 -0.8180  3.7934
 6214TIP3    H240058   0.000   4.976  11.531  0.1354 -0.6834  0.7569
 6215TIP3   OH240059   5.671   4.831   5.033 -0.3634 -0.4256 -0.2718
 6215TIP3    H140060   5.691   4.755   4.979 -0.5251 -0.7667  0.1381
 6215TIP3    H240061   5.749   4.844   5.086  0.1859  0.5232 -1.2767
 6216TIP3   OH240062   3.945   6.731  14.794  0.0235 -0.3203  0.3710
 6216TIP3    H140063   3.887   6.773  14.857 -1.2550  0.6819 -1.3877
 6216TIP3    H240064   3.966   6.800  14.731  0.5929 -1.4912 -0.7612
 6217TIP3   OH240065   5.631   5.773  12.113  0.1352  0.1022 -0.1938
 6217TIP3    H140066   5.701   5.835  12.133 -0.7487  1.2612 -0.6066
 6217TIP3    H240067   5.573   5.820  12.053 -0.8386 -0.9448 -0.1082
 6218TIP3   OH240068   4.011   3.744   5.983  0.4313 -0.2395 -0.0354
 6218TIP3    H140069   4.104   3.764   5.995  1.0338 -2.9383  0.2613
 6218TIP3    H240070   3.985   3.699   6.063 -0.6573 -1.1159 -0.8525
 6219TIP3   OH240071   0.637   3.513   1.342  0.1874 -0.5499  0.0754
 6219TIP3    H140072   0.594   3.564   1.411  0.5345  1.0757 -0.8643
 6219TIP3    H240073   0.704   3.572   1.307  0.4764 -1.5898 -1.1944
 6220TIP3   OH240074   1.446   1.352   3.206  0.0798 -0.9573 -0.1717
 6220TIP3    H140075   1.446   1.260   3.230  2.1090 -1.0201 -0.2451
 6220TIP3    H240076   1.524   1.388   3.248 -1.3339  1.0316  0.8956
 6221TIP3   OH240077   0.901   4.706   5.734 -0.3916  0.1673  0.5792
 6221TIP3    H140078   0.875   4.773   5.671 -1.1273 -0.7473 -0.1122
 6221TIP3    H240079   0.980   4.667   5.696 -1.2426 -0.8745 -0.1672
 6222TIP3   OH240080   1.557   3.799  10.576  0.2707  0.0716  0.1203
 6222TIP3    H140081   1.476   3.797  10.628  0.4289 -0.3581  0.3541
 6222TIP3    H240082   1.527   3.788  10.486  0.0608 -0.0596  0.2033
 6223TIP3   OH240083   0.382   2.132   4.762 -0.0021  0.5943 -0.1767
 6223TIP3    H140084   0.438   2.176   4.825  0.5106  0.1955 -0.3508
 6223TIP3    H240085   0.299   2.119   4.809  0.5584 -0.2248  0.6322
 6224TIP3   OH240086   0.701   4.294   5.148 -0.1222  0.0523  0.0924
 6224TIP3    H140087   0.724   4.251   5.230 -0.1721  0.6036  0.4073
 6224TIP3    H240088   0.728   4.385   5.161 -1.0418  0.3667 -0.1176
 6225TIP3   OH240089   6.105   6.545  13.829  0.2841  0.3635 -0.6517
 6225TIP3    H140090   6.033   6.566  13.888  0.1990 -0.2327 -0.5409
 6225TIP3    H240091   6.113   6.450  13.833 -1.0983  0.0682 -3.2010
 6226TIP3   OH240092   5.146   0.615  13.206  0.2163  0.5269 -0.8145
 6226TIP3    H140093   5.150   0.660  13.122  1.7387 -0.8102 -1.5065
 6226TIP3    H240094   5.236   0.590  13.225 -0.5738 -3.0477 -0.9865
 6227TIP3   OH240095   5.171   6.362   1.481  0.6246  0.0238  0.2553
 6227TIP3    H140096   5.147   6.311   1.404  0.2257  0.8349 -0.1652
 6227TIP3    H240097   5.100   6.426   1.491  0.1631 -0.6741  1.8571
 6228TIP3   OH240098   6.412   6.644  16.550  0.4296 -0.3184 -0.6239
 6228TIP3    H140099   6.409   6.570  16.611  0.9005 -0.6481 -0.9978
 6228TIP3    H240100   6.498   6.682  16.563 -0.5432  1.4766  1.0849
 6229TIP3   OH240101   2.074   1.401  16.743  0.7844  0.1350 -0.2583
 6229TIP3    H140102   2.129   1.443  16.809  0.0526  0.5835  0.0903
 6229TIP3    H240103   2.135   1.366  16.679  1.4411  1.3778 -0.3397
 6230TIP3   OH240104   1.721   3.086   0.353  0.0421  0.3161  0.2839
 6230TIP3    H140105   1.696   3.079   0.261  0.4363  0.8734  0.1308
 6230TIP3    H240106   1.801   3.035   0.361  0.5810  1.1189  0.0874
 6231TIP3   OH240107   4.755   3.492   2.724  0.3050 -0.3797  0.0982
 6231TIP3    H140108   4.759   3.547   2.646 -0.5399 -0.8511 -0.2910
 6231TIP3    H240109   4.666   3.457   2.724  0.4925 -0.8819  0.9337
 6232TIP3   OH240110   3.198   6.230  13.714 -0.2845  0.2039  0.1241
 6232TIP3    H140111   3.134   6.289  13.674  0.2518  0.7325  0.0314
 6232TIP3    H240112   3.280   6.279  13.713  0.0518 -0.3336  0.5551
 6233TIP3   OH240113   0.531   4.434   3.676  0.0201 -0.7919  0.1735
 6233TIP3    H140114   0.622   4.407   3.668  0.1803 -0.2869  0.2565
 6233TIP3    H240115   0.534   4.510   3.735 -0.2670  0.2510 -1.1245
 6234TIP3   OH240116   1.953   5.455  14.789  0.0020 -0.3681  0.0447
 6234TIP3    H140117   1.945   5.533  14.734  1.7800  0.4171  0.8370
 6234TIP3    H240118   2.030   5.471  14.843 -0.1590 -2.2681  0.9191
 6235TIP3   OH240119   1.713   0.481  12.158  0.3301 -0.1872  0.3793
 6235TIP3    H140120   1.696   0.482  12.064 -0.1662 -1.8843  0.4221
 6235TIP3    H240121   1.706   0.389  12.183 -2.8445  0.5353  2.6778
 6236TIP3   OH240122   0.898   4.468  11.138  0.0878  0.2561 -0.1759
 6236TIP3    H140123   0.834   4.516  11.086 -0.4865 -0.5868 -0.2697
 6236TIP3    H240124   0.896   4.510  11.224  0.5244  1.1975 -0.6130
 6237TIP3   OH240125   3.644   5.369   4.565  0.4026  0.1053  0.2596
 6237TIP3    H140126   3.593   5.336   4.639  1.6488  1.7381  1.9302
 6237TIP3    H240127   3.670   5.457   4.591  3.4500 -0.3488 -0.8036
 6238TIP3   OH240128   5.431   3.506   4.301  0.1735 -0.7806  0.7539
 6238TIP3    H140129   5.472   3.457   4.230 -4.0228 -3.6478 -0.0569
 6238TIP3    H240130   5.449   3.598   4.280  1.4732 -1.6003 -2.3876
 6239TIP3   OH240131   4.608   4.671   0.172  0.2074  0.4419 -0.0607
 6239TIP3    H140132   4.556   4.733   0.224 -0.8417 -0.7353  0.3437
 6239TIP3    H240133   4.545   4.633   0.111  0.4848 -1.3466  0.7283
 6240TIP3   OH240134   1.457   1.081  14.692 -0.1528  0.5430 -0.0510
 6240TIP3    H140135   1.515   1.034  14.632  0.5122  1.1262  0.1094
 6240TIP3    H240136   1.512   1.151  14.728 -1.4254  2.1909 -1.1595
 6241TIP3   OH240137   3.237   0.264  13.109  0.0161 -0.2724  0.4735
 6241TIP3    H140138   3.322   0.307  13.122 -1.0041  2.8985 -2.0495
 6241TIP3    H240139   3.241   0.229  13.020 -1.4454  0.4136  0.1122
 6242TIP3   OH240140   4.858   2.884   1.855 -0.0067 -0.0010  0.2161
 6242TIP3    H140141   4.781   2.926   1.894  0.1565 -0.5654  1.1936
 6242TIP3    H240142   4.930   2.944   1.871 -0.3443  0.9236 -1.4308
 6243TIP3   OH240143   1.318   1.116   4.638 -0.3611 -0.5579  0.5758
 6243TIP3    H140144   1.382   1.187   4.631 -1.5750  0.4867 -0.2632
 6243TIP3    H240145   1.338   1.059   4.564 -0.2109 -0.3952  0.4895
 6244TIP3   OH240146   0.932   5.313  15.300  0.2668 -0.1979  0.0875
 6244TIP3    H140147   0.943   5.219  15.286 -1.1349 -0.3379 -0.1603
 6244TIP3    H240148   0.937   5.351  15.212  0.0555 -0.1230  0.1075
 6245TIP3   OH240149   5.612   5.787  10.900 -0.1796 -0.2825  0.1488
 6245TIP3    H140150   5.540   5.849  10.916 -0.2649  0.1688 -1.8267
 6245TIP3    H240151   5.596   5.716  10.962 -0.4764  1.3069  1.9939
 6246TIP3   OH240152   0.546   4.670  10.788  0.5082  0.7154  0.1784
 6246TIP3    H140153   0.474   4.648  10.729 -0.1029 -0.1139  1.1864
 6246TIP3    H240154   0.533   4.762  10.810 -0.5789  0.4348  0.7744
 6247TIP3   OH240155   4.575   3.209   1.557 -0.4160  0.4574 -0.3763
 6247TIP3    H140156   4.507   3.267   1.521  1.7272  2.1198 -2.0236
 6247TIP3    H240157   4.607   3.160   1.481 -0.7048 -1.3667  0.6307
 6248TIP3   OH240158   5.248   2.011   4.921 -0.4992  0.1221 -0.5411
 6248TIP3    H140159   5.245   1.916   4.932 -0.0370  0.2609  1.0129
 6248TIP3    H240160   5.165   2.042   4.959  0.8197  0.5577  2.2657
 6249TIP3   OH240161   4.636   5.359  14.313 -0.0190  0.7917 -0.8994
 6249TIP3    H140162   4.684   5.280  14.287  1.4764  1.0681  0.7991
 6249TIP3    H240163   4.701   5.429  14.309 -0.8356  1.5909 -0.5735
 6250TIP3   OH240164   4.488   3.749  13.332 -0.2589 -0.0797 -0.3553
 6250TIP3    H140165   4.529   3.820  13.380 -0.3727  0.0786 -0.4908
 6250TIP3    H240166   4.479   3.679  13.396 -0.8866  0.3115 -0.0036
 6251TIP3   OH240167   4.517   6.301  15.162 -0.2939 -0.0104 -0.7055
 6251TIP3    H140168   4.576   6.363  15.119 -0.9259  0.7906 -0.4367
 6251TIP3    H240169   4.474   6.256  15.090  0.8172 -0.7957 -0.9099
 6252TIP3   OH240170   5.074   1.429  11.901 -0.3193 -0.2960  0.3537
 6252TIP3    H140171   5.121   1.415  11.983 -1.2022 -0.6238  0.8136
 6252TIP3    H240172   5.140   1.465  11.841  0.8599 -1.9911  0.5721
 6253TIP3   OH240173   0.358   3.567   5.419 -0.3545  0.3829  0.7684
 6253TIP3    H140174   0.305   3.522   5.485  0.9971 -0.3186  1.3963
 6253TIP3    H240175   0.387   3.648   5.463 -0.4354  0.4919  0.6218
 6254TIP3   OH240176   4.135   0.056  13.059  0.8642 -0.0677 -0.0472
 6254TIP3    H140177   4.089   0.001  13.122  0.4985 -0.1139 -0.3503
 6254TIP3    H240178   4.217   0.081  13.103  0.5920 -0.0592  0.4599
 6255TIP3   OH240179   3.728   6.077   0.182 -0.1171 -0.1384 -0.3044
 6255TIP3    H140180   3.662   6.118   0.126 -0.1508  0.7050  0.3174
 6255TIP3    H240181   3.723   5.984   0.162 -1.2880 -0.0483 -0.4884
 6256TIP3   OH240182   4.612   0.075   3.637 -0.0792  0.4393 -0.3736
 6256TIP3    H140183   4.619   0.007   3.571  0.6427  0.5319 -0.4008
 6256TIP3    H240184   4.522   0.107   3.630 -0.2291 -0.0743 -0.7876
 6257TIP3   OH240185   4.970   5.144  15.683  0.0338  0.4649 -0.2736
 6257TIP3    H140186   4.928   5.102  15.607 -0.0842 -0.5858  0.3638
 6257TIP3    H240187   4.904   5.206  15.715 -0.1347  0.5008 -0.6842
 6258TIP3   OH240188   6.037   5.488   4.864 -0.4505 -0.3389  0.3731
 6258TIP3    H140189   6.039   5.556   4.797 -2.4629  0.3294  0.9203
 6258TIP3    H240190   6.073   5.411   4.820  0.2984  0.6250 -0.7866
 6259TIP3   OH240191   4.523   0.661   2.316 -0.1035  0.1740  0.2670
 6259TIP3    H140192   4.440   0.637   2.274 -0.0633  0.6872 -0.1149
 6259TIP3    H240193   4.547   0.584   2.367 -0.5289 -0.1861 -0.0677
 6260TIP3   OH240194   5.487   1.202   0.365  0.3617  0.0855 -0.2612
 6260TIP3    H140195   5.444   1.199   0.450 -0.9258 -1.2783 -0.8945
 6260TIP3    H240196   5.501   1.295   0.348  0.8601  0.3620  1.5215
 6261TIP3   OH240197   5.535   2.425  13.005 -0.5435  0.0357 -0.0463
 6261TIP3    H140198   5.616   2.452  13.049  0.6890 -1.2198 -1.4335
 6261TIP3    H240199   5.480   2.503  13.006 -0.2117  0.3287  2.8220
 6262TIP3   OH240200   3.427   0.801   5.399  0.1467 -0.2242 -0.4095
 6262TIP3    H140201   3.349   0.839   5.360 -0.0600 -0.4944 -0.2609
 6262TIP3    H240202   3.496   0.814   5.334 -0.4204 -1.5921 -1.3265
 6263TIP3   OH240203   4.571   6.337   3.708 -0.3552 -0.2516  0.2981
 6263TIP3    H140204   4.640   6.325   3.642  1.1261 -0.2330  1.7773
 6263TIP3    H240205   4.495   6.367   3.658 -0.0556 -2.5345 -1.7317
 6264TIP3   OH240206   5.727   4.540  12.052  0.8019 -0.6980 -0.8021
 6264TIP3    H140207   5.783   4.476  12.096  0.3564  0.0958  1.0105
 6264TIP3    H240208   5.677   4.581  12.123 -0.7495 -0.0977 -2.1725
 6265TIP3   OH240209   5.420   0.645  13.147 -0.0018  0.1320  0.8681
 6265TIP3    H140210   5.456   0.733  13.131  0.4743  0.0119  1.2493
 6265TIP3    H240211   5.440   0.628  13.239 -0.4532 -0.2127  0.9011
 6266TIP3   OH240212   3.984   6.178   5.923 -0.1896  0.0953 -0.0069
 6266TIP3    H140213   3.963   6.182   5.830  0.7853  1.0177 -0.2019
 6266TIP3    H240214   3.907   6.213   5.967 -0.3341  0.4203 -0.5150
 6267TIP3   OH240215   3.306   2.569   2.197 -0.0394  0.0201 -0.5429
 6267TIP3    H140216   3.308   2.663   2.211 -1.9332  0.1134 -0.6617
 6267TIP3    H240217   3.275   2.532   2.280  0.3585 -0.4686 -0.6039
 6268TIP3   OH240218   2.136   2.397   3.507  0.0117 -0.3944 -0.1528
 6268TIP3    H140219   2.089   2.328   3.553 -0.3096  0.2826  0.5538
 6268TIP3    H240220   2.227   2.365   3.503 -0.4031 -1.5114 -1.1580
 6269TIP3   OH240221   0.494   1.762   0.872 -0.7639 -0.3321  0.1583
 6269TIP3    H140222   0.519   1.816   0.797 -1.4402 -1.5622 -0.9880
 6269TIP3    H240223   0.541   1.801   0.946 -0.8322  1.4990 -0.7093
 6270TIP3   OH240224   4.585   5.451  16.647 -0.2922 -0.0961 -0.2491
 6270TIP3    H140225   4.613   5.543  16.637  1.9761 -0.6430  0.4231
 6270TIP3    H240226   4.609   5.410  16.564 -0.4239 -0.2893 -0.1913
 6271TIP3   OH240227   4.376   4.712   5.445  0.1263  0.3616 -0.4757
 6271TIP3    H140228   4.456   4.674   5.407  1.2334 -0.0517  2.0310
 6271TIP3    H240229   4.309   4.645   5.432  0.8507 -0.3944 -0.3799
 6272TIP3   OH240230   2.312   5.703   6.587  0.4668 -0.1255  0.2810
 6272TIP3    H140231   2.382   5.745   6.536  0.4488  0.1678  0.5010
 6272TIP3    H240232   2.231   5.728   6.542  0.4365  0.2994  0.5742
 6273TIP3   OH240233   1.560   5.869  12.225 -0.4171 -0.3861  0.5100
 6273TIP3    H140234   1.516   5.880  12.309 -1.1909 -2.5381  0.4608
 6273TIP3    H240235   1.516   5.794  12.185  2.7530 -2.2143  0.1071
 6274TIP3   OH240236   4.828   2.188   0.087 -0.3736 -0.4710 -0.1575
 6274TIP3    H140237   4.844   2.185   0.182 -0.7239  1.7788  0.0260
 6274TIP3    H240238   4.874   2.111   0.053  1.4495 -0.2589  1.6080
 6275TIP3   OH240239   5.188   1.914  13.235 -0.1798  0.3555  0.0389
 6275TIP3    H140240   5.213   1.842  13.292  0.8748  1.2475  0.7579
 6275TIP3    H240241   5.199   1.992  13.289 -1.0614  1.0831 -0.7863
 6276TIP3   OH240242   0.832   4.425   3.344 -0.2979  0.5622 -0.0499
 6276TIP3    H140243   0.769   4.417   3.272 -1.8418 -0.2513  1.3275
 6276TIP3    H240244   0.795   4.494   3.400  0.3522  0.4752  0.4931
 6277TIP3   OH240245   2.374   5.647   3.890  0.2188  0.0291  0.0632
 6277TIP3    H140246   2.351   5.663   3.981  2.0016 -0.6128  0.6734
 6277TIP3    H240247   2.310   5.583   3.860  1.6369 -2.4487  1.9669
 6278TIP3   OH240248   1.529   0.315   1.438 -0.9986  0.7242 -0.4838
 6278TIP3    H140249   1.434   0.302   1.444 -0.8801  0.6723  2.1859
 6278TIP3    H240250   1.563   0.227   1.418 -1.3474  0.0362  1.6687
 6279TIP3   OH240251   0.861   5.438  11.583  0.0220  1.1029  0.0173
 6279TIP3    H140252   0.931   5.426  11.519 -0.6378 -1.0471 -0.3843
 6279TIP3    H240253   0.902   5.423  11.668 -0.4546 -3.8207 -0.3581
 6280TIP3   OH240254   3.082   3.227  11.304  0.0613  0.1264  0.1952
 6280TIP3    H140255   2.999   3.184  11.288 -0.0917  0.2949  0.5350
 6280TIP3    H240256   3.148   3.163  11.276 -0.0740 -1.2207  2.6919
 6281TIP3   OH240257   1.375   2.309  11.673  0.5209  0.2234  0.4819
 6281TIP3    H140258   1.413   2.222  11.663 -0.1719 -0.1902  1.2571
 6281TIP3    H240259   1.436   2.355  11.730  1.5662  0.7105 -0.9696
 6282TIP3   OH240260   1.077   0.286   0.537  0.4069 -0.4462  0.0463
 6282TIP3    H140261   0.991   0.251   0.560 -0.1934 -0.5344 -2.1214
 6282TIP3    H240262   1.088   0.263   0.445  1.5324  1.9966 -0.4971
 6283TIP3   OH240263   1.222   3.646   2.215 -0.2255 -0.3834  0.0950
 6283TIP3    H140264   1.317   3.658   2.217  0.7788 -5.4117 -2.6125
 6283TIP3    H240265   1.200   3.616   2.303  0.4205  1.6269  1.0084
 6284TIP3   OH240266   6.089   2.980   0.663  0.6016 -0.2352  0.3365
 6284TIP3    H140267   6.001   2.955   0.637  0.7147 -0.1524 -0.1337
 6284TIP3    H240268   6.082   3.001   0.756  0.6493 -2.8066  1.0137
 6285TIP3   OH240269   2.084   3.481   2.970  0.0137  0.1064  0.0396
 6285TIP3    H140270   2.060   3.498   3.061  2.2644 -0.0303  0.7186
 6285TIP3    H240271   2.113   3.390   2.969  0.5109  0.2606 -0.7052
 6286TIP3   OH240272   1.394   1.995  13.442  0.1643 -0.3193  0.0459
 6286TIP3    H140273   1.477   1.947  13.438  0.2521 -0.2320  0.7499
 6286TIP3    H240274   1.419   2.087  13.442  0.0761 -0.2925  0.3283
 6287TIP3   OH240275   4.518   0.727  12.109  0.2065 -0.1186  0.1133
 6287TIP3    H140276   4.590   0.731  12.045 -2.0899  0.1566 -2.6693
 6287TIP3    H240277   4.484   0.817  12.111 -0.5080 -0.3975  0.8144
 6288TIP3   OH240278   3.009   1.166   2.779  0.3038  0.4426  0.2984
 6288TIP3    H140279   3.091   1.216   2.773 -0.8177  2.3365 -0.0529
 6288TIP3    H240280   2.941   1.229   2.755 -1.1132 -1.5632 -1.3387
 6289TIP3   OH240281   3.142   2.110  11.339  0.5882  0.0001  0.3563
 6289TIP3    H140282   3.188   2.033  11.373  3.3216  2.2993  2.3391
 6289TIP3    H240283   3.082   2.135  11.409 -0.1626 -0.1838 -0.2079
 6290TIP3   OH240284   2.768   2.900  16.482  0.6470  0.2564  0.4065
 6290TIP3    H140285   2.764   2.982  16.434 -0.2239  1.0278  1.7297
 6290TIP3    H240286   2.793   2.925  16.571 -0.5426 -0.7792  1.0753
 6291TIP3   OH240287   1.180   4.092   0.456  0.4966  0.0197 -0.1791
 6291TIP3    H140288   1.099   4.051   0.426  0.0598  1.4626 -1.0246
 6291TIP3    H240289   1.188   4.063   0.548 -1.3455  0.4198  0.1513
 6292TIP3   OH240290   4.743   2.368  16.463  0.4761  0.1159 -0.2168
 6292TIP3    H140291   4.771   2.292  16.514  1.2653  0.1617 -0.5663
 6292TIP3    H240292   4.763   2.345  16.373 -2.2201 -0.5472 -0.7199
 6293TIP3   OH240293   0.445   0.110   0.933  0.1878  0.5997 -0.3889
 6293TIP3    H140294   0.382   0.181   0.919 -0.6936 -0.1349 -0.2481
 6293TIP3    H240295   0.437   0.056   0.854 -0.0380  0.0019  0.0385
 6294TIP3   OH240296   0.915   5.012  15.765 -0.0032  0.1622  0.3599
 6294TIP3    H140297   0.962   5.095  15.758 -2.3251  1.6545  1.2590
 6294TIP3    H240298   0.983   4.947  15.782  1.9430  1.7707 -0.8617
 6295TIP3   OH240299   2.005   1.212   0.515 -0.2023 -0.4759 -0.6415
 6295TIP3    H140300   2.077   1.262   0.478 -0.4469  0.1638 -0.2719
 6295TIP3    H240301   1.936   1.218   0.449 -1.0676  1.6720  0.3687
 6296TIP3   OH240302   5.177   0.708  11.409  0.4529 -0.1878 -0.1004
 6296TIP3    H140303   5.158   0.741  11.321  0.5481  0.8128  0.2455
 6296TIP3    H240304   5.180   0.613  11.399 -1.7926 -0.2390 -0.7468
 6297TIP3   OH240305   1.016   0.819   0.484  0.3614  0.0478 -0.7141
 6297TIP3    H140306   1.004   0.725   0.495  1.9257 -0.0998  0.1233
 6297TIP3    H240307   0.948   0.859   0.538  0.0694 -0.6151 -0.5904
 6298TIP3   OH240308   2.883   5.596  14.636 -0.3306  0.4338 -0.5137
 6298TIP3    H140309   2.898   5.588  14.730 -0.5259  0.1235 -0.5063
 6298TIP3    H240310   2.957   5.646  14.603 -1.5314  2.7767  0.1823
 6299TIP3   OH240311   3.807   1.594   5.504 -0.8348  0.1157  0.3541
 6299TIP3    H140312   3.746   1.638   5.444 -0.4276 -0.3659 -0.4286
 6299TIP3    H240313   3.782   1.502   5.500  0.8370 -0.3207 -1.1071
 6300TIP3   OH240314   3.302   6.152  13.142 -0.8381 -0.4688 -0.2442
 6300TIP3    H140315   3.268   6.220  13.083 -0.5032 -0.4614 -0.4297
 6300TIP3    H240316   3.350   6.092  13.085  0.5572  0.2170  0.1678
 6301TIP3   OH240317   2.333   5.952   3.914  0.3051 -0.3210  0.4085
 6301TIP3    H140318   2.413   5.997   3.941  0.4223 -1.7446  2.6498
 6301TIP3    H240319   2.361   5.863   3.893 -0.8394 -1.3746  2.9502
 6302TIP3   OH240320   1.191   4.847   1.402  0.5092  0.1576  0.2981
 6302TIP3    H140321   1.117   4.790   1.379 -0.2185  1.1453  0.0975
 6302TIP3    H240322   1.268   4.803   1.367  0.0157 -0.8978  0.5161
 6303TIP3   OH240323   4.643   4.257   3.636  0.5298  0.4732  0.1844
 6303TIP3    H140324   4.676   4.330   3.688  0.0033  1.4318 -0.7821
 6303TIP3    H240325   4.617   4.191   3.701  3.7082 -0.1249  1.0009
 6304TIP3   OH240326   3.375   3.552  13.580  1.0103  0.4510 -0.0193
 6304TIP3    H140327   3.406   3.634  13.541 -1.0261  1.6429  0.6901
 6304TIP3    H240328   3.296   3.531  13.530  0.4246 -0.0008  1.0563
 6305TIP3   OH240329   3.436   0.992  14.470 -0.0773 -0.7297 -0.7380
 6305TIP3    H140330   3.522   0.983  14.509 -0.4996 -1.3850  0.0729
 6305TIP3    H240331   3.400   0.903  14.469 -1.2422 -0.2950  0.1470
 6306TIP3   OH240332   1.520   5.385   5.004  0.1640 -0.5173  0.1511
 6306TIP3    H140333   1.533   5.290   5.003  1.0063 -0.4545  1.6337
 6306TIP3    H240334   1.608   5.421   5.014 -0.3174  0.2917  2.0679
 6307TIP3   OH240335   4.812   3.283   2.117  0.0210  0.2870  0.1765
 6307TIP3    H140336   4.811   3.200   2.070  1.3866 -0.4482  1.3529
 6307TIP3    H240337   4.745   3.273   2.184  1.6985 -0.8465  1.7909
 6308TIP3   OH240338   5.727   0.413   3.129 -0.6040 -0.6844  0.2022
 6308TIP3    H140339   5.634   0.424   3.150 -0.7198 -0.6996 -0.2813
 6308TIP3    H240340   5.766   0.498   3.148 -0.5018 -0.9849  1.4439
 6309TIP3   OH240341   6.266   2.104   3.007 -0.2456 -0.2215 -0.8307
 6309TIP3    H140342   6.271   2.064   2.920  1.5898  2.5568 -2.1639
 6309TIP3    H240343   6.338   2.063   3.056 -0.5417 -0.9704 -1.0126
 6310TIP3   OH240344   2.439   2.028   6.306  0.4604  0.4115 -0.1464
 6310TIP3    H140345   2.437   1.951   6.363  1.2593  0.8279  0.4653
 6310TIP3    H240346   2.439   1.993   6.217 -2.9476 -0.2434 -0.0458
 6311TIP3   OH240347   0.184   3.976  15.064 -0.0197  0.0874  0.2040
 6311TIP3    H140348   0.200   3.882  15.065  1.2767  0.2672 -0.9014
 6311TIP3    H240349   0.203   4.003  14.974  2.8042  1.8849  1.2015
 6312TIP3   OH240350   0.487   5.948   2.467 -0.1197  0.0814 -0.2236
 6312TIP3    H140351   0.485   5.912   2.379  0.1567 -0.7314  0.0921
 6312TIP3    H240352   0.399   5.935   2.501 -0.5161  1.3355 -0.7373
 6313TIP3   OH240353   2.952   4.263   4.254  0.2275  0.4383 -0.0860
 6313TIP3    H140354   2.863   4.278   4.285  0.7266  0.2975  1.5084
 6313TIP3    H240355   2.949   4.175   4.215  0.2592 -0.8079  2.5258
 6314TIP3   OH240356   1.958   5.793   4.077 -0.1707  1.0501 -0.4370
 6314TIP3    H140357   1.940   5.704   4.109 -0.6884  1.1000 -0.5905
 6314TIP3    H240358   1.887   5.846   4.112  0.6374  1.5952  0.4455
 6315TIP3   OH240359   6.508   3.034   4.582 -0.3989  0.3296 -0.1163
 6315TIP3    H140360   6.562   3.055   4.657  0.0401 -0.6731 -0.1371
 6315TIP3    H240361   6.539   2.948   4.552 -2.7249 -0.8577  0.5812
 6316TIP3   OH240362   2.858   1.835  12.524  0.1890  0.3929  0.0880
 6316TIP3    H140363   2.799   1.866  12.455  1.5168  0.0062 -1.2805
 6316TIP3    H240364   2.943   1.872  12.500  0.4174  1.6445  2.4594
 6317TIP3   OH240365   4.298   6.422  16.136  0.0351  1.0694 -0.3339
 6317TIP3    H140366   4.390   6.428  16.111 -0.6440 -0.4549 -3.7660
 6317TIP3    H240367   4.265   6.511  16.126  0.5494  1.1136 -2.0113
 6318TIP3   OH240368   0.487   5.107  14.886 -0.3540  0.0504 -0.1306
 6318TIP3    H140369   0.581   5.121  14.877 -0.2115  0.2668  1.3450
 6318TIP3    H240370   0.477   5.012  14.895 -0.2953  0.0196 -0.3749
 6319TIP3   OH240371   6.389   3.232   4.219  0.0895  0.0203  0.3000
 6319TIP3    H140372   6.390   3.147   4.261 -1.0763  0.0369  0.3914
 6319TIP3    H240373   6.370   3.294   4.289  2.9770  0.6668  0.6688
 6320TIP3   OH240374   5.006   2.440   0.521  0.8179  0.6269 -0.2795
 6320TIP3    H140375   4.984   2.481   0.604 -1.5686  2.7269 -1.8211
 6320TIP3    H240376   4.994   2.346   0.537  1.4948  0.8712  1.9821
 6321TIP3   OH240377   6.210   0.412  11.672  0.0328 -0.1975 -0.1227
 6321TIP3    H140378   6.132   0.386  11.722  0.9257 -1.8080  0.4945
 6321TIP3    H240379   6.264   0.333  11.670  2.5430  1.3808  1.1396
 6322TIP3   OH240380   0.032   1.030  14.632 -0.1449  0.1416 -0.2857
 6322TIP3    H140381   0.071   1.035  14.545 -0.3200 -0.7866 -0.4219
 6322TIP3    H240382   0.089   0.972  14.681 -0.8025 -0.4374 -0.1915
 6323TIP3   OH240383   2.924   4.057  16.900 -0.3690 -0.1990 -0.6941
 6323TIP3    H140384   2.856   4.122  16.913  2.0265  1.8838  3.6460
 6323TIP3    H240385   2.971   4.086  16.822 -1.8290  0.8125 -1.2306
 6324TIP3   OH240386   2.466   1.950  13.263 -0.2849  0.4197 -0.0442
 6324TIP3    H140387   2.549   1.924  13.303 -0.1119 -0.6740 -1.0391
 6324TIP3    H240388   2.474   1.921  13.172 -2.5925 -1.7501  0.3302
 6325TIP3   OH240389   3.557   3.961   4.605  0.4936  0.2441  0.1527
 6325TIP3    H140390   3.503   4.040   4.607 -0.9969 -0.7430  0.2026
 6325TIP3    H240391   3.534   3.914   4.685 -0.7860 -1.5744 -1.1884
 6326TIP3   OH240392   3.648   6.150  10.679  0.1533 -0.5085  0.4408
 6326TIP3    H140393   3.686   6.173  10.764 -3.5498  1.8097  1.7329
 6326TIP3    H240394   3.678   6.219  10.620  0.8922 -0.7998  0.4750
 6327TIP3   OH240395   1.158   0.486   1.172 -0.3100 -0.4290 -0.1387
 6327TIP3    H140396   1.071   0.522   1.192 -0.7442 -0.2634 -2.0521
 6327TIP3    H240397   1.148   0.450   1.083  1.5071 -0.6860 -0.2654
 6328TIP3   OH240398   3.266   5.113  17.105 -0.5841  0.3490 -0.5979
 6328TIP3    H140399   3.291   5.150  17.190  0.5946  0.1512 -0.8534
 6328TIP3    H240400   3.222   5.031  17.126  2.3616 -1.2698 -0.2241
 6329TIP3   OH240401   1.724   4.569  15.351 -0.0409  0.0420 -0.4491
 6329TIP3    H140402   1.793   4.572  15.417  1.0207  0.3395 -1.5428
 6329TIP3    H240403   1.706   4.476  15.339  0.3318 -0.0498 -0.3120
 6330TIP3   OH240404   0.063   1.136   4.013  0.5735 -0.3895  0.5807
 6330TIP3    H140405   0.006   1.172   3.945  0.3302 -1.7366  0.0437
 6330TIP3    H240406   0.150   1.171   3.993  0.3042  0.0848  0.2259
 6331TIP3   OH240407   0.378   4.886   0.007 -0.0678 -1.0203  0.5669
 6331TIP3    H140408   0.400   4.887   0.100  0.7955 -1.7568  0.3835
 6331TIP3    H240409   0.438   4.823  -0.031  0.3549  0.0821 -0.6774
 6332TIP3   OH240410   5.782   1.927   0.407 -0.0203  0.1818  0.2538
 6332TIP3    H140411   5.863   1.972   0.434 -0.5137  0.9188  0.5288
 6332TIP3    H240412   5.813   1.848   0.362  0.8716  0.9168 -0.4643
 6333TIP3   OH240413   1.032   1.666  12.741 -0.0815 -0.0551 -0.4551
 6333TIP3    H140414   1.050   1.597  12.677 -1.1017  0.4960 -1.3749
 6333TIP3    H240415   1.041   1.747  12.691 -1.8537  0.3415 -0.1745
 6334TIP3   OH240416   2.498   2.414   5.595  0.1427  0.0322  0.2676
 6334TIP3    H140417   2.574   2.427   5.652  0.8092  0.4472 -0.6695
 6334TIP3    H240418   2.490   2.319   5.586  1.5620 -0.0145 -0.8831
 6335TIP3   OH240419   3.195   2.878   4.983 -0.3392 -0.4125  0.2101
 6335TIP3    H140420   3.185   2.788   4.951  0.2433 -0.2035 -0.5856
 6335TIP3    H240421   3.164   2.875   5.074  1.1509 -1.7808  0.7246
 6336TIP3   OH240422   5.013   0.733   4.935 -0.0901 -0.7655 -0.1825
 6336TIP3    H140423   5.079   0.683   4.984 -0.4402 -2.0245 -0.9421
 6336TIP3    H240424   5.034   0.825   4.953  1.2690 -1.1585  0.3753
 6337TIP3   OH240425   2.629   5.822   4.874  0.4543 -0.6267  0.2473
 6337TIP3    H140426   2.549   5.772   4.889  0.0653  0.1040  0.6729
 6337TIP3    H240427   2.700   5.763   4.900  0.0588 -1.2557 -0.0746
 6338TIP3   OH240428   1.679   4.543  14.395 -0.1164 -0.8018  0.3810
 6338TIP3    H140429   1.608   4.490  14.360  0.7151 -2.2455  0.8170
 6338TIP3    H240430   1.657   4.554  14.488  0.2497 -1.2999  0.5297
 6339TIP3   OH240431   6.644   2.605   2.497  0.1344 -0.0040 -0.1153
 6339TIP3    H140432   6.633   2.536   2.562 -0.9052  0.7934  0.5925
 6339TIP3    H240433   6.656   2.558   2.414  0.3431 -1.0279  0.4730
 6340TIP3   OH240434   0.924   4.010   3.558  0.2860 -0.0197  0.2372
 6340TIP3    H140435   0.949   4.101   3.572  1.8963 -0.1296 -1.5974
 6340TIP3    H240436   1.000   3.959   3.585  0.0954 -0.7049 -0.4678
 6341TIP3   OH240437   4.030   4.521   0.517 -0.0955  0.5401 -0.4545
 6341TIP3    H140438   3.944   4.544   0.481  0.5361  1.1796 -1.6018
 6341TIP3    H240439   4.091   4.539   0.446  0.9184 -0.6208  0.0969
 6342TIP3   OH240440   4.610   5.332  17.211  0.7720  0.2822 -0.2616
 6342TIP3    H140441   4.609   5.251  17.161 -1.3364  0.0868 -0.0040
 6342TIP3    H240442   4.680   5.319  17.275 -0.3315 -1.9163  0.6212
 6343TIP3   OH240443   3.451   1.476   5.797  0.5510 -0.1469 -0.7537
 6343TIP3    H140444   3.427   1.562   5.830 -0.6598 -1.5694  2.4984
 6343TIP3    H240445   3.373   1.422   5.810  1.5937 -1.9944 -1.7092
 6344TIP3   OH240446   2.438   5.573  10.959 -0.0164  0.5783 -0.7357
 6344TIP3    H140447   2.410   5.582  10.868 -0.0752 -1.0900 -0.9186
 6344TIP3    H240448   2.424   5.480  10.979 -0.8026  1.0689  1.2432
 6345TIP3   OH240449   1.498   1.894  13.094  0.7465 -0.5702 -0.3534
 6345TIP3    H140450   1.425   1.897  13.032  0.7189 -1.5089 -0.3779
 6345TIP3    H240451   1.513   1.801  13.110  1.5842 -0.3768  0.0793
 6346TIP3   OH240452   2.816   4.864  15.614  0.1184  0.5073  0.0470
 6346TIP3    H140453   2.833   4.769  15.620  0.2597  0.5680  0.6549
 6346TIP3    H240454   2.734   4.870  15.564  0.4184  0.0918 -0.5136
 6347TIP3   OH240455   5.325   0.251   1.930 -0.1631  0.6141  0.8826
 6347TIP3    H140456   5.381   0.176   1.949 -0.3685  0.5711  1.3428
 6347TIP3    H240457   5.266   0.256   2.005  0.3458  1.6983  1.2378
 6348TIP3   OH240458   5.187   1.166  14.541  0.0514 -0.3384  0.1855
 6348TIP3    H140459   5.126   1.128  14.604  0.0427  2.4397  2.0653
 6348TIP3    H240460   5.131   1.212  14.478  0.0275  2.1291  1.8552
 6349TIP3   OH240461   2.633   1.718  14.307  0.4044 -0.2369  0.1632
 6349TIP3    H140462   2.691   1.660  14.357 -0.5865 -1.5027 -0.1071
 6349TIP3    H240463   2.654   1.806  14.339  3.2739 -0.5069 -0.7392
 6350TIP3   OH240464   1.745   6.518   4.630 -0.0787 -0.1760 -0.9442
 6350TIP3    H140465   1.653   6.512   4.606 -0.0125 -0.5614 -1.1059
 6350TIP3    H240466   1.790   6.536   4.548 -0.0387  0.2987 -0.8191
 6351TIP3   OH240467   1.483   1.250   4.447 -0.1393 -0.0581  0.0188
 6351TIP3    H140468   1.572   1.225   4.472  0.0500  0.2714 -0.3026
 6351TIP3    H240469   1.465   1.198   4.368  1.0646  2.2874 -1.9144
 6352TIP3   OH240470   2.507   2.515   3.367 -0.4012  0.0515  0.0385
 6352TIP3    H140471   2.580   2.486   3.312 -0.9880  1.2583 -1.4478
 6352TIP3    H240472   2.430   2.473   3.329 -0.8516  1.1074 -0.2504
 6353TIP3   OH240473   4.270   3.914  15.135  0.5331 -0.1646 -0.2013
 6353TIP3    H140474   4.253   3.891  15.044  0.6685  2.0657 -0.8581
 6353TIP3    H240475   4.183   3.918  15.175  0.4426 -0.7481 -0.3334
 6354TIP3   OH240476   6.065   0.657   6.284  0.3271 -0.1323  0.0559
 6354TIP3    H140477   6.043   0.697   6.368  1.6549 -0.1203  0.4129
 6354TIP3    H240478   5.981   0.648   6.239 -0.5462 -1.1672  1.8228
 6355TIP3   OH240479   5.846   3.164   6.463 -0.0280  0.4230 -0.0683
 6355TIP3    H140480   5.778   3.112   6.420  1.0274 -0.3596 -0.8128
 6355TIP3    H240481   5.903   3.100   6.505  0.8814  1.0090 -0.3937
 6356TIP3   OH240482   2.278   5.474  15.967 -0.5611 -0.5076 -0.5671
 6356TIP3    H140483   2.277   5.478  15.872  0.8994 -3.6273 -0.8171
 6356TIP3    H240484   2.370   5.459  15.990 -0.9319 -0.1974  1.3285
 6357TIP3   OH240485   2.040   2.387   6.283  0.2631  0.3398 -0.2789
 6357TIP3    H140486   1.963   2.332   6.298  0.7328 -0.1066  0.5957
 6357TIP3    H240487   2.112   2.337   6.321  1.3917 -0.2937 -3.0274
 6358TIP3   OH240488   4.932   5.570  15.123 -0.1415 -0.4165 -0.1536
 6358TIP3    H140489   4.856   5.516  15.103  0.7440 -1.2934 -1.3615
 6358TIP3    H240490   5.007   5.519  15.090  1.0999 -0.1265  2.0089
 6359TIP3   OH240491   4.693   0.326  15.971  0.9651 -0.1869 -0.3631
 6359TIP3    H140492   4.682   0.337  15.877 -0.1891 -0.8007 -0.3185
 6359TIP3    H240493   4.603   0.319  16.005  1.3788 -0.5198  0.7042
 6360TIP3   OH240494   5.253   5.095   1.733  0.7265  0.0221 -0.3207
 6360TIP3    H140495   5.277   5.089   1.826  1.3922 -0.1548 -0.5036
 6360TIP3    H240496   5.166   5.055   1.729  1.2554 -1.2226  0.0147
 6361TIP3   OH240497   2.379   5.430  15.293  0.1507 -0.1769 -0.1200
 6361TIP3    H140498   2.289   5.420  15.261  0.0309 -0.9238  0.4151
 6361TIP3    H240499   2.405   5.341  15.318  1.5172 -0.2209 -1.5008
 6362TIP3   OH240500   1.237   5.274   1.454 -0.3174 -0.4265  0.3403
 6362TIP3    H140501   1.241   5.367   1.435  0.8536 -0.5713 -0.1913
 6362TIP3    H240502   1.193   5.268   1.539 -0.3047  0.6102  0.4268
 6363TIP3   OH240503   3.982   0.546   2.672  0.2221  0.7551 -0.1908
 6363TIP3    H140504   3.954   0.595   2.595 -0.5648 -1.0332 -1.1289
 6363TIP3    H240505   3.966   0.454   2.648  1.3656  0.0528  1.5519
 6364TIP3   OH240506   4.088   1.697   3.132  0.3781 -0.4481  0.3209
 6364TIP3    H140507   4.163   1.687   3.072  2.0154 -1.0283  2.3533
 6364TIP3    H240508   4.118   1.762   3.196 -1.6438  0.7738  0.1218
 6365TIP3   OH240509   5.590   5.550  11.136  0.3765  0.2738 -0.5006
 6365TIP3    H140510   5.532   5.578  11.206 -1.1496  0.9545 -1.9564
 6365TIP3    H240511   5.532   5.514  11.069  1.7545 -0.3015 -1.4534
 6366TIP3   OH240512   2.164   5.700   6.834 -0.4117 -0.1042 -0.0134
 6366TIP3    H140513   2.161   5.793   6.857 -3.0901 -0.4310  1.3174
 6366TIP3    H240514   2.205   5.698   6.748 -1.6852  2.4676 -0.7706
 6367TIP3   OH240515   1.585   5.618   3.610  0.1514 -0.3055 -0.4641
 6367TIP3    H140516   1.592   5.537   3.560  0.9537  0.1919 -1.1697
 6367TIP3    H240517   1.500   5.654   3.586  0.9833  0.5115 -2.4122
 6368TIP3   OH240518   2.251   4.254   3.277 -0.4565 -0.1951 -0.4929
 6368TIP3    H140519   2.182   4.317   3.256 -1.9353 -1.1965  1.0694
 6368TIP3    H240520   2.248   4.189   3.207 -1.1050 -0.2262 -0.4372
 6369TIP3   OH240521   1.619   0.344  15.126  0.4610 -0.2691 -0.0020
 6369TIP3    H140522   1.636   0.285  15.053  0.3036  0.0973 -0.3339
 6369TIP3    H240523   1.703   0.350  15.171  0.6994 -0.0755 -0.4640
 6370TIP3   OH240524   6.745   4.631   5.549  0.2936  0.0146 -0.3637
 6370TIP3    H140525   6.821   4.685   5.532 -0.0989  0.5571 -0.4096
 6370TIP3    H240526   6.754   4.603   5.640  0.9053 -0.5072 -0.5747
 6371TIP3   OH240527   4.434   0.824   1.604  0.9877 -0.4526  0.1914
 6371TIP3    H140528   4.366   0.766   1.639  0.5924 -0.2050 -0.1645
 6371TIP3    H240529   4.388   0.884   1.546  1.8357 -1.9206 -2.1243
 6372TIP3   OH240530   4.501   6.251   2.802 -0.1512  0.4627 -0.1322
 6372TIP3    H140531   4.419   6.223   2.763  0.1808 -1.3567  0.3949
 6372TIP3    H240532   4.568   6.198   2.759  0.4906  0.2796  1.0457
 6373TIP3   OH240533   4.556   6.599   3.454 -0.4748  0.2021  0.5954
 6373TIP3    H140534   4.555   6.542   3.376  0.3284 -0.7214  1.2437
 6373TIP3    H240535   4.474   6.649   3.447 -1.4884 -1.4191  0.2743
 6374TIP3   OH240536   1.064   0.654   4.714 -0.3213 -0.2579  0.1546
 6374TIP3    H140537   1.154   0.676   4.737 -0.2090 -0.6412  0.0875
 6374TIP3    H240538   1.071   0.598   4.637 -0.6448  0.1058 -0.1442
 6375TIP3   OH240539   0.914   3.018  17.180 -0.1195 -0.0605  0.1056
 6375TIP3    H140540   0.847   3.060  17.126  0.0163 -0.1444 -0.1346
 6375TIP3    H240541   0.926   3.078  17.254  0.0532  0.3147 -0.2198
 6376TIP3   OH240542   4.364   0.218   1.939  0.6165 -0.5423  0.0866
 6376TIP3    H140543   4.296   0.284   1.927  1.7264  0.3742 -1.4606
 6376TIP3    H240544   4.432   0.261   1.990  2.3188  0.3394 -2.7253
 6377TIP3   OH240545   0.515   5.889   4.695  0.6265 -0.2776  0.0424
 6377TIP3    H140546   0.481   5.978   4.708 -2.4994 -1.1923 -1.0257
 6377TIP3    H240547   0.572   5.874   4.771  1.2089  2.5507  0.2852
 6378TIP3   OH240548   2.168   6.483   3.304  1.0136 -0.3465  0.3791
 6378TIP3    H140549   2.201   6.559   3.352  1.0977  0.0905 -0.3538
 6378TIP3    H240550   2.218   6.483   3.222 -0.9091  0.4368 -0.8483
 6379TIP3   OH240551   5.213   1.994   0.532  0.0737  0.0295  0.1278
 6379TIP3    H140552   5.285   2.052   0.556  0.4049 -0.2458 -0.1691
 6379TIP3    H240553   5.223   1.982   0.437  0.0557 -0.5566  0.1944
 6380TIP3   OH240554   2.236   4.478  15.958  0.1148 -0.1302 -0.1002
 6380TIP3    H140555   2.191   4.473  15.874  1.1646  1.0910 -0.7715
 6380TIP3    H240556   2.168   4.458  16.023 -1.2447  0.9942 -1.1072
 6381TIP3   OH240557   5.870   2.154  13.355  0.0298 -0.1601  0.2290
 6381TIP3    H140558   5.947   2.116  13.397  0.9663 -0.9375 -2.0509
 6381TIP3    H240559   5.796   2.114  13.400  0.9728 -1.0325  1.0409
 6382TIP3   OH240560   5.335   5.100  11.732 -0.6991  0.2128 -0.5776
 6382TIP3    H140561   5.244   5.077  11.717 -1.3263  2.1018  0.0274
 6382TIP3    H240562   5.376   5.020  11.765 -1.8186 -0.9966 -2.0134
 6383TIP3   OH240563   4.082   6.652   4.369 -0.0646  0.2081 -0.4450
 6383TIP3    H140564   4.142   6.625   4.439 -1.4494  0.0196  0.7357
 6383TIP3    H240565   4.015   6.583   4.368 -1.8404  1.8479  0.3116
 6384TIP3   OH240566   4.932   3.429  13.475  0.3113 -0.2124  0.1494
 6384TIP3    H140567   4.948   3.506  13.420 -0.4717 -0.9547 -1.1742
 6384TIP3    H240568   4.844   3.442  13.510  1.0259  0.5476  1.7888
 6385TIP3   OH240569   0.593   3.716  12.149 -0.2669  0.5073 -0.6055
 6385TIP3    H140570   0.512   3.705  12.099  0.0087 -0.8018 -0.8139
 6385TIP3    H240571   0.656   3.749  12.086  0.0283 -0.9560 -1.1243
 6386TIP3   OH240572   0.915   3.580   3.750  1.0718 -0.3297  0.5046
 6386TIP3    H140573   0.923   3.597   3.844 -3.0324 -0.7889  1.1194
 6386TIP3    H240574   0.965   3.500   3.736  0.4062 -1.1986  2.6884
 6387TIP3   OH240575   4.146   4.785  13.042 -0.4985 -0.0401  0.1532
 6387TIP3    H140576   4.086   4.817  12.975 -0.5436 -2.4777 -1.0667
 6387TIP3    H240577   4.091   4.742  13.106 -0.3654  1.4154  1.2804
 6388TIP3   OH240578   6.390   3.865   1.594  0.7495  0.5588 -0.5139
 6388TIP3    H140579   6.301   3.900   1.599  0.3294 -0.5936  1.2150
 6388TIP3    H240580   6.384   3.792   1.532  0.5918  0.7482 -0.7233
 6389TIP3   OH240581   4.687   3.491   4.873 -0.5361 -0.1553  0.4258
 6389TIP3    H140582   4.678   3.401   4.904  0.8845 -1.1118 -1.7354
 6389TIP3    H240583   4.636   3.494   4.792  1.8798  0.0186 -1.1903
 6390TIP3   OH240584   6.545   2.555   3.992 -0.3109 -0.0819  0.0171
 6390TIP3    H140585   6.578   2.604   3.916  0.9745 -0.2691  0.4217
 6390TIP3    H240586   6.480   2.495   3.956 -1.4331  1.4228 -0.5970
 6391TIP3   OH240587   1.568   2.703   1.623 -0.2932  0.7745 -0.4632
 6391TIP3    H140588   1.475   2.728   1.629 -0.7652 -1.0286  0.5896
 6391TIP3    H240589   1.567   2.616   1.585  0.8519  0.1210  0.9260
 6392TIP3   OH240590   3.709   0.570   5.386 -0.0089  0.1990 -0.1478
 6392TIP3    H140591   3.661   0.560   5.304 -0.0908 -1.2629  0.0532
 6392TIP3    H240592   3.800   0.584   5.358 -0.2312  0.9807 -0.4978
 6393TIP3   OH240593   3.012   0.659   4.447 -0.8586 -0.1873  0.1970
 6393TIP3    H140594   2.969   0.625   4.369 -0.1985  0.4413 -0.4544
 6393TIP3    H240595   3.032   0.581   4.499  2.5803 -1.1544 -2.2388
 6394TIP3   OH240596   4.531   2.872  11.228 -0.5639  0.2251  0.0978
 6394TIP3    H140597   4.467   2.800  11.228 -2.4531  1.8259 -0.3010
 6394TIP3    H240598   4.518   2.915  11.143  0.8949  0.7425  0.1250
 6395TIP3   OH240599   6.591   3.551   0.250 -0.5355 -0.1398 -0.0102
 6395TIP3    H140600   6.504   3.548   0.210 -0.5933 -1.0929  0.1735
 6395TIP3    H240601   6.619   3.460   0.254  0.0340  0.0655  0.9104
 6396TIP3   OH240602   4.903   6.533   1.566  0.0949  0.3386 -0.2457
 6396TIP3    H140603   4.959   6.607   1.547  1.5853 -0.5187  0.6272
 6396TIP3    H240604   4.908   6.522   1.661 -0.1929 -0.8015 -0.3448
 6397TIP3   OH240605   3.936   6.528  16.770  0.2762  0.2162 -0.1585
 6397TIP3    H140606   3.956   6.482  16.852  3.2265  0.2229 -0.7364
 6397TIP3    H240607   3.953   6.620  16.791  1.1470  0.2059 -0.7510
 6398TIP3   OH240608   1.203   6.165  16.870  0.3211  0.0101  0.1016
 6398TIP3    H140609   1.251   6.116  16.937  1.8750  1.1060 -0.1492
 6398TIP3    H240610   1.166   6.098  16.812  0.1868 -0.9075  1.2182
 6399TIP3   OH240611   4.698   4.155  15.310  0.0732  0.2917  0.4200
 6399TIP3    H140612   4.617   4.204  15.305 -0.5316 -0.7847 -1.7198
 6399TIP3    H240613   4.763   4.210  15.267 -0.3200 -0.1871 -0.8415
 6400TIP3   OH240614   3.126   2.783  11.455 -0.7993 -0.3600  0.5095
 6400TIP3    H140615   3.217   2.802  11.431 -0.7424 -2.1575 -0.8260
 6400TIP3    H240616   3.108   2.843  11.528  0.4284  2.2561 -1.1724
 6401TIP3   OH240617   1.976   0.243   5.342  0.3147  0.1383  0.5091
 6401TIP3    H140618   1.939   0.206   5.422  0.8310 -0.2536  0.5735
 6401TIP3    H240619   1.914   0.311   5.316  1.3025  1.9806  2.5721
 6402TIP3   OH240620   0.704   3.289  15.732 -0.1433  0.1876 -0.2048
 6402TIP3    H140621   0.781   3.285  15.675  0.7103 -0.5710  0.9559
 6402TIP3    H240622   0.663   3.373  15.711  0.3582  0.0946 -1.6506
 6403TIP3   OH240623   2.166   0.292  14.234 -0.0386 -0.1370 -0.0174
 6403TIP3    H140624   2.250   0.328  14.263 -1.3240  1.6700  1.7616
 6403TIP3    H240625   2.177   0.277  14.140  1.8225  1.4060 -0.1035
 6404TIP3   OH240626   4.496   3.185  11.346  0.2335 -0.1144  0.0217
 6404TIP3    H140627   4.484   3.091  11.334  0.7906 -0.5215  2.2911
 6404TIP3    H240628   4.432   3.210  11.412  0.6725  0.9264  0.0821
 6405TIP3   OH240629   6.179   3.450   1.421  0.5686  0.5146  0.7577
 6405TIP3    H140630   6.220   3.527   1.382  1.1840  0.1709  0.7018
 6405TIP3    H240631   6.146   3.400   1.346  1.1921  0.1650  0.7066
 6406TIP3   OH240632   0.747   5.560  13.291  0.0957 -0.4292 -0.0952
 6406TIP3    H140633   0.701   5.642  13.276  0.7987  0.7463  3.3252
 6406TIP3    H240634   0.714   5.528  13.375  2.5251 -1.6106  0.5227
 6407TIP3   OH240635   2.239   5.957   2.091  0.0105 -0.6999  0.7960
 6407TIP3    H140636   2.159   5.906   2.089  0.1762 -1.1448 -3.2565
 6407TIP3    H240637   2.309   5.892   2.098  0.1052 -0.7118 -0.1617
 6408TIP3   OH240638   5.801   4.309  12.205 -0.1973  0.2271  0.3747
 6408TIP3    H140639   5.759   4.316  12.291 -0.1932 -1.0511  0.5068
 6408TIP3    H240640   5.893   4.331  12.221 -0.3236  0.6128  0.5713
 6409TIP3   OH240641   4.003   0.017  11.852  0.0268  0.1211  0.3690
 6409TIP3    H140642   3.953   0.063  11.784 -0.5555 -0.5463  0.3281
 6409TIP3    H240643   3.956   0.036  11.933  0.4708  0.5591  0.5298
 6410TIP3   OH240644   0.326   0.106  16.465 -0.1030 -0.0204  0.6237
 6410TIP3    H140645   0.398   0.151  16.420  0.6425 -0.4715  1.3498
 6410TIP3    H240646   0.362   0.021  16.489 -0.6754 -0.0088  1.5596
 6411TIP3   OH240647   2.419   3.962  11.577 -0.4047 -0.3640  0.1364
 6411TIP3    H140648   2.376   3.935  11.496 -0.1332 -0.2492 -0.0475
 6411TIP3    H240649   2.498   4.007  11.548  1.4196 -3.1087  0.4773
 6412TIP3   OH240650   0.943   4.382  11.723 -0.3806  0.2770  0.3750
 6412TIP3    H140651   0.918   4.446  11.656  1.9086  2.4549  1.3962
 6412TIP3    H240652   0.880   4.396  11.794 -2.5640 -1.7606 -1.0054
 6413TIP3   OH240653   3.120   0.762   1.480  0.1203 -0.5447  0.1706
 6413TIP3    H140654   3.090   0.853   1.483 -1.4809 -1.0166 -0.5654
 6413TIP3    H240655   3.152   0.744   1.568  0.8117  0.8383  0.2190
 6414TIP3   OH240656   6.258   6.563   0.105 -0.2533 -0.7209 -0.3770
 6414TIP3    H140657   6.341   6.543   0.147 -0.4111  0.8212  0.7584
 6414TIP3    H240658   6.280   6.624   0.034 -0.6601  2.8764  2.3106
 6415TIP3   OH240659   4.799   2.547   2.949  0.4538 -0.0174  0.0635
 6415TIP3    H140660   4.850   2.504   2.881 -0.3369  0.7953 -1.0770
 6415TIP3    H240661   4.846   2.527   3.030  1.5911 -0.7396 -0.7387
 6416TIP3   OH240662   5.753   1.961  13.843  0.2627 -0.4705  0.2288
 6416TIP3    H140663   5.770   1.971  13.937  0.7382 -1.7591  0.2939
 6416TIP3    H240664   5.687   2.028  13.824  1.0892  0.6745  1.2072
 6417TIP3   OH240665   4.713   3.046  15.279  0.1963  0.2843 -0.3462
 6417TIP3    H140666   4.678   3.126  15.242 -2.4144 -1.2437 -1.4204
 6417TIP3    H240667   4.801   3.039  15.242  1.2541  3.4560  1.2018
 6418TIP3   OH240668   3.017   2.637  14.360  0.6445  0.4782 -0.5466
 6418TIP3    H140669   3.113   2.632  14.366  0.8628  2.8766 -0.7634
 6418TIP3    H240670   3.001   2.653  14.267  0.1331  1.0810 -0.3616
 6419TIP3   OH240671   2.160   5.025  12.527  0.4586 -0.2663 -0.3245
 6419TIP3    H140672   2.146   4.947  12.582 -0.4419  0.8478  1.1157
 6419TIP3    H240673   2.097   5.015  12.456  0.2008 -0.7570 -0.0363
 6420TIP3   OH240674   4.971   1.318   3.846  0.7807  0.3525 -0.5032
 6420TIP3    H140675   5.022   1.303   3.767  2.3140 -1.8536  0.7835
 6420TIP3    H240676   4.904   1.382   3.820  1.5071  0.0785 -3.4035
 6421TIP3   OH240677   1.953   2.018  14.674  0.1472  0.1458 -0.5839
 6421TIP3    H140678   1.983   1.928  14.677  2.6366  0.9061 -0.5054
 6421TIP3    H240679   1.897   2.028  14.751  0.5250 -1.0877 -0.1335
 6422TIP3   OH240680   1.580   5.803  13.730  0.1596  0.2129  0.1017
 6422TIP3    H140681   1.629   5.883  13.709  0.9729 -0.3217 -0.0775
 6422TIP3    H240682   1.602   5.743  13.660 -1.2644  0.1602 -0.3209
 6423TIP3   OH240683   1.311   3.623   3.721  0.7379  0.0192 -0.0999
 6423TIP3    H140684   1.278   3.561   3.657  0.0785  1.5993 -1.3727
 6423TIP3    H240685   1.343   3.569   3.793 -0.3466 -1.7447 -0.8767
 6424TIP3   OH240686   0.949   0.115   4.254  0.0454  0.2069  0.0837
 6424TIP3    H140687   1.042   0.120   4.230  0.3977 -0.9127  1.0861
 6424TIP3    H240688   0.945   0.154   4.341 -0.4351  0.2671  0.0384
 6425TIP3   OH240689   4.309   2.137  16.900 -0.3323 -0.7929 -0.1945
 6425TIP3    H140690   4.300   2.091  16.817  1.1727 -1.3166 -0.0992
 6425TIP3    H240691   4.262   2.081  16.963 -1.8631 -0.1669 -0.7334
 6426TIP3   OH240692   5.231   2.417   6.207  0.1065 -0.1479  0.0711
 6426TIP3    H140693   5.255   2.324   6.199  0.2992  0.0160 -1.5707
 6426TIP3    H240694   5.210   2.428   6.300 -0.1563 -1.8898  0.2589
 6427TIP3   OH240695   4.901   3.370  17.275  0.3958  0.5240  0.3589
 6427TIP3    H140696   4.852   3.288  17.268  0.6478  0.0510  2.9903
 6427TIP3    H240697   4.846   3.426  17.330  2.2444  0.3412  2.5367
 6428TIP3   OH240698   5.891   6.548   0.563 -0.4535  0.1026  0.5356
 6428TIP3    H140699   5.894   6.470   0.509  0.3029  0.0964  0.5700
 6428TIP3    H240700   5.814   6.596   0.533 -0.0420  0.1005 -0.5556
 6429TIP3   OH240701   3.948   5.463   0.505  0.1316  0.1264 -0.2738
 6429TIP3    H140702   4.006   5.537   0.523 -1.6351  1.4266  0.3504
 6429TIP3    H240703   3.988   5.389   0.551  1.0733  1.0807  0.4760
 6430TIP3   OH240704   0.663   4.207  14.015  0.4381 -0.3550  0.5194
 6430TIP3    H140705   0.728   4.220  13.945 -0.0872 -1.4318 -0.2058
 6430TIP3    H240706   0.647   4.113  14.015 -1.1868 -0.1056  0.6145
 6431TIP3   OH240707   4.593   1.178   0.850 -0.0956 -0.0006 -1.1511
 6431TIP3    H140708   4.597   1.084   0.866 -0.2259 -0.0235 -1.2466
 6431TIP3    H240709   4.586   1.217   0.937 -2.3003 -0.2023 -1.1917
 6432TIP3   OH240710   0.538   0.431  13.798 -0.0274 -0.2253 -0.0828
 6432TIP3    H140711   0.526   0.514  13.752 -2.0948  0.3043  1.2663
 6432TIP3    H240712   0.545   0.455  13.890 -1.3448 -1.5513  0.4030
 6433TIP3   OH240713   1.671   0.805  13.949 -0.2062  0.1270  0.0222
 6433TIP3    H140714   1.692   0.721  13.908 -0.1245 -1.5632  3.2275
 6433TIP3    H240715   1.755   0.841  13.974 -0.3682  0.0280  0.7161
 6434TIP3   OH240716   5.178   5.013   6.282 -0.4208 -0.1517 -0.1880
 6434TIP3    H140717   5.192   4.986   6.373  0.0274 -1.2448 -0.5691
 6434TIP3    H240718   5.266   5.028   6.248 -0.5883  0.2658 -0.4469
 6435TIP3   OH240719   1.992   4.951  14.931  0.3317  0.2661 -0.2728
 6435TIP3    H140720   1.937   4.886  14.888  1.0151 -0.1318 -0.5552
 6435TIP3    H240721   1.930   5.014  14.969 -0.3124 -0.2058 -0.5339
 6436TIP3   OH240722   1.076   5.168  17.276  0.0312  0.1494  0.3414
 6436TIP3    H140723   1.078   5.253  17.320 -0.7289  0.1586  0.3803
 6436TIP3    H240724   1.076   5.104  17.347 -2.4593  0.1774  0.4788
 6437TIP3   OH240725   1.451   1.475  15.371  0.8578  0.2027 -0.7185
 6437TIP3    H140726   1.523   1.460  15.432  0.2885  1.7479  0.4043
 6437TIP3    H240727   1.440   1.392  15.325  1.8089 -0.7773  0.7516
 6438TIP3   OH240728   5.631   2.256  11.779  0.3689  0.1631 -0.1830
 6438TIP3    H140729   5.686   2.202  11.835  1.2764 -0.2736 -1.4644
 6438TIP3    H240730   5.574   2.303  11.841  0.5854 -1.0938  1.0339
 6439TIP3   OH240731   5.733   0.464  11.374  0.1272  0.2167  0.1603
 6439TIP3    H140732   5.777   0.521  11.311  0.5493  1.2113  1.3149
 6439TIP3    H240733   5.641   0.463  11.347  0.0218  1.8455  0.3744
 6440TIP3   OH240734   0.027   5.455   5.327  0.2840 -0.6592  0.0797
 6440TIP3    H140735   0.019   5.427   5.418 -0.7705 -0.8707 -0.0668
 6440TIP3    H240736  -0.039   5.522   5.317  1.5942  0.6574 -0.0659
 6441TIP3   OH240737   1.511   1.824   2.684 -0.3894  0.3082  0.1943
 6441TIP3    H140738   1.549   1.746   2.724 -0.7587 -0.9713 -1.8453
 6441TIP3    H240739   1.445   1.791   2.624 -2.5755  2.3372  1.3305
 6442TIP3   OH240740   2.978   2.048   0.482  0.1468  0.1816 -0.2280
 6442TIP3    H140741   2.884   2.067   0.478  0.5599  2.2767 -2.7795
 6442TIP3    H240742   2.990   2.001   0.564 -3.1221 -0.1549  0.1640
 6443TIP3   OH240743   5.334   4.371   0.411  0.6844  0.3039  0.4924
 6443TIP3    H140744   5.320   4.280   0.386 -0.1558  0.3908  0.6317
 6443TIP3    H240745   5.429   4.384   0.401  0.5299  0.1313 -1.9767
 6444TIP3   OH240746   5.099   6.302   2.474  0.0579 -0.0440 -0.4527
 6444TIP3    H140747   5.048   6.253   2.410  0.6367 -0.1814 -0.8135
 6444TIP3    H240748   5.178   6.250   2.487 -0.4997 -0.5646  1.1592
 6445TIP3   OH240749   3.781   4.004  10.859  0.1778 -0.2110  0.0995
 6445TIP3    H140750   3.711   3.949  10.825 -0.6172 -0.7067  2.3615
 6445TIP3    H240751   3.850   3.943  10.886  0.1666  0.0286  0.7042
 6446TIP3   OH240752   5.829   3.199   2.580  0.4061  0.1263  0.2783
 6446TIP3    H140753   5.737   3.184   2.559  0.0421  2.8408 -0.4085
 6446TIP3    H240754   5.829   3.221   2.673  0.3213  0.4955  0.1894
 6447TIP3   OH240755   5.354   0.332   4.465 -0.7268  0.2627  0.4320
 6447TIP3    H140756   5.301   0.361   4.539  0.5235 -0.5073  1.6874
 6447TIP3    H240757   5.377   0.412   4.419 -3.3426  0.5820 -0.4731
 6448TIP3   OH240758   6.034   4.712   2.063 -1.3570 -0.0744  0.2993
 6448TIP3    H140759   5.971   4.641   2.055 -0.8303 -0.6009  0.7205
 6448TIP3    H240760   6.022   4.764   1.983 -2.0171 -0.4092  0.1755
 6449TIP3   OH240761   0.196   5.667   2.110  0.1459 -0.1794 -0.5212
 6449TIP3    H140762   0.159   5.619   2.183  0.3612  2.1850  1.2768
 6449TIP3    H240763   0.120   5.707   2.067  0.2366  2.1872  1.3200
 6450TIP3   OH240764   6.543   1.140   4.771 -0.1552  0.6696  0.3874
 6450TIP3    H140765   6.482   1.067   4.766  0.6714 -0.0286  0.3498
 6450TIP3    H240766   6.596   1.122   4.848  0.7456  0.6814 -0.2150
 6451TIP3   OH240767   1.586   2.579   4.865  0.8500 -0.0740 -0.5948
 6451TIP3    H140768   1.555   2.540   4.783 -0.0896 -0.0243 -0.2697
 6451TIP3    H240769   1.557   2.519   4.933  1.2963  0.0841 -0.2599
 6452TIP3   OH240770   3.639   2.419  13.620  0.0370 -0.2331  0.3316
 6452TIP3    H140771   3.653   2.331  13.655 -0.6158 -0.7504 -0.6386
 6452TIP3    H240772   3.612   2.404  13.529  1.2582  1.0296 -0.2788
 6453TIP3   OH240773   3.123   6.261  15.933 -0.2339  0.5882 -0.4191
 6453TIP3    H140774   3.132   6.167  15.919  1.1137  0.5307  0.5929
 6453TIP3    H240775   3.175   6.301  15.863 -1.9218  0.6576 -1.6837
 6454TIP3   OH240776   4.255   3.101  10.944 -0.3612  0.4722 -0.2630
 6454TIP3    H140777   4.269   3.010  10.919 -0.8369  0.1952  0.4392
 6454TIP3    H240778   4.307   3.152  10.882  1.6533 -0.3785  0.6380
 6455TIP3   OH240779   1.433   5.422   2.089  0.4674 -0.4387  0.7349
 6455TIP3    H140780   1.423   5.404   2.182 -0.2905 -0.3162  0.6799
 6455TIP3    H240781   1.456   5.515   2.085 -0.7800 -0.1207  0.7347
 6456TIP3   OH240782   5.920   2.994  16.144  0.2992  1.1456 -0.2125
 6456TIP3    H140783   5.922   3.042  16.062  2.4460 -0.1781 -1.0052
 6456TIP3    H240784   6.010   2.997  16.177  0.3887 -1.6607  0.0418
 6457TIP3   OH240785   2.621   3.094   0.107 -0.4817  0.1768  0.1561
 6457TIP3    H140786   2.617   3.189   0.102  0.0023  0.2256  0.6380
 6457TIP3    H240787   2.707   3.071   0.071 -1.2978 -0.2096 -1.6231
 6458TIP3   OH240788   1.621   5.295  17.229  0.5216 -0.2349  0.4588
 6458TIP3    H140789   1.635   5.201  17.238  0.6847 -0.1278  1.5016
 6458TIP3    H240790   1.622   5.328  17.319 -2.2196  0.3739  0.3762
 6459TIP3   OH240791   4.823   3.641  13.345  0.1304 -0.0809 -0.0424
 6459TIP3    H140792   4.768   3.670  13.418  0.0783 -0.0508 -0.0935
 6459TIP3    H240793   4.832   3.718  13.290 -4.5081 -1.2770 -3.0677
 6460TIP3   OH240794   5.634   4.966   1.610 -0.4657  0.4443 -0.4385
 6460TIP3    H140795   5.603   5.046   1.567 -1.0570 -0.3007 -1.4411
 6460TIP3    H240796   5.649   4.904   1.539 -1.7638 -0.9330  0.4189
 6461TIP3   OH240797   2.527   5.858  17.044  0.2478 -0.1357  0.3158
 6461TIP3    H140798   2.494   5.848  16.955  0.2148  0.8033  0.2088
 6461TIP3    H240799   2.501   5.778  17.089  2.4149 -1.7604 -1.1467
 6462TIP3   OH240800   2.296   3.173  12.641  0.2454 -0.4272 -0.1846
 6462TIP3    H140801   2.248   3.251  12.667  1.4569  0.9818 -1.9706
 6462TIP3    H240802   2.232   3.119  12.594 -0.0910  0.5027 -0.8117
 6463TIP3   OH240803   3.433   2.499   0.894  0.4021 -0.2253  0.0014
 6463TIP3    H140804   3.502   2.499   0.828 -0.2301  1.7301 -0.7134
 6463TIP3    H240805   3.457   2.569   0.955 -0.4817 -0.1316  0.2626
 6464TIP3   OH240806   0.640   2.581  12.504 -0.0507  0.1858 -0.3417
 6464TIP3    H140807   0.607   2.492  12.506  0.9330 -0.2199 -1.1610
 6464TIP3    H240808   0.690   2.591  12.585 -1.1937  0.4261  0.3519
 6465TIP3   OH240809   6.487   4.824  14.269  0.4815  0.3419  0.3967
 6465TIP3    H140810   6.541   4.797  14.343 -2.0607 -0.8507  1.9897
 6465TIP3    H240811   6.504   4.918  14.259  1.7812  0.2763  1.7295
 6466TIP3   OH240812   6.488   3.780  16.239 -0.3993 -0.1282 -0.2633
 6466TIP3    H140813   6.564   3.834  16.215  0.0525 -1.0435 -0.9562
 6466TIP3    H240814   6.419   3.843  16.258  0.5914  0.7476  0.6127
 6467TIP3   OH240815   4.394   2.309   4.999 -0.2385 -0.1595 -0.6640
 6467TIP3    H140816   4.339   2.251   5.052 -0.6131  0.1151 -0.7431
 6467TIP3    H240817   4.335   2.341   4.930 -0.4494  1.4410  0.2088
 6468TIP3   OH240818   0.313   1.923   0.625 -0.3372 -0.7501  1.1238
 6468TIP3    H140819   0.286   2.012   0.601  1.4923 -0.1569  1.0871
 6468TIP3    H240820   0.402   1.934   0.660  0.3709 -2.6970  0.0773
 6469TIP3   OH240821   1.144   4.877  10.738  0.5882  0.0843 -0.0831
 6469TIP3    H140822   1.104   4.894  10.653 -0.8152  0.5031  0.6267
 6469TIP3    H240823   1.085   4.814  10.779  1.8811 -1.0165  0.1359
 6470TIP3   OH240824   1.195   3.313   5.864  0.0678 -0.0223  0.4656
 6470TIP3    H140825   1.154   3.227   5.853  0.2592 -0.0912  0.2831
 6470TIP3    H240826   1.141   3.373   5.813  1.4508 -0.4822 -1.6359
 6471TIP3   OH240827   1.988   6.590  16.907 -0.1770  0.7077  0.1262
 6471TIP3    H140828   1.896   6.599  16.930 -0.1765 -0.0013  0.4249
 6471TIP3    H240829   2.031   6.564  16.988  0.1288  0.0741 -0.2255
 6472TIP3   OH240830   1.565   3.521  12.695  0.2697  0.1147  0.1785
 6472TIP3    H140831   1.645   3.473  12.673 -0.3992 -0.5664 -0.8588
 6472TIP3    H240832   1.507   3.454  12.734 -0.5808  0.1095 -1.0608
 6473TIP3   OH240833   5.194   4.919   1.115  0.3355  0.5293 -0.1481
 6473TIP3    H140834   5.233   4.847   1.164  0.9388  0.3280 -0.9094
 6473TIP3    H240835   5.119   4.880   1.070  0.9194  0.2557 -0.9113
 6474TIP3   OH240836   6.446   1.648  15.876  0.3928 -0.0740  0.1222
 6474TIP3    H140837   6.425   1.726  15.928  0.9261  0.4693 -0.4675
 6474TIP3    H240838   6.535   1.664  15.844 -1.1850  1.4427 -4.1825
 6475TIP3   OH240839   5.598   3.364   0.089  0.0926  0.4198  0.2485
 6475TIP3    H140840   5.569   3.274   0.103 -1.0135  0.7079 -0.1185
 6475TIP3    H240841   5.604   3.374  -0.006  2.3832  0.0913  0.2976
 6476TIP3   OH240842   6.202   0.462   3.988  0.8301 -0.4529  0.0284
 6476TIP3    H140843   6.134   0.420   4.041  0.8846  0.2229  0.6412
 6476TIP3    H240844   6.269   0.487   4.051 -1.1297  4.6980  0.5711
 6477TIP3   OH240845   6.717   3.205   6.306  0.0449 -0.1450 -0.2661
 6477TIP3    H140846   6.793   3.155   6.335  0.3350  0.0467 -0.6677
 6477TIP3    H240847   6.678   3.151   6.237 -0.0270 -0.1238 -0.2420
 6478TIP3   OH240848   3.416   2.845   3.688 -0.5470 -0.2798  0.2298
 6478TIP3    H140849   3.326   2.815   3.695 -0.8116 -0.1202 -1.8611
 6478TIP3    H240850   3.466   2.764   3.673 -0.4693 -0.2590  0.3724
 6479TIP3   OH240851   3.233   4.772  13.612  0.3152  0.3180 -0.3469
 6479TIP3    H140852   3.138   4.767  13.599  0.5961  1.3802 -4.0064
 6479TIP3    H240853   3.266   4.690  13.576  0.8609  0.7784 -0.9320
 6480TIP3   OH240854   2.549   5.301  12.546  0.0345 -0.0419  0.3872
 6480TIP3    H140855   2.524   5.229  12.489  3.8294 -0.4040 -1.1552
 6480TIP3    H240856   2.588   5.258  12.623  1.1823  0.3387  0.0320
 6481TIP3   OH240857   2.351   2.434   4.198 -0.4485  0.6119  0.4837
 6481TIP3    H140858   2.333   2.438   4.104 -0.3432  0.6467  0.4644
 6481TIP3    H240859   2.429   2.489   4.210 -0.4854  0.6396  0.5967
 6482TIP3   OH240860   5.616   4.425   0.462  0.4520 -0.3354  0.0724
 6482TIP3    H140861   5.590   4.450   0.550  0.1401 -1.7909  0.4026
 6482TIP3    H240862   5.658   4.340   0.472  1.5675  0.0559 -1.0200
 6483TIP3   OH240863   3.961   3.575  14.115  0.1023 -0.0535 -0.3185
 6483TIP3    H140864   3.929   3.503  14.060  1.3849  1.3597 -3.1550
 6483TIP3    H240865   3.897   3.645  14.101 -1.6895 -0.7846  3.1994
 6484TIP3   OH240866   1.730   2.972   0.088 -0.8650 -0.2253  0.6380
 6484TIP3    H140867   1.687   2.978   0.003  0.0430 -0.0474  0.1799
 6484TIP3    H240868   1.819   2.943   0.068 -0.8327 -0.8231  1.5853
 6485TIP3   OH240869   4.711   0.243  13.982  0.2980 -0.4400  0.1628
 6485TIP3    H140870   4.691   0.165  14.033  1.5321 -0.1921  1.0744
 6485TIP3    H240871   4.793   0.221  13.937  0.9500  0.5179  0.8626
 6486TIP3   OH240872   5.343   6.130  15.671 -0.1443 -0.7500  0.1309
 6486TIP3    H140873   5.368   6.049  15.628 -1.0859 -1.0016  0.0410
 6486TIP3    H240874   5.299   6.103  15.752 -0.9384 -0.3602 -0.1540
 6487TIP3   OH240875   1.105   3.966   4.806  0.1471 -0.1363 -0.1723
 6487TIP3    H140876   1.140   4.048   4.842 -0.3148 -0.0219  0.0196
 6487TIP3    H240877   1.150   3.957   4.722 -2.1977  2.0818 -1.8040
 6488TIP3   OH240878   4.086   4.759   5.475 -0.5501 -0.1409  0.2564
 6488TIP3    H140879   4.068   4.847   5.507  1.2166  0.3383  0.0350
 6488TIP3    H240880   4.111   4.709   5.553 -0.6264 -0.2068  0.2398
 6489TIP3   OH240881   2.746   6.715  15.873 -0.6524  0.1459 -0.5575
 6489TIP3    H140882   2.832   6.672  15.868 -0.8527 -0.2149 -0.9557
 6489TIP3    H240883   2.746   6.758  15.959 -0.8712 -1.5506  0.3397
 6490TIP3   OH240884   0.397   2.451   1.804  0.0349 -0.0540  0.3148
 6490TIP3    H140885   0.316   2.439   1.854 -0.7461 -0.3571 -0.9588
 6490TIP3    H240886   0.453   2.504   1.861 -0.7947 -0.4034  1.5002
 6491TIP3   OH240887   1.385   0.667  16.027  0.0470 -0.5290  0.3229
 6491TIP3    H140888   1.448   0.640  16.094 -1.2063 -2.0653  0.9627
 6491TIP3    H240889   1.428   0.738  15.980  2.4656 -1.8741  0.3627
 6492TIP3   OH240890   5.689   3.488   1.255  0.1846  0.1641  0.4279
 6492TIP3    H140891   5.713   3.527   1.170 -2.3418 -0.7606 -0.8290
 6492TIP3    H240892   5.771   3.485   1.304  1.3546  2.7739 -1.1167
 6493TIP3   OH240893   3.947   5.413   5.163  0.4125  0.0925  0.2946
 6493TIP3    H140894   3.958   5.323   5.132 -0.2504 -0.1061  0.6257
 6493TIP3    H240895   3.882   5.406   5.233  1.5437  0.5874  1.4294
 6494TIP3   OH240896   1.167   0.408   0.039 -0.6149  0.2671 -0.6787
 6494TIP3    H140897   1.151   0.364  -0.044 -2.0972 -0.7818  0.1228
 6494TIP3    H240898   1.163   0.339   0.105 -2.0423  1.4146  0.5197
 6495TIP3   OH240899   2.953   1.657   4.292 -0.2243  0.0279 -0.0152
 6495TIP3    H140900   2.880   1.601   4.265  1.1345 -0.7882 -2.2902
 6495TIP3    H240901   2.934   1.742   4.253 -1.1819  0.5919  1.5790
 6496TIP3   OH240902   4.630   2.733  14.744  0.1551 -0.1457  0.1920
 6496TIP3    H140903   4.571   2.674  14.789  0.3920 -0.3620  0.2202
 6496TIP3    H240904   4.715   2.722  14.788  0.1036  0.5242  0.4756
 6497TIP3   OH240905   5.217   1.584   1.728 -0.2141  0.2800  0.0539
 6497TIP3    H140906   5.134   1.536   1.732 -1.4212  2.2848  0.2747
 6497TIP3    H240907   5.197   1.670   1.765  2.3107  0.3999  1.3857
 6498TIP3   OH240908   2.777   0.209  13.167  0.1230  0.0961 -0.2462
 6498TIP3    H140909   2.750   0.301  13.164  0.2987  0.1740  0.5041
 6498TIP3    H240910   2.862   0.211  13.210  0.6540 -0.3068 -1.2347
 6499TIP3   OH240911   4.661   5.747   5.790 -0.1623  0.1022  0.2420
 6499TIP3    H140912   4.691   5.834   5.763 -0.3328 -0.2152 -1.0378
 6499TIP3    H240913   4.578   5.736   5.745 -0.7183 -0.2722  1.3292
 6500TIP3   OH240914   6.160   0.710  13.154  0.6087  0.4576  0.0209
 6500TIP3    H140915   6.101   0.637  13.173  0.5480  0.0975 -1.4050
 6500TIP3    H240916   6.125   0.782  13.206 -0.3938 -0.0676  0.1210
 6501TIP3   OH240917   5.610   0.326   6.079 -0.2803  0.1298 -0.2203
 6501TIP3    H140918   5.664   0.372   6.143 -0.0812 -1.1503  0.5640
 6501TIP3    H240919   5.521   0.355   6.098 -0.0406  1.1092 -0.5419
 6502TIP3   OH240920   5.989   4.614   2.335  0.4564  0.1584  0.0541
 6502TIP3    H140921   5.955   4.698   2.304 -1.3146 -0.2198  0.8689
 6502TIP3    H240922   6.017   4.630   2.425  1.4550  0.1941 -0.2482
 6503TIP3   OH240923   1.873   1.574   5.003  0.6765  0.1538  0.0627
 6503TIP3    H140924   1.968   1.571   5.005  0.6477 -2.6312  2.3468
 6503TIP3    H240925   1.846   1.488   4.971 -1.0888  0.6262  0.1326
 6504TIP3   OH240926   3.271   3.848  17.020  0.0129  0.8091 -0.0658
 6504TIP3    H140927   3.211   3.805  17.080  0.5030  1.0205  0.5870
 6504TIP3    H240928   3.259   3.942  17.038  0.4222  0.8572 -0.0406
 6505TIP3   OH240929   6.028   6.296  13.404 -0.5669 -0.1169 -0.3467
 6505TIP3    H140930   6.019   6.249  13.321 -0.2500 -1.8192  0.5320
 6505TIP3    H240931   6.094   6.246  13.452  0.8395  2.0584  0.1313
 6506TIP3   OH240932   2.371   3.627  13.395 -0.0989  0.0827 -0.0596
 6506TIP3    H140933   2.319   3.663  13.466  0.6975  1.4420 -0.1338
 6506TIP3    H240934   2.309   3.619  13.322 -0.3660  1.0404  0.0523
 6507TIP3   OH240935   6.586   2.293   1.734 -0.0285  0.0292 -1.0709
 6507TIP3    H140936   6.611   2.288   1.641  1.0762  0.1898 -0.7940
 6507TIP3    H240937   6.661   2.335   1.776 -0.6797  0.2986 -0.1564
 6508TIP3   OH240938   2.353   0.481   0.103  0.7415  0.3403  0.1812
 6508TIP3    H140939   2.266   0.517   0.091  0.5415  0.9352  2.7342
 6508TIP3    H240940   2.394   0.485   0.017 -1.4285  0.8616 -0.8797
 6509TIP3   OH240941   0.059   1.499  12.680  0.3595  0.5610  0.2902
 6509TIP3    H140942   0.144   1.471  12.715  0.0069  0.4663  1.1019
 6509TIP3    H240943   0.034   1.574  12.734  0.0991  0.8255 -0.1911
 6510TIP3   OH240944   3.254   5.795   5.325  0.2202 -0.1256 -0.2841
 6510TIP3    H140945   3.307   5.766   5.250  1.7271 -2.0421  1.4037
 6510TIP3    H240946   3.179   5.839   5.285  2.2266  1.3014 -2.8726
 6511TIP3   OH240947   3.112   0.468   3.192  0.1765  0.2471 -0.1367
 6511TIP3    H140948   3.041   0.463   3.128  0.7373 -0.0413 -0.7507
 6511TIP3    H240949   3.108   0.557   3.226 -1.6767 -0.2981  1.2417
 6512TIP3   OH240950   6.055   6.071  12.150  0.3735 -0.4398 -0.4843
 6512TIP3    H140951   6.075   6.156  12.188  1.3886 -0.1246 -1.6429
 6512TIP3    H240952   5.966   6.051  12.179  0.3928  0.6787  0.3840
 6513TIP3   OH240953   0.361   2.965  10.536 -0.3098 -1.0910 -0.2487
 6513TIP3    H140954   0.278   2.922  10.558 -0.3384 -0.7726  0.2959
 6513TIP3    H240955   0.335   3.049  10.499 -0.2227 -0.6987  0.5684
 6514TIP3   OH240956   3.036   6.119  16.677 -0.5074 -0.0596  0.3315
 6514TIP3    H140957   3.036   6.044  16.617  0.0403 -0.1946  0.5010
 6514TIP3    H240958   2.944   6.148  16.678 -0.7955 -0.9425  0.5392
 6515TIP3   OH240959   5.190   5.817   0.837 -0.3630  0.0105  0.4961
 6515TIP3    H140960   5.095   5.806   0.829 -0.2366 -0.1177 -1.3789
 6515TIP3    H240961   5.213   5.771   0.918 -1.8370 -0.4014  0.7067
 6516TIP3   OH240962   1.523   4.040   2.016 -0.2738 -0.6655  1.1782
 6516TIP3    H140963   1.613   4.063   2.038  1.3502  0.0672 -4.6224
 6516TIP3    H240964   1.527   3.949   1.988 -0.2672  0.2727 -2.4347
 6517TIP3   OH240965   4.195   2.696   1.288 -0.4491 -0.0513 -0.5847
 6517TIP3    H140966   4.266   2.633   1.295 -0.3424  0.2110  1.2341
 6517TIP3    H240967   4.235   2.780   1.310 -0.7182  0.6134 -2.4200
 6518TIP3   OH240968   4.716   4.558  12.174 -0.0605  0.3814  0.8884
 6518TIP3    H140969   4.655   4.610  12.226  0.4988  0.6329  1.3081
 6518TIP3    H240970   4.752   4.494  12.236 -2.4384 -2.0990 -0.1137
 6519TIP3   OH240971   2.397   0.259  11.523  0.0645 -0.7880 -0.2625
 6519TIP3    H140972   2.320   0.262  11.466  0.6332  0.4188 -0.9938
 6519TIP3    H240973   2.461   0.316  11.481  2.0095 -3.0471 -0.5773
 6520TIP3   OH240974   4.612   1.275   5.477 -0.1574  0.1025  0.5019
 6520TIP3    H140975   4.704   1.295   5.460 -0.0709 -0.4189  0.3403
 6520TIP3    H240976   4.581   1.232   5.398 -0.6948  0.7517  0.3472
 6521TIP3   OH240977   6.025   3.657   3.453  0.7478 -0.5546  0.4262
 6521TIP3    H140978   6.001   3.705   3.532 -1.0677  1.0804 -1.0097
 6521TIP3    H240979   6.121   3.661   3.451  1.0805 -2.8329  3.7538
 6522TIP3   OH240980   1.923   4.349  13.983 -0.0240 -0.6616  0.1201
 6522TIP3    H140981   1.937   4.257  13.962  1.9425  0.1928 -2.8636
 6522TIP3    H240982   2.000   4.374  14.035 -0.3844 -0.5778  0.6288
 6523TIP3   OH240983   2.868   5.385  15.761  0.0875 -0.0513  0.5733
 6523TIP3    H140984   2.861   5.307  15.706 -1.4783  1.4973 -1.6120
 6523TIP3    H240985   2.815   5.366  15.838 -1.1045 -0.7957 -0.4035
 6524TIP3   OH240986   0.072   1.507   0.137  0.1273  0.0036 -0.0922
 6524TIP3    H140987  -0.012   1.505   0.184  0.1380  0.3035 -0.0583
 6524TIP3    H240988   0.134   1.542   0.200  0.1731  0.2646 -0.2769
 6525TIP3   OH240989   5.758   1.245  15.437 -0.2375 -0.2358  0.4941
 6525TIP3    H140990   5.770   1.295  15.357 -0.4403 -0.2853  0.4331
 6525TIP3    H240991   5.686   1.184  15.418 -2.0938  1.5173  1.5441
 6526TIP3   OH240992   1.338   6.682   1.901 -0.2819 -0.3117  0.3760
 6526TIP3    H140993   1.324   6.614   1.835 -2.3119  1.3019 -0.9632
 6526TIP3    H240994   1.359   6.761   1.851  1.0983  0.3181  1.8552
 6527TIP3   OH240995   4.261   0.941   1.857 -0.5302 -0.2370 -0.0636
 6527TIP3    H140996   4.232   1.029   1.830 -1.1481 -0.7424 -1.1201
 6527TIP3    H240997   4.336   0.923   1.801  2.1650  1.1432  2.7845
 6528TIP3   OH240998   6.718   4.260  14.017  0.0300 -0.3145 -0.0161
 6528TIP3    H140999   6.631   4.260  13.977  0.1053  0.3680 -0.1904
 6528TIP3    H241000   6.750   4.171  14.004 -0.2300 -0.2948 -0.8672
 6529TIP3   OH241001   5.386   1.374  16.330  0.1768 -0.5944  0.3965
 6529TIP3    H141002   5.363   1.341  16.417 -2.3318 -0.7175 -0.2594
 6529TIP3    H241003   5.383   1.470  16.339 -0.6638 -0.6091  0.3153
 6530TIP3   OH241004   1.090   1.685  11.308 -0.1624 -0.3899  0.0614
 6530TIP3    H141005   1.052   1.763  11.267 -0.0918 -0.3140  0.1399
 6530TIP3    H241006   1.102   1.624  11.235  1.5831  0.3849 -0.3548
 6531TIP3   OH241007   3.322   5.209   2.516 -0.2017 -0.2238 -0.1521
 6531TIP3    H141008   3.369   5.142   2.566  1.3263  1.2479  0.4531
 6531TIP3    H241009   3.237   5.168   2.496  1.0001 -2.6914 -0.6327
 6532TIP3   OH241010   1.345   1.475   0.855  0.4443  0.4328 -0.0194
 6532TIP3    H141011   1.322   1.383   0.857  1.1200  0.2496 -0.4088
 6532TIP3    H241012   1.261   1.521   0.861  0.0981 -0.2046  0.0609
 6533TIP3   OH241013   3.857   1.799   3.409 -0.5916 -0.7671  0.1653
 6533TIP3    H141014   3.898   1.760   3.486 -2.1385  1.0035  1.9975
 6533TIP3    H241015   3.908   1.878   3.391  0.1096 -1.4619 -1.0363
 6534TIP3   OH241016   2.458   0.445   2.322 -0.3893 -0.2435  0.1789
 6534TIP3    H141017   2.436   0.460   2.230 -0.9431 -2.3728 -0.0973
 6534TIP3    H241018   2.515   0.519   2.346  1.9730 -0.9419 -2.6518
 6535TIP3   OH241019   1.800   0.022   2.577  0.4591 -0.2470  0.1831
 6535TIP3    H141020   1.861   0.006   2.649 -0.1108 -3.0967  0.1814
 6535TIP3    H241021   1.716   0.041   2.620  0.7791  1.2234  0.2010
 6536TIP3   OH241022   4.697   5.748   2.323 -0.2540  0.4232  0.0306
 6536TIP3    H141023   4.746   5.669   2.347 -0.5897  0.0648 -0.4519
 6536TIP3    H241024   4.668   5.732   2.234  0.2423  1.3737 -0.3221
 6537TIP3   OH241025   1.319   1.948  16.340 -0.3760 -0.7286  0.0479
 6537TIP3    H141026   1.390   1.933  16.278 -0.2056  0.0731  0.0350
 6537TIP3    H241027   1.303   2.042  16.335 -0.0635 -0.5809  1.5324
 6538TIP3   OH241028   3.870   1.170   5.262  0.0762 -0.4415 -0.3592
 6538TIP3    H141029   3.793   1.120   5.291 -0.3381 -1.0817 -2.3718
 6538TIP3    H241030   3.914   1.195   5.343 -0.7953 -2.3761  0.8057
 6539TIP3   OH241031   4.105   1.777  13.804  0.6733 -0.1203  0.3221
 6539TIP3    H141032   4.148   1.780  13.719  0.7371 -0.5379  0.3374
 6539TIP3    H241033   4.136   1.855  13.850 -0.3669  0.8060 -0.5103
 6540TIP3   OH241034   0.708   2.927  16.945  0.3834 -0.3852 -0.4426
 6540TIP3    H141035   0.660   3.007  16.921  0.3156  0.6337  2.6753
 6540TIP3    H241036   0.770   2.915  16.873 -1.3468  0.9456 -2.2930
 6541TIP3   OH241037   5.181   3.688   4.265 -0.3073 -0.3309 -0.9919
 6541TIP3    H141038   5.179   3.638   4.183  2.5403 -0.1924 -1.2477
 6541TIP3    H241039   5.188   3.621   4.333 -1.2265 -0.3905 -0.9388
 6542TIP3   OH241040   3.725   2.629  13.787  0.0651 -0.0568  0.2270
 6542TIP3    H141041   3.686   2.589  13.865 -0.6136  2.0429  1.0110
 6542TIP3    H241042   3.717   2.561  13.719  0.3934 -1.8259  1.8622
 6543TIP3   OH241043   0.834   1.799  16.103  0.4734  0.7498  0.0620
 6543TIP3    H141044   0.902   1.770  16.163 -1.1847  0.6750  2.0061
 6543TIP3    H241045   0.831   1.731  16.036  1.1211 -0.1347  0.9098
 6544TIP3   OH241046   2.626   2.316   1.764 -0.0678  0.1765  0.0869
 6544TIP3    H141047   2.660   2.262   1.692 -0.4815  0.7979 -0.5919
 6544TIP3    H241048   2.704   2.344   1.812  0.3768  1.2312 -1.1930
 6545TIP3   OH241049   4.398   2.342   1.764  0.0780 -0.1210  0.1492
 6545TIP3    H141050   4.473   2.361   1.820  0.3551 -0.1918 -0.1985
 6545TIP3    H241051   4.396   2.413   1.701 -0.0451 -0.2111  0.0514
 6546TIP3   OH241052   3.264   5.505   2.969  0.4669 -0.1452 -0.6538
 6546TIP3    H141053   3.323   5.511   2.894 -1.2996  2.5467 -1.9823
 6546TIP3    H241054   3.289   5.578   3.025 -1.2245  0.7980 -1.0444
 6547TIP3   OH241055   0.422   1.544  12.283  0.2438  0.0207  0.3870
 6547TIP3    H141056   0.359   1.615  12.272  1.0509  0.6327 -0.4467
 6547TIP3    H241057   0.368   1.465  12.289 -0.6049  0.2706 -2.3197
 6548TIP3   OH241058   1.359   3.191  12.403  0.7444  0.3248 -0.1889
 6548TIP3    H141059   1.344   3.163  12.313  0.8468 -1.6612  0.3573
 6548TIP3    H241060   1.286   3.250  12.423  0.9086  1.0726 -1.6512
 6549TIP3   OH241061   2.229   1.299  16.540  0.1053 -0.3203 -0.1222
 6549TIP3    H141062   2.321   1.289  16.517  0.3835 -1.5988  1.3955
 6549TIP3    H241063   2.186   1.224  16.496 -0.1040 -0.1320 -0.2412
 6550TIP3   OH241064   1.033   6.104  11.814  0.0272 -0.9154 -0.0989
 6550TIP3    H141065   1.104   6.066  11.866  1.0159  0.5366 -0.2916
 6550TIP3    H241066   0.994   6.170  11.871  0.0404 -0.4500 -0.6150
 6551TIP3   OH241067   1.014   6.422  13.707 -0.1727 -0.8014  0.7276
 6551TIP3    H141068   0.990   6.335  13.676 -1.8098 -0.4049  0.8023
 6551TIP3    H241069   1.056   6.464  13.632 -2.8284 -0.3418 -0.6067
 6552TIP3   OH241070   2.940   3.157   0.678  1.2516 -0.6575  0.2262
 6552TIP3    H141071   2.935   3.076   0.729  1.1601  0.0537  1.3926
 6552TIP3    H241072   2.943   3.128   0.587  0.7342 -1.9589  0.5941
 6553TIP3   OH241073   3.084   3.313  16.759 -0.3559 -0.3062 -0.2240
 6553TIP3    H141074   3.073   3.246  16.691 -0.3786 -0.7401  0.2065
 6553TIP3    H241075   3.173   3.301  16.790 -0.1252  0.3209 -0.6277
 6554TIP3   OH241076   5.316   5.604  15.252 -1.1082 -0.2702 -0.1569
 6554TIP3    H141077   5.289   5.693  15.274 -1.3059 -0.8279  2.0593
 6554TIP3    H241078   5.379   5.579  15.320  0.5257 -1.1391 -1.8788
 6555TIP3   OH241079   1.894   1.384   1.496  0.4919  0.2458 -0.7734
 6555TIP3    H141080   1.969   1.442   1.510  0.6512 -0.3105  1.0470
 6555TIP3    H241081   1.923   1.323   1.428  1.5761  0.2489 -0.3305
 6556TIP3   OH241082   1.037   6.532   1.486 -0.8016 -0.2790  0.0843
 6556TIP3    H141083   1.061   6.567   1.400  3.5172 -1.9536  0.3609
 6556TIP3    H241084   1.006   6.608   1.535 -0.5544  1.2887 -2.0236
 6557TIP3   OH241085   5.539   4.585  13.980  0.4188  0.3764 -0.6318
 6557TIP3    H141086   5.524   4.591  13.886 -1.5887  1.3165 -0.3114
 6557TIP3    H241087   5.628   4.551  13.988  0.3231 -0.5816 -2.8497
 6558TIP3   OH241088   2.297   5.648   2.331  0.4390 -0.3493  0.0832
 6558TIP3    H141089   2.259   5.620   2.248  0.4027 -1.8866  0.5866
 6558TIP3    H241090   2.246   5.724   2.357 -2.1450 -2.1092  0.5617
 6559TIP3   OH241091   4.851   3.912  14.873 -0.1721 -0.2764  0.0328
 6559TIP3    H141092   4.801   3.987  14.839 -0.0742 -0.0006  0.4887
 6559TIP3    H241093   4.840   3.845  14.806 -0.3998  0.0882 -0.3083
 6560TIP3   OH241094   2.105   2.530   3.259  0.0104 -0.5388  0.1414
 6560TIP3    H141095   2.074   2.614   3.292 -0.7348 -0.2927 -1.0957
 6560TIP3    H241096   2.107   2.473   3.336 -1.4930  0.0432  0.6602
 6561TIP3   OH241097   1.305   1.701   4.477 -0.3253 -0.0730 -0.2337
 6561TIP3    H141098   1.395   1.682   4.450 -0.0828 -0.3197  0.7168
 6561TIP3    H241099   1.268   1.615   4.500 -0.0271  0.2673  1.6790
 6562TIP3   OH241100   5.945   2.397  12.234 -0.3318 -0.1342 -0.2928
 6562TIP3    H141101   5.854   2.377  12.213 -0.2807 -1.4328  0.6367
 6562TIP3    H241102   5.948   2.400  12.329  0.7611 -0.9462 -0.2847
 6563TIP3   OH241103   1.484   1.107  13.238 -0.2040 -0.5776  0.0502
 6563TIP3    H141104   1.545   1.047  13.195  0.5633  0.8782 -0.9732
 6563TIP3    H241105   1.398   1.077  13.211  0.1472 -1.3732 -0.2200
 6564TIP3   OH241106   4.226   1.140  11.228  0.0807 -0.1396  0.2666
 6564TIP3    H141107   4.289   1.202  11.191 -1.0181  0.6447 -0.3719
 6564TIP3    H241108   4.146   1.154  11.177 -0.2098 -2.1209  0.0950
 6565TIP3   OH241109   5.243   2.177  14.938 -0.4911  0.3373 -0.4141
 6565TIP3    H141110   5.257   2.160  15.032  0.3127  1.9944 -0.1913
 6565TIP3    H241111   5.297   2.254  14.920  0.1680 -0.5375 -2.4966
 6566TIP3   OH241112   3.252   0.477   4.796  0.3333 -0.3686  0.1537
 6566TIP3    H141113   3.187   0.440   4.736  0.5401  1.4410 -1.2692
 6566TIP3    H241114   3.252   0.571   4.777  0.8002  0.2319  2.6478
 6567TIP3   OH241115   4.202   1.342   0.224 -0.6551  0.2140  0.1990
 6567TIP3    H141116   4.236   1.404   0.160 -0.1883  0.3893  0.6039
 6567TIP3    H241117   4.114   1.375   0.245 -0.7473  0.2424 -0.2278
 6568TIP3   OH241118   0.794   2.909   5.718  0.9590 -0.4467 -0.5861
 6568TIP3    H141119   0.748   2.833   5.682 -1.3595  0.3998  0.3419
 6568TIP3    H241120   0.863   2.871   5.772 -1.0186 -2.0402  1.0186
 6569TIP3   OH241121   4.990   1.072  13.391 -0.0739 -0.1279  0.1826
 6569TIP3    H141122   5.030   1.015  13.456 -0.8664 -0.5675  0.3014
 6569TIP3    H241123   4.981   1.157  13.435  0.4274 -0.1160  0.2599
 6570TIP3   OH241124   0.025   6.036  16.310  0.1619  0.0800 -0.4576
 6570TIP3    H141125   0.041   6.130  16.306  0.7347  0.0658  1.0090
 6570TIP3    H241126  -0.064   6.025  16.276  0.5689  0.9786 -1.9091
 6571TIP3   OH241127   4.207   4.758   3.033  0.1368  0.0683  0.2435
 6571TIP3    H141128   4.292   4.775   2.991  0.0497  0.2429  0.1366
 6571TIP3    H241129   4.163   4.696   2.974 -0.1378  0.6028 -0.1162
 6572TIP3   OH241130   2.330   4.807   4.493  0.7154 -0.0820  0.3459
 6572TIP3    H141131   2.324   4.783   4.586 -0.4397  0.5616  0.4574
 6572TIP3    H241132   2.243   4.791   4.458  0.6736  1.2723 -0.2282
 6573TIP3   OH241133   2.666   3.719   4.388 -0.2193  0.4365 -0.1355
 6573TIP3    H141134   2.641   3.683   4.473  0.5458  0.2384  0.0065
 6573TIP3    H241135   2.631   3.657   4.324  0.5871 -0.2638  0.0897
 6574TIP3   OH241136   3.838   4.471   6.398  0.0685 -0.1188 -0.3301
 6574TIP3    H141137   3.912   4.483   6.457  0.6346  2.8386 -1.4464
 6574TIP3    H241138   3.809   4.381   6.412  1.7426 -0.3003  2.5586
 6575TIP3   OH241139   3.376   2.730   0.334  0.0494  0.0118  0.3561
 6575TIP3    H141140   3.469   2.734   0.309 -0.2593  0.9476 -0.7578
 6575TIP3    H241141   3.373   2.764   0.423  0.9313 -1.2841  0.9009
 6576TIP3   OH241142   5.634   0.875  12.097 -0.5475  0.0529  0.0722
 6576TIP3    H141143   5.609   0.946  12.155 -0.4994  0.2852 -0.1928
 6576TIP3    H241144   5.552   0.843  12.060 -0.5050  0.4778 -0.4014
 6577TIP3   OH241145   2.255   0.403  13.542  0.3084 -0.3233  0.0899
 6577TIP3    H141146   2.263   0.460  13.466  0.5295  2.0985  1.8232
 6577TIP3    H241147   2.164   0.411  13.569  0.0742 -1.6587 -0.2448
 6578TIP3   OH241148   4.084   1.629  14.287  0.9163  0.3322  0.2821
 6578TIP3    H141149   4.089   1.551  14.232  1.1572  0.0712  0.6709
 6578TIP3    H241150   4.150   1.688  14.250  0.9645  0.2240  0.1906
 6579TIP3   OH241151   4.746   4.123   2.407 -0.2369  0.0218  0.0729
 6579TIP3    H141152   4.815   4.108   2.342 -0.4393 -2.1247  0.2615
 6579TIP3    H241153   4.789   4.170   2.478  1.3192 -1.9903  0.5505
 6580TIP3   OH241154   0.827   3.733   3.144 -0.0308 -0.7242 -0.1959
 6580TIP3    H141155   0.886   3.725   3.219  1.2855  0.8827 -0.9833
 6580TIP3    H241156   0.848   3.818   3.106 -2.7784 -0.1576 -0.6504
 6581TIP3   OH241157   6.613   2.203   2.365 -0.2723 -0.2594  0.3560
 6581TIP3    H141158   6.645   2.133   2.421 -0.1812 -0.6523 -0.1723
 6581TIP3    H241159   6.591   2.275   2.425 -0.2976 -0.7121  0.8928
 6582TIP3   OH241160   3.623   1.402   6.019  0.6354  0.0453 -0.8267
 6582TIP3    H141161   3.576   1.319   6.006  0.7850  0.1725 -2.3479
 6582TIP3    H241162   3.586   1.461   5.953  2.1383  0.4872 -1.3177
 6583TIP3   OH241163   1.184   6.479  12.383 -0.3395  0.2219 -0.5560
 6583TIP3    H141164   1.124   6.416  12.343  1.0334 -2.1232  0.8857
 6583TIP3    H241165   1.136   6.512  12.459 -0.1213 -1.0719  0.1612
 6584TIP3   OH241166   3.014   0.854   4.230 -0.3870 -0.4873 -0.0945
 6584TIP3    H141167   3.013   0.820   4.141 -1.0858 -0.5537 -0.0684
 6584TIP3    H241168   3.086   0.808   4.273  0.3052 -0.0585 -0.7730
 6585TIP3   OH241169   2.526   1.087   2.547  0.0106 -0.4793 -0.1589
 6585TIP3    H141170   2.570   1.150   2.490 -0.4380  0.3496  0.4016
 6585TIP3    H241171   2.564   1.002   2.522  1.7095  0.1684  0.0896
 6586TIP3   OH241172   2.806   2.630  12.958  0.1892  0.1743 -0.3618
 6586TIP3    H141173   2.711   2.638  12.971  0.2351  1.4558 -0.6786
 6586TIP3    H241174   2.821   2.665  12.870  1.0607  0.8378  0.0312
 6587TIP3   OH241175   4.354   6.291   5.634 -0.1465 -0.0685 -0.0968
 6587TIP3    H141176   4.261   6.312   5.626  0.1567  1.9631  0.8887
 6587TIP3    H241177   4.381   6.336   5.714  1.5359 -1.2640  0.0512
 6588TIP3   OH241178   3.638   3.242  15.743  0.1063  0.3403 -0.1407
 6588TIP3    H141179   3.657   3.210  15.655  1.2367  1.8273 -0.4787
 6588TIP3    H241180   3.713   3.214  15.796  0.0669  0.5756  0.0436
 6589TIP3   OH241181   0.181   6.752  16.857  0.1049 -0.1414 -0.1709
 6589TIP3    H141182   0.107   6.746  16.918  0.1718  0.1941 -0.0557
 6589TIP3    H241183   0.160   6.827  16.802  0.1710 -0.2864 -0.3961
 6590TIP3   OH241184   0.288   4.064  16.052 -0.1041  0.2022  0.4396
 6590TIP3    H141185   0.337   3.982  16.056 -0.0344  0.2165 -0.0193
 6590TIP3    H241186   0.273   4.089  16.143  0.0237 -0.2313  0.5777
 6591TIP3   OH241187   5.245   4.493  12.454  0.0428  0.8958  0.1367
 6591TIP3    H141188   5.205   4.563  12.403  1.2008  2.3909  1.1773
 6591TIP3    H241189   5.239   4.416  12.398 -1.6051  1.7214 -0.8991
 6592TIP3   OH241190   1.244   5.742  17.058 -0.2170 -0.1427  0.7165
 6592TIP3    H141191   1.150   5.745  17.042 -0.6606 -2.0557  2.4371
 6592TIP3    H241192   1.269   5.652  17.034  1.4184  0.6420 -0.7166
 6593TIP3   OH241193   6.503   4.083  11.201 -0.5072  0.1491  0.0235
 6593TIP3    H141194   6.502   4.166  11.153  0.2679 -0.2870 -0.7786
 6593TIP3    H241195   6.491   4.016  11.133  1.1034 -0.5107  0.3549
 6594TIP3   OH241196   3.503   2.780   5.294 -0.2747 -0.0748  0.1344
 6594TIP3    H141197   3.435   2.765   5.228 -0.0796 -0.9814  0.1214
 6594TIP3    H241198   3.574   2.722   5.267  0.2267  0.3467  0.5468
 6595TIP3   OH241199   5.271   5.404  14.490  0.0878 -0.2466  0.0410
 6595TIP3    H141200   5.207   5.344  14.452  0.5522 -0.1083 -0.9743
 6595TIP3    H241201   5.232   5.491  14.480  0.3907 -0.1711 -0.4953
 6596TIP3   OH241202   3.713   6.455   1.020 -0.0684  0.1605  0.1435
 6596TIP3    H141203   3.716   6.508   1.100 -0.9315  1.5527 -0.7165
 6596TIP3    H241204   3.754   6.372   1.045  1.8718  1.4076  1.3866
 6597TIP3   OH241205   3.868   4.866  17.128 -0.5183  0.2223 -0.5989
 6597TIP3    H141206   3.858   4.853  17.223  1.5339 -0.6506 -0.4547
 6597TIP3    H241207   3.921   4.945  17.121  1.0392 -0.8169 -0.9167
 6598TIP3   OH241208   5.486   4.182  13.378  0.5103  0.1738 -0.6572
 6598TIP3    H141209   5.516   4.153  13.292  1.1340 -1.0772 -0.0413
 6598TIP3    H241210   5.563   4.172  13.434 -0.3781 -0.6887  0.4225
 6599TIP3   OH241211   5.713   6.076  14.084 -0.2223 -0.7001 -0.6307
 6599TIP3    H141212   5.659   6.112  14.014  0.6915 -1.6928 -1.9127
 6599TIP3    H241213   5.793   6.129  14.082 -0.2816 -0.5878 -0.1698
 6600TIP3   OH241214   0.429   6.430  16.885 -0.3671  0.7600 -0.0293
 6600TIP3    H141215   0.524   6.428  16.888 -0.3380  0.8275 -0.7484
 6600TIP3    H241216   0.405   6.350  16.837 -0.7038  0.3624  0.7950
 6601TIP3   OH241217   2.588   0.600   3.027  0.3511 -0.1365 -0.6512
 6601TIP3    H141218   2.500   0.588   2.991  0.2701 -1.1862 -0.1581
 6601TIP3    H241219   2.637   0.644   2.958 -1.2316  2.8872  0.0191
 6602TIP3   OH241220   2.713   6.033  16.960  0.0115 -0.3085  0.4512
 6602TIP3    H141221   2.785   6.070  17.012 -0.1593 -1.1615  1.3103
 6602TIP3    H241222   2.646   6.010  17.025 -0.5940 -0.5174 -0.2420
 6603TIP3   OH241223   5.179   3.690   0.989  0.7558 -0.0975  0.3643
 6603TIP3    H141224   5.160   3.743   0.912 -0.4101 -1.9944 -0.7306
 6603TIP3    H241225   5.178   3.752   1.062  0.1376  1.4685 -0.9097
 6604TIP3   OH241226   4.026   2.982   1.346 -0.4099 -0.7646 -0.5200
 6604TIP3    H141227   3.964   2.911   1.366  0.0224 -0.9002  0.3644
 6604TIP3    H241228   4.035   3.030   1.428 -0.5767  0.2337 -1.0682
 6605TIP3   OH241229   5.084   0.084   3.753  0.5761 -0.1842  0.0376
 6605TIP3    H141230   5.024   0.146   3.795  1.6300  1.1073 -0.2789
 6605TIP3    H241231   5.057   0.084   3.661  1.3232  0.7678 -0.2000
 6606TIP3   OH241232   3.233   6.274  16.211 -0.2607  0.5904  0.9341
 6606TIP3    H141233   3.318   6.308  16.184 -0.3685  1.3408  1.5049
 6606TIP3    H241234   3.184   6.261  16.130  0.3538  0.2610  0.6115
 6607TIP3   OH241235   0.089   5.399  16.693  0.0946 -0.2644 -0.2432
 6607TIP3    H141236   0.159   5.415  16.757 -0.6826 -0.5513  0.6934
 6607TIP3    H241237   0.095   5.474  16.633 -0.0379  0.7376  0.9571
 6608TIP3   OH241238   1.630   0.503   5.836 -0.0299 -0.4223  0.1592
 6608TIP3    H141239   1.691   0.571   5.865 -0.6166  0.3426 -0.3821
 6608TIP3    H241240   1.631   0.508   5.741 -0.2484 -1.0309  0.1180
 6609TIP3   OH241241   3.362   5.663   5.124 -0.1041 -0.6477  0.1454
 6609TIP3    H141242   3.284   5.609   5.140 -0.8412  0.1831 -0.5208
 6609TIP3    H241243   3.349   5.698   5.036  1.4389 -1.1342 -0.2947
 6610TIP3   OH241244   2.684   6.358   1.785  0.4649  0.4655  0.1745
 6610TIP3    H141245   2.667   6.274   1.827  1.4864 -0.4244 -1.0967
 6610TIP3    H241246   2.607   6.411   1.804 -0.4232 -0.9265  0.6040
 6611TIP3   OH241247   3.778   2.900   2.675  0.2373 -0.1131  0.3014
 6611TIP3    H141248   3.810   2.871   2.761  2.8652  1.2499 -0.1237
 6611TIP3    H241249   3.709   2.837   2.653  1.7833 -2.5505  1.9041
 6612TIP3   OH241250   2.403   6.331  15.068  0.4510 -0.2542  0.3222
 6612TIP3    H141251   2.318   6.315  15.028  0.8895  0.7045 -1.0501
 6612TIP3    H241252   2.382   6.364  15.156 -0.5954  0.1194 -0.0560
 6613TIP3   OH241253   0.790   6.378   1.335 -0.1092 -0.2666 -0.0182
 6613TIP3    H141254   0.759   6.450   1.280 -2.3556  0.0614  1.5715
 6613TIP3    H241255   0.778   6.300   1.280 -0.8022  0.2075 -0.5548
 6614TIP3   OH241256   3.362   6.020  13.461  0.6879 -0.0250 -0.1866
 6614TIP3    H141257   3.372   5.946  13.521  0.7530  0.8973  0.9846
 6614TIP3    H241258   3.279   6.004  13.417 -0.1719  0.0570  1.3264
 6615TIP3   OH241259   3.132   1.591   0.995 -0.1056  0.0656  0.3344
 6615TIP3    H141260   3.194   1.549   1.055  0.1839 -1.1650 -0.7840
 6615TIP3    H241261   3.150   1.551   0.910 -1.3788  0.8419 -0.3279
 6616TIP3   OH241262   3.602   5.146   4.965 -0.0207  0.5073  0.1776
 6616TIP3    H141263   3.533   5.091   5.002 -0.4840  0.9200 -0.0601
 6616TIP3    H241264   3.557   5.227   4.939  0.3246  0.3120 -1.0818
 6617TIP3   OH241265   4.593   0.026   2.110 -0.0399  0.7493 -0.2448
 6617TIP3    H141266   4.534   0.101   2.108 -0.1867  0.6409 -1.8873
 6617TIP3    H241267   4.652   0.043   2.183 -1.5849  1.2530  0.9209
 6618TIP3   OH241268   6.550   5.040  11.303  0.1872  0.2551 -0.1632
 6618TIP3    H141269   6.576   5.124  11.267 -0.3937  0.9533  0.9904
 6618TIP3    H241270   6.463   5.024  11.266 -0.2112  0.7481  0.5412
 6619TIP3   OH241271   2.934   1.164  12.777  0.0412  0.1356 -0.1097
 6619TIP3    H141272   2.947   1.232  12.843  1.4818  1.2537 -1.4495
 6619TIP3    H241273   3.023   1.138  12.751 -0.4772 -1.9430  0.0143
 6620TIP3   OH241274   3.105   3.342  16.081  0.1829  0.2618  0.5055
 6620TIP3    H141275   3.193   3.330  16.044 -0.6361  0.5832 -1.6324
 6620TIP3    H241276   3.059   3.397  16.019 -1.2108  1.1126  2.1897
 6621TIP3   OH241277   4.565   1.171   5.888  0.2066  0.2560  0.5525
 6621TIP3    H141278   4.593   1.118   5.963  0.1366 -0.6763 -0.0571
 6621TIP3    H241279   4.547   1.107   5.819  0.3063  1.0981 -0.2789
 6622TIP3   OH241280   1.737   2.995   6.025 -0.2783  0.1732 -0.5747
 6622TIP3    H141281   1.645   2.977   6.046  0.2056 -0.9515  0.6678
 6622TIP3    H241282   1.740   3.090   6.011 -1.3043  0.5001  1.1733
 6623TIP3   OH241283   6.228   5.316  12.591  0.4664 -0.6256 -0.0798
 6623TIP3    H141284   6.187   5.401  12.573 -2.3162 -1.7707  0.3110
 6623TIP3    H241285   6.258   5.322  12.681 -0.4179 -0.2943  0.2005
 6624TIP3   OH241286   6.131   3.184   5.528  0.8692  0.0103 -0.3899
 6624TIP3    H141287   6.117   3.243   5.454  1.5638 -0.8580 -1.2452
 6624TIP3    H241288   6.044   3.146   5.544  0.9331 -0.6887 -1.5675
 6625TIP3   OH241289   2.643   2.246   2.237  0.3729  0.3357  0.1476
 6625TIP3    H141290   2.587   2.291   2.301 -0.1935 -1.8050  1.2592
 6625TIP3    H241291   2.595   2.251   2.155  0.9592  2.8571 -0.1261
 6626TIP3   OH241292   1.638   2.586  10.472  0.1384 -0.6323  0.5949
 6626TIP3    H141293   1.682   2.573  10.388 -0.8579  1.5943 -0.3383
 6626TIP3    H241294   1.686   2.530  10.533  0.4910 -2.8289 -1.5489
 6627TIP3   OH241295   2.034   4.702   3.493 -0.6424  0.3138  0.0577
 6627TIP3    H141296   2.111   4.652   3.520 -1.2423  0.2344  1.7524
 6627TIP3    H241297   2.069   4.777   3.446  0.8224  2.2164  3.7086
 6628TIP3   OH241298   1.589   6.708   5.293 -0.0751 -0.1647 -0.5459
 6628TIP3    H141299   1.614   6.783   5.238  0.0988 -0.2870 -0.6335
 6628TIP3    H241300   1.516   6.667   5.247 -0.2759  0.0448 -0.4173
 6629TIP3   OH241301   0.745   5.922  12.436  0.1752 -0.1927  0.4556
 6629TIP3    H141302   0.752   5.860  12.508 -0.0995  0.9028  1.4556
 6629TIP3    H241303   0.660   5.904  12.397 -0.2690  0.1103  1.2717
 6630TIP3   OH241304   5.333   0.082  16.756 -0.3839  0.7587 -0.1929
 6630TIP3    H141305   5.276   0.153  16.783  0.8575  2.5440 -2.0043
 6630TIP3    H241306   5.304   0.060  16.667 -2.6668 -3.1536  1.2328
 6631TIP3   OH241307   6.023   3.931   2.565 -0.5230  0.2356 -0.5419
 6631TIP3    H141308   6.076   3.936   2.644  1.8492  1.4846 -2.0816
 6631TIP3    H241309   5.957   4.000   2.576 -1.4584 -0.8453  1.0827
 6632TIP3   OH241310   4.915   2.952  15.120  0.1763  0.3338 -0.5820
 6632TIP3    H141311   4.907   2.985  15.031  1.1225  2.0478 -0.0937
 6632TIP3    H241312   5.009   2.955  15.138  0.1935 -1.7639 -0.1367
 6633TIP3   OH241313   3.967   1.281  12.146  0.3882  0.3766 -0.0849
 6633TIP3    H141314   3.988   1.283  12.239  1.2028  0.1916 -0.2597
 6633TIP3    H241315   3.930   1.367  12.127 -0.3813  0.1948  0.5378
 6634TIP3   OH241316   3.021   2.761  16.442  0.3645  0.4070 -0.2750
 6634TIP3    H141317   3.072   2.841  16.458  0.4166  0.3024  0.0928
 6634TIP3    H241318   2.931   2.792  16.435  0.1265  0.3206  1.6873
 6635TIP3   OH241319   0.105   2.792   1.234  0.3189  0.0511 -0.2877
 6635TIP3    H141320   0.187   2.824   1.270 -1.3010  2.3933  1.6601
 6635TIP3    H241321   0.054   2.871   1.214 -1.6504 -1.2923 -0.9817
 6636TIP3   OH241322   4.545   2.136  15.521 -0.1092  0.4701  0.2959
 6636TIP3    H141323   4.507   2.087  15.448 -0.9968  0.2583  0.8787
 6636TIP3    H241324   4.624   2.087  15.544 -1.0137 -0.7759  0.9115
 6637TIP3   OH241325   1.302   6.158   4.490  0.3955 -0.0851  0.1684
 6637TIP3    H141326   1.329   6.072   4.458 -1.6152 -1.6206  2.3016
 6637TIP3    H241327   1.347   6.167   4.574  2.5917  2.1894 -1.0931
 6638TIP3   OH241328   1.866   6.580  13.436  0.6042  0.5228  0.4411
 6638TIP3    H141329   1.825   6.538  13.511  2.0471 -4.5740 -1.2420
 6638TIP3    H241330   1.793   6.608  13.381 -0.7099 -2.9808  0.1836
 6639TIP3   OH241331   1.896   2.722   6.423  0.2897  0.6510 -0.9319
 6639TIP3    H141332   1.843   2.654   6.383  1.5469 -0.4960 -0.7161
 6639TIP3    H241333   1.962   2.743   6.356  0.5688  0.8908 -0.5858
 6640TIP3   OH241334   1.102   4.547   6.093  0.9303 -0.2096  0.6497
 6640TIP3    H141335   1.093   4.454   6.116 -1.2622 -0.6644 -1.5949
 6640TIP3    H241336   1.019   4.586   6.120  1.8197  1.1660  1.5447
 6641TIP3   OH241337   1.292   4.004  16.759 -0.1159  0.1507 -0.4477
 6641TIP3    H141338   1.363   4.063  16.781  0.7419 -0.5492 -1.2457
 6641TIP3    H241339   1.327   3.949  16.689 -1.0308 -1.0110 -0.0311
 6642TIP3   OH241340   1.552   5.217  15.272  0.1403  0.1112  0.2833
 6642TIP3    H141341   1.622   5.274  15.305  0.5185  0.2844 -0.7883
 6642TIP3    H241342   1.548   5.236  15.179 -1.0161 -0.2560  0.2519
 6643TIP3   OH241343   0.600   6.673  15.083  0.3245 -0.1765 -0.2696
 6643TIP3    H141344   0.520   6.628  15.053  0.1441 -0.2270  0.2798
 6643TIP3    H241345   0.579   6.702  15.171  0.0128  2.0171 -1.0149
 6644TIP3   OH241346   6.099   6.307  11.490  0.1448  0.2709 -0.1630
 6644TIP3    H141347   6.019   6.329  11.443  0.6199 -1.0382 -1.6878
 6644TIP3    H241348   6.077   6.319  11.583 -2.0506 -0.7305 -0.4913
 6645TIP3   OH241349   5.989   5.722   5.757 -0.0318  0.4703  0.7552
 6645TIP3    H141350   5.983   5.630   5.784 -1.3885 -0.3692 -2.0191
 6645TIP3    H241351   5.903   5.759   5.779 -0.4869  0.2684 -0.5722
 6646TIP3   OH241352   5.092   4.727  14.214 -0.1866  0.2777  0.4245
 6646TIP3    H141353   5.082   4.689  14.127 -0.9802  0.1846  0.5464
 6646TIP3    H241354   5.002   4.739  14.245  0.0871 -0.1734  1.4321
 6647TIP3   OH241355   1.361   0.714   5.870 -0.5926 -0.6458  0.2950
 6647TIP3    H141356   1.311   0.665   5.805 -1.6046 -0.5873  1.0139
 6647TIP3    H241357   1.308   0.793   5.886  0.0861 -0.2344  0.5413
 6648TIP3   OH241358   4.776   2.645  15.986  0.0983  0.0203 -0.3327
 6648TIP3    H141359   4.852   2.588  15.975  0.6477  0.8414 -0.9415
 6648TIP3    H241360   4.751   2.670  15.897 -1.4366 -0.9199 -0.2012
 6649TIP3   OH241361   3.372   2.557  15.136 -0.0017  0.2195  0.3135
 6649TIP3    H141362   3.432   2.499  15.183  1.3344 -0.1774 -1.7558
 6649TIP3    H241363   3.395   2.645  15.166  0.1323 -0.0771  1.1152
 6650TIP3   OH241364   1.326   0.806   1.213 -0.2748  0.8556  0.1653
 6650TIP3    H141365   1.356   0.720   1.243 -1.1153  0.9221  1.2269
 6650TIP3    H241366   1.231   0.801   1.215 -0.3344  1.8236  0.2427
 6651TIP3   OH241367   4.302   6.733  15.180 -0.2347  0.2527 -0.3193
 6651TIP3    H141368   4.208   6.737  15.199  0.0928  2.1044  1.1962
 6651TIP3    H241369   4.311   6.660  15.119 -2.4839 -0.7860  0.4872
 6652TIP3   OH241370   5.662   3.456   4.871 -0.3217 -0.3138 -0.5381
 6652TIP3    H141371   5.631   3.511   4.799 -0.1013 -0.0554 -0.4365
 6652TIP3    H241372   5.758   3.460   4.865 -0.2859  0.2773  0.1899
 6653TIP3   OH241373   4.348   1.103  10.527  0.0691 -0.9434  0.0834
 6653TIP3    H141374   4.407   1.028  10.539 -0.3707 -1.4874 -1.0678
 6653TIP3    H241375   4.262   1.070  10.551  0.3453  0.3059  3.4545
 6654TIP3   OH241376   2.118   2.513  13.065 -0.2697  0.4490 -0.5847
 6654TIP3    H141377   2.122   2.511  12.969 -0.2822  0.5067 -0.5861
 6654TIP3    H241378   2.209   2.500  13.092 -0.1044  1.4024 -0.6199
 6655TIP3   OH241379   6.395   0.656  15.882 -0.3158  0.0036  0.3535
 6655TIP3    H141380   6.363   0.703  15.805 -1.8005  0.0119  0.9267
 6655TIP3    H241381   6.374   0.564  15.864  0.4399 -0.1471  0.2336
 6656TIP3   OH241382   2.233   4.208  16.620  0.4095 -0.1304 -0.1126
 6656TIP3    H141383   2.173   4.146  16.661  0.7717 -0.5587 -0.2233
 6656TIP3    H241384   2.189   4.235  16.539 -0.2619  0.6386  0.4856
 6657TIP3   OH241385   1.674   2.217   2.501  0.9484 -0.1320 -0.0685
 6657TIP3    H141386   1.719   2.156   2.559 -2.2817  0.5262  3.5160
 6657TIP3    H241387   1.581   2.195   2.509  0.0494  2.0356 -2.6789
 6658TIP3   OH241388   6.627   6.568   3.459 -0.1532  0.1096 -0.6830
 6658TIP3    H141389   6.651   6.654   3.496  1.2770 -0.0388 -1.1842
 6658TIP3    H241390   6.532   6.566   3.462 -0.1814  1.4075  0.0456
 6659TIP3   OH241391   2.127   4.773   5.085  0.1627  0.9630 -0.8161
 6659TIP3    H141392   2.133   4.865   5.110 -1.1757  1.4981 -2.3285
 6659TIP3    H241393   2.034   4.752   5.090  0.4578 -0.3542 -0.4060
 6660TIP3   OH241394   5.650   1.585  16.585  0.1704  0.5440  0.0440
 6660TIP3    H141395   5.558   1.609  16.594  0.2914  0.9488  0.2336
 6660TIP3    H241396   5.654   1.535  16.504 -0.3471 -0.1504  0.4408
 6661TIP3   OH241397   4.572   4.794  11.423  0.5747 -0.3400 -0.1616
 6661TIP3    H141398   4.496   4.751  11.384 -1.3072  2.2640  0.3999
 6661TIP3    H241399   4.535   4.856  11.486  3.2720 -0.3514  1.5897
 6662TIP3   OH241400   0.723   5.263   3.691 -0.1950 -0.4419 -0.4562
 6662TIP3    H141401   0.812   5.294   3.670 -0.0389 -0.9964 -0.6489
 6662TIP3    H241402   0.666   5.309   3.630  0.2223 -1.7950 -1.9547
 6663TIP3   OH241403   1.175   2.336  13.162  0.0797 -0.0703 -0.7668
 6663TIP3    H141404   1.141   2.412  13.209 -1.9254 -2.1107  1.2972
 6663TIP3    H241405   1.268   2.332  13.186  0.6731  2.4949 -2.1737
 6664TIP3   OH241406   2.866   0.235  13.726  0.4314  0.0581 -0.0233
 6664TIP3    H141407   2.841   0.310  13.671  1.3078  0.0171 -0.4968
 6664TIP3    H241408   2.892   0.274  13.809 -0.7899  0.1317  0.3459
 6665TIP3   OH241409   1.702   4.315   3.996  0.2991 -0.1561 -0.1325
 6665TIP3    H141410   1.665   4.349   3.914  0.1318 -0.2660 -0.1015
 6665TIP3    H241411   1.797   4.324   3.984  0.2688  0.0023 -0.2632
 6666TIP3   OH241412   0.005   1.057  15.716 -0.7044 -0.3853  0.1574
 6666TIP3    H141413  -0.034   1.063  15.803 -0.9094  2.8175 -0.0220
 6666TIP3    H241414   0.072   0.988  15.724 -2.2302 -1.7482  2.1569
 6667TIP3   OH241415   1.314   0.865   4.126  0.4277 -0.2638 -0.5673
 6667TIP3    H141416   1.374   0.939   4.114  0.9175 -0.0533  2.5410
 6667TIP3    H241417   1.363   0.790   4.093  2.0258  0.0792  0.8531
 6668TIP3   OH241418   3.636   5.392   0.942 -0.3643  0.1431 -0.6090
 6668TIP3    H141419   3.543   5.395   0.961 -0.6841  1.4704 -2.1017
 6668TIP3    H241420   3.660   5.483   0.926  1.1454 -0.1980 -0.4524
 6669TIP3   OH241421   6.031   4.517  15.701 -0.3285  0.2375  0.0288
 6669TIP3    H141422   6.123   4.496  15.687 -0.3922  0.8998 -1.6587
 6669TIP3    H241423   6.029   4.564  15.784  0.7077 -0.6150  0.5553
 6670TIP3   OH241424   0.517   0.100   2.882 -0.2948 -0.0969  0.3559
 6670TIP3    H141425   0.453   0.157   2.839  1.0706  1.3734  0.1715
 6670TIP3    H241426   0.571   0.160   2.934  3.9635 -0.4143 -3.1207
 6671TIP3   OH241427   1.816   4.757   0.059  0.3619 -0.1801 -0.2964
 6671TIP3    H141428   1.771   4.840   0.078  0.5623 -0.3554  1.0708
 6671TIP3    H241429   1.772   4.693   0.114  1.0647 -0.7226 -0.3564
 6672TIP3   OH241430   3.565   0.370  16.251  0.1904 -0.1760 -0.0846
 6672TIP3    H141431   3.617   0.391  16.173 -0.3414 -3.2620 -1.4135
 6672TIP3    H241432   3.629   0.333  16.312  0.1942 -0.1980 -0.1009
 6673TIP3   OH241433   4.566   6.736  16.784  0.2331  0.2475 -0.3171
 6673TIP3    H141434   4.550   6.675  16.856  1.8158 -0.3064 -0.4003
 6673TIP3    H241435   4.581   6.680  16.708  1.0765  0.7484 -0.5267
 6674TIP3   OH241436   3.802   6.215   1.060 -0.2581 -0.1045 -0.3499
 6674TIP3    H141437   3.860   6.164   1.003  0.8084 -0.1013  0.7035
 6674TIP3    H241438   3.738   6.152   1.091  1.1555 -0.9219  1.0819
 6675TIP3   OH241439   4.213   3.939   3.841  0.0118  0.5317 -0.4437
 6675TIP3    H141440   4.231   4.032   3.826  2.9847 -0.0986 -1.4429
 6675TIP3    H241441   4.238   3.923   3.932  0.1392  0.5724 -0.4720
 6676TIP3   OH241442   5.829   6.313   5.550 -0.5121  0.2712  0.3249
 6676TIP3    H141443   5.916   6.291   5.586 -1.1246 -2.0083  0.6060
 6676TIP3    H241444   5.779   6.343   5.625 -0.1835  0.8532  0.3108
 6677TIP3   OH241445   3.445   3.443   4.199  0.0711 -0.6551  0.1708
 6677TIP3    H141446   3.422   3.351   4.188 -1.5871 -0.7572  3.3292
 6677TIP3    H241447   3.383   3.490   4.144 -0.2532 -1.3652 -0.0780
 6678TIP3   OH241448   3.221   3.564   0.727  0.1438 -0.0485 -0.3030
 6678TIP3    H141449   3.305   3.575   0.773  0.7730  0.3840 -1.5118
 6678TIP3    H241450   3.242   3.582   0.636 -1.2790  0.0388 -0.6237
 6679TIP3   OH241451   3.121   6.154  15.061 -0.3849 -0.1640 -0.3562
 6679TIP3    H141452   3.201   6.207  15.066 -0.4124 -0.0644 -0.9142
 6679TIP3    H241453   3.051   6.214  15.084 -0.5252  0.3212 -1.9522
 6680TIP3   OH241454   6.575   6.749  15.283  0.1609 -0.2639 -0.4889
 6680TIP3    H141455   6.585   6.701  15.201  1.5952  0.8744 -1.0280
 6680TIP3    H241456   6.573   6.681  15.351 -2.1267 -1.3035 -1.4677
 6681TIP3   OH241457   2.639   1.578  12.254  1.0252  0.2397 -0.3604
 6681TIP3    H141458   2.636   1.673  12.247 -0.7733  0.1187 -1.7210
 6681TIP3    H241459   2.564   1.547  12.204  1.0796 -1.8748  0.7359
 6682TIP3   OH241460   2.254   3.053   4.890  0.5573  0.3028  0.1233
 6682TIP3    H141461   2.216   3.000   4.821 -2.1116  1.3345  0.6983
 6682TIP3    H241462   2.254   2.996   4.967 -0.8304  0.5715  0.3524
 6683TIP3   OH241463   5.258   4.649  14.742  0.3010  0.2955 -0.4170
 6683TIP3    H141464   5.322   4.632  14.673  0.8722  1.0404 -0.0891
 6683TIP3    H241465   5.310   4.674  14.818 -0.3606  0.6297 -0.0579
 6684TIP3   OH241466   5.763   5.124  15.896  0.4511  0.0639 -0.2212
 6684TIP3    H141467   5.702   5.094  15.963  0.3894  0.6790 -0.0017
 6684TIP3    H241468   5.712   5.183  15.841  0.3473 -0.8497 -1.1494
 6685TIP3   OH241469   2.676   5.695  14.034  0.6037  0.8313 -0.4543
 6685TIP3    H141470   2.689   5.754  13.960  0.7485 -1.0536 -2.0037
 6685TIP3    H241471   2.583   5.671  14.028  0.1156  2.1196  1.1697
 6686TIP3   OH241472   4.145   2.829  12.806 -0.1899 -0.5649 -0.2687
 6686TIP3    H141473   4.054   2.852  12.789 -0.1517 -0.2588 -0.0502
 6686TIP3    H241474   4.147   2.733  12.797 -0.7618 -0.6972  0.7935
 6687TIP3   OH241475   4.475   6.479  14.103 -0.0168 -0.2666  0.1505
 6687TIP3    H141476   4.409   6.538  14.138 -0.3224 -0.1119 -0.6795
 6687TIP3    H241477   4.471   6.491  14.008 -0.6892 -2.2361 -0.1243
 6688TIP3   OH241478   1.982   4.521   1.283  0.2389  0.4000  0.4873
 6688TIP3    H141479   1.986   4.427   1.299  2.2751  0.3844  0.1525
 6688TIP3    H241480   2.065   4.555   1.317 -0.4402  2.0788  0.5877
 6689TIP3   OH241481   6.473   2.036  16.261  0.0144  0.0098 -0.1052
 6689TIP3    H141482   6.504   2.055  16.349  1.2739  1.1612 -0.7506
 6689TIP3    H241483   6.523   2.096  16.205 -1.4795  0.0241 -1.4975
 6690TIP3   OH241484   1.788   2.337  13.758 -0.3185 -0.0716 -0.5596
 6690TIP3    H141485   1.731   2.265  13.784 -0.2023 -0.1391 -0.4909
 6690TIP3    H241486   1.807   2.384  13.839  1.0453 -1.0066 -0.2931
 6691TIP3   OH241487   3.338   2.615   1.474  0.3328  0.1444 -0.0087
 6691TIP3    H141488   3.269   2.676   1.500  0.5322  0.0967  0.6605
 6691TIP3    H241489   3.294   2.531   1.464  0.2237  0.1993  0.0160
 6692TIP3   OH241490   5.176   4.785   5.713 -0.1134  0.3601  0.3622
 6692TIP3    H141491   5.183   4.872   5.674  1.6747  0.1475  0.1617
 6692TIP3    H241492   5.265   4.752   5.716 -0.8461 -1.8838 -0.4661
 6693TIP3   OH241493   1.919   0.027   0.557  0.0553  0.2373  0.2257
 6693TIP3    H141494   1.969   0.030   0.475 -0.5625 -2.3108 -0.3285
 6693TIP3    H241495   1.946  -0.055   0.599 -1.1996  0.4503  1.5338
 6694TIP3   OH241496   6.010   6.651  14.550  1.0514  0.2513  0.0324
 6694TIP3    H141497   6.080   6.692  14.601  0.9796  0.3922  0.0186
 6694TIP3    H241498   6.052   6.577  14.507  1.3290  0.6919 -0.4579
 6695TIP3   OH241499   1.329   1.269  13.977 -0.0258  0.3342  0.5208
 6695TIP3    H141500   1.235   1.270  13.963  0.0847 -0.6276 -0.4365
 6695TIP3    H241501   1.341   1.214  14.055 -0.2648  0.5902  0.7375
 6696TIP3   OH241502   5.254   2.904  16.074 -0.4736  0.0687 -0.1760
 6696TIP3    H141503   5.164   2.876  16.088 -0.2044  0.3806  2.7542
 6696TIP3    H241504   5.249   3.000  16.070 -0.3901  0.0412 -1.4856
 6697TIP3   OH241505   3.046   0.414   4.613 -0.0862  0.0104  0.1414
 6697TIP3    H141506   2.950   0.416   4.624 -0.2600  0.9773 -1.3617
 6697TIP3    H241507   3.064   0.325   4.584 -0.1267 -1.1469  3.2248
 6698TIP3   OH241508   0.046   1.119  14.348  0.3394  0.1772 -0.1793
 6698TIP3    H141509   0.097   1.200  14.343 -0.1836  0.5737  0.7811
 6698TIP3    H241510  -0.034   1.138  14.300 -0.0873  0.4727  0.6348
 6699TIP3   OH241511   6.517   4.131   0.096  0.0711 -0.1460  0.1051
 6699TIP3    H141512   6.538   4.039   0.108 -2.4484 -0.9785 -1.2309
 6699TIP3    H241513   6.430   4.142   0.134  1.1229  2.2482  2.1615
 6700TIP3   OH241514   4.590   1.689  14.881  0.0534 -0.6205  0.3740
 6700TIP3    H141515   4.643   1.742  14.942 -3.1646  3.8483 -0.1757
 6700TIP3    H241516   4.545   1.627  14.938 -0.2633  1.0877  2.1265
 6701TIP3   OH241517   3.733   3.012  14.735  0.0953  0.1818  0.5495
 6701TIP3    H141518   3.753   3.105  14.729 -1.8664  0.5572 -1.6745
 6701TIP3    H241519   3.660   2.999  14.675  1.2380 -3.0740 -0.3661
 6702TIP3   OH241520   6.259   1.070   1.182  0.0903 -0.1674 -0.4681
 6702TIP3    H141521   6.245   1.016   1.104 -0.6361 -0.6707 -0.0021
 6702TIP3    H241522   6.250   1.009   1.256  1.9358  0.0672 -0.0151
 6703TIP3   OH241523   5.776   2.476  14.911  0.2693  0.1178 -0.3979
 6703TIP3    H141524   5.766   2.395  14.862 -0.7529 -0.4540  0.7341
 6703TIP3    H241525   5.687   2.503  14.932  0.6394  1.0196  0.0695
 6704TIP3   OH241526   1.780   3.937  11.028 -0.0436  0.2540  0.0251
 6704TIP3    H141527   1.841   3.868  11.005  1.2643  0.8422  1.5267
 6704TIP3    H241528   1.835   4.015  11.037 -0.8874  0.6752  1.9888
 6705TIP3   OH241529   5.742   6.688   2.589 -0.7241  0.5755 -0.8246
 6705TIP3    H141530   5.773   6.753   2.526  0.3434  0.4428 -0.4678
 6705TIP3    H241531   5.801   6.613   2.577 -1.3896  0.0116 -0.6290
 6706TIP3   OH241532   5.311   2.982   2.682 -0.0813 -0.1634 -0.3255
 6706TIP3    H141533   5.222   2.970   2.649 -0.0839  1.7855 -1.1451
 6706TIP3    H241534   5.311   2.937   2.766 -1.2696 -1.8009 -1.1454
 6707TIP3   OH241535   6.030   1.775  16.324  0.2312 -0.2440 -0.7025
 6707TIP3    H141536   6.077   1.857  16.305 -1.6638  0.6092 -1.9723
 6707TIP3    H241537   5.944   1.803  16.353 -1.1292 -1.7525 -3.0155
 6708TIP3   OH241538   4.484   2.390  12.298  0.2082 -0.0970  0.3870
 6708TIP3    H141539   4.540   2.462  12.328  0.9863 -0.6603  0.3052
 6708TIP3    H241540   4.450   2.351  12.379  2.0551 -1.4154  0.5854
 6709TIP3   OH241541   2.129   6.013   5.481 -0.4921  0.1841 -0.2284
 6709TIP3    H141542   2.202   6.018   5.420 -0.4731  0.3570 -0.1902
 6709TIP3    H241543   2.055   5.984   5.427 -1.3138  3.4867 -1.0822
 6710TIP3   OH241544   0.917   2.989  14.369  0.4734  0.0406  0.7022
 6710TIP3    H141545   0.920   2.943  14.453  1.5978  0.8715  1.1398
 6710TIP3    H241546   0.941   2.922  14.304  0.9391 -0.2817  1.1985
 6711TIP3   OH241547   5.283   2.027   3.721  0.6801 -0.0160  0.1678
 6711TIP3    H141548   5.378   2.033   3.732  0.7538 -1.0718  0.1861
 6711TIP3    H241549   5.247   2.051   3.807  0.9483 -0.1471  0.3177
 6712TIP3   OH241550   1.865   4.229  14.481 -0.5522  0.4925 -0.2529
 6712TIP3    H141551   1.886   4.136  14.491 -0.5131  0.5449  0.1961
 6712TIP3    H241552   1.785   4.230  14.429 -0.5691  0.2035 -0.2353
 6713TIP3   OH241553   2.876   2.446   5.336 -0.1893  0.0135  0.0726
 6713TIP3    H141554   2.919   2.531   5.331 -2.2533  1.1629  0.8215
 6713TIP3    H241555   2.827   2.449   5.419 -0.8062 -1.6578 -0.1949
 6714TIP3   OH241556   0.366   5.758  14.565 -0.1581 -0.7309  0.7669
 6714TIP3    H141557   0.361   5.828  14.500  0.2290 -0.0024  1.4889
 6714TIP3    H241558   0.315   5.686  14.528 -1.6113  0.3642  0.5187
 6715TIP3   OH241559   3.556   2.401   4.771 -0.2841  0.1225  0.0842
 6715TIP3    H141560   3.630   2.404   4.710 -0.1971 -1.8063  0.0303
 6715TIP3    H241561   3.493   2.464   4.736 -0.1968 -0.8586 -1.9857
 6716TIP3   OH241562   4.445   2.407  13.106 -0.1170 -0.6248 -0.0745
 6716TIP3    H141563   4.498   2.471  13.155 -0.4745 -0.9930  0.8228
 6716TIP3    H241564   4.461   2.428  13.014  1.8103 -0.9106  0.1565
 6717TIP3   OH241565   5.390   0.466  15.563  0.1143  0.2284  0.3423
 6717TIP3    H141566   5.383   0.486  15.657 -0.2978  1.0695  0.1478
 6717TIP3    H241567   5.346   0.382  15.553  0.3884  0.0041  0.9393
 6718TIP3   OH241568   4.151   4.988  16.046  0.0571  0.6669 -0.0815
 6718TIP3    H141569   4.211   5.016  15.978  0.4991 -1.5756 -0.6770
 6718TIP3    H241570   4.088   4.932  16.001  0.5054 -1.0679  1.3539
 6719TIP3   OH241571   1.302   4.887   0.768 -0.2813  0.3084  0.0275
 6719TIP3    H141572   1.347   4.935   0.838  0.6678 -0.0882 -0.2848
 6719TIP3    H241573   1.234   4.837   0.814  0.5501 -0.2152  0.7289
 6720TIP3   OH241574   0.473   6.505   3.604 -0.3332 -0.2599  0.0028
 6720TIP3    H141575   0.416   6.580   3.623  0.2447 -0.4900  3.2905
 6720TIP3    H241576   0.413   6.432   3.593 -0.8114  0.2508 -0.8797
 6721TIP3   OH241577   1.851   1.387  10.973  0.2008  0.1817 -0.0132
 6721TIP3    H141578   1.847   1.304  11.021 -0.8536  0.2111 -0.0179
 6721TIP3    H241579   1.800   1.370  10.893 -2.8536  1.7520  1.4493
 6722TIP3   OH241580   0.062   4.038   0.558 -0.5102 -0.0424  0.4360
 6722TIP3    H141581   0.104   4.017   0.474 -1.9325 -1.6423  0.0562
 6722TIP3    H241582  -0.018   4.084   0.534  0.1217  1.4601  1.0704
 6723TIP3   OH241583   1.542   3.376   0.370  0.4012 -0.4973  0.2565
 6723TIP3    H141584   1.523   3.412   0.456 -1.3904  0.0169 -0.3100
 6723TIP3    H241585   1.475   3.310   0.355  1.2077 -1.2059 -0.4079
 6724TIP3   OH241586   1.435   2.041   3.448  0.1339 -0.0391  0.1496
 6724TIP3    H141587   1.511   2.057   3.392  0.3832  1.2299  0.8362
 6724TIP3    H241588   1.363   2.024   3.386  1.1337 -2.3096 -0.5077
 6725TIP3   OH241589   3.586   1.169   0.752 -0.5438  0.2417  0.3289
 6725TIP3    H141590   3.619   1.258   0.764 -2.0502  0.6907  1.3495
 6725TIP3    H241591   3.492   1.176   0.768 -0.8810 -1.3181 -0.7869
 6726TIP3   OH241592   1.858   4.412  16.746  0.2491 -0.4595 -0.1011
 6726TIP3    H141593   1.787   4.474  16.761  0.7146  0.7767 -2.4741
 6726TIP3    H241594   1.938   4.459  16.770  0.5031 -0.6402 -0.5734
 6727TIP3   OH241595   0.455   5.317   6.345  0.1597 -0.0140 -0.1286
 6727TIP3    H141596   0.542   5.318   6.386  1.4187  0.1251 -2.5591
 6727TIP3    H241597   0.410   5.243   6.384  1.3863 -0.1166  1.1699
 6728TIP3   OH241598   1.931   0.151  16.825  0.6269 -0.6377 -0.1077
 6728TIP3    H141599   1.890   0.064  16.820  0.5492 -0.6083  0.0462
 6728TIP3    H241600   1.974   0.153  16.910 -1.1326  0.2652  0.8152
 6729TIP3   OH241601   6.191   6.518   2.715 -0.2047 -0.2694 -0.1124
 6729TIP3    H141602   6.168   6.427   2.733 -0.3578 -0.6463 -2.0113
 6729TIP3    H241603   6.286   6.521   2.726  0.0920 -1.2033 -1.9873
 6730TIP3   OH241604   4.141   5.351  17.035 -0.3318  0.4004 -0.2137
 6730TIP3    H141605   4.103   5.264  17.049  1.0348 -0.0436  1.1171
 6730TIP3    H241606   4.190   5.368  17.116  1.1711  1.4831 -1.3099
 6731TIP3   OH241607   3.316   3.861   3.428 -0.5340 -0.0743 -0.1942
 6731TIP3    H141608   3.253   3.794   3.455 -1.7302  0.5785 -1.2612
 6731TIP3    H241609   3.370   3.817   3.362 -1.0298 -0.1426 -0.5671
 6732TIP3   OH241610   5.490   5.988   1.110 -0.5644 -0.2504  0.4625
 6732TIP3    H141611   5.497   5.911   1.167 -1.6083 -0.5723  0.1886
 6732TIP3    H241612   5.515   5.955   1.024 -2.0403 -0.5838  0.1296
 6733TIP3   OH241613   1.810   4.015  15.299 -0.5214  0.0767  0.0079
 6733TIP3    H141614   1.825   3.931  15.256 -0.0810 -0.0234  0.3511
 6733TIP3    H241615   1.879   4.022  15.364 -0.7409  0.5644  0.1989
 6734TIP3   OH241616   2.479   5.869   6.153  0.4449  0.0863 -0.3474
 6734TIP3    H141617   2.469   5.964   6.164 -0.2604 -0.0821  0.6245
 6734TIP3    H241618   2.505   5.837   6.240  0.0790 -0.6757 -0.5090
 6735TIP3   OH241619   3.410   1.676  13.770 -0.0679 -0.6223  0.0172
 6735TIP3    H141620   3.411   1.684  13.865 -2.3000  0.1267  0.0286
 6735TIP3    H241621   3.468   1.602  13.752 -1.9068 -2.7992  2.2286
 6736TIP3   OH241622   2.929   0.923   3.418 -0.4936 -0.7293  0.0098
 6736TIP3    H141623   2.913   0.905   3.511 -1.4543 -0.3163 -0.0672
 6736TIP3    H241624   2.904   1.014   3.407  2.6576  0.2644  0.0199
 6737TIP3   OH241625   4.826   6.184  12.856  0.0100 -0.1270 -0.2070
 6737TIP3    H141626   4.888   6.125  12.813 -1.4689 -1.8468 -0.1090
 6737TIP3    H241627   4.875   6.222  12.928  0.6772 -2.3971  0.6351
 6738TIP3   OH241628   0.932   6.550   0.316  0.2268 -0.3331  0.5198
 6738TIP3    H141629   0.899   6.469   0.278 -0.9563  0.8098 -1.0196
 6738TIP3    H241630   0.888   6.557   0.401  1.2387 -1.8354  1.2165
 6739TIP3   OH241631   4.072   4.312  15.552  0.0835  0.5340  0.0663
 6739TIP3    H141632   4.129   4.274  15.486 -0.5024 -1.3302  0.5810
 6739TIP3    H241633   4.037   4.391  15.510 -0.0697 -0.4440 -1.7697
 6740TIP3   OH241634   4.883   4.107   0.974  0.4530 -0.3201  0.1569
 6740TIP3    H141635   4.943   4.098   1.047  0.1653 -2.4078  0.1994
 6740TIP3    H241636   4.937   4.094   0.896  0.3980 -0.1838  0.0957
 6741TIP3   OH241637   0.101   4.432  16.932 -0.0991  0.3768  0.2762
 6741TIP3    H141638   0.165   4.398  16.994  0.5188 -0.3043 -0.6923
 6741TIP3    H241639   0.018   4.394  16.960  0.1829  0.0273  0.6529
 6742TIP3   OH241640   3.349   3.850   1.139  0.1576  0.1539 -0.2405
 6742TIP3    H141641   3.295   3.922   1.173 -0.4912 -0.5416  0.2290
 6742TIP3    H241642   3.296   3.772   1.154  0.7628 -0.3989 -0.9575
 6743TIP3   OH241643   2.780   5.235  15.408  0.1403  0.7233 -0.0858
 6743TIP3    H141644   2.854   5.293  15.392 -0.3761  1.1092 -1.2282
 6743TIP3    H241645   2.741   5.221  15.321 -0.9709  0.3372  0.4473
 6744TIP3   OH241646   5.256   1.399  12.641  0.8128 -0.2207 -0.0242
 6744TIP3    H141647   5.195   1.452  12.590  0.5987 -1.1565 -0.7895
 6744TIP3    H241648   5.207   1.374  12.719 -0.6180 -2.6743 -1.5683
 6745TIP3   OH241649   1.013   5.991   1.252 -0.2887  0.3138  0.0924
 6745TIP3    H141650   1.053   6.078   1.259 -0.0742  0.2199  0.0456
 6745TIP3    H241651   0.956   5.996   1.175  0.8307 -0.0200 -0.7770
 6746TIP3   OH241652   0.487   5.283   1.803  0.1563 -0.3500 -0.2690
 6746TIP3    H141653   0.455   5.361   1.847 -0.3638 -0.8654  0.2841
 6746TIP3    H241654   0.582   5.292   1.803  0.1464 -0.2014  0.7023
 6747TIP3   OH241655   3.860   5.036  15.740 -0.3023 -0.2670 -0.2044
 6747TIP3    H141656   3.841   4.991  15.658 -1.1176  1.8435 -1.2361
 6747TIP3    H241657   3.806   4.991  15.805 -1.4350 -0.5215 -1.2760
 6748TIP3   OH241658   4.279   4.473  13.237  0.2674 -0.1143  0.8128
 6748TIP3    H141659   4.194   4.514  13.256  0.5873 -0.5826  3.5620
 6748TIP3    H241660   4.256   4.387  13.200 -0.3917  0.7233 -0.8405
 6749TIP3   OH241661   3.394   4.906   1.336  0.0922  0.3840 -0.0132
 6749TIP3    H141662   3.378   4.830   1.392  2.5568 -1.3535 -1.4576
 6749TIP3    H241663   3.479   4.940   1.365  0.1334  1.1074 -0.9239
 6750TIP3   OH241664   3.622   3.764   3.816  0.2275 -0.3112 -0.0038
 6750TIP3    H141665   3.717   3.751   3.825 -0.1152 -1.6314  2.5312
 6750TIP3    H241666   3.596   3.701   3.748  0.9771 -0.8940  0.2341
 6751TIP3   OH241667   1.765   0.059   5.498 -0.2678 -0.0102  0.0042
 6751TIP3    H141668   1.693   0.101   5.545  1.0679  2.1665  0.2339
 6751TIP3    H241669   1.724   0.025   5.418 -1.7821  0.0324  0.7393
 6752TIP3   OH241670   2.463   1.648  14.089 -0.0809  0.4970  0.2108
 6752TIP3    H141671   2.391   1.684  14.139 -2.0547 -1.5229 -0.9782
 6752TIP3    H241672   2.536   1.642  14.151 -0.6850  3.1569  1.2791
 6753TIP3   OH241673   0.158   4.716   3.737  0.6630 -0.2120 -0.1030
 6753TIP3    H141674   0.227   4.781   3.754 -0.8143  1.6691 -0.9234
 6753TIP3    H241675   0.172   4.690   3.646 -0.4624  1.1857 -0.7025
 6754TIP3   OH241676   2.674   4.189  13.042  0.4890 -0.0439  0.0514
 6754TIP3    H141677   2.749   4.218  13.094 -0.5851  0.9594  1.0990
 6754TIP3    H241678   2.609   4.161  13.107 -0.4519  0.1372 -0.7831
 6755TIP3   OH241679   2.421   4.666  14.753 -0.1672  0.1546 -0.3930
 6755TIP3    H141680   2.507   4.660  14.796  0.2346  0.9340 -1.0729
 6755TIP3    H241681   2.388   4.752  14.777  0.5594  1.0842 -2.5100
 6756TIP3   OH241682   2.531   0.750   2.814 -0.5859  0.0009  0.6275
 6756TIP3    H141683   2.479   0.830   2.802  0.5484  0.7892  0.8113
 6756TIP3    H241684   2.478   0.681   2.774 -1.5807  0.8461  0.4416
 6757TIP3   OH241685   6.210   5.106   2.403  0.7742 -0.0942 -0.5809
 6757TIP3    H141686   6.205   5.196   2.435  0.3445 -0.2691 -0.1259
 6757TIP3    H241687   6.257   5.111   2.321  1.2914  0.4712 -0.2520
 6758TIP3   OH241688   4.839   1.178  12.863  0.2514  0.9485 -0.3275
 6758TIP3    H141689   4.829   1.163  12.957  1.1945 -1.6363 -0.5752
 6758TIP3    H241690   4.774   1.121  12.823 -0.7327  2.6559 -1.3055
 6759TIP3   OH241691   0.847   1.232   4.897  0.0273  0.6784 -0.2206
 6759TIP3    H141692   0.785   1.160   4.888 -0.4315  0.9021  0.8977
 6759TIP3    H241693   0.922   1.207   4.843 -0.1107 -0.6526  0.1714
 6760TIP3   OH241694   2.366   4.551  11.850 -0.3734  0.0262  0.3551
 6760TIP3    H141695   2.394   4.463  11.826  2.1168  0.2983  1.9175
 6760TIP3    H241696   2.320   4.584  11.772 -1.6541 -2.7027 -0.1519
 6761TIP3   OH241697   3.944   5.743   6.363  0.6814 -0.1195 -0.0341
 6761TIP3    H141698   3.877   5.732   6.430 -0.8571 -0.9131 -1.6074
 6761TIP3    H241699   4.006   5.805   6.401  0.1568 -0.9127  2.2883
 6762TIP3   OH241700   5.116   2.778  11.636  0.2114  0.0239 -0.3784
 6762TIP3    H141701   5.145   2.770  11.545 -0.9055  0.0519 -0.7499
 6762TIP3    H241702   5.149   2.699  11.678  1.5207  0.4400 -0.5713
 6763TIP3   OH241703   2.950   5.537   1.033  0.3171  0.5923  0.3155
 6763TIP3    H141704   2.869   5.488   1.045  1.2290 -0.9297  0.4672
 6763TIP3    H241705   2.921   5.628   1.028 -1.5695 -0.0050 -1.2632
 6764TIP3   OH241706   0.050   0.345  11.988 -0.6843 -0.0841 -0.3347
 6764TIP3    H141707   0.102   0.413  12.029 -1.2045 -0.7670  1.5821
 6764TIP3    H241708   0.071   0.350  11.895  2.2120  0.1421  0.2521
 6765TIP3   OH241709   6.253   4.667   5.312 -0.1533  0.1337 -0.2611
 6765TIP3    H141710   6.318   4.601   5.287 -1.3852 -1.2146  0.0189
 6765TIP3    H241711   6.174   4.617   5.332 -0.9226  1.6496  0.6233
 6766TIP3   OH241712   0.572   5.441   3.857 -0.6940  0.4747  0.4885
 6766TIP3    H141713   0.600   5.458   3.767  2.6441 -1.3502  1.0341
 6766TIP3    H241714   0.501   5.376   3.847 -0.7132  0.6573 -0.8284
 6767TIP3   OH241715   0.696   4.324  12.392  0.7448  0.2238 -0.0575
 6767TIP3    H141716   0.731   4.389  12.331 -0.0805  1.1645  0.4502
 6767TIP3    H241717   0.602   4.323  12.375  0.9388 -2.1625 -1.2953
 6768TIP3   OH241718   5.400   1.113  13.494  0.0830 -0.7419  0.1419
 6768TIP3    H141719   5.437   1.178  13.554 -3.5661  1.3709  0.3884
 6768TIP3    H241720   5.474   1.057  13.472  2.7369  1.4495  2.5769
 6769TIP3   OH241721   0.902   4.047   1.699 -0.6468  0.2978  0.4120
 6769TIP3    H141722   0.907   4.060   1.604  1.1877 -2.2032  0.0675
 6769TIP3    H241723   0.923   4.133   1.736 -1.7970  1.4246 -1.4189
 6770TIP3   OH241724   5.897   5.660  15.292 -0.2950  0.3351  0.1755
 6770TIP3    H141725   5.909   5.665  15.387 -1.1387  1.4216  0.2473
 6770TIP3    H241726   5.808   5.694  15.278 -0.1718  0.2016 -1.0049
 6771TIP3   OH241727   2.301   6.520   3.046  0.1454  0.6837 -0.0209
 6771TIP3    H141728   2.327   6.612   3.056  0.1967  0.8603 -1.6302
 6771TIP3    H241729   2.378   6.476   3.012  0.0057  0.0993  0.3972
 6772TIP3   OH241730   1.661   4.972  16.681  0.1218 -0.3513  0.3970
 6772TIP3    H141731   1.687   4.894  16.633  0.0909 -0.1688  0.0858
 6772TIP3    H241732   1.639   4.940  16.769 -0.0275 -0.7098  0.2266
 6773TIP3   OH241733   0.688   2.625  14.363  0.7464  0.6832 -0.4359
 6773TIP3    H141734   0.622   2.685  14.397 -1.4739 -0.3393 -2.6624
 6773TIP3    H241735   0.663   2.539  14.399  2.1706  0.5622  0.3733
 6774TIP3   OH241736   1.708   6.467  15.971 -0.6390 -0.1804  0.3408
 6774TIP3    H141737   1.659   6.467  15.889 -3.2450  0.5192  1.8107
 6774TIP3    H241738   1.769   6.540  15.962 -0.1072 -0.7701 -1.3410
 6775TIP3   OH241739   2.341   3.268   3.887 -0.8883 -0.4944 -0.6599
 6775TIP3    H141740   2.360   3.231   3.801 -2.2919  0.0856 -1.2549
 6775TIP3    H241741   2.248   3.248   3.902 -0.2802 -2.0255  1.4747
 6776TIP3   OH241742   3.250   3.365   1.099 -0.3295 -0.2549 -0.0874
 6776TIP3    H141743   3.286   3.278   1.081  0.5672  0.0500  0.1471
 6776TIP3    H241744   3.167   3.367   1.052  1.1481 -0.0571 -2.9856
 6777TIP3   OH241745   4.351   6.227  13.934 -0.2089  0.0863  0.3974
 6777TIP3    H141746   4.349   6.285  14.010  3.9812  1.3673 -0.2603
 6777TIP3    H241747   4.290   6.267  13.872  0.8434  2.5569  0.8369
 6778TIP3   OH241748   4.870   5.757   5.276 -0.2195  0.8767  0.5695
 6778TIP3    H141749   4.830   5.687   5.327  0.0606  0.3797  0.1108
 6778TIP3    H241750   4.905   5.714   5.198  0.0206  1.5123  0.3156
 6779TIP3   OH241751   1.783   1.667  16.194  0.0048  0.3386  0.1245
 6779TIP3    H141752   1.701   1.669  16.244 -0.4004  2.0367 -0.5506
 6779TIP3    H241753   1.815   1.757  16.198  0.5885  0.2412 -1.6384
 6780TIP3   OH241754   1.790   4.333   5.905  0.4249  0.8724  0.3006
 6780TIP3    H141755   1.727   4.399   5.877 -0.5743  0.7996  2.1898
 6780TIP3    H241756   1.869   4.382   5.926  0.5498  1.1353 -0.7199
 6781TIP3   OH241757   5.868   1.057  14.841 -0.3909 -0.6832  0.3964
 6781TIP3    H141758   5.790   1.029  14.794  0.7126 -2.3653 -0.5276
 6781TIP3    H241759   5.934   0.991  14.821  1.6482  1.2593  0.2146
 6782TIP3   OH241760   5.950   3.745  15.285 -0.0464 -0.4114  0.1384
 6782TIP3    H141761   6.040   3.770  15.263  0.0831 -0.6753  0.3577
 6782TIP3    H241762   5.922   3.691  15.211 -0.8969  1.6445 -1.1321
 6783TIP3   OH241763   4.910   3.621   6.719  0.8504  0.0051 -0.6301
 6783TIP3    H141764   4.835   3.586   6.767 -0.2016  0.8260 -1.6319
 6783TIP3    H241765   4.945   3.690   6.776 -0.0793  0.6382 -0.8153
 6784TIP3   OH241766   3.664   2.015  15.936 -0.6645 -0.3002  0.0879
 6784TIP3    H141767   3.577   2.030  15.901 -0.4718 -1.1782 -0.8107
 6784TIP3    H241768   3.669   2.070  16.014 -1.8682  0.0619 -0.0821
 6785TIP3   OH241769   6.080   5.806  13.738 -0.3956 -0.0579 -0.3232
 6785TIP3    H141770   6.126   5.778  13.658  1.1493  1.1177  0.1114
 6785TIP3    H241771   6.019   5.734  13.756  1.3808 -1.7999 -0.8470
 6786TIP3   OH241772   3.706   3.010   0.955  0.3474  0.2614  0.1714
 6786TIP3    H141773   3.722   3.059   0.874  1.5219  0.2396  0.3779
 6786TIP3    H241774   3.767   2.936   0.951  0.0535 -0.0228  0.8412
 6787TIP3   OH241775   4.434   1.391   4.972 -0.1523  0.0640 -0.0858
 6787TIP3    H141776   4.354   1.385   5.024 -0.8483 -1.9256 -1.2697
 6787TIP3    H241777   4.499   1.429   5.032 -1.8657  1.4055  1.0065
 6788TIP3   OH241778   3.937   1.676   2.165 -0.5239  0.1402  0.2164
 6788TIP3    H141779   3.853   1.709   2.198 -0.2152  0.2377  0.9093
 6788TIP3    H241780   3.975   1.630   2.239 -0.0861 -0.1369 -0.1835
 6789TIP3   OH241781   5.863   4.989  14.185  0.5811 -0.2577 -0.0039
 6789TIP3    H141782   5.777   4.947  14.185  1.5484 -2.3569 -0.1831
 6789TIP3    H241783   5.877   5.014  14.277  0.4142 -1.2924  0.3126
 6790TIP3   OH241784   3.112   1.398  11.486 -0.1500  0.1967  0.5613
 6790TIP3    H141785   3.043   1.462  11.506 -1.2778 -0.2653 -1.6014
 6790TIP3    H241786   3.189   1.451  11.464 -0.8392  0.8116 -0.4141
 6791TIP3   OH241787   4.188   3.334   0.805 -0.1670  0.2528  0.0316
 6791TIP3    H141788   4.121   3.271   0.777 -1.4044  0.6492  1.8915
 6791TIP3    H241789   4.144   3.419   0.800 -0.2725  0.3940  2.4976
 6792TIP3   OH241790   5.828   2.679  16.140 -0.1055 -0.0491  0.0602
 6792TIP3    H141791   5.788   2.731  16.070  0.8030 -1.1132 -1.3049
 6792TIP3    H241792   5.754   2.637  16.184 -0.6022 -1.8020 -2.2700
 6793TIP3   OH241793   2.759   1.887   2.125  0.7088 -0.3979  0.9477
 6793TIP3    H141794   2.840   1.844   2.098  0.7427 -0.3598  0.9896
 6793TIP3    H241795   2.745   1.954   2.059 -0.5311 -1.9131 -0.4129
 6794TIP3   OH241796   5.114   1.859  15.244 -0.9286 -0.1832 -0.2236
 6794TIP3    H141797   5.049   1.788  15.242 -1.3486  0.2081 -0.7098
 6794TIP3    H241798   5.137   1.873  15.152 -2.0426  1.3735 -0.3196
 6795TIP3   OH241799   2.401   0.952   5.643  0.2908 -0.3896 -0.0975
 6795TIP3    H141800   2.361   0.910   5.567  2.2959 -2.9379  0.0808
 6795TIP3    H241801   2.372   0.900   5.718  1.0699 -0.0880  0.4337
 6796TIP3   OH241802   1.841   3.473  14.535  0.1336 -0.5328 -0.0661
 6796TIP3    H141803   1.827   3.559  14.497  0.5215 -1.0350 -1.4026
 6796TIP3    H241804   1.756   3.448  14.572 -0.6952 -0.6512 -1.9491
 6797TIP3   OH241805   3.158   5.287  12.354 -0.2080 -0.4174  0.3439
 6797TIP3    H141806   3.163   5.235  12.434  1.9970  0.8195  1.1046
 6797TIP3    H241807   3.152   5.377  12.384  0.9314  0.0961 -0.8504
 6798TIP3   OH241808   4.199   4.945   5.713 -0.2650 -0.2757  0.3993
 6798TIP3    H141809   4.251   5.004   5.768 -0.1194 -0.5778  0.5871
 6798TIP3    H241810   4.136   5.003   5.670  1.7430  0.5231 -1.7302
 6799TIP3   OH241811   2.387   1.034   3.570 -0.1507  0.1510 -0.2796
 6799TIP3    H141812   2.420   0.944   3.576 -0.1727  0.2285  2.8506
 6799TIP3    H241813   2.465   1.089   3.579 -0.3042  0.4251 -0.6099
 6800TIP3   OH241814   5.067   0.110   1.085 -0.0769 -0.2083 -0.0466
 6800TIP3    H141815   5.021   0.156   1.155  1.0668  0.7095  0.1476
 6800TIP3    H241816   5.113   0.038   1.128 -0.4674 -0.4781 -0.0764
 6801TIP3   OH241817   4.174   4.419  11.494 -0.5373  0.4121  0.2837
 6801TIP3    H141818   4.080   4.407  11.491 -0.4940 -0.0929  0.6979
 6801TIP3    H241819   4.188   4.488  11.560 -0.6781  1.4080 -0.6959
 6802TIP3   OH241820   4.769   3.484  10.897 -0.1009  0.7350  0.3283
 6802TIP3    H141821   4.792   3.575  10.916  1.1490  0.4335  0.3833
 6802TIP3    H241822   4.852   3.443  10.874 -0.6472 -0.3983  0.3082
 6803TIP3   OH241823   4.771   5.331   2.288  0.2538  0.3090 -0.2203
 6803TIP3    H141824   4.757   5.390   2.214  2.5679 -0.8264 -1.6842
 6803TIP3    H241825   4.830   5.379   2.346 -0.0930  0.4810 -0.0032
 6804TIP3   OH241826   2.182   5.952  12.760 -0.0925  0.2266 -0.0094
 6804TIP3    H141827   2.207   5.980  12.672  3.0850  0.9852  1.0054
 6804TIP3    H241828   2.251   5.890  12.786  0.0960  1.3924  2.5810
 6805TIP3   OH241829   2.126   4.485  16.766  0.2946  0.3240  0.9342
 6805TIP3    H141830   2.205   4.527  16.731 -0.7769  0.4485 -1.4631
 6805TIP3    H241831   2.154   4.396  16.788  0.9193  0.0629 -0.7916
 6806TIP3   OH241832   0.375   3.052   3.666 -0.2049 -0.1612  0.7670
 6806TIP3    H141833   0.346   3.122   3.724  2.1186  1.5394  0.0378
 6806TIP3    H241834   0.432   2.998   3.719 -0.1315 -0.1273  0.7225
 6807TIP3   OH241835   0.704   4.589  14.095 -0.6437  0.2087 -0.1415
 6807TIP3    H141836   0.624   4.546  14.064 -0.2746 -2.1179  1.8708
 6807TIP3    H241837   0.772   4.523  14.087  0.9605  1.8448 -0.9026
 6808TIP3   OH241838   2.184   5.791  16.113 -0.1801 -0.0603  0.3626
 6808TIP3    H141839   2.179   5.764  16.022 -0.1829 -0.6115  0.5235
 6808TIP3    H241840   2.272   5.827  16.123 -1.0565  2.6431 -0.5554
 6809TIP3   OH241841   0.467   5.918  13.476  0.1865 -0.2540  0.6873
 6809TIP3    H141842   0.416   5.839  13.458  0.7294 -0.9500  2.0350
 6809TIP3    H241843   0.458   5.931  13.571 -0.0332  1.4100  0.4695
 6810TIP3   OH241844   4.624   3.640   5.184  0.2019 -0.1012 -0.3508
 6810TIP3    H141845   4.716   3.612   5.180 -0.0341 -0.9373 -0.1142
 6810TIP3    H241846   4.598   3.623   5.275 -0.4412 -0.7369 -0.6437
 6811TIP3   OH241847   1.936   4.576  15.515  0.4062 -0.4287 -0.5026
 6811TIP3    H141848   1.965   4.638  15.449 -1.3825  0.9907 -0.0601
 6811TIP3    H241849   1.985   4.599  15.594 -0.4827  0.6974 -0.2534
 6812TIP3   OH241850   3.695   6.578   2.835  0.5113  0.1014 -0.0259
 6812TIP3    H141851   3.780   6.590   2.794  0.9013  1.7821  1.1237
 6812TIP3    H241852   3.638   6.546   2.765  1.3215  2.0329 -1.6669
 6813TIP3   OH241853   0.349   4.198  12.932 -0.5066  0.2082 -0.3996
 6813TIP3    H141854   0.274   4.198  12.991 -1.5007 -2.0251 -1.5183
 6813TIP3    H241855   0.369   4.105  12.919  0.9253  0.6840 -1.9918
 6814TIP3   OH241856   3.455   4.902   5.516 -0.3863  0.4376  0.4566
 6814TIP3    H141857   3.462   4.866   5.605 -1.4223 -1.0132 -0.0101
 6814TIP3    H241858   3.365   4.932   5.509 -0.8397 -1.0445 -0.6322
 6815TIP3   OH241859   2.462   3.976   2.904 -0.6043 -0.0659 -0.0592
 6815TIP3    H141860   2.547   4.004   2.939 -0.3172 -0.1922 -0.6372
 6815TIP3    H241861   2.415   4.058   2.888 -1.0786 -0.0253  1.4065
 6816TIP3   OH241862   4.388   5.808  16.472 -0.0215  0.3206  0.1448
 6816TIP3    H141863   4.408   5.752  16.547  0.3526  0.6530  0.2975
 6816TIP3    H241864   4.459   5.790  16.410 -0.7836 -0.5861 -0.4975
 6817TIP3   OH241865   1.445   0.911   0.895  0.5364 -0.3172  0.5206
 6817TIP3    H141866   1.451   0.849   0.822  2.0015 -0.2964  0.6059
 6817TIP3    H241867   1.413   0.858   0.968 -0.5957 -0.4151 -0.0241
 6818TIP3   OH241868   4.460   0.269   2.997  0.5877 -0.5389 -0.1059
 6818TIP3    H141869   4.478   0.175   3.004  0.2292 -0.5363  1.3531
 6818TIP3    H241870   4.365   0.276   3.003  0.5681 -0.1258 -0.8586
 6819TIP3   OH241871   4.132   2.750   1.596  0.2648 -0.7953  0.4046
 6819TIP3    H141872   4.170   2.663   1.584 -0.1775 -0.8701 -0.6141
 6819TIP3    H241873   4.180   2.806   1.535 -1.1838 -0.8900 -0.8954
 6820TIP3   OH241874   3.154   2.693  15.809 -0.0537 -0.5295  0.2213
 6820TIP3    H141875   3.222   2.748  15.849  0.9953 -1.4256 -0.2496
 6820TIP3    H241876   3.164   2.708  15.715 -0.2358 -0.9770  0.1276
 6821TIP3   OH241877   6.611   1.169  12.076  0.0957 -0.4627 -0.2071
 6821TIP3    H141878   6.548   1.207  12.015 -1.0197 -1.8927  0.0059
 6821TIP3    H241879   6.643   1.090  12.033 -0.2478 -1.1589  0.7563
 6822TIP3   OH241880   5.331   4.715  13.546 -0.2053 -0.5486  0.0573
 6822TIP3    H141881   5.389   4.677  13.612 -0.6252 -3.1138 -0.9252
 6822TIP3    H241882   5.388   4.770  13.492  0.7896 -0.9509  0.6766
 6823TIP3   OH241883   1.160   4.014  14.556  0.1542 -0.1971 -0.0262
 6823TIP3    H141884   1.182   3.922  14.537  1.2918 -0.0550  0.5524
 6823TIP3    H241885   1.188   4.062  14.478 -1.7239 -0.4771 -0.9380
 6824TIP3   OH241886   6.460   1.570  16.649 -0.5988 -0.0587  0.2422
 6824TIP3    H141887   6.535   1.570  16.590 -0.6447 -0.2551  0.1847
 6824TIP3    H241888   6.385   1.593  16.593 -1.0858 -2.7271 -0.3420
 6825TIP3   OH241889   4.979   2.313  13.548 -0.2739 -0.1071  0.2342
 6825TIP3    H141890   5.013   2.401  13.531  2.2013 -1.3767 -2.2200
 6825TIP3    H241891   5.025   2.284  13.626  1.0800 -0.2079 -0.5762
 6826TIP3   OH241892   6.389   5.634  13.073  0.0557  0.1009  0.2342
 6826TIP3    H141893   6.317   5.643  13.136 -0.5108 -1.4872 -0.1440
 6826TIP3    H241894   6.437   5.557  13.103 -0.1191 -0.5761 -1.1431
 6827TIP3   OH241895   2.042   1.221   1.321  0.7528 -0.2838 -0.0539
 6827TIP3    H141896   2.102   1.147   1.329  0.3883 -0.7185 -1.1113
 6827TIP3    H241897   1.958   1.182   1.299  0.9095  0.4973 -2.3078
 6828TIP3   OH241898   3.660   6.673  14.025  0.0647 -0.2818  0.3407
 6828TIP3    H141899   3.641   6.684  13.932 -0.8002  0.4509  0.5885
 6828TIP3    H241900   3.574   6.664  14.066  0.2983  1.4759  1.3015
 6829TIP3   OH241901   2.467   1.951  12.430 -0.6378  0.4678 -0.0009
 6829TIP3    H141902   2.440   1.862  12.449  0.1466 -0.8213 -3.9973
 6829TIP3    H241903   2.392   2.005  12.454 -1.7158 -1.4340  1.1037
 6830TIP3   OH241904   2.910   4.071   1.348  0.2591 -0.4894 -0.5426
 6830TIP3    H141905   2.977   4.058   1.281 -0.4006 -0.7691 -1.1516
 6830TIP3    H241906   2.861   3.989   1.350 -1.1023  0.2690 -1.2591
 6831TIP3   OH241907   0.935   6.171  14.798 -0.1233 -0.7420  0.6477
 6831TIP3    H141908   0.909   6.200  14.885 -1.2457 -3.2782  1.2687
 6831TIP3    H241909   0.978   6.086  14.814 -0.0285 -1.0869 -1.2455
 6832TIP3   OH241910   2.700   5.420   1.039  0.0327 -0.3604  0.3309
 6832TIP3    H141911   2.617   5.461   1.062 -0.8369 -2.1024  0.4803
 6832TIP3    H241912   2.693   5.330   1.073  1.4998 -0.9017 -0.6784
 6833TIP3   OH241913   0.278   1.057   5.647 -0.1178  0.4884 -0.9795
 6833TIP3    H141914   0.290   1.068   5.741 -0.5673  0.5790 -0.9312
 6833TIP3    H241915   0.367   1.049   5.612  0.0236 -0.6467 -0.4135
 6834TIP3   OH241916   1.004   0.834   2.821 -0.0386  0.9521 -0.5199
 6834TIP3    H141917   0.937   0.790   2.874  0.9425  1.9658  1.6656
 6834TIP3    H241918   0.983   0.927   2.827  1.4473  1.2833  0.1080
 6835TIP3   OH241919   3.008   3.307  10.641 -0.0253  0.3103  0.6871
 6835TIP3    H141920   3.065   3.275  10.571  0.4642 -0.5467  1.4531
 6835TIP3    H241921   2.967   3.229  10.676 -1.0775  0.8473  0.6723
 6836TIP3   OH241922   3.808   2.755   2.895  0.2875 -0.2499  0.1733
 6836TIP3    H141923   3.871   2.762   2.967 -0.7998 -0.3045  1.1491
 6836TIP3    H241924   3.791   2.661   2.888  0.8098 -0.3017 -0.5471
 6837TIP3   OH241925   5.293   0.291   3.371 -0.1482  0.8556  0.2351
 6837TIP3    H141926   5.197   0.297   3.379 -0.1377  1.4329 -0.0557
 6837TIP3    H241927   5.317   0.220   3.431 -0.7330  0.8792  0.5057
 6838TIP3   OH241928   6.078   4.736  14.892  0.0682 -0.1901  0.3232
 6838TIP3    H141929   6.174   4.746  14.891 -0.0854  1.3994 -0.7445
 6838TIP3    H241930   6.044   4.823  14.871 -1.5435 -1.3209 -2.3708
 6839TIP3   OH241931   6.685   1.662   4.068 -0.5998 -0.2816 -0.4500
 6839TIP3    H141932   6.666   1.642   4.160 -1.7307  0.3585 -0.5236
 6839TIP3    H241933   6.780   1.668   4.064 -0.3859 -2.4475  0.2211
 6840TIP3   OH241934   5.401   6.257  13.396  0.0223  0.2665  0.5517
 6840TIP3    H141935   5.410   6.188  13.461 -0.5300 -1.2168 -0.8768
 6840TIP3    H241936   5.434   6.336  13.439  2.8449 -1.2974  1.4831
 6841TIP3   OH241937   4.766   6.524   4.655  0.2313 -0.5266 -0.2201
 6841TIP3    H141938   4.804   6.456   4.710  0.4025  0.4491  0.8995
 6841TIP3    H241939   4.715   6.578   4.715  1.1740  1.1121 -0.8360
 6842TIP3   OH241940   3.446   2.687   4.725 -0.2785 -0.3231 -0.2434
 6842TIP3    H141941   3.387   2.757   4.698  0.5071 -0.2112 -1.8256
 6842TIP3    H241942   3.532   2.714   4.693  0.6550 -0.5243  1.9190
 6843TIP3   OH241943   3.479   5.477   0.669 -0.6833 -0.0134  0.6191
 6843TIP3    H141944   3.529   5.541   0.719  0.6185 -0.2612 -0.3008
 6843TIP3    H241945   3.396   5.520   0.650 -0.1158  1.1182  0.6350
 6844TIP3   OH241946   5.268   6.363  17.149  0.0206  0.3450 -0.2262
 6844TIP3    H141947   5.193   6.388  17.096  0.0681  1.0573  0.0416
 6844TIP3    H241948   5.257   6.411  17.231  0.8960  0.6560 -0.2784
 6845TIP3   OH241949   1.112   0.026  11.251  0.1022 -0.3538  0.0837
 6845TIP3    H141950   1.163   0.043  11.172  2.0897  1.6320  1.6402
 6845TIP3    H241951   1.168  -0.032  11.303  0.1189  0.6016  1.1702
 6846TIP3   OH241952   4.282   1.796  14.769 -0.0600 -0.3348  1.0640
 6846TIP3    H141953   4.346   1.859  14.735 -0.2211  0.6970  2.5999
 6846TIP3    H241954   4.243   1.758  14.690  1.6552 -0.2015  0.0949
 6847TIP3   OH241955   2.588   6.446  15.317  0.6976 -0.0906  0.3984
 6847TIP3    H141956   2.500   6.409  15.321  0.6805 -0.3656 -1.3379
 6847TIP3    H241957   2.590   6.512  15.385 -0.1070 -1.5778  1.9559
 6848TIP3   OH241958   2.735   3.246  14.531  0.1945 -0.2397  0.2944
 6848TIP3    H141959   2.675   3.172  14.545 -0.0017 -0.3600 -1.0747
 6848TIP3    H241960   2.715   3.307  14.603  0.7461 -1.7281  1.7719
 6849TIP3   OH241961   0.641   6.167  10.993 -0.3308 -0.3054  0.1447
 6849TIP3    H141962   0.711   6.231  10.983  0.1972 -0.7007  1.1449
 6849TIP3    H241963   0.661   6.100  10.927 -0.9731  0.6123 -1.0081
 6850TIP3   OH241964   0.769   2.883   2.224  0.0174  0.1007 -0.1720
 6850TIP3    H141965   0.829   2.829   2.172  0.9858  0.6380  0.3662
 6850TIP3    H241966   0.766   2.840   2.310 -1.0294 -0.3820 -0.4216
 6851TIP3   OH241967   4.032   1.105   4.828 -0.1002 -0.1221  0.9863
 6851TIP3    H141968   3.949   1.084   4.872  0.2500 -0.5541  1.4546
 6851TIP3    H241969   4.031   1.049   4.749 -1.1515  1.3328 -0.0816
 6852TIP3   OH241970   6.409   1.730   2.983  0.4928  0.4147  0.5679
 6852TIP3    H141971   6.333   1.715   2.927  1.9376 -0.3017 -1.3157
 6852TIP3    H241972   6.386   1.690   3.067 -1.2478  0.3540  0.0852
 6853TIP3   OH241973   3.050   4.021   3.187  0.6921 -0.0427  0.4560
 6853TIP3    H141974   3.092   4.080   3.249 -0.5488  0.9982  0.3499
 6853TIP3    H241975   3.122   3.984   3.135  1.5357  0.9027  0.9255
 6854TIP3   OH241976   3.887   2.027  15.428 -1.0893 -0.0931 -0.1196
 6854TIP3    H141977   3.864   2.108  15.382 -2.4276 -0.4911 -0.2166
 6854TIP3    H241978   3.845   2.036  15.514  0.9939  0.4399  0.8959
 6855TIP3   OH241979   2.515   4.274   3.211  0.3421  0.4354 -0.0842
 6855TIP3    H141980   2.438   4.231   3.247  0.7765 -0.0759  0.2479
 6855TIP3    H241981   2.480   4.348   3.161 -0.5332 -1.0421 -1.7818
 6856TIP3   OH241982   2.718   2.052  12.414 -0.6999 -0.4180 -0.1723
 6856TIP3    H141983   2.628   2.024  12.432 -1.1670 -0.0800 -1.8420
 6856TIP3    H241984   2.710   2.114  12.341  0.9235 -0.6579 -0.5945
 6857TIP3   OH241985   2.173   6.704   4.178 -1.1113 -0.6323 -0.4659
 6857TIP3    H141986   2.206   6.744   4.259 -1.7669 -0.9989 -0.0159
 6857TIP3    H241987   2.140   6.778   4.127 -0.6577 -0.3950 -0.4184
 6858TIP3   OH241988   1.824   3.013   5.106 -0.3369 -0.9541  0.3786
 6858TIP3    H141989   1.831   2.918   5.097 -0.3132 -0.9745  0.6089
 6858TIP3    H241990   1.861   3.031   5.192 -1.5928 -0.8863  0.9348
 6859TIP3   OH241991   3.159   1.367  15.921  0.0801  0.6218  0.0321
 6859TIP3    H141992   3.167   1.460  15.897 -0.1008  0.1661 -2.0071
 6859TIP3    H241993   3.081   1.363  15.976 -2.4688  1.1786 -3.2349
 6860TIP3   OH241994   6.024   6.628  16.402  0.1556  0.7090  0.4086
 6860TIP3    H141995   6.064   6.665  16.481 -1.3452  1.1645  0.9944
 6860TIP3    H241996   6.091   6.637  16.335  1.4043  0.4903  1.5738
 6861TIP3   OH241997   4.992   3.035   2.250  0.0564  0.0809  0.0022
 6861TIP3    H141998   5.079   3.037   2.290  0.5059  0.1815 -0.9741
 6861TIP3    H241999   4.981   3.122   2.212 -0.7327  0.2789  0.6514
 6862TIP3   OH242000   2.627   2.263  13.022  0.6865 -0.3297  0.6666
 6862TIP3    H142001   2.573   2.265  12.943  0.7888  0.8285  0.6175
 6862TIP3    H242002   2.713   2.292  12.994  1.6357 -2.9339  0.5764
 6863TIP3   OH242003   1.202   4.845  17.266  0.5262  0.1573 -0.1562
 6863TIP3    H142004   1.210   4.899  17.345  1.5605  0.0665 -0.1879
 6863TIP3    H242005   1.197   4.908  17.195 -2.2668  0.3119  0.0633
 6864TIP3   OH242006   2.719   1.140  13.192 -0.3276  0.1538 -0.1760
 6864TIP3    H142007   2.698   1.181  13.108 -0.8837 -0.2707 -0.2467
 6864TIP3    H242008   2.812   1.120  13.186 -0.2700  0.5099 -0.5246
 6865TIP3   OH242009   3.778   5.910  10.903  0.6313  0.0439 -0.5545
 6865TIP3    H142010   3.723   5.986  10.885 -0.6960 -0.9528 -0.8762
 6865TIP3    H242011   3.788   5.867  10.818  1.7035  0.0536 -0.4517
 6866TIP3   OH242012   2.036   2.555   4.518 -0.3398  0.3479 -0.3130
 6866TIP3    H142013   1.982   2.525   4.591 -0.2484  1.6580  0.3144
 6866TIP3    H242014   1.988   2.629   4.482  1.5432  2.2837  0.9756
 6867TIP3   OH242015   0.826   6.113  12.202 -0.3444 -0.3068 -0.3279
 6867TIP3    H142016   0.745   6.135  12.156  0.8833 -1.5033 -3.3671
 6867TIP3    H242017   0.797   6.073  12.284 -2.8741 -1.2877 -1.5891
 6868TIP3   OH242018   6.476   4.915  10.720 -0.0938 -0.7154 -0.1744
 6868TIP3    H142019   6.562   4.877  10.735 -0.0855 -0.9615 -0.7937
 6868TIP3    H242020   6.490   5.009  10.724 -0.1485 -0.7517  1.5593
 6869TIP3   OH242021   4.059   2.953   5.140  0.4305  0.1990 -0.1330
 6869TIP3    H142022   3.978   2.986   5.178 -0.0101 -1.0737  0.0539
 6869TIP3    H242023   4.059   2.987   5.050  0.6048  1.7193  0.4135
 6870TIP3   OH242024   3.391   1.559   0.576  0.3689 -0.6396  0.2138
 6870TIP3    H142025   3.421   1.617   0.646  0.8869  0.0286 -0.5401
 6870TIP3    H242026   3.471   1.532   0.532  0.0302 -0.8128 -0.3019
 6871TIP3   OH242027   5.149   0.244  12.003 -0.6589 -0.0292  0.7026
 6871TIP3    H142028   5.066   0.288  12.022 -0.7854 -0.0748  0.2503
 6871TIP3    H242029   5.210   0.315  11.983 -0.5761  0.0057  1.0535
 6872TIP3   OH242030   6.373   4.510  14.969  0.3055  0.0049  0.3150
 6872TIP3    H142031   6.323   4.562  15.032 -0.0585 -0.4926  0.4378
 6872TIP3    H242032   6.448   4.566  14.947 -0.0198  0.5370  0.5295
 6873TIP3   OH242033   5.544   5.238   5.895 -0.1703  0.0518  0.2895
 6873TIP3    H142034   5.450   5.224   5.886  0.1340 -1.3992 -0.8624
 6873TIP3    H242035   5.560   5.321   5.851 -0.8086 -0.0280 -0.1029
 6874TIP3   OH242036   6.654   0.039  11.860  0.4198  0.3229 -0.2456
 6874TIP3    H142037   6.651   0.129  11.892  1.2226  0.2700 -0.0110
 6874TIP3    H242038   6.732   0.035  11.806  0.3239 -0.2041 -0.3553
 6875TIP3   OH242039   4.518   0.478  11.297  0.5886 -0.1465 -0.3278
 6875TIP3    H142040   4.561   0.477  11.382 -0.7450  1.2439  0.4195
 6875TIP3    H242041   4.452   0.409  11.302 -0.2694  0.6791  0.2487
 6876TIP3   OH242042   1.169   2.285   1.472  0.0392 -0.1739  0.4806
 6876TIP3    H142043   1.099   2.236   1.515 -0.2058  0.3736  0.7067
 6876TIP3    H242044   1.189   2.356   1.532  1.0553 -0.5384  0.5962
 6877TIP3   OH242045   5.671   3.138  14.722 -0.3382 -0.5168 -0.3492
 6877TIP3    H142046   5.706   3.049  14.730 -0.8054 -0.6900 -0.1941
 6877TIP3    H242047   5.580   3.130  14.750 -0.1894  0.1488  0.3495
 6878TIP3   OH242048   1.384   4.131  14.160 -0.3932  0.3380  0.5307
 6878TIP3    H142049   1.367   4.160  14.070  1.8108  1.7851  0.5005
 6878TIP3    H242050   1.439   4.054  14.150 -1.6528 -0.6225  0.6804
 6879TIP3   OH242051   5.078   3.891   3.833  0.2592 -0.5383  1.0921
 6879TIP3    H142052   5.090   3.942   3.752  2.1296 -3.2474 -0.5123
 6879TIP3    H242053   5.118   3.944   3.901 -0.3950  1.3641  0.0591
 6880TIP3   OH242054   3.231   1.589   3.743 -0.6384  0.0391  0.3670
 6880TIP3    H142055   3.323   1.577   3.770 -0.3841  2.7625  1.0319
 6880TIP3    H242056   3.237   1.622   3.653 -0.9567  0.3651  0.4660
 6881TIP3   OH242057   1.854   6.191   0.117 -0.0242  0.1378  0.0612
 6881TIP3    H142058   1.889   6.102   0.114 -0.4012 -0.0347  0.5689
 6881TIP3    H242059   1.777   6.188   0.061 -1.1436 -0.3792  1.5404
 6882TIP3   OH242060   1.329   5.979  12.744 -0.0638 -0.2251 -0.5546
 6882TIP3    H142061   1.378   5.931  12.810  0.0267 -0.5838 -0.8786
 6882TIP3    H242062   1.333   5.924  12.666 -0.7598 -0.1439 -0.6618
 6883TIP3   OH242063   0.561   1.868   2.103 -0.7600  0.3634  0.0723
 6883TIP3    H142064   0.602   1.825   2.028  1.5535  1.6042  0.5398
 6883TIP3    H242065   0.468   1.872   2.080 -0.4828 -1.3602 -1.6532
 6884TIP3   OH242066   5.716   1.713  16.874  0.2345  0.4712  0.0972
 6884TIP3    H142067   5.720   1.774  16.799 -1.5335 -1.2940 -1.5591
 6884TIP3    H242068   5.788   1.652  16.858  0.4208  0.6190  0.3609
 6885TIP3   OH242069   1.921   2.251   2.181  0.7219 -0.0679 -0.0252
 6885TIP3    H142070   1.871   2.173   2.162  0.1710  0.5380 -1.1249
 6885TIP3    H242071   1.875   2.322   2.136  2.2441  0.5947 -0.6247
 6886TIP3   OH242072   1.347   4.616  14.787  0.5804 -0.0485 -0.4648
 6886TIP3    H142073   1.441   4.617  14.767  0.9155 -1.6914  0.8880
 6886TIP3    H242074   1.305   4.615  14.701  1.7665  1.0516 -1.0984
 6887TIP3   OH242075   3.137   4.550  15.625  0.8631  0.2128 -0.1354
 6887TIP3    H142076   3.159   4.584  15.539  1.0562 -0.1415 -0.2301
 6887TIP3    H242077   3.076   4.613  15.662 -1.0789 -0.7812 -1.4664
 6888TIP3   OH242078   5.779   4.190  11.708 -0.1469  0.3209  0.6372
 6888TIP3    H142079   5.697   4.145  11.727  0.8717 -1.3274  1.2782
 6888TIP3    H242080   5.769   4.276  11.749 -2.5087  1.1411 -1.4255
 6889TIP3   OH242081   6.030   2.612  14.861  0.3363  0.2158 -0.2341
 6889TIP3    H142082   6.025   2.578  14.772  0.3104 -0.6336  0.0862
 6889TIP3    H242083   5.946   2.586  14.901  1.0462 -0.9359  0.5643
 6890TIP3   OH242084   5.629   5.035  13.880 -0.1736 -0.2862  0.1774
 6890TIP3    H142085   5.695   4.966  13.874 -0.9303 -0.9015 -2.1340
 6890TIP3    H242086   5.678   5.114  13.903  1.0688 -1.1267  0.4787
 6891TIP3   OH242087   5.460   0.809  10.970  0.3247 -0.1713  0.2634
 6891TIP3    H142088   5.513   0.871  10.921  0.4675 -0.6758 -0.2351
 6891TIP3    H242089   5.524   0.749  11.009  0.4368  1.7809  3.3644
 6892TIP3   OH242090   1.029   3.359   3.691  0.0228  0.1821  0.5553
 6892TIP3    H142091   0.982   3.276   3.686 -0.8705  0.7310 -1.8451
 6892TIP3    H242092   1.121   3.335   3.676 -0.2178 -0.4031 -0.0592
 6893TIP3   OH242093   5.670   3.838  13.682  0.1208 -0.5646  0.2209
 6893TIP3    H142094   5.759   3.843  13.646  0.3275 -1.1863  0.6142
 6893TIP3    H242095   5.646   3.745  13.673 -1.2147 -0.1117 -1.5500
 6894TIP3   OH242096   4.971   4.151   4.116 -0.0718 -0.1688  0.7423
 6894TIP3    H142097   4.976   4.057   4.099 -0.6280  0.2719 -2.6049
 6894TIP3    H242098   5.063   4.179   4.125  0.1944 -0.7985  0.0675
 6895TIP3   OH242099   3.730   4.615  14.623  0.1015  0.2351  0.1898
 6895TIP3    H142100   3.680   4.605  14.704  0.0506  0.4587  0.1853
 6895TIP3    H242101   3.692   4.692  14.581 -1.5165 -1.2449 -1.2311
 6896TIP3   OH242102   1.196   0.992  12.945  0.6253 -0.8104 -0.4562
 6896TIP3    H142103   1.249   1.060  12.903 -0.3215  0.0479 -0.3016
 6896TIP3    H242104   1.110   1.000  12.904  0.3403 -1.5356 -0.0219
 6897TIP3   OH242105   2.507   2.061  14.419 -0.6805 -0.3726 -0.7235
 6897TIP3    H142106   2.486   2.016  14.501 -0.4159 -0.7199 -0.8461
 6897TIP3    H242107   2.599   2.043  14.404 -0.4466  0.6043 -0.5369
 6898TIP3   OH242108   3.888   3.612   0.119 -0.7340  0.3076  0.2610
 6898TIP3    H142109   3.917   3.688   0.068 -0.0847 -0.0205  0.1381
 6898TIP3    H242110   3.798   3.596   0.090 -0.1250 -0.3441 -1.3527
 6899TIP3   OH242111   5.954   6.265   0.501 -0.4395 -0.6886  0.2468
 6899TIP3    H142112   6.016   6.246   0.431 -0.5945  1.8399 -0.6934
 6899TIP3    H242113   5.962   6.192   0.561  1.5911 -1.6745 -1.1180
 6900TIP3   OH242114   1.645   6.623  15.232  0.3103  0.1539  0.0162
 6900TIP3    H142115   1.591   6.702  15.221 -2.6384 -1.7534 -0.2207
 6900TIP3    H242116   1.693   6.638  15.314 -0.9463  1.7679  0.5017
 6901TIP3   OH242117   6.473   2.621  15.429 -0.3186 -0.6425  0.4182
 6901TIP3    H142118   6.549   2.564  15.433  0.2462  0.1444  1.4192
 6901TIP3    H242119   6.456   2.633  15.336  0.2433 -1.5179  0.1958
 6902TIP3   OH242120   0.426   1.920  14.071  0.6234 -0.3525  0.1261
 6902TIP3    H142121   0.428   1.884  14.160 -0.0727 -0.4721  0.0970
 6902TIP3    H242122   0.462   2.008  14.080 -0.7845  0.1870  0.7857
 6903TIP3   OH242123   3.803   3.637   0.915  0.1951  0.3366 -0.0813
 6903TIP3    H142124   3.738   3.610   0.850  0.4823  1.5085 -0.8985
 6903TIP3    H242125   3.773   3.598   0.997 -0.1488 -1.2342 -0.9148
 6904TIP3   OH242126   4.592   5.698   6.482 -0.1273  0.0310 -0.1659
 6904TIP3    H142127   4.678   5.731   6.459  0.3162 -0.9703 -0.0078
 6904TIP3    H242128   4.553   5.767   6.535  1.2494 -0.1794  1.1932
 6905TIP3   OH242129   2.832   5.269   4.197  0.9264  0.0488 -0.4854
 6905TIP3    H142130   2.871   5.188   4.231 -0.9935 -0.7899 -0.1572
 6905TIP3    H242131   2.796   5.313   4.275  0.6055  0.4558 -0.8606
 6906TIP3   OH242132   2.207   4.079   4.478  0.3615 -0.2593  0.0329
 6906TIP3    H142133   2.135   4.058   4.419  2.3631 -1.3347 -2.1525
 6906TIP3    H242134   2.281   4.027   4.447  1.9654  0.2931  2.5820
 6907TIP3   OH242135   4.243   3.046   2.618 -0.4196 -0.0480 -0.3115
 6907TIP3    H142136   4.334   3.039   2.645 -0.2851 -0.3773 -0.8192
 6907TIP3    H242137   4.226   3.140   2.613  0.0097  0.0192 -0.5850
 6908TIP3   OH242138   2.326   5.325   2.157  0.0322 -0.1891  1.2377
 6908TIP3    H142139   2.340   5.413   2.124 -0.0181  0.6957  3.3992
 6908TIP3    H242140   2.341   5.268   2.082  2.7988  1.4493  0.4187
 6909TIP3   OH242141   6.273   0.897  14.716 -0.2168 -0.0345  0.0601
 6909TIP3    H142142   6.362   0.923  14.692 -0.4493 -0.9351 -2.0695
 6909TIP3    H242143   6.274   0.801  14.711 -1.2561 -0.0637  0.1326
 6910TIP3   OH242144   4.118   2.896  12.449 -0.6891 -0.1251 -0.3432
 6910TIP3    H142145   4.145   2.806  12.470  3.1862  0.7705 -0.7262
 6910TIP3    H242146   4.107   2.896  12.354  0.8714  0.0681 -0.5560
 6911TIP3   OH242147   4.759   2.778   1.626 -0.3093 -0.0675  0.3222
 6911TIP3    H142148   4.807   2.803   1.705  2.2203 -1.0478 -0.8026
 6911TIP3    H242149   4.671   2.815   1.638 -0.2162 -0.7407  3.8390
 6912TIP3   OH242150   4.065   1.330  14.998 -0.1811 -0.0290  0.3887
 6912TIP3    H142151   4.114   1.412  15.000  1.6685 -1.0444  0.2246
 6912TIP3    H242152   4.051   1.313  14.904  1.0934 -0.7639  0.3026
 6913TIP3   OH242153   2.243   6.697   6.635 -0.3360 -0.0121 -0.9344
 6913TIP3    H142154   2.190   6.621   6.659 -1.2807  0.8643 -0.2054
 6913TIP3    H242155   2.322   6.659   6.596  0.3268 -1.4531  1.5894
 6914TIP3   OH242156   6.183   1.631   4.787 -0.2613 -0.1409 -0.2870
 6914TIP3    H142157   6.118   1.671   4.844 -0.3270  0.3703 -0.7143
 6914TIP3    H242158   6.139   1.623   4.702  0.4326  0.8172 -0.7632
 6915TIP3   OH242159   3.479   2.630  16.252  0.5764  0.0293  0.5540
 6915TIP3    H142160   3.447   2.642  16.341 -1.4122 -0.0309 -0.1053
 6915TIP3    H242161   3.494   2.719  16.220 -3.0026  0.4379 -0.4505
 6916TIP3   OH242162   4.102   6.053   4.529 -0.7616  0.6254 -0.2847
 6916TIP3    H142163   4.186   6.026   4.493 -1.0907  0.6307 -1.0788
 6916TIP3    H242164   4.122   6.132   4.579 -0.3351  0.7875 -0.6999
 6917TIP3   OH242165   1.813   0.177   4.354 -0.9341 -0.4348  0.1797
 6917TIP3    H142166   1.833   0.163   4.262 -4.4385 -0.6298 -0.6984
 6917TIP3    H242167   1.849   0.264   4.374 -0.1032 -0.3981 -1.3322
 6918TIP3   OH242168   2.523   6.651  15.520 -0.3136  0.1783  0.2838
 6918TIP3    H142169   2.559   6.739  15.508 -1.0430  0.4257 -0.1710
 6918TIP3    H242170   2.436   6.665  15.556 -0.7933 -0.3099 -0.6481
 6919TIP3   OH242171   2.700   0.842   0.418 -0.2221  0.0400  0.1797
 6919TIP3    H142172   2.764   0.912   0.427  0.7567 -0.5436 -1.7008
 6919TIP3    H242173   2.642   0.872   0.348 -0.4292 -0.5683  0.0850
 6920TIP3   OH242174   5.785   6.148   0.172  0.2251  0.2729 -0.2789
 6920TIP3    H142175   5.809   6.219   0.112 -2.0858  0.9331 -0.5413
 6920TIP3    H242176   5.762   6.075   0.116  2.0604 -0.5380 -0.0218
 6921TIP3   OH242177   0.760   5.939  13.807  0.0455 -0.4459 -0.1401
 6921TIP3    H142178   0.779   5.847  13.824 -0.9095 -0.3612  1.6094
 6921TIP3    H242179   0.666   5.941  13.786  0.1792  0.0712 -0.7193
 6922TIP3   OH242180   4.510   1.301   4.096 -0.0918 -0.0285  0.1191
 6922TIP3    H142181   4.503   1.376   4.037 -1.8523  2.5679  3.2704
 6922TIP3    H242182   4.569   1.330   4.165 -0.1613 -1.8892  1.0254
 6923TIP3   OH242183   4.231   3.663  13.332  0.2135  0.2436  0.0141
 6923TIP3    H142184   4.247   3.587  13.275 -0.4076  1.0970 -1.3574
 6923TIP3    H242185   4.312   3.713  13.328  0.2509  0.1875  0.0662
 6924TIP3   OH242186   1.972   5.588  11.187 -0.0853  0.9546  0.1611
 6924TIP3    H142187   2.047   5.529  11.191 -0.0971  0.9726  0.6480
 6924TIP3    H242188   1.896   5.530  11.195 -0.0807  1.1199  1.7785
 6925TIP3   OH242189   4.884   3.933   3.578  0.8886  0.3228 -0.3764
 6925TIP3    H142190   4.802   3.971   3.545 -0.0338  0.1800  1.6143
 6925TIP3    H242191   4.941   4.009   3.594  0.0245  0.6904  1.0749
 6926TIP3   OH242192   1.061   5.648   2.340 -0.1203  0.2352 -0.5787
 6926TIP3    H142193   1.074   5.732   2.383 -1.4255  0.8963 -1.3906
 6926TIP3    H242194   1.038   5.670   2.250 -0.5257 -0.9887 -0.8067
 6927TIP3   OH242195   4.893   6.202  17.164  0.5080 -0.2229 -0.3322
 6927TIP3    H142196   4.822   6.265  17.173  0.1509 -0.7846  1.0874
 6927TIP3    H242197   4.916   6.204  17.071  0.6792  2.1617 -0.3045
 6928TIP3   OH242198   5.082   5.515  13.691 -0.3289  0.0284  0.0119
 6928TIP3    H142199   5.167   5.548  13.722 -0.2842  0.2674 -0.3601
 6928TIP3    H242200   5.053   5.454  13.760  0.5075 -0.6537 -0.2186
 6929TIP3   OH242201   5.159   5.407  13.179  0.0526  0.1106  0.0118
 6929TIP3    H142202   5.192   5.440  13.095 -1.0080 -2.1783 -1.4228
 6929TIP3    H242203   5.207   5.457  13.245  1.6907  1.2986 -1.9404
 6930TIP3   OH242204   5.448   5.368   3.278 -0.0557  0.1593 -0.3776
 6930TIP3    H142205   5.473   5.311   3.351 -0.5026  0.3321 -0.0858
 6930TIP3    H242206   5.516   5.353   3.212  0.6113  0.3329  0.2482
 6931TIP3   OH242207   3.602   1.281  16.406 -0.0293 -0.1118  0.0646
 6931TIP3    H142208   3.560   1.277  16.491 -0.2600 -0.7269 -0.0740
 6931TIP3    H242209   3.534   1.315  16.347  0.3492  1.0257  0.2486
 6932TIP3   OH242210   5.718   0.800  15.439 -0.0341 -0.2486  0.4754
 6932TIP3    H142211   5.711   0.737  15.511  0.5221  0.3617  1.0819
 6932TIP3    H242212   5.796   0.852  15.460 -1.6720  2.0784  1.1569
 6933TIP3   OH242213   5.946   6.752   1.084 -0.2544 -0.1426 -0.0435
 6933TIP3    H142214   6.016   6.688   1.098 -1.5418 -1.4547  0.7603
 6933TIP3    H242215   5.887   6.710   1.021 -0.7415  0.5754 -0.0797
 6934TIP3   OH242216   5.961   5.177  15.094  0.3015 -0.1054  0.7695
 6934TIP3    H142217   5.987   5.264  15.124 -2.4935  1.0913 -0.0039
 6934TIP3    H242218   5.865   5.179  15.093  0.1734 -2.7501 -0.5461
 6935TIP3   OH242219   0.326   4.304  16.568  0.0996  0.3076 -0.4544
 6935TIP3    H142220   0.325   4.389  16.612 -1.2397 -0.0407  0.2464
 6935TIP3    H242221   0.256   4.254  16.610  0.9122 -1.1854 -0.7890
 6936TIP3   OH242222   3.901   2.873   0.080 -0.3554  0.1404  0.6745
 6936TIP3    H142223   3.950   2.834   0.007 -0.1566  0.4582  0.6373
 6936TIP3    H242224   3.933   2.962   0.085 -1.7898  0.7446 -0.1367
 6937TIP3   OH242225   5.205   2.749   2.022 -0.0392 -0.4462  0.0534
 6937TIP3    H142226   5.111   2.743   2.038  0.2437 -0.5978  1.9922
 6937TIP3    H242227   5.221   2.695   1.945 -1.4982 -0.5668 -0.1881
 6938TIP3   OH242228   5.223   5.789  16.908  0.0365 -0.2561  0.5631
 6938TIP3    H142229   5.154   5.825  16.852  1.0123 -1.1634 -1.3359
 6938TIP3    H242230   5.271   5.729  16.851  2.5147  0.4539  1.7427
 6939TIP3   OH242231   5.635   6.107   5.693  0.5194  0.1256 -0.4003
 6939TIP3    H142232   5.638   6.202   5.699 -0.5392  0.2409 -1.4777
 6939TIP3    H242233   5.723   6.082   5.662  1.4140  0.5572  1.5814
 6940TIP3   OH242234   6.350   6.737   0.992 -0.5924 -0.3599  0.2840
 6940TIP3    H142235   6.341   6.651   1.034  1.0894 -1.5663 -1.6381
 6940TIP3    H242236   6.299   6.796   1.048  0.7958 -1.9528  3.5074
 6941TIP3   OH242237   2.098   3.484   1.696 -0.3306  0.3721 -0.2199
 6941TIP3    H142238   2.039   3.485   1.771 -0.0493  0.5092  0.0051
 6941TIP3    H242239   2.186   3.492   1.735 -0.2125  1.0146 -0.5909
 6942TIP3   OH242240   1.569   3.550  13.359 -0.5038 -0.1659  0.5299
 6942TIP3    H142241   1.571   3.625  13.419 -1.0874 -0.9230  1.5182
 6942TIP3    H242242   1.652   3.505  13.374 -1.1009 -0.9489  1.5635
 6943TIP3   OH242243   0.930   1.806   4.197 -0.4890 -1.0187  0.1646
 6943TIP3    H142244   0.906   1.891   4.161  1.0883 -1.0977 -1.2066
 6943TIP3    H242245   0.939   1.821   4.291 -1.2232  0.0694  0.0822
 6944TIP3   OH242246   3.798   0.122   3.312 -0.3928 -0.2087  0.5416
 6944TIP3    H142247   3.785   0.068   3.234 -1.7659  0.0012  0.5890
 6944TIP3    H242248   3.826   0.060   3.380  2.5215 -0.1520 -0.4790
 6945TIP3   OH242249   2.252   4.857  14.969  0.2535  0.1020  0.1410
 6945TIP3    H142250   2.162   4.887  14.962  0.2627  0.2385  0.5659
 6945TIP3    H242251   2.247   4.775  15.019  0.5334  1.0951  1.8791
 6946TIP3   OH242252   3.702   5.691  16.679 -0.2547  0.0865 -0.3750
 6946TIP3    H142253   3.638   5.630  16.715 -0.4106  0.7882  0.5915
 6946TIP3    H242254   3.659   5.777  16.685 -0.1405  0.2803 -1.9318
 6947TIP3   OH242255   2.086   3.648   2.757  0.2960  0.2627 -0.0644
 6947TIP3    H142256   2.077   3.564   2.802  0.6043 -0.0893 -0.6526
 6947TIP3    H242257   2.114   3.709   2.825  1.3896 -0.4012  0.0914
 6948TIP3   OH242258   5.891   4.030  15.521 -0.0702 -0.0798 -0.3284
 6948TIP3    H142259   5.970   4.084  15.513 -1.3451  1.7557 -1.3831
 6948TIP3    H242260   5.891   3.975  15.443 -0.0618  0.2532 -0.5647
 6949TIP3   OH242261   1.264   3.064  15.214 -0.1027  0.3031 -0.0552
 6949TIP3    H142262   1.348   3.104  15.194  1.0843 -1.8329  0.3514
 6949TIP3    H242263   1.201   3.112  15.161  1.4529  1.5460 -0.8541
 6950TIP3   OH242264   4.658   3.799  16.242  0.1290  0.0986  0.3932
 6950TIP3    H142265   4.632   3.874  16.296 -0.7226  0.0395  0.0900
 6950TIP3    H242266   4.576   3.769  16.203  0.3999 -1.1941  0.7629
 6951TIP3   OH242267   0.477   3.679  15.377 -0.1014 -0.2620 -0.4554
 6951TIP3    H142268   0.394   3.692  15.332 -0.4260 -1.8440 -0.3737
 6951TIP3    H242269   0.541   3.724  15.322 -0.7307 -0.6695 -1.5581
 6952TIP3   OH242270   0.349   2.608  13.019 -0.1844 -0.3085  0.1255
 6952TIP3    H142271   0.263   2.641  12.993 -0.5046 -1.1483  0.0835
 6952TIP3    H242272   0.384   2.565  12.941 -0.3117 -1.1342  0.5117
 6953TIP3   OH242273   1.831   3.775   5.192  0.1290  0.6967  0.0191
 6953TIP3    H142274   1.832   3.723   5.273 -0.2782  0.2242 -0.2732
 6953TIP3    H242275   1.889   3.728   5.132 -0.4501  0.4205 -0.3354
 6954TIP3   OH242276   5.026   5.772  11.228 -0.2635  0.8045  0.2650
 6954TIP3    H142277   4.947   5.759  11.176  0.8250 -0.7108 -1.1307
 6954TIP3    H242278   5.098   5.759  11.166  1.1156 -1.3291  2.1206
 6955TIP3   OH242279   4.917   4.220   2.657  0.4179  0.4344 -0.4607
 6955TIP3    H142280   4.952   4.133   2.639  0.4507 -0.1883  2.2242
 6955TIP3    H242281   4.994   4.276   2.663  0.3693  0.8595 -2.7879
 6956TIP3   OH242282   3.858   2.874   5.329  0.4975 -0.5972  0.9956
 6956TIP3    H142283   3.849   2.940   5.398  2.2466 -0.6759  1.3510
 6956TIP3    H242284   3.836   2.920   5.248 -2.0237 -0.6150  1.5775
 6957TIP3   OH242285   0.597   0.571  13.109  0.5697 -0.4609  0.4540
 6957TIP3    H142286   0.577   0.641  13.172 -0.2527  1.2082 -1.5281
 6957TIP3    H242287   0.679   0.533  13.141  1.6962  2.1773  1.0380
 6958TIP3   OH242288   2.359   0.780  14.044 -0.1459  1.0548 -0.6312
 6958TIP3    H142289   2.357   0.849  13.977  1.4131 -1.2695 -3.3219
 6958TIP3    H242290   2.442   0.793  14.090  1.7651 -0.6729 -3.2830
 6959TIP3   OH242291   4.957   2.694   4.530  0.3609 -0.5766  0.1928
 6959TIP3    H142292   4.899   2.769   4.519 -0.7950 -1.4207  0.3730
 6959TIP3    H242293   4.955   2.675   4.624  0.1935 -1.1812  0.0692
 6960TIP3   OH242294   1.560   5.168   5.358 -0.2549 -0.4562 -0.2765
 6960TIP3    H142295   1.577   5.202   5.447  1.0817 -1.7562  0.0114
 6960TIP3    H242296   1.468   5.143   5.359 -0.2197 -0.6145  0.8208
 6961TIP3   OH242297   1.866   6.249  10.742 -0.0091  0.0918 -0.1319
 6961TIP3    H142298   1.778   6.287  10.730  0.3240  0.7190 -0.6678
 6961TIP3    H242299   1.860   6.163  10.701 -0.9066 -0.6680  1.4894
 6962TIP3   OH242300   1.439   5.390   2.663 -0.1499  0.7608  0.5755
 6962TIP3    H142301   1.483   5.474   2.677 -1.8183  1.3770  2.8936
 6962TIP3    H242302   1.478   5.331   2.728 -0.0576  0.1974  0.0109
 6963TIP3   OH242303   4.543   1.529  16.541 -0.1905  0.8626 -0.0350
 6963TIP3    H142304   4.524   1.506  16.450 -2.3674  1.3189  0.2611
 6963TIP3    H242305   4.487   1.472  16.593  0.4369  1.1703  1.0119
 6964TIP3   OH242306   1.520   5.984   1.565 -0.2049 -0.2101 -0.4937
 6964TIP3    H142307   1.598   6.037   1.546  0.3484 -1.4110 -1.7222
 6964TIP3    H242308   1.460   6.004   1.494 -0.6807  0.0659 -0.0150
 6965TIP3   OH242309   0.981   3.696  11.514  0.2315  0.2994  0.4053
 6965TIP3    H142310   1.001   3.732  11.428  0.8848 -0.0032  0.4213
 6965TIP3    H242311   1.051   3.730  11.570 -1.2409  2.1130  1.2811
 6966TIP3   OH242312   0.729   4.793  14.271 -0.2780  0.0553  0.0152
 6966TIP3    H142313   0.711   4.732  14.200 -2.8278  1.1791 -0.4074
 6966TIP3    H242314   0.793   4.854  14.235  1.1380 -1.3886 -0.0580
 6967TIP3   OH242315   5.431   5.034  16.566  0.0080  1.2173  0.1426
 6967TIP3    H142316   5.338   5.014  16.572  0.0293  0.9873 -0.2477
 6967TIP3    H242317   5.474   4.961  16.611  0.0302  0.9474 -0.3040
 6968TIP3   OH242318   6.375   1.511   4.030  0.1741 -0.0982 -0.3732
 6968TIP3    H142319   6.374   1.456   3.951 -0.4746  0.8725 -1.0728
 6968TIP3    H242320   6.287   1.548   4.033  0.6937  1.1383 -0.0954
 6969TIP3   OH242321   5.316   0.478  11.579 -0.0683  0.0357 -0.4463
 6969TIP3    H142322   5.336   0.387  11.601 -1.0826 -0.2042 -0.4725
 6969TIP3    H242323   5.283   0.474  11.489 -1.7936  0.1608  0.1317
 6970TIP3   OH242324   4.875   5.081  11.314  0.4552 -0.5013 -0.5980
 6970TIP3    H142325   4.791   5.099  11.354  0.0380 -2.3398 -0.5493
 6970TIP3    H242326   4.892   5.157  11.258 -0.7912  0.2983  0.0694
 6971TIP3   OH242327   3.403   6.472   5.752 -0.7931  0.0235 -0.0243
 6971TIP3    H142328   3.400   6.405   5.821 -1.2122 -0.3114 -0.3561
 6971TIP3    H242329   3.481   6.523   5.771 -0.5995 -0.4128  0.3773
 6972TIP3   OH242330   2.235   0.677   3.656  0.0954  0.5948  0.4148
 6972TIP3    H142331   2.277   0.709   3.576 -1.2601  0.6721 -0.3150
 6972TIP3    H242332   2.290   0.709   3.727  2.1583 -0.7077 -0.5025
 6973TIP3   OH242333   5.904   6.141  16.321 -0.1149 -0.0059  1.0690
 6973TIP3    H142334   5.872   6.088  16.394  0.5493 -1.9282  0.0338
 6973TIP3    H242335   5.904   6.231  16.355 -3.2640 -0.3112  2.2244
 6974TIP3   OH242336   2.642   1.102   6.456  0.1072  0.1334 -0.7667
 6974TIP3    H142337   2.688   1.164   6.513  0.4655 -1.2126  0.4870
 6974TIP3    H242338   2.709   1.067   6.398  0.1757 -0.0284 -0.5917
 6975TIP3   OH242339   4.021   1.690  15.911 -0.0715 -0.2822 -0.0861
 6975TIP3    H142340   3.994   1.608  15.953 -0.4248  0.4184  1.0952
 6975TIP3    H242341   4.105   1.669  15.870  0.0379 -1.1432  0.5314
 6976TIP3   OH242342   3.854   5.254   4.051  0.0030  0.0320  0.1605
 6976TIP3    H142343   3.807   5.230   4.131  0.1060  1.0987  0.5636
 6976TIP3    H242344   3.944   5.270   4.080  0.4800 -1.3092 -0.4877
 6977TIP3   OH242345   4.802   3.839   3.864  0.1573  0.5456 -0.3763
 6977TIP3    H142346   4.849   3.854   3.946 -1.4019  1.2363  0.4511
 6977TIP3    H242347   4.855   3.883   3.798 -0.1739  2.8733  0.7876
 6978TIP3   OH242348   4.440   5.243   4.635 -0.0030 -0.6486  0.6776
 6978TIP3    H142349   4.449   5.244   4.731  0.0105  0.9269  0.6966
 6978TIP3    H242350   4.527   5.220   4.603  0.9840  2.1628  1.0418
 6979TIP3   OH242351   5.184   0.546   0.408 -0.1860 -0.5777  0.7900
 6979TIP3    H142352   5.192   0.582   0.320  0.0126 -1.6504  0.3609
 6979TIP3    H242353   5.150   0.619   0.460  1.0207  0.4992  0.1293
 6980TIP3   OH242354   4.548   6.165   0.857  0.4726  0.9025 -0.1535
 6980TIP3    H142355   4.605   6.118   0.796  2.1750  1.7134  0.7365
 6980TIP3    H242356   4.586   6.253   0.861 -0.4063  1.2428  1.0648
 6981TIP3   OH242357   0.506   4.408  13.424  0.2409 -0.1595  0.3650
 6981TIP3    H142358   0.463   4.323  13.422 -0.1786 -0.0604  2.5644
 6981TIP3    H242359   0.599   4.389  13.412  0.0006 -0.7450 -0.6926
 6982TIP3   OH242360   1.363   4.653  16.462 -0.1876  0.2835 -0.5784
 6982TIP3    H142361   1.407   4.641  16.545 -1.1844 -0.1972 -0.1047
 6982TIP3    H242362   1.361   4.566  16.422  1.4173  0.7094 -1.7267
 6983TIP3   OH242363   4.012   6.424   3.548  0.2736 -0.7336  0.1538
 6983TIP3    H142364   3.946   6.397   3.613 -0.6118 -0.7574 -0.7393
 6983TIP3    H242365   4.001   6.362   3.476  1.4491 -0.8811  0.0883
 6984TIP3   OH242366   3.392   2.983  13.552  0.4350 -0.2054 -0.2132
 6984TIP3    H142367   3.443   2.963  13.630  0.2745  0.8438  0.1830
 6984TIP3    H242368   3.357   2.899  13.524  0.7934 -0.6520  0.6371
 6985TIP3   OH242369   2.732   2.294  12.277  0.1149  0.3005 -0.3732
 6985TIP3    H142370   2.682   2.357  12.226  0.2176 -0.7901 -1.8967
 6985TIP3    H242371   2.822   2.303  12.245  0.5900  1.0184  1.0937
 6986TIP3   OH242372   0.796   1.460   4.057 -0.4018  0.1624 -0.1486
 6986TIP3    H142373   0.747   1.536   4.087  2.4631  1.6967  1.0065
 6986TIP3    H242374   0.820   1.480   3.967 -0.9087 -0.0783 -0.3408
 6987TIP3   OH242375   0.535   4.838   4.892 -0.2119 -0.2127 -0.1199
 6987TIP3    H142376   0.575   4.767   4.841  0.3885  1.5192 -2.2547
 6987TIP3    H242377   0.465   4.796   4.941 -0.5945 -2.1216 -2.1211
 6988TIP3   OH242378   6.610   1.409  14.342  0.1738 -0.6708  0.1052
 6988TIP3    H142379   6.604   1.504  14.349 -1.4228 -0.7901  0.7533
 6988TIP3    H242380   6.544   1.385  14.278 -0.7951 -1.4838  1.3521
 6989TIP3   OH242381   4.070   5.914  17.181 -0.8845 -0.5728  0.2819
 6989TIP3    H142382   4.129   5.988  17.170 -0.3480 -1.0557 -0.2146
 6989TIP3    H242383   4.128   5.839  17.196 -1.3655 -1.0557 -0.1869
 6990TIP3   OH242384   0.745   3.891  17.078  0.0801  0.5763 -0.3616
 6990TIP3    H142385   0.776   3.867  16.990 -1.1869  0.5101 -0.7985
 6990TIP3    H242386   0.825   3.889  17.132  1.1037  1.8373 -1.7374
 6991TIP3   OH242387   1.418   5.697  13.949  0.1374 -0.0034 -0.2421
 6991TIP3    H142388   1.431   5.748  14.030 -0.1451  1.7836 -1.2563
 6991TIP3    H242389   1.507   5.681  13.918  0.2370  1.2592 -0.6901
 6992TIP3   OH242390   2.293   4.128  12.855  0.5211  0.1038  0.4039
 6992TIP3    H142391   2.370   4.160  12.809  0.9476 -2.2364 -0.6001
 6992TIP3    H242392   2.305   4.034  12.861 -1.6803 -0.1833  1.3523
 6993TIP3   OH242393   3.742   3.241  12.636 -0.4153  0.3332 -1.0867
 6993TIP3    H142394   3.735   3.300  12.711  2.2855 -1.4624  0.7861
 6993TIP3    H242395   3.664   3.185  12.643 -1.4346  1.6976 -1.1043
 6994TIP3   OH242396   5.664   2.641   1.427  0.3471 -1.1053  0.4975
 6994TIP3    H142397   5.709   2.595   1.499  0.8173  0.9941  1.6232
 6994TIP3    H242398   5.727   2.706   1.398 -0.7556 -0.3252 -0.1784
 6995TIP3   OH242399   0.369   2.732  15.522  0.0027 -0.4606  0.3498
 6995TIP3    H142400   0.307   2.757  15.591 -1.8171 -2.2988 -0.4907
 6995TIP3    H242401   0.361   2.800  15.456 -0.6123 -0.3086  0.5737
 6996TIP3   OH242402   4.655   0.800  15.249 -0.7000 -0.2385 -0.1908
 6996TIP3    H142403   4.702   0.883  15.244 -0.6245 -0.3137 -0.6862
 6996TIP3    H242404   4.695   0.745  15.182 -0.8375 -0.6324  0.0506
 6997TIP3   OH242405   2.099   0.983  11.413  0.4286 -0.3145  0.1268
 6997TIP3    H142406   2.021   0.982  11.357  0.3290 -0.0227  0.2558
 6997TIP3    H242407   2.104   0.894  11.448 -1.2182  0.2306  1.9748
 6998TIP3   OH242408   0.348   5.056   5.598  0.4572  0.4052  0.3300
 6998TIP3    H142409   0.310   5.091   5.517  0.9146 -0.9339 -0.5149
 6998TIP3    H242410   0.435   5.027   5.572  1.2303  1.3969  1.7122
 6999TIP3   OH242411   5.230   4.602   1.422  0.8259 -0.1945 -0.5654
 6999TIP3    H142412   5.325   4.594   1.424  0.9609  0.5513 -2.2088
 6999TIP3    H242413   5.205   4.575   1.333 -0.7187 -2.1908  0.3852
 7000TIP3   OH242414   2.460   6.596   4.469 -0.7709 -0.1962  0.2064
 7000TIP3    H142415   2.467   6.515   4.420 -2.7561  0.0658 -0.5886
 7000TIP3    H242416   2.408   6.574   4.546 -0.1121  0.0305  0.7295
 7001TIP3   OH242417   6.692   0.117  14.249 -0.3412 -0.2010 -0.8192
 7001TIP3    H142418   6.680   0.190  14.188  0.1781  0.5077 -0.0996
 7001TIP3    H242419   6.787   0.111  14.260 -0.3757 -1.0585 -0.9441
 7002TIP3   OH242420   2.654   2.682  14.335 -0.1697  0.1986 -0.2001
 7002TIP3    H142421   2.659   2.622  14.410  1.0257 -1.3656 -1.4655
 7002TIP3    H242422   2.562   2.678  14.308 -0.2543 -0.5469  0.1564
 7003TIP3   OH242423   4.839   0.391   4.502  0.2745 -0.1338 -0.0485
 7003TIP3    H142424   4.886   0.453   4.558  0.4493 -0.0224 -0.3199
 7003TIP3    H242425   4.897   0.377   4.428 -0.8290  1.3091 -1.2373
 7004TIP3   OH242426   2.673   5.181  13.564  0.1594  0.2096  0.5696
 7004TIP3    H142427   2.709   5.268  13.582 -0.2003  0.6368 -0.7055
 7004TIP3    H242428   2.617   5.193  13.488  0.5310 -1.2483  0.0289
 7005TIP3   OH242429   5.695   3.801  16.815 -0.2139  0.2958 -0.1692
 7005TIP3    H142430   5.724   3.711  16.831  1.6647  0.4750 -2.1625
 7005TIP3    H242431   5.610   3.807  16.860 -0.9086 -2.7723 -0.8523
 7006TIP3   OH242432   1.116   2.853  16.197  0.2113  0.4045 -0.3134
 7006TIP3    H142433   1.207   2.824  16.199 -0.0973 -0.8799 -2.0573
 7006TIP3    H242434   1.069   2.781  16.155 -1.2554  1.9139 -1.3882
 7007TIP3   OH242435   0.645   4.109   2.136 -0.2218  0.2421 -0.0893
 7007TIP3    H142436   0.598   4.031   2.166 -2.0052  0.9735 -0.8915
 7007TIP3    H242437   0.733   4.077   2.116 -0.5178 -1.2841  0.8857
 7008TIP3   OH242438   2.624   4.225   1.331  0.0866  0.3700 -0.0387
 7008TIP3    H142439   2.676   4.177   1.396  0.9978  1.2791 -0.0769
 7008TIP3    H242440   2.618   4.314   1.367 -0.1150  0.6656 -0.7959
 7009TIP3   OH242441   1.207   4.871   3.426 -0.0390  0.2182 -0.5674
 7009TIP3    H142442   1.235   4.779   3.423  1.1491  0.5211  0.2655
 7009TIP3    H242443   1.279   4.920   3.386 -0.3128  0.8547 -0.2989
 7010TIP3   OH242444   5.233   4.882   3.974 -0.4219 -0.0989  0.0957
 7010TIP3    H142445   5.281   4.846   3.900 -0.2114 -0.3759  0.3657
 7010TIP3    H242446   5.234   4.813   4.040 -1.9207 -0.4403 -0.1999
 7011TIP3   OH242447   1.630   1.286   5.808 -0.3267 -0.0428  0.1677
 7011TIP3    H142448   1.587   1.231   5.873  0.3725  0.9257  1.5264
 7011TIP3    H242449   1.715   1.244   5.794 -0.5317 -0.3264 -0.2248
 7012TIP3   OH242450   2.862   1.778  11.378  0.3506 -0.3541 -0.4484
 7012TIP3    H142451   2.923   1.824  11.321  2.4739 -2.6738 -0.2309
 7012TIP3    H242452   2.806   1.728  11.318 -0.0003  0.1805 -0.5769
 7013TIP3   OH242453   6.354   4.235   0.290  0.1338  0.5036 -0.1164
 7013TIP3    H142454   6.306   4.183   0.354 -0.0471  1.9984  1.0143
 7013TIP3    H242455   6.421   4.280   0.341  0.9028  0.6411 -1.2171
 7014TIP3   OH242456   2.386   3.530   2.131 -0.6034 -0.2393 -0.5138
 7014TIP3    H142457   2.444   3.464   2.169 -1.0077 -0.5861 -0.4939
 7014TIP3    H242458   2.440   3.609   2.124 -0.7257  0.1043  1.5614
 7015TIP3   OH242459   2.546   3.513   0.603  0.3206 -0.2414 -0.1117
 7015TIP3    H142460   2.612   3.473   0.661  1.1006 -0.6997 -1.2780
 7015TIP3    H242461   2.473   3.451   0.604  0.1590 -0.0455  0.6923
 7016TIP3   OH242462   2.586   4.508  15.402 -0.4531  0.5732  0.3648
 7016TIP3    H142463   2.657   4.462  15.446 -0.5485 -0.0970 -0.1638
 7016TIP3    H242464   2.554   4.571  15.466  0.3546  0.5993  0.7412
 7017TIP3   OH242465   5.715   5.313  13.131  0.7568  0.8226  0.2023
 7017TIP3    H142466   5.649   5.382  13.130 -0.1800 -0.0546 -0.8186
 7017TIP3    H242467   5.776   5.338  13.060  1.7431  1.7998  1.3510
 7018TIP3   OH242468   1.411   3.664  14.121  0.1081 -0.0568 -0.1966
 7018TIP3    H142469   1.493   3.710  14.103  1.1989 -2.3741 -1.5743
 7018TIP3    H242470   1.434   3.601  14.189 -1.0423  0.4643  0.7231
 7019TIP3   OH242471   3.151   4.457   4.966  0.3335 -0.1506  0.4061
 7019TIP3    H142472   3.206   4.535   4.969  0.7566 -0.4605  0.8430
 7019TIP3    H242473   3.062   4.491   4.958  0.3929  0.4291  1.8541
 7020TIP3   OH242474   4.350   5.694  10.679 -0.1441 -0.4551  0.6450
 7020TIP3    H142475   4.335   5.786  10.700 -0.2469 -0.9740  3.1101
 7020TIP3    H242476   4.446   5.685  10.678 -0.1351 -0.3529  0.5218
 7021TIP3   OH242477   6.134   0.408  15.626 -0.1340  0.0920 -0.7650
 7021TIP3    H142478   6.207   0.348  15.638 -2.6272 -2.7940  1.6056
 7021TIP3    H242479   6.092   0.380  15.545  0.0341  0.2376 -0.9050
 7022TIP3   OH242480   5.554   5.663   4.433 -0.1151 -0.4644 -0.1043
 7022TIP3    H142481   5.635   5.693   4.475  0.8787 -1.4595 -1.2141
 7022TIP3    H242482   5.573   5.573   4.407 -0.8285 -0.0541 -2.2378
 7023TIP3   OH242483   0.638   3.292   0.180 -0.3629 -0.6376  0.0570
 7023TIP3    H142484   0.686   3.210   0.171 -0.7782 -0.9479  0.5882
 7023TIP3    H242485   0.561   3.281   0.124  0.2950 -0.0416 -0.9920
 7024TIP3   OH242486   2.074   4.463  14.911  0.2228 -0.7112  0.2802
 7024TIP3    H142487   1.985   4.436  14.935 -0.2546 -0.2099 -0.8385
 7024TIP3    H242488   2.061   4.523  14.837  1.5571 -1.3862 -0.5288
 7025TIP3   OH242489   6.216   5.888  14.277  0.3580  0.5025 -0.3327
 7025TIP3    H142490   6.271   5.885  14.355  0.7003  0.2767 -0.5848
 7025TIP3    H242491   6.236   5.808  14.229 -0.4670  0.2327 -0.2380
 7026TIP3   OH242492   4.541   3.413   2.195 -0.1037  0.1646  0.1268
 7026TIP3    H142493   4.582   3.473   2.132 -0.2392  0.7311  0.5630
 7026TIP3    H242494   4.449   3.410   2.168  0.2607 -1.3523 -1.0412
 7027TIP3   OH242495   1.694   2.473   5.825  0.1608  0.2039  0.6120
 7027TIP3    H142496   1.716   2.437   5.739  0.4553  0.4136  0.5977
 7027TIP3    H242497   1.609   2.515   5.813  0.0443 -0.0596  0.5072
 7028TIP3   OH242498   0.920   0.453  11.717  0.0683  0.0633 -0.2766
 7028TIP3    H142499   1.008   0.488  11.700 -0.0981 -0.1002 -1.6076
 7028TIP3    H242500   0.894   0.415  11.633 -0.7192 -1.1220  0.4870
 7029TIP3   OH242501   0.144   4.499   0.861 -0.3536 -0.0527 -0.2988
 7029TIP3    H142502   0.081   4.434   0.831 -0.3943  0.2051 -0.7717
 7029TIP3    H242503   0.209   4.503   0.792 -0.2084  0.2177 -0.1467
 7030TIP3   OH242504   4.356   4.525   3.325  0.1669  0.3082  0.0169
 7030TIP3    H142505   4.283   4.585   3.309 -1.3022 -1.3820 -0.0141
 7030TIP3    H242506   4.388   4.502   3.238  1.1017  1.4387  0.0456
 7031TIP3   OH242507   5.329   6.198  14.270 -0.0364 -0.2480  0.4966
 7031TIP3    H142508   5.412   6.166  14.306 -1.0594 -1.8091  1.6077
 7031TIP3    H242509   5.355   6.256  14.198  2.0150 -1.6891 -0.0227
 7032TIP3   OH242510   2.435   2.055   2.478 -0.2182 -0.0116 -0.4981
 7032TIP3    H142511   2.399   2.099   2.401 -0.0930 -2.4942 -2.1022
 7032TIP3    H242512   2.397   1.967   2.476  1.4106 -0.8319  1.0734
 7033TIP3   OH242513   2.700   6.143   4.510  0.4464 -0.4658  0.3647
 7033TIP3    H142514   2.639   6.144   4.436  1.3846 -0.1414 -0.4325
 7033TIP3    H242515   2.709   6.051   4.532  1.5011 -0.7483 -1.1006
 7034TIP3   OH242516   3.001   2.383   5.920  0.1690  0.1365  0.3643
 7034TIP3    H142517   2.968   2.389   6.010 -1.2430 -0.4199 -0.0773
 7034TIP3    H242518   3.028   2.472   5.898 -0.3214  0.4629  1.0473
 7035TIP3   OH242519   3.660   1.711  11.536  0.3006 -0.1411 -0.2607
 7035TIP3    H142520   3.605   1.661  11.476 -1.8786 -1.6840  2.7749
 7035TIP3    H242521   3.639   1.803  11.516 -0.1887 -0.5653 -1.9219
 7036TIP3   OH242522   3.317   3.937   4.085  0.1359 -0.1630  0.3473
 7036TIP3    H142523   3.257   4.011   4.082 -0.4817 -0.6541  0.3812
 7036TIP3    H242524   3.398   3.973   4.120 -0.6361  0.1750  1.8800
 7037TIP3   OH242525   2.189   1.774   6.054  0.3439  0.2725 -0.0313
 7037TIP3    H142526   2.185   1.746   6.146 -0.5940  2.5056  0.6754
 7037TIP3    H242527   2.106   1.819   6.040  0.2713 -0.4210 -2.1625
 7038TIP3   OH242528   5.349   4.117  16.788  0.0359  0.0771  0.1855
 7038TIP3    H142529   5.394   4.064  16.722 -1.5247  0.3077 -1.1390
 7038TIP3    H242530   5.256   4.097  16.776 -0.6652  3.1122 -0.4603
 7039TIP3   OH242531   0.195   1.579   0.415 -0.3581  0.5056 -0.4368
 7039TIP3    H142532   0.228   1.617   0.496 -2.6710  1.7232  0.0308
 7039TIP3    H242533   0.194   1.484   0.433  0.0812  0.6726  0.5824
 7040TIP3   OH242534   3.252   2.561   2.884  0.1403 -0.2845  0.0299
 7040TIP3    H142535   3.239   2.599   2.796  0.4020 -1.4330 -0.5193
 7040TIP3    H242536   3.338   2.520   2.880 -0.4283 -1.5693  0.3560
 7041TIP3   OH242537   3.865   0.242  14.761  0.0535 -0.2291 -0.6338
 7041TIP3    H142538   3.799   0.261  14.827  0.7711 -0.1306  0.0672
 7041TIP3    H242539   3.947   0.275  14.797  1.1225 -3.2191  0.0198
 7042TIP3   OH242540   4.116   4.440   1.070 -0.1588 -0.6790 -0.3100
 7042TIP3    H142541   4.115   4.364   1.128 -0.5324 -0.7706 -0.4367
 7042TIP3    H242542   4.025   4.468   1.065 -0.6564 -2.4122 -3.1052
 7043TIP3   OH242543   0.517   1.788   4.759 -0.9429 -0.3701  0.0207
 7043TIP3    H142544   0.505   1.855   4.826  0.5370 -0.4690  0.4149
 7043TIP3    H242545   0.501   1.705   4.804  1.6127 -0.5551  0.7420
 7044TIP3   OH242546   3.794   2.493  14.914 -0.6134 -0.3581 -0.6723
 7044TIP3    H142547   3.836   2.413  14.883 -0.0058 -0.0981 -0.5193
 7044TIP3    H242548   3.850   2.564  14.884 -1.4535  0.0564 -1.3015
 7045TIP3   OH242549   2.288   5.060  15.152 -0.1669 -0.2032 -0.0113
 7045TIP3    H142550   2.274   4.981  15.100 -2.0495  0.8151 -1.1894
 7045TIP3    H242551   2.287   5.131  15.087 -1.1520  0.9830  1.2436
 7046TIP3   OH242552   0.446   0.004   6.506 -0.3123  0.1256 -0.3420
 7046TIP3    H142553   0.539   0.019   6.516  0.3712 -4.0089  1.9322
 7046TIP3    H242554   0.440  -0.073   6.449 -2.1606 -0.6381  0.7736
 7047TIP3   OH242555   0.609   6.416   3.843  0.1165  0.2833 -0.4021
 7047TIP3    H142556   0.668   6.491   3.837 -0.8394  1.1502  0.7013
 7047TIP3    H242557   0.544   6.431   3.774  0.4456 -0.0302 -0.7909
 7048TIP3   OH242558   2.991   6.369   6.391 -0.4531  0.2582 -0.1946
 7048TIP3    H142559   3.020   6.450   6.351  0.3112  0.1883  0.2168
 7048TIP3    H242560   3.068   6.334   6.436 -0.9811 -0.2857  0.3109
 7049TIP3   OH242561   5.793   6.203  13.018  0.4591  0.1234 -0.3705
 7049TIP3    H142562   5.719   6.172  13.071  0.4564  1.3221  0.3644
 7049TIP3    H242563   5.757   6.274  12.965  1.5695  2.6724  2.0078
 7050TIP3   OH242564   6.503   2.454   5.953 -0.0358 -0.8008  0.2884
 7050TIP3    H142565   6.525   2.470   6.045 -0.8683 -0.8254  0.4955
 7050TIP3    H242566   6.427   2.508   5.937  0.7021 -0.0164 -0.6824
 7051TIP3   OH242567   3.872   0.066  15.411  0.1078  0.1319 -0.4378
 7051TIP3    H142568   3.951   0.118  15.405 -0.9769  1.8444 -0.5142
 7051TIP3    H242569   3.901  -0.024  15.397  2.1886  0.5729  0.7388
 7052TIP3   OH242570   6.190   3.043   2.355  0.3522  0.2391  0.3678
 7052TIP3    H142571   6.163   3.127   2.318  0.6666 -0.5458 -1.7783
 7052TIP3    H242572   6.282   3.056   2.379  0.1069  0.7981  1.0395
 7053TIP3   OH242573   3.664   2.625  16.870  0.3033  0.0149  0.4946
 7053TIP3    H142574   3.758   2.639  16.881  0.6388 -1.8286  0.2085
 7053TIP3    H242575   3.628   2.629  16.959  0.6845  0.4752  0.6295
 7054TIP3   OH242576   3.736   5.274  12.204  0.2300 -0.4110  0.4756
 7054TIP3    H142577   3.678   5.317  12.141 -0.2730  0.5619  1.5636
 7054TIP3    H242578   3.763   5.344  12.263  0.7013 -1.2917  1.3348
 7055TIP3   OH242579   1.246   3.638  13.591 -0.5442 -0.0218 -0.2655
 7055TIP3    H142580   1.280   3.708  13.535  0.4753 -0.3701 -0.1066
 7055TIP3    H242581   1.319   3.616  13.649 -0.8316 -1.2410 -0.3376
 7056TIP3   OH242582   3.084   5.289   1.563 -0.3209  0.1489 -0.0128
 7056TIP3    H142583   3.122   5.214   1.517 -0.9397 -0.2206  0.0776
 7056TIP3    H242584   2.996   5.298   1.527 -0.9638 -0.3955  1.3576
 7057TIP3   OH242585   1.814   2.749   4.340  0.3579 -0.0341  0.5242
 7057TIP3    H142586   1.732   2.711   4.373 -0.1088  0.6685  0.2035
 7057TIP3    H242587   1.820   2.717   4.250  0.2001  0.2728  0.4026
 7058TIP3   OH242588   6.498   4.945  15.939 -0.7199 -0.0796 -0.4277
 7058TIP3    H142589   6.580   4.970  15.982 -1.0798  0.8181 -0.2479
 7058TIP3    H242590   6.517   4.859  15.901  0.3006  0.1030 -0.3740
 7059TIP3   OH242591   5.714   1.728  11.207 -0.2394  0.0935  0.1640
 7059TIP3    H142592   5.637   1.749  11.153 -0.5351  1.8239  1.1743
 7059TIP3    H242593   5.788   1.734  11.147 -0.8870 -2.5347 -1.0562
 7060TIP3   OH242594   0.498   2.805  14.491  0.2907  0.2757 -0.2196
 7060TIP3    H142595   0.441   2.818  14.566 -0.4294  1.9962 -1.0106
 7060TIP3    H242596   0.560   2.878  14.495  0.6982 -0.0239 -0.8788
 7061TIP3   OH242597   0.781   3.561  13.471 -0.2182 -0.3431  0.2139
 7061TIP3    H142598   0.802   3.654  13.461 -0.5903 -0.3244 -0.4130
 7061TIP3    H242599   0.859   3.515  13.438 -0.3981 -0.2601 -0.3288
 7062TIP3   OH242600   4.945   5.031  14.222 -0.2791  0.3603 -0.1376
 7062TIP3    H142601   5.005   4.961  14.249  0.9293  0.6532 -1.9246
 7062TIP3    H242602   4.870   5.021  14.281  0.5683 -1.3874  0.7440
 7063TIP3   OH242603   4.586   3.078   5.249  0.0430  0.3025 -0.3859
 7063TIP3    H142604   4.668   3.103   5.293  0.4118  0.2151 -1.0151
 7063TIP3    H242605   4.549   3.162   5.220 -0.5573  0.4267  0.6887
 7064TIP3   OH242606   5.840   4.049   3.220 -0.1630  0.0145  0.2193
 7064TIP3    H142607   5.892   3.970   3.205  0.7907  1.0509 -2.5861
 7064TIP3    H242608   5.906   4.119   3.230 -0.9466  1.0540 -1.4583
 7065TIP3   OH242609   5.678   4.204   0.318 -0.3166 -0.0141  0.2011
 7065TIP3    H142610   5.652   4.275   0.260  0.6189 -1.0688 -1.6016
 7065TIP3    H242611   5.773   4.212   0.326  0.1542 -2.2459 -1.8643
 7066TIP3   OH242612   1.378   6.125   5.128 -0.3745  0.1751 -0.5681
 7066TIP3    H142613   1.459   6.127   5.078  0.5795  0.5705  0.9443
 7066TIP3    H242614   1.366   6.032   5.151 -2.4024 -0.5532 -3.9014
 7067TIP3   OH242615   0.738   2.901   1.313 -0.1479  0.3418 -0.5234
 7067TIP3    H142616   0.654   2.920   1.354  0.0416  1.5615 -0.6631
 7067TIP3    H242617   0.758   2.812   1.340 -1.7230 -0.1613 -0.9166
 7068TIP3   OH242618   6.653   0.317   2.378 -0.3832  0.2690 -0.2160
 7068TIP3    H142619   6.608   0.250   2.429  0.0445  0.7325  0.8003
 7068TIP3    H242620   6.688   0.378   2.443 -1.6118  2.0488 -1.1132
 7069TIP3   OH242621   5.036   4.771   0.739 -0.3332  0.1111 -0.5085
 7069TIP3    H142622   5.000   4.702   0.683  0.0500 -0.6503  0.1549
 7069TIP3    H242623   4.964   4.833   0.750 -1.2617 -1.0492  0.2610
 7070TIP3   OH242624   4.437   1.835   6.074 -0.0009  0.0620  0.0949
 7070TIP3    H142625   4.486   1.859   5.995 -0.7892  0.3636 -0.3195
 7070TIP3    H242626   4.425   1.918   6.121 -3.1838  0.7527 -1.5985
 7071TIP3   OH242627   4.491   4.115  14.124  0.0286  0.5619  0.4235
 7071TIP3    H142628   4.435   4.080  14.194 -0.0650 -1.4217 -0.5813
 7071TIP3    H242629   4.527   4.195  14.161  0.0136 -0.4344  2.7842
 7072TIP3   OH242630   0.192   5.116   3.221  0.2173 -0.1049 -0.1041
 7072TIP3    H142631   0.143   5.191   3.255 -0.1230 -0.6499  0.6470
 7072TIP3    H242632   0.282   5.132   3.248  0.3738  0.6092 -0.9805
 7073TIP3   OH242633   3.266   6.399  14.730 -0.1289  0.1496  0.4224
 7073TIP3    H142634   3.272   6.494  14.741  0.7718  0.2564 -0.8156
 7073TIP3    H242635   3.176   6.384  14.701  0.1288  0.7947 -0.7606
 7074TIP3   OH242636   0.721   6.754  10.334 -0.0518 -0.1882  0.1092
 7074TIP3    H142637   0.671   6.738  10.414 -0.1545 -0.2224  0.0387
 7074TIP3    H242638   0.805   6.790  10.364 -1.0929  2.4273  0.1282
 7075TIP3   OH242639   5.773   3.300   4.212  0.4602  0.5520 -0.2332
 7075TIP3    H142640   5.749   3.254   4.131 -1.4455 -0.5547  0.8900
 7075TIP3    H242641   5.781   3.392   4.186 -1.1688  0.3800 -1.4776
 7076TIP3   OH242642   3.218   0.594   6.621  0.3377 -0.0830 -0.5259
 7076TIP3    H142643   3.134   0.629   6.592  0.5139  2.7027  1.7793
 7076TIP3    H242644   3.236   0.521   6.562 -3.1927 -0.1784 -1.7188
 7077TIP3   OH242645   3.489   4.826   5.801  0.0526 -0.5066  0.2212
 7077TIP3    H142646   3.543   4.780   5.866 -0.2363 -1.6654 -0.3384
 7077TIP3    H242647   3.414   4.768   5.787 -0.5909  0.3902 -0.1211
 7078TIP3   OH242648   2.470   5.808   2.105 -0.0013  0.1546  0.3829
 7078TIP3    H142649   2.470   5.833   2.198 -0.7311  1.3742  0.0755
 7078TIP3    H242650   2.524   5.874   2.062  2.2468 -1.6532  0.1897
 7079TIP3   OH242651   0.963   1.104   4.454 -0.0547  0.0463 -1.0769
 7079TIP3    H142652   0.986   1.065   4.370 -0.6791 -0.2222 -1.1248
 7079TIP3    H242653   0.994   1.040   4.519 -0.5357 -0.2501 -1.1378
 7080TIP3   OH242654   5.503   1.293  11.692  0.1407 -0.2834 -0.2215
 7080TIP3    H142655   5.495   1.249  11.777  1.2081  1.6741  0.9709
 7080TIP3    H242656   5.414   1.324  11.673 -0.2660 -1.4050 -0.2419
 7081TIP3   OH242657   2.408   0.672   0.291 -0.4076 -0.3176  0.2395
 7081TIP3    H142658   2.360   0.751   0.266 -0.5930  0.2412  2.1711
 7081TIP3    H242659   2.375   0.604   0.232 -1.7834  0.5952 -0.1011
 7082TIP3   OH242660   2.871   2.166   4.173 -0.1495 -0.3078 -0.1844
 7082TIP3    H142661   2.937   2.203   4.115  1.5291  0.8087  2.2332
 7082TIP3    H242662   2.792   2.219   4.156  0.5846  0.6389 -0.7631
 7083TIP3   OH242663   6.520   4.600   5.726 -0.2505 -0.2326 -0.3945
 7083TIP3    H142664   6.557   4.640   5.805  0.2960 -0.5782 -0.4707
 7083TIP3    H242665   6.429   4.631   5.724  0.1956  1.1472 -0.5404
 7084TIP3   OH242666   0.602   0.912   2.493 -0.2059 -0.2112  0.3750
 7084TIP3    H142667   0.642   0.953   2.416 -1.8687  0.9896  0.0992
 7084TIP3    H242668   0.676   0.872   2.540  0.9715 -0.0992 -1.3021
 7085TIP3   OH242669   1.757   1.138   0.843  0.1201 -0.3771 -0.8385
 7085TIP3    H142670   1.837   1.187   0.862  0.4985 -1.5121  0.6510
 7085TIP3    H242671   1.725   1.175   0.760  1.7680  0.5938 -1.0759
 7086TIP3   OH242672   4.386   1.787   4.569  0.1486 -0.0107 -0.2313
 7086TIP3    H142673   4.373   1.827   4.655  0.4894  1.0876 -0.6727
 7086TIP3    H242674   4.334   1.841   4.509  1.2277  0.2674 -0.9579
 7087TIP3   OH242675   4.646   0.185  13.015 -0.4986  0.1020 -0.3880
 7087TIP3    H142676   4.558   0.177  13.052 -0.4354 -0.3280 -0.3208
 7087TIP3    H242677   4.697   0.231  13.082 -0.9306  1.3149 -0.8665
 7088TIP3   OH242678   6.496   5.634   3.696  0.2002  0.1250  0.3907
 7088TIP3    H142679   6.477   5.602   3.784 -1.1899  0.6775  0.3179
 7088TIP3    H242680   6.432   5.589   3.640  0.8978 -0.0219 -0.3132
 7089TIP3   OH242681   3.361   3.944   3.713 -0.1565 -0.2816  0.4035
 7089TIP3    H142682   3.452   3.937   3.743  0.5756 -0.5658 -1.7020
 7089TIP3    H242683   3.362   3.907   3.625 -2.0783  0.7692 -0.1244
 7090TIP3   OH242684   4.990   2.588   2.554  0.0495  0.1787  0.0870
 7090TIP3    H142685   5.031   2.580   2.468 -0.1701  0.7425 -0.0731
 7090TIP3    H242686   4.908   2.634   2.538 -0.4107 -0.4722  0.4805
 7091TIP3   OH242687   4.663   5.463  15.133 -0.1541  0.0174 -0.2039
 7091TIP3    H142688   4.586   5.429  15.085 -1.4798  1.5148  0.7688
 7091TIP3    H242689   4.661   5.557  15.118  1.0684  0.1669  0.4814
 7092TIP3   OH242690   2.615   2.494  12.095  0.2385 -1.1102 -0.1384
 7092TIP3    H142691   2.594   2.489  12.002 -2.1877  0.3317  0.2617
 7092TIP3    H242692   2.536   2.528  12.136  0.9007 -2.5533  2.6059
 7093TIP3   OH242693   0.854   1.981  11.621  0.3113  0.1153  0.2182
 7093TIP3    H142694   0.760   1.963  11.610  0.3180 -1.0786  1.6871
 7093TIP3    H242695   0.886   2.001  11.533 -1.4419  1.2405 -0.2099
 7094TIP3   OH242696   5.635   4.320   1.385 -0.2982  0.0884 -0.4314
 7094TIP3    H142697   5.669   4.283   1.304 -1.2582 -3.1984  0.5077
 7094TIP3    H242698   5.541   4.307   1.380 -0.6099  1.8112  0.3410
 7095TIP3   OH242699   4.164   4.780   3.450 -0.1549  0.7852  0.4199
 7095TIP3    H142700   4.096   4.801   3.387  0.7453  1.5941 -0.3273
 7095TIP3    H242701   4.132   4.815   3.533 -1.4683 -0.5247  0.4962
 7096TIP3   OH242702   3.873   4.640  15.758 -0.2022 -0.4534 -0.4019
 7096TIP3    H142703   3.852   4.627  15.666 -1.3495 -0.4940 -0.1508
 7096TIP3    H242704   3.860   4.553  15.798  2.0273 -0.8812 -0.4954
 7097TIP3   OH242705   4.158   6.182   4.774  0.2055 -0.2122  0.2112
 7097TIP3    H142706   4.093   6.112   4.781 -0.1543  0.0369 -0.5068
 7097TIP3    H242707   4.184   6.201   4.864 -2.1532  1.0180  0.7207
 7098TIP3   OH242708   5.443   2.966  12.065 -0.2163  0.0925 -0.0009
 7098TIP3    H142709   5.350   2.956  12.085 -0.2007 -0.3668 -0.1626
 7098TIP3    H242710   5.483   2.884  12.094  0.3998  0.9125  1.5962
 7099TIP3   OH242711   6.398   1.328   5.019 -0.0107  0.2144  0.3056
 7099TIP3    H142712   6.317   1.287   5.049  1.2456 -3.0882 -0.4258
 7099TIP3    H242713   6.400   1.312   4.925  0.5676  2.1006 -0.0527
 7100TIP3   OH242714   0.803   3.247  10.903  0.1781 -0.5765  0.3414
 7100TIP3    H142715   0.760   3.311  10.846  0.4467  0.9165  1.7458
 7100TIP3    H242716   0.831   3.177  10.843 -1.5226 -0.1818 -1.0232
 7101TIP3   OH242717   3.387   1.414   4.030 -0.4147  0.4448 -0.1373
 7101TIP3    H142718   3.450   1.406   4.102  0.8016  0.4653 -1.1789
 7101TIP3    H242719   3.437   1.454   3.959 -1.8437  1.2750 -0.7068
 7102TIP3   OH242720   5.069   6.655   4.635  0.1856  0.4330  0.0270
 7102TIP3    H142721   5.014   6.711   4.580  1.1832  1.4759  0.0416
 7102TIP3    H242722   5.155   6.697   4.633  0.6860 -0.5003  0.9513
 7103TIP3   OH242723   3.409   1.805  11.145  0.4714  0.6012 -0.3542
 7103TIP3    H142724   3.449   1.892  11.152  2.4828 -0.1610 -1.6618
 7103TIP3    H242725   3.434   1.774  11.059 -0.3477 -1.2353  0.0231
 7104TIP3   OH242726   1.823   2.286  14.171  0.3518  0.3101 -0.1331
 7104TIP3    H142727   1.909   2.261  14.204  0.6821 -0.1713 -1.3323
 7104TIP3    H242728   1.802   2.366  14.219  1.2205  0.1504  0.5530
 7105TIP3   OH242729   1.218   3.833  12.439 -0.0147 -0.1946 -0.8304
 7105TIP3    H142730   1.308   3.865  12.437  0.5205 -1.6601 -1.7208
 7105TIP3    H242731   1.176   3.878  12.365 -0.3031  1.1802  0.1250
 7106TIP3   OH242732   2.467   3.373  12.057  0.2678 -0.0310  0.1699
 7106TIP3    H142733   2.536   3.309  12.073 -1.0002 -1.9313 -1.5407
 7106TIP3    H242734   2.391   3.321  12.033 -1.4115  2.0593  0.6325
 7107TIP3   OH242735   4.450   4.316  13.803  0.4646 -0.3676  0.7073
 7107TIP3    H142736   4.440   4.245  13.867  0.4187 -2.9628 -1.9505
 7107TIP3    H242737   4.527   4.291  13.752 -1.1995 -0.1028 -2.1430
 7108TIP3   OH242738   0.010   6.336   0.811  0.3683  1.0652 -0.8811
 7108TIP3    H142739  -0.026   6.419   0.782  0.4666  1.8605  1.1168
 7108TIP3    H242740  -0.065   6.287   0.844  0.3743  0.5111 -1.6585
 7109TIP3   OH242741   2.681   1.690   4.635  0.2799 -0.1384 -0.1820
 7109TIP3    H142742   2.759   1.642   4.608  0.5298 -1.0042  1.9286
 7109TIP3    H242743   2.715   1.768   4.680 -0.1146  0.5866 -1.1002
 7110TIP3   OH242744   2.781   1.747  16.757 -0.1123  0.0575 -0.9246
 7110TIP3    H142745   2.811   1.658  16.734 -0.0353  0.3493 -2.0100
 7110TIP3    H242746   2.854   1.784  16.806 -0.4114 -0.7060  0.1253
 7111TIP3   OH242747   3.103   4.841  15.097  0.0814 -0.1631 -0.4021
 7111TIP3    H142748   3.048   4.884  15.162 -0.8586 -1.7506 -0.0802
 7111TIP3    H242749   3.101   4.748  15.122  1.0601 -0.5685 -1.7257
 7112TIP3   OH242750   5.740   4.372   3.223  0.2571 -0.0022  0.2745
 7112TIP3    H142751   5.754   4.386   3.129  0.2354  2.3167  0.5727
 7112TIP3    H242752   5.822   4.331   3.253  0.8195  0.5183 -0.5086
 7113TIP3   OH242753   1.252   5.381   6.020  0.2427 -0.0212  0.5055
 7113TIP3    H142754   1.232   5.463   5.974  0.8759 -0.7057 -1.0723
 7113TIP3    H242755   1.187   5.376   6.089 -2.0816  0.1224 -1.5321
 7114TIP3   OH242756   2.527   6.623  14.120 -0.4469 -0.3971  0.1262
 7114TIP3    H142757   2.438   6.658  14.125  0.1651  1.0409  2.3941
 7114TIP3    H242758   2.555   6.616  14.211  2.4073  0.9564 -0.5430
 7115TIP3   OH242759   1.642   4.543   5.481  0.2973 -0.1878 -0.0871
 7115TIP3    H142760   1.650   4.487   5.404 -2.9481  0.3358 -0.9610
 7115TIP3    H242761   1.732   4.558   5.510  1.4624 -2.9509 -1.8829
 7116TIP3   OH242762   0.006   0.907   6.675 -0.0937 -0.0602 -0.1138
 7116TIP3    H142763   0.042   0.990   6.644 -1.3918  0.5038 -0.2018
 7116TIP3    H242764  -0.004   0.920   6.770  0.8838 -0.5998  0.0738
 7117TIP3   OH242765   4.875   5.397   3.033  0.0767 -0.1147  0.0379
 7117TIP3    H142766   4.963   5.362   3.048  0.3218  0.3202 -0.3782
 7117TIP3    H242767   4.817   5.323   3.052  0.6015 -0.8448 -1.0645
 7118TIP3   OH242768   4.145   5.459   2.535  0.4494 -0.0163 -0.3370
 7118TIP3    H142769   4.182   5.384   2.581 -1.4514 -0.1363  1.1824
 7118TIP3    H242770   4.064   5.425   2.495  0.0483  0.9900 -0.4193
 7119TIP3   OH242771   4.881   0.651  12.269  0.7465 -0.1668 -0.0255
 7119TIP3    H142772   4.891   0.663  12.364  3.3237 -0.0365 -0.2299
 7119TIP3    H242773   4.789   0.629  12.257  0.3100 -0.0421  2.4882
 7120TIP3   OH242774   1.953   0.523  15.039  0.3606 -0.4896  0.0520
 7120TIP3    H142775   2.003   0.540  15.119 -3.7131  1.0943  2.5549
 7120TIP3    H242776   1.976   0.594  14.980  1.0321  0.1973  1.1129
 7121TIP3   OH242777   5.579   5.066  16.119  0.2080 -0.3714  0.7223
 7121TIP3    H142778   5.565   4.972  16.123  0.3850 -0.3456  2.4617
 7121TIP3    H242779   5.546   5.100  16.202 -0.4208  1.1931 -0.1152
 7122TIP3   OH242780   4.701   2.518  16.216  0.4643 -0.1371 -0.8177
 7122TIP3    H142781   4.610   2.521  16.244  0.4351 -1.9391 -0.6129
 7122TIP3    H242782   4.704   2.576  16.139 -0.6331  0.6341 -0.3076
 7123TIP3   OH242783   6.675   5.726   2.915  0.3942  0.2009  0.2374
 7123TIP3    H142784   6.621   5.799   2.883 -1.5230 -0.7465  1.1151
 7123TIP3    H242785   6.736   5.767   2.976 -1.1914  1.0481  1.3452
 7124TIP3   OH242786   2.783   3.232  11.612 -0.3030  0.0044 -0.6024
 7124TIP3    H142787   2.748   3.257  11.527  0.0920  0.4146 -0.6456
 7124TIP3    H242788   2.813   3.142  11.599 -3.1701 -1.1528 -0.0127
 7125TIP3   OH242789   3.825   2.492   2.569 -0.1478  0.1884 -0.4487
 7125TIP3    H142790   3.769   2.567   2.547 -0.2204 -0.4072 -2.5739
 7125TIP3    H242791   3.912   2.530   2.583 -0.6082  0.8741  0.6874
 7126TIP3   OH242792   4.128   5.101  12.578  0.4801  0.4010  0.2602
 7126TIP3    H142793   4.181   5.107  12.657  0.7232  0.5011  0.0913
 7126TIP3    H242794   4.065   5.173  12.586  1.8280  1.7615 -0.5978
 7127TIP3   OH242795   5.778   6.570   2.929 -0.2228 -0.0244  0.1535
 7127TIP3    H142796   5.719   6.573   3.004 -1.0076  0.8888 -0.4699
 7127TIP3    H242797   5.798   6.662   2.911  1.8183 -0.3332  0.6581
 7128TIP3   OH242798   4.235   0.256   2.419 -0.0214  0.1200 -0.2752
 7128TIP3    H142799   4.306   0.278   2.359  1.9018 -1.5939  1.2486
 7128TIP3    H242800   4.275   0.259   2.506 -2.1793  0.4058  0.7733
 7129TIP3   OH242801   1.794   1.215  12.016 -0.0516  0.7243 -0.2105
 7129TIP3    H142802   1.847   1.190  11.941  0.7026  1.3278  0.0947
 7129TIP3    H242803   1.850   1.198  12.092 -1.5392 -1.8215  0.4116
 7130TIP3   OH242804   6.076   1.141  15.332 -0.5828  0.3822 -0.3120
 7130TIP3    H142805   6.128   1.213  15.296  1.7878 -0.9720  0.2364
 7130TIP3    H242806   6.008   1.125  15.266  1.4066  0.3613 -2.4676
 7131TIP3   OH242807   4.905   5.882   0.784  0.3387 -0.3909  1.2486
 7131TIP3    H142808   4.898   5.971   0.751 -0.4145 -0.7172  0.4954
 7131TIP3    H242809   4.818   5.861   0.818 -0.4441 -1.8576 -1.3340
 7132TIP3   OH242810   3.303   1.744   4.835 -0.4823  0.5142  0.4506
 7132TIP3    H142811   3.247   1.695   4.776 -2.4481  1.7992  1.1486
 7132TIP3    H242812   3.322   1.826   4.789 -0.2728  0.6387  0.7498
 7133TIP3   OH242813   6.717   4.833  13.269  0.6520  0.0170  0.7522
 7133TIP3    H142814   6.788   4.869  13.322  1.8650  0.5428 -1.1424
 7133TIP3    H242815   6.647   4.898  13.275  1.5600  1.0878  0.0743
 7134TIP3   OH242816   2.908   2.570  12.342 -0.8578 -0.2872 -0.6606
 7134TIP3    H142817   2.907   2.659  12.376  0.7016 -0.4733 -0.0363
 7134TIP3    H242818   2.923   2.580  12.248 -0.3705  0.1108 -0.5438
 7135TIP3   OH242819   5.960   5.840  14.406 -0.1441 -0.0200 -0.0262
 7135TIP3    H142820   6.035   5.880  14.361  1.1962 -1.2364  1.0208
 7135TIP3    H242821   5.938   5.763  14.353 -0.6596  0.3218 -0.3187
 7136TIP3   OH242822   5.503   2.829  16.697  0.1804  0.6249 -0.7475
 7136TIP3    H142823   5.411   2.830  16.671 -0.4082 -2.1366  0.8432
 7136TIP3    H242824   5.516   2.911  16.744 -1.5281  0.9470 -0.7921
 7137TIP3   OH242825   1.637   0.190  11.996  0.3760  0.1099 -0.1230
 7137TIP3    H142826   1.590   0.194  12.079  0.2431  1.1097 -0.2408
 7137TIP3    H242827   1.639   0.097  11.974  0.0123 -0.1143  0.7693
 7138TIP3   OH242828   3.642   3.375  16.404  0.2089  0.0722 -0.1871
 7138TIP3    H142829   3.623   3.458  16.446 -1.2967 -0.7592  0.8657
 7138TIP3    H242830   3.721   3.343  16.448 -1.4838 -0.9158  2.3242
 7139TIP3   OH242831   2.845   1.599   2.907  0.1121 -0.2030  0.3506
 7139TIP3    H142832   2.917   1.659   2.887  0.3109 -0.7733 -0.7069
 7139TIP3    H242833   2.766   1.645   2.877  0.3505 -0.8057 -1.2783
 7140TIP3   OH242834   3.603   1.642  17.131 -0.2695 -0.1840 -0.9703
 7140TIP3    H142835   3.661   1.647  17.056  0.3063  1.3881 -0.4544
 7140TIP3    H242836   3.520   1.679  17.100  0.5818  2.4744 -0.3294
 7141TIP3   OH242837   0.875   1.634  16.626 -0.7842  0.0680  0.0167
 7141TIP3    H142838   0.967   1.611  16.613 -0.9014 -0.1565 -0.4594
 7141TIP3    H242839   0.852   1.596  16.711 -0.4629  0.0385  0.0899
 7142TIP3   OH242840   0.066   5.466   0.124 -0.0795 -0.1098 -0.5095
 7142TIP3    H142841  -0.017   5.419   0.128 -0.1320 -0.0101  2.4747
 7142TIP3    H242842   0.042   5.556   0.104 -0.7152 -0.0917  0.2923
 7143TIP3   OH242843   2.160   5.293  11.421 -0.2499 -0.1649 -0.2274
 7143TIP3    H142844   2.163   5.336  11.336  1.3201  1.2655  0.4947
 7143TIP3    H242845   2.081   5.327  11.462  0.7528  1.8503  0.1736
 7144TIP3   OH242846   4.789   2.169   4.020 -0.9846 -0.0965  0.5354
 7144TIP3    H142847   4.823   2.181   4.108 -1.1515  1.1281  0.4522
 7144TIP3    H242848   4.730   2.243   4.006 -1.0661 -0.3392 -0.5509
 7145TIP3   OH242849   3.826   5.811  12.768  0.4332  0.6275 -0.2770
 7145TIP3    H142850   3.818   5.802  12.862  1.5408  1.8562 -0.0436
 7145TIP3    H242851   3.838   5.905  12.753  1.3686  0.3425 -1.5487
 7146TIP3   OH242852   1.582   5.834  11.813  0.3630 -0.5929 -0.3702
 7146TIP3    H142853   1.603   5.744  11.788  1.4776 -0.1698 -1.0823
 7146TIP3    H242854   1.522   5.826  11.886 -0.8702 -1.9190 -1.4634
 7147TIP3   OH242855   6.623   6.441  14.461 -0.5788 -0.2200 -0.2741
 7147TIP3    H142856   6.716   6.443  14.483 -0.9469  0.4471  1.3160
 7147TIP3    H242857   6.612   6.357  14.415  0.8330 -0.1907 -0.7331
 7148TIP3   OH242858   1.772   2.472   1.539  0.5592  0.2482 -0.5657
 7148TIP3    H142859   1.809   2.518   1.463 -0.8962  2.2318 -0.1736
 7148TIP3    H242860   1.846   2.461   1.599  1.6593 -1.0747 -2.1019
 7149TIP3   OH242861   2.528   0.025  15.226  0.0250  0.0218  0.0735
 7149TIP3    H142862   2.460   0.029  15.293 -2.0600  3.0201 -1.9698
 7149TIP3    H242863   2.480   0.015  15.144  2.1038  1.3827 -1.3947
 7150TIP3   OH242864   0.694   3.870   1.357  0.1528  0.1129  0.3441
 7150TIP3    H142865   0.774   3.832   1.394 -0.1321 -0.7536  0.0964
 7150TIP3    H242866   0.659   3.925   1.426  1.5002  1.3318  0.1148
 7151TIP3   OH242867   5.910   1.117  17.266 -0.4443 -0.4298  0.3933
 7151TIP3    H142868   5.983   1.057  17.279  2.7265  3.3813  2.2767
 7151TIP3    H242869   5.926   1.156  17.180  1.2779  1.9925  1.6861
 7152TIP3   OH242870   5.965   3.420  11.892  0.9051 -0.0668  0.1442
 7152TIP3    H142871   6.053   3.428  11.857  0.9672 -0.4743  0.2019
 7152TIP3    H242872   5.972   3.448  11.984  0.6782  1.3080 -0.2366
 7153TIP3   OH242873   0.335   3.195   4.177  0.2645  0.0745 -0.1298
 7153TIP3    H142874   0.351   3.255   4.250 -1.1803  0.2033  0.1076
 7153TIP3    H242875   0.409   3.210   4.118  2.3458 -1.1203  1.9583
 7154TIP3   OH242876   5.214   2.923   0.923  0.0489 -0.3342  0.2116
 7154TIP3    H142877   5.284   2.858   0.926  0.1311 -0.3302 -1.0595
 7154TIP3    H242878   5.239   2.983   0.853  0.2603  1.4405  1.7073
 7155TIP3   OH242879   4.217   5.559   1.440 -0.1319 -0.0935 -0.4189
 7155TIP3    H142880   4.283   5.621   1.410 -0.6204  0.6421  0.0027
 7155TIP3    H242881   4.166   5.607   1.505 -0.4947 -0.9493 -0.0496
 7156TIP3   OH242882   1.931   2.077  11.505  0.6306  0.0642  0.5543
 7156TIP3    H142883   1.949   1.983  11.507  2.6650  0.3219 -1.4937
 7156TIP3    H242884   1.997   2.113  11.445 -0.5153  2.7103  0.7414
 7157TIP3   OH242885   1.008   1.875  12.534  0.0840  0.2391  0.2965
 7157TIP3    H142886   1.103   1.878  12.522  0.2864  0.1584  1.8032
 7157TIP3    H242887   0.989   1.951  12.589 -0.8584  0.7835 -0.7429
 7158TIP3   OH242888   1.098   4.943  16.177  0.2110 -0.1725 -0.2918
 7158TIP3    H142889   1.089   4.980  16.089  2.1538  0.9287 -0.0916
 7158TIP3    H242890   1.131   5.016  16.229  2.8902 -1.8003  0.4460
 7159TIP3   OH242891   5.915   3.345  13.089 -0.5587 -0.2400 -0.3748
 7159TIP3    H142892   5.885   3.413  13.150  1.4409 -0.3333  0.8293
 7159TIP3    H242893   5.910   3.264  13.140 -1.8739 -0.8538 -1.4347
 7160TIP3   OH242894   6.385   2.626  12.050 -0.0036 -0.2445 -0.2393
 7160TIP3    H142895   6.452   2.692  12.030  0.0941 -0.1680  0.3239
 7160TIP3    H242896   6.405   2.553  11.991  0.7639 -0.3392  0.1125
 7161TIP3   OH242897   1.346   1.762   1.690 -0.4715 -0.2269 -0.3013
 7161TIP3    H142898   1.272   1.724   1.643 -0.3866  1.7892 -2.2210
 7161TIP3    H242899   1.422   1.735   1.639 -0.0189 -0.8524  0.6792
 7162TIP3   OH242900   4.444   0.906  16.775 -0.0251  0.8667  0.2454
 7162TIP3    H142901   4.528   0.869  16.799  0.2985 -0.3776 -2.4964
 7162TIP3    H242902   4.380   0.853  16.821  0.5657 -1.3575 -1.3501
 7163TIP3   OH242903   6.023   2.077   3.133  0.0150  1.1269 -0.7544
 7163TIP3    H142904   6.109   2.098   3.097  0.2605  0.7183 -0.4060
 7163TIP3    H242905   6.026   1.983   3.151  0.6578  1.6221  2.2909
 7164TIP3   OH242906   0.829   0.284   5.802  0.0289  0.5183 -0.2194
 7164TIP3    H142907   0.834   0.266   5.708  1.1909 -0.6012  0.0353
 7164TIP3    H242908   0.875   0.367   5.813 -3.4280  2.7590 -1.1006
 7165TIP3   OH242909   5.472   6.493  13.492 -0.1432 -0.4731  0.1396
 7165TIP3    H142910   5.413   6.534  13.555  0.4852  1.8770 -0.7015
 7165TIP3    H242911   5.557   6.491  13.536 -0.1638 -0.8247  0.1625
 7166TIP3   OH242912   4.466   1.967  12.330  0.1242 -0.6838  0.2070
 7166TIP3    H142913   4.511   1.945  12.412  0.3543  2.0008  0.8775
 7166TIP3    H242914   4.380   1.926  12.338  1.3958 -3.6634  0.0493
 7167TIP3   OH242915   4.184   0.638  15.055  0.0795  0.2415  0.6833
 7167TIP3    H142916   4.106   0.663  15.104  0.4145  0.4242  1.1347
 7167TIP3    H242917   4.235   0.586  15.117  0.7417  0.8946  0.6988
 7168TIP3   OH242918   6.333   5.831   4.888 -0.1339  0.2915 -0.1770
 7168TIP3    H142919   6.411   5.808   4.939 -0.1846 -0.6951 -0.5270
 7168TIP3    H242920   6.367   5.858   4.803 -0.0641  1.7292  0.2778
 7169TIP3   OH242921   3.205   5.967   2.067  0.0737 -0.3000 -0.2533
 7169TIP3    H142922   3.296   5.972   2.037 -0.6497  3.0148 -2.5630
 7169TIP3    H242923   3.194   6.046   2.121 -0.4338 -2.9054  3.8862
 7170TIP3   OH242924   5.664   0.141  13.443 -0.8559  0.5533 -0.0400
 7170TIP3    H142925   5.660   0.098  13.357  1.8853  2.4787 -1.2618
 7170TIP3    H242926   5.724   0.086  13.494 -2.5405 -0.6317  0.7823
 7171TIP3   OH242927   3.689   0.678  15.913  0.1038 -0.0443  0.4852
 7171TIP3    H142928   3.705   0.748  15.849  0.5100 -1.2470 -0.7724
 7171TIP3    H242929   3.688   0.723  15.997 -0.6812  1.6317 -0.3664
 7172TIP3   OH242930   4.427   2.419   6.339 -0.3557 -0.0232 -0.5210
 7172TIP3    H142931   4.513   2.461   6.339 -0.1438 -0.4408  0.0928
 7172TIP3    H242932   4.446   2.326   6.355 -0.9635 -0.0278  0.2203
 7173TIP3   OH242933   4.097   6.220  14.262 -0.5655 -0.6662  0.2974
 7173TIP3    H142934   4.169   6.242  14.322 -0.8649 -1.4024  0.9316
 7173TIP3    H242935   4.054   6.144  14.302 -1.0296 -0.9067 -0.6361
 7174TIP3   OH242936   4.534   3.937   3.909 -0.1647  0.1804 -0.3987
 7174TIP3    H142937   4.480   3.860   3.891  0.3478 -0.3618  0.3130
 7174TIP3    H242938   4.620   3.915   3.873  0.2005  0.0833  0.5064
 7175TIP3   OH242939   2.075   3.941  13.024  0.3396  0.3687 -0.0818
 7175TIP3    H142940   2.157   3.936  12.975 -0.3977 -0.1648 -1.3236
 7175TIP3    H242941   2.102   3.953  13.115  1.8192 -1.0039 -0.2868
 7176TIP3   OH242942   5.450   5.169  16.333  0.3776  0.2146 -0.2209
 7176TIP3    H142943   5.394   5.225  16.385  0.2289  0.2090 -0.3721
 7176TIP3    H242944   5.488   5.107  16.395  0.1185  0.1402 -0.1400
 7177TIP3   OH242945   0.066   5.220  15.523 -1.0509 -0.2418  0.0956
 7177TIP3    H142946   0.003   5.291  15.514 -0.0530  0.6067 -0.2912
 7177TIP3    H242947   0.151   5.263  15.532 -0.7666 -1.2056  3.9294
 7178TIP3   OH242948   2.208   0.956   3.121 -0.5497 -0.1398  0.8785
 7178TIP3    H142949   2.300   0.929   3.124 -1.2119 -2.5772  1.1397
 7178TIP3    H242950   2.186   0.979   3.211  0.2043  2.1101  0.5423
 7179TIP3   OH242951   1.329   1.456  12.417  0.7321  0.3570 -0.1946
 7179TIP3    H142952   1.269   1.409  12.361  0.3506  1.3926 -0.6773
 7179TIP3    H242953   1.392   1.390  12.446 -2.2313 -1.5055  2.7424
 7180TIP3   OH242954   1.441   2.054   0.582  0.7475  0.2192  0.3594
 7180TIP3    H142955   1.374   2.065   0.515 -0.0617 -2.3061  0.6309
 7180TIP3    H242956   1.502   1.991   0.544  1.6081  0.6076  1.0786
 7181TIP3   OH242957   0.186   1.971   0.933 -0.3180  0.9731 -0.4060
 7181TIP3    H142958   0.132   2.050   0.934  1.0516  1.9170  0.4892
 7181TIP3    H242959   0.274   2.000   0.955  0.2481 -0.7918 -0.1370
 7182TIP3   OH242960   0.326   2.231   2.904 -0.1523  0.0710 -0.6672
 7182TIP3    H142961   0.411   2.199   2.874 -0.3605 -1.1286 -0.0614
 7182TIP3    H242962   0.264   2.198   2.839 -0.2456  0.2329 -0.6611
 7183TIP3   OH242963   3.472   5.978  12.981  0.4591 -0.1850  0.4194
 7183TIP3    H142964   3.480   5.937  12.895  2.5713  2.7733 -1.0061
 7183TIP3    H242965   3.509   5.914  13.042 -1.4617 -2.5280 -0.7195
 7184TIP3   OH242966   4.496   2.877   0.370 -0.3926  0.0171  0.0302
 7184TIP3    H142967   4.536   2.964   0.379  0.7469 -0.6476  1.6745
 7184TIP3    H242968   4.403   2.896   0.356 -0.4138  1.5145  1.7807
 7185TIP3   OH242969   0.293   4.546  14.928  0.3432  0.4409  0.1588
 7185TIP3    H142970   0.263   4.471  14.878 -1.2198  1.0290  0.1822
 7185TIP3    H242971   0.356   4.509  14.990  2.4966 -0.2744 -2.2731
 7186TIP3   OH242972   3.749   4.578  13.522  0.2700  0.0873 -0.1563
 7186TIP3    H142973   3.675   4.553  13.577 -0.2774  0.2032 -0.8227
 7186TIP3    H242974   3.826   4.553  13.572 -0.2183  0.1209  0.6254
 7187TIP3   OH242975   4.581   0.094  11.938 -0.3197  0.6609 -0.0391
 7187TIP3    H142976   4.625   0.016  11.902 -0.5206 -0.3473  1.7773
 7187TIP3    H242977   4.645   0.165  11.927  1.0221 -0.3626  0.7771
 7188TIP3   OH242978   4.372   3.455  17.162 -0.1582 -0.0339 -0.1380
 7188TIP3    H142979   4.407   3.393  17.225 -1.1589 -1.1215 -0.6106
 7188TIP3    H242980   4.302   3.500  17.209  0.3701  0.5592  0.1088
 7189TIP3   OH242981   1.420   4.796   0.088 -0.4358 -0.1572  0.3654
 7189TIP3    H142982   1.327   4.790   0.067 -0.4935 -0.3403  0.6590
 7189TIP3    H242983   1.429   4.746   0.169 -0.1052 -0.0243  0.4118
 7190TIP3   OH242984   6.405   3.951  10.613  0.2020 -0.1709 -0.5322
 7190TIP3    H142985   6.340   3.989  10.672  0.8657  1.9964 -1.1033
 7190TIP3    H242986   6.485   4.002  10.629  1.9839 -3.0487  0.4832
 7191TIP3   OH242987   3.221   3.074   5.636  0.1174  0.3268  0.0987
 7191TIP3    H142988   3.209   3.077   5.731 -1.7508  0.0595 -0.0806
 7191TIP3    H242989   3.241   3.164   5.611  0.6836  0.3886  0.7356
 7192TIP3   OH242990   4.982   3.747  13.581  0.0214  0.0420 -0.0721
 7192TIP3    H142991   4.890   3.727  13.571  0.5383 -1.8958 -1.4678
 7192TIP3    H242992   4.984   3.833  13.624 -2.3967  0.1472 -0.0874
 7193TIP3   OH242993   2.797   6.615   3.835  0.3155 -0.0346 -0.3406
 7193TIP3    H142994   2.855   6.691   3.834  0.9822 -0.4988  1.1729
 7193TIP3    H242995   2.837   6.554   3.898 -2.2719  0.0193  1.5146
 7194TIP3   OH242996   3.507   6.302   2.339 -0.3049 -0.3086 -0.8049
 7194TIP3    H142997   3.474   6.390   2.324 -0.1500 -0.0979  0.0757
 7194TIP3    H242998   3.579   6.313   2.401  2.4937 -0.5368 -3.7060
 7195TIP3   OH242999   1.076   5.588   5.596 -0.0052  0.1800 -0.4454
 7195TIP3    H143000   1.015   5.652   5.631 -0.2397  0.2730 -1.0156
 7195TIP3    H243001   1.109   5.627   5.515 -1.6262 -1.2078 -1.8634
 7196TIP3   OH243002   3.041   0.444  10.546  0.0822 -0.1742 -0.8240
 7196TIP3    H143003   3.087   0.435  10.630 -0.3351 -3.4407 -0.7897
 7196TIP3    H243004   3.100   0.495  10.491  1.0782  0.7108  0.9696
 7197TIP3   OH243005   3.014   4.691  14.684  0.1205 -0.2883  0.1736
 7197TIP3    H143006   3.106   4.665  14.677  0.0272 -0.7164  0.4981
 7197TIP3    H243007   2.977   4.673  14.597  0.9273  2.2869 -0.8071
 7198TIP3   OH243008   0.665   0.382   0.923 -0.0590  0.0630 -0.3565
 7198TIP3    H143009   0.628   0.465   0.953 -0.3683 -0.9697  2.3893
 7198TIP3    H243010   0.615   0.360   0.845 -0.4855  2.0575 -0.6950
 7199TIP3   OH243011   0.111   3.194   0.446  0.0827  0.2419  0.7804
 7199TIP3    H143012   0.135   3.176   0.537  1.2835  0.2287  0.4684
 7199TIP3    H243013   0.124   3.110   0.400 -3.3306 -0.6382  1.0918
 7200TIP3   OH243014   4.995   0.981  15.432 -0.0898  0.5819  0.3158
 7200TIP3    H143015   4.925   1.001  15.370  0.4753 -0.1663 -0.5879
 7200TIP3    H243016   5.060   0.934  15.380 -0.0359 -0.9426  1.6861
 7201TIP3   OH243017   6.670   0.899  12.687 -0.4627  0.7013 -0.2690
 7201TIP3    H143018   6.745   0.840  12.699 -0.7630  0.3746  0.0105
 7201TIP3    H243019   6.704   0.967  12.629  0.0510  0.5533 -0.1563
 7202TIP3   OH243020   1.421   0.411  11.909 -0.6912 -0.3401  0.2287
 7202TIP3    H143021   1.401   0.433  12.000  0.1118  4.1336 -0.4127
 7202TIP3    H243022   1.496   0.352  11.913 -1.2469 -0.9577  2.4480
 7203TIP3   OH243023   6.648   5.696   5.294  0.3157  0.1268 -0.2535
 7203TIP3    H143024   6.555   5.698   5.318  0.6093  0.3071  0.9145
 7203TIP3    H243025   6.648   5.674   5.201 -0.9202  0.7185 -0.4122
 7204TIP3   OH243026   5.496   2.443  15.022 -0.2004  0.1762 -0.4957
 7204TIP3    H143027   5.438   2.519  15.021  2.4636  2.3580 -1.6904
 7204TIP3    H243028   5.498   2.417  15.114 -2.3507  0.5372 -0.2888
 7205TIP3   OH243029   4.789   4.682   3.391 -0.6229  0.0055 -0.2329
 7205TIP3    H143030   4.868   4.645   3.351 -0.5198 -0.0703  0.0377
 7205TIP3    H243031   4.729   4.608   3.396 -0.6882  0.0477 -0.3755
 7206TIP3   OH243032   3.274   3.040  15.835  0.3750 -0.3219  0.2540
 7206TIP3    H143033   3.320   3.059  15.917 -1.6071  0.4001  1.2664
 7206TIP3    H243034   3.328   2.974  15.792  2.3871  0.5435  1.2925
 7207TIP3   OH243035   0.892   2.336  14.441  0.0129  0.2708 -0.2979
 7207TIP3    H143036   0.984   2.355  14.422  0.0428  3.4601  2.2480
 7207TIP3    H243037   0.893   2.304  14.531 -1.3321 -0.5010 -0.5405
 7208TIP3   OH243038   4.779   5.265   5.760 -0.3214  0.3540 -0.0384
 7208TIP3    H143039   4.815   5.333   5.817 -0.1194 -0.3286  0.6653
 7208TIP3    H243040   4.706   5.307   5.715 -0.0900  1.0803  0.2512
 7209TIP3   OH243041   2.064   6.487   4.548  0.0957  0.2490  0.0358
 7209TIP3    H143042   2.006   6.557   4.519 -0.2597  0.3574  0.9729
 7209TIP3    H243043   2.107   6.457   4.468 -3.1725 -1.6636 -1.2417
 7210TIP3   OH243044   1.951   6.585   2.039 -0.3483  0.0579 -0.3513
 7210TIP3    H143045   1.958   6.680   2.037  0.9975 -0.0325 -1.6917
 7210TIP3    H243046   1.857   6.568   2.051 -0.6117  1.5444 -0.1327
 7211TIP3   OH243047   6.265   6.175  13.441 -0.5731  0.1190  0.3140
 7211TIP3    H143048   6.282   6.268  13.456 -0.7183  0.4334 -1.2727
 7211TIP3    H243049   6.246   6.139  13.528 -0.2548  1.5134  0.9784
 7212TIP3   OH243050   0.360   5.219  15.097  0.0118 -0.1001  0.1735
 7212TIP3    H143051   0.346   5.313  15.086 -1.6411 -0.3683 -0.3369
 7212TIP3    H243052   0.403   5.192  15.016  0.8929  0.2704  0.5040
 7213TIP3   OH243053   4.223   1.240  15.207  0.3441  0.1167 -0.6300
 7213TIP3    H143054   4.190   1.159  15.248  1.6723 -1.7241 -2.9369
 7213TIP3    H243055   4.186   1.238  15.119  0.9935  1.7035 -0.9640
 7214TIP3   OH243056   0.831   2.664   1.797 -0.0819 -0.1355 -0.6404
 7214TIP3    H143057   0.916   2.623   1.784 -0.3374 -1.3567  1.2553
 7214TIP3    H243058   0.776   2.595   1.834 -1.1539  1.3060  0.5766
 7215TIP3   OH243059   5.842   3.480  17.221 -0.4983  0.1231  0.3923
 7215TIP3    H143060   5.774   3.413  17.215 -1.2219  0.9240 -0.8175
 7215TIP3    H243061   5.824   3.539  17.147  1.3115  0.5494  0.2474
 7216TIP3   OH243062   6.450   4.977   3.122 -0.0491  0.0364  0.6312
 7216TIP3    H143063   6.383   5.007   3.061 -0.3175  0.3240  1.0643
 7216TIP3    H243064   6.496   5.057   3.148  1.2606 -0.2737 -0.5783
 7217TIP3   OH243065   6.367   0.187   1.471 -0.2003  0.0359 -0.1564
 7217TIP3    H143066   6.391   0.154   1.384  0.2078 -1.1919  0.3856
 7217TIP3    H243067   6.291   0.134   1.496 -0.9662  1.1083 -0.1947
 7218TIP3   OH243068   3.203   4.542   4.292 -0.4153 -0.1485 -0.6973
 7218TIP3    H143069   3.128   4.553   4.350 -0.6929 -1.2747 -0.8096
 7218TIP3    H243070   3.234   4.453   4.310  0.8250  0.2514 -0.7404
 7219TIP3   OH243071   3.961   2.453   3.023  0.0436  0.5149  0.2649
 7219TIP3    H143072   4.018   2.495   3.088  0.5938  0.2369 -0.0400
 7219TIP3    H243073   3.969   2.360   3.041 -0.0870  0.4583  0.0295
 7220TIP3   OH243074   0.195   1.177  11.968  0.2347 -0.6134 -0.3146
 7220TIP3    H143075   0.134   1.131  11.910 -1.0270 -0.0005  0.4728
 7220TIP3    H243076   0.139   1.233  12.021  1.7854  3.7524 -2.8172
 7221TIP3   OH243077   0.592   0.215  14.982 -0.3910  0.1150  0.2797
 7221TIP3    H143078   0.607   0.121  14.993  1.9610  0.3576 -0.2696
 7221TIP3    H243079   0.633   0.255  15.058 -2.4961  0.6838  1.1708
 7222TIP3   OH243080   4.453   3.436  12.236 -0.2964 -0.0426 -0.0621
 7222TIP3    H143081   4.440   3.512  12.292  0.3865 -0.4507  0.6706
 7222TIP3    H243082   4.401   3.454  12.157 -2.6452 -0.1696  1.3531
 7223TIP3   OH243083   1.885   6.083  14.802  0.5284 -0.4069  0.2363
 7223TIP3    H143084   1.863   6.078  14.709  0.0377 -1.2112  0.3834
 7223TIP3    H243085   1.875   6.176  14.824 -1.0742 -0.4657 -0.1193
 7224TIP3   OH243086   4.678   4.339  14.166  0.2377 -0.1504 -0.4284
 7224TIP3    H143087   4.739   4.362  14.096  0.9935  2.8041  1.0575
 7224TIP3    H243088   4.623   4.417  14.176 -1.9539 -1.6918  0.1886
 7225TIP3   OH243089   6.601   0.473   4.132 -0.2402  0.3936  0.0892
 7225TIP3    H143090   6.526   0.413   4.125 -0.1993  0.3498  0.0282
 7225TIP3    H243091   6.602   0.519   4.048 -0.2133  0.4114  0.0998
 7226TIP3   OH243092   2.580   4.698  11.751  0.2832  0.2620  0.4722
 7226TIP3    H143093   2.530   4.617  11.759 -0.4323  0.7518  1.0577
 7226TIP3    H243094   2.625   4.707  11.835  0.4425  0.4246  0.3696
 7227TIP3   OH243095   2.131   6.591  16.159  0.1965 -0.2836  0.1135
 7227TIP3    H143096   2.188   6.529  16.114 -1.5039 -0.5931 -1.7874
 7227TIP3    H243097   2.043   6.554  16.150 -1.0028  2.6084 -1.6819
 7228TIP3   OH243098   1.428   1.379   0.581 -0.8665 -0.1430  0.0336
 7228TIP3    H143099   1.429   1.393   0.676 -0.4533  1.8697 -0.2360
 7228TIP3    H243100   1.505   1.324   0.565  0.3756  1.3353  0.6531
 7229TIP3   OH243101   6.592   5.577   5.023 -0.4646 -0.1544  0.2920
 7229TIP3    H143102   6.618   5.485   5.026  0.5927  0.1040 -0.4303
 7229TIP3    H243103   6.521   5.580   4.959  1.4166 -0.0639 -1.9050
 7230TIP3   OH243104   0.579   1.894  15.884  0.5826  0.0159  0.2098
 7230TIP3    H143105   0.643   1.836  15.843 -0.1818 -0.1753 -0.7417
 7230TIP3    H243106   0.530   1.933  15.811 -0.0217  0.5849  0.8927
 7231TIP3   OH243107   4.017   3.976   1.805  0.3740 -0.2883 -0.0591
 7231TIP3    H143108   4.037   4.059   1.849 -0.7047 -0.2502  0.4061
 7231TIP3    H243109   4.074   3.912   1.848 -0.1891 -0.1311  0.9660
 7232TIP3   OH243110   3.982   0.708   4.832 -0.2417 -0.6283  0.6200
 7232TIP3    H143111   3.891   0.731   4.852 -0.6070 -0.2827 -1.3121
 7232TIP3    H243112   4.030   0.729   4.913 -1.3928  2.0515  0.7023
 7233TIP3   OH243113   1.254   5.508  11.170  0.4729 -0.0489  0.2667
 7233TIP3    H143114   1.242   5.448  11.096 -0.5606  1.1361 -0.5548
 7233TIP3    H243115   1.329   5.472  11.218  1.8020 -0.3109 -1.8894
 7234TIP3   OH243116   2.921   4.565   5.050  0.4407 -0.3594  0.1004
 7234TIP3    H143117   2.854   4.632   5.036  1.2028  0.4760  0.3267
 7234TIP3    H243118   2.885   4.509   5.118  0.0572  0.1958  0.3642
 7235TIP3   OH243119   4.892   2.224   4.298 -0.1380 -0.0549 -0.8573
 7235TIP3    H143120   4.874   2.232   4.391 -0.9221 -0.7593 -0.9334
 7235TIP3    H243121   4.986   2.239   4.290 -0.0125 -0.2706  0.0831
 7236TIP3   OH243122   5.949   5.223   2.780  0.2244 -0.2899 -0.3660
 7236TIP3    H143123   6.002   5.286   2.827 -0.4954 -0.4957  0.7543
 7236TIP3    H243124   5.927   5.267   2.697  0.1802  0.7039  0.1614
 7237TIP3   OH243125   2.682   0.132  15.648 -1.2191 -0.5569 -0.2392
 7237TIP3    H143126   2.655   0.212  15.691  2.3253  0.2871  0.7222
 7237TIP3    H243127   2.670   0.063  15.714  1.4677  0.2798  1.2887
 7238TIP3   OH243128   3.680   3.434  12.835 -0.3851  0.0489 -0.0147
 7238TIP3    H143129   3.598   3.480  12.820 -0.8681 -1.0051 -0.7564
 7238TIP3    H243130   3.684   3.421  12.929 -0.8115  0.5545  0.0792
 7239TIP3   OH243131   1.991   3.516   5.643 -0.1082  0.1178  0.2711
 7239TIP3    H143132   2.083   3.498   5.664 -0.0392 -0.9323 -0.8225
 7239TIP3    H243133   1.969   3.592   5.697  1.3584  0.3023  0.6669
 7240TIP3   OH243134   4.939   3.320   0.482 -0.0887  0.3207  0.4133
 7240TIP3    H143135   5.034   3.328   0.493 -0.1557 -0.8222  2.0011
 7240TIP3    H243136   4.903   3.394   0.532 -0.0632  0.8745 -0.3548
 7241TIP3   OH243137   3.611   5.034  16.488  0.3266  0.0517  0.0449
 7241TIP3    H143138   3.558   4.957  16.506 -0.1644  0.0141 -1.3659
 7241TIP3    H243139   3.604   5.046  16.393 -0.2536  2.2699  0.2915
 7242TIP3   OH243140   1.804   1.834   5.364 -0.2542  0.0047  0.4231
 7242TIP3    H143141   1.855   1.765   5.321  1.2763  0.7464  0.9818
 7242TIP3    H243142   1.824   1.913   5.314 -1.2163  0.2325  0.3868
 7243TIP3   OH243143   0.426   3.315   6.083  0.0954  0.1795  0.0710
 7243TIP3    H143144   0.381   3.268   6.013 -0.0571  0.0417  0.2624
 7243TIP3    H243145   0.512   3.274   6.088  0.1185  0.2123 -0.0592
 7244TIP3   OH243146   2.596   4.792  15.430 -0.8746 -0.1176 -0.6956
 7244TIP3    H143147   2.588   4.776  15.336  0.0151 -0.9987 -0.6477
 7244TIP3    H243148   2.515   4.836  15.454 -0.9338  0.5093 -1.9487
 7245TIP3   OH243149   4.217   2.657  10.695 -0.2048  0.4458 -0.9363
 7245TIP3    H143150   4.145   2.607  10.734  0.1389  0.0383 -0.8098
 7245TIP3    H243151   4.244   2.604  10.620  2.4304 -1.3952  1.1420
 7246TIP3   OH243152   1.840   0.902   5.635 -0.2050 -0.3876  0.0436
 7246TIP3    H143153   1.860   0.813   5.606  0.8055 -0.7187  1.6267
 7246TIP3    H243154   1.754   0.896   5.676  0.5265 -1.0111  1.5537
 7247TIP3   OH243155   1.519   3.676   4.483  0.0793  0.7502 -0.4425
 7247TIP3    H143156   1.472   3.615   4.540  0.0642  0.1104 -1.1318
 7247TIP3    H243157   1.546   3.747   4.541 -0.9626  0.6922  0.1355
 7248TIP3   OH243158   2.736   1.058   2.077 -0.3045 -0.1466 -0.6245
 7248TIP3    H143159   2.796   1.120   2.119 -1.6507 -0.4480  1.9739
 7248TIP3    H243160   2.678   1.114   2.024  0.2225  0.5058 -0.5261
 7249TIP3   OH243161   2.276   5.996  15.091  0.0573  0.2770  0.1408
 7249TIP3    H143162   2.371   5.986  15.089 -0.0241 -0.8732  0.8909
 7249TIP3    H243163   2.243   5.906  15.096 -1.0103  0.7023  1.3685
 7250TIP3   OH243164   3.535   1.815   1.999  0.0573  0.9092  0.5480
 7250TIP3    H143165   3.596   1.807   1.926 -1.1016  0.6063 -0.4102
 7250TIP3    H243166   3.583   1.778   2.074  0.3771 -1.0584 -0.5687
 7251TIP3   OH243167   6.129   4.126  16.138  0.2209  0.2316  0.2163
 7251TIP3    H143168   6.064   4.071  16.093 -0.2363  1.1825 -0.3128
 7251TIP3    H243169   6.079   4.172  16.205 -0.1458  2.5647 -1.5417
 7252TIP3   OH243170   0.909   3.538  13.865  0.4838 -0.1934  0.8757
 7252TIP3    H143171   0.822   3.544  13.827  1.1291  0.4591 -0.5789
 7252TIP3    H243172   0.933   3.629  13.884  1.1621 -0.2880  0.4986
 7253TIP3   OH243173   0.657   3.969  13.245 -0.3673  0.0869  0.5307
 7253TIP3    H143174   0.611   3.886  13.245  0.8970 -0.6417 -0.0493
 7253TIP3    H243175   0.599   4.029  13.199 -0.8969 -0.7047  0.1577
 7254TIP3   OH243176   3.740   2.251  11.813  0.3321 -0.4102  0.3378
 7254TIP3    H143177   3.682   2.260  11.889  0.6139 -2.7438  0.8925
 7254TIP3    H243178   3.773   2.161  11.818  2.8659  0.3708 -0.7894
 7255TIP3   OH243179   0.139   2.618   0.768 -0.0964 -0.0466  0.6669
 7255TIP3    H143180   0.137   2.652   0.857 -1.1029  1.9656 -0.0686
 7255TIP3    H243181   0.159   2.694   0.713  1.6465 -1.4460 -0.7682
 7256TIP3   OH243182   6.131   5.627  12.809  0.0204 -0.1014  0.1568
 7256TIP3    H143183   6.183   5.546  12.807 -2.4403 -1.7796 -1.6932
 7256TIP3    H243184   6.135   5.660  12.720  1.0340  1.9422  0.9071
 7257TIP3   OH243185   3.492   1.262  16.670  0.0181 -0.2884  0.1784
 7257TIP3    H143186   3.447   1.199  16.726  0.2963  0.8436  1.7615
 7257TIP3    H243187   3.447   1.345  16.686 -0.1869  0.0056 -1.6637
 7258TIP3   OH243188   5.490   3.883   4.617  0.1077  0.1323 -0.3132
 7258TIP3    H143189   5.573   3.845   4.588  1.2098  3.1364 -1.4109
 7258TIP3    H243190   5.428   3.860   4.548  0.8109  0.5458 -1.0947
 7259TIP3   OH243191   6.607   6.333  15.209 -0.0435  0.1443  0.1419
 7259TIP3    H143192   6.682   6.277  15.188  0.1873  0.0309  1.2257
 7259TIP3    H243193   6.641   6.422  15.198  0.9959  0.1698  2.8373
 7260TIP3   OH243194   6.348   0.261   2.774 -0.1316  0.2314 -0.6644
 7260TIP3    H143195   6.374   0.183   2.823  0.3605  0.8335  0.0495
 7260TIP3    H243196   6.307   0.318   2.839 -3.3678 -0.6712 -1.7108
 7261TIP3   OH243197   3.767   2.103   0.533  0.5815  0.2149 -0.3043
 7261TIP3    H143198   3.812   2.134   0.454 -0.5231 -0.9314 -1.4238
 7261TIP3    H243199   3.811   2.150   0.605  1.2985  1.6486 -1.6070
 7262TIP3   OH243200   0.135   5.606  14.423  0.5766  0.1690 -0.2029
 7262TIP3    H143201   0.112   5.523  14.466  0.7343  0.3773  0.2978
 7262TIP3    H243202   0.054   5.636  14.383  0.7162 -0.6510 -1.1223
 7263TIP3   OH243203   2.518   6.096  16.771 -0.7654  0.0025 -0.8200
 7263TIP3    H143204   2.581   6.073  16.840 -1.0662  1.5596  0.0092
 7263TIP3    H243205   2.566   6.080  16.689 -0.2792 -1.5231 -0.2738
 7264TIP3   OH243206   6.452   2.150   5.726 -0.7755  0.1032  0.0715
 7264TIP3    H143207   6.543   2.175   5.737 -0.0500 -1.2857 -2.2509
 7264TIP3    H243208   6.453   2.054   5.719 -2.3196  0.1031 -0.6522
 7265TIP3   OH243209   3.277   5.705   1.004  0.3686  0.3230  0.4358
 7265TIP3    H143210   3.239   5.753   1.077  0.0161 -0.8530  1.0602
 7265TIP3    H243211   3.321   5.772   0.951 -2.0060  1.6500  0.0262
 7266TIP3   OH243212   4.241   5.997   5.052  0.3619  0.4509  0.1141
 7266TIP3    H143213   4.169   5.989   4.990  1.4510  1.0965 -1.3097
 7266TIP3    H243214   4.200   6.012   5.136 -1.2546 -2.2187 -0.0750
 7267TIP3   OH243215   6.013   1.879  14.701  0.6717  0.6129 -0.0890
 7267TIP3    H143216   5.955   1.921  14.638  0.5099 -0.8078 -0.9332
 7267TIP3    H243217   6.101   1.906  14.674  0.5280  1.0656 -0.1112
 7268TIP3   OH243218   4.592   5.179  16.767  0.1456  0.5553 -0.2670
 7268TIP3    H143219   4.683   5.154  16.752  0.1640  0.7018 -0.4030
 7268TIP3    H243220   4.592   5.275  16.761  0.0130  0.5665 -0.0981
 7269TIP3   OH243221   4.786   6.284  12.457 -0.3102  1.2753 -0.2588
 7269TIP3    H143222   4.770   6.372  12.490 -1.2868  0.6017  1.1864
 7269TIP3    H243223   4.706   6.260  12.411 -0.3217  0.8961 -0.0497
 7270TIP3   OH243224   4.696   2.572  12.433 -0.1480  0.1574  0.8212
 7270TIP3    H143225   4.688   2.661  12.469  1.6263 -0.2297  2.2918
 7270TIP3    H243226   4.778   2.539  12.468 -0.4099 -1.8277 -0.2946
 7271TIP3   OH243227   0.209   3.908   3.047 -0.2886 -0.3686 -0.4407
 7271TIP3    H143228   0.211   3.993   3.003 -1.0721 -0.6987 -1.1589
 7271TIP3    H243229   0.295   3.869   3.028  0.9698  1.1260  1.7623
 7272TIP3   OH243230   0.286   0.820   1.852 -0.1351 -0.3294  0.6012
 7272TIP3    H143231   0.216   0.881   1.875 -0.6226  0.0880 -1.7404
 7272TIP3    H243232   0.243   0.735   1.847 -0.4476 -0.1165 -0.5651
 7273TIP3   OH243233   4.199   6.631  13.810  0.3864  0.0644 -0.2966
 7273TIP3    H143234   4.269   6.684  13.773  1.2504 -1.9895 -1.8388
 7273TIP3    H243235   4.121   6.684  13.801  1.4432  1.7248 -0.1653
 7274TIP3   OH243236   4.010   2.382  16.915 -0.4864 -0.0143  0.3027
 7274TIP3    H143237   3.992   2.468  16.875  2.0479 -0.2509 -1.5846
 7274TIP3    H243238   3.929   2.333  16.902 -0.7245  0.8678 -2.1428
 7275TIP3   OH243239   5.210   3.565  14.040  0.7904  0.0337 -0.4697
 7275TIP3    H143240   5.203   3.482  13.993  1.5170 -1.1782  1.4257
 7275TIP3    H243241   5.286   3.608  14.001 -0.6545  0.7104 -2.7002
 7276TIP3   OH243242   4.603   4.486   3.444  0.0423 -0.1455  0.4790
 7276TIP3    H143243   4.586   4.411   3.502 -0.0209 -0.3252  0.2269
 7276TIP3    H243244   4.521   4.497   3.395  0.5220 -0.8085 -0.5072
 7277TIP3   OH243245   0.219   6.044   2.625  0.0740 -0.0797  0.2217
 7277TIP3    H143246   0.240   6.134   2.650 -1.3352  0.5066 -0.5843
 7277TIP3    H243247   0.218   5.996   2.707  1.6991  0.4241  0.5811
 7278TIP3   OH243248   3.081   1.679  16.910  0.6206 -0.7785 -0.6697
 7278TIP3    H143249   3.016   1.725  16.963 -0.0354  0.1837 -2.2389
 7278TIP3    H243250   3.078   1.588  16.942 -1.6249 -0.8093 -0.7951
 7279TIP3   OH243251   6.658   4.646  17.238 -0.0843  0.3341 -0.4960
 7279TIP3    H143252   6.634   4.739  17.240  0.1438  0.4321 -1.6363
 7279TIP3    H243253   6.666   4.625  17.145 -1.7160 -1.2530 -0.3433
 7280TIP3   OH243254   1.420   0.449   5.995 -0.0630 -0.0115  0.5754
 7280TIP3    H143255   1.374   0.443   5.911 -0.8740 -1.9475  1.0942
 7280TIP3    H243256   1.512   0.461   5.971 -0.2922 -0.4668 -0.5955
 7281TIP3   OH243257   3.259   0.745   0.647 -0.6718 -0.2108 -0.4811
 7281TIP3    H143258   3.172   0.772   0.678  0.6880  3.1195  0.9462
 7281TIP3    H243259   3.305   0.718   0.727  0.1253 -0.2265 -0.9361
 7282TIP3   OH243260   5.520   3.343  13.784  0.3679  0.0142 -0.5523
 7282TIP3    H143261   5.516   3.248  13.776  2.2330 -0.2180  0.7337
 7282TIP3    H243262   5.448   3.375  13.729 -2.0677 -2.2163  1.0802
 7283TIP3   OH243263   5.172   3.363  12.059 -0.0194  0.4351 -0.0639
 7283TIP3    H143264   5.163   3.296  12.126  0.8229  0.4413  0.0630
 7283TIP3    H243265   5.169   3.446  12.106  3.6288  0.4464  0.4614
 7284TIP3   OH243266   0.854   3.518   4.569  0.4361  0.3263 -0.1720
 7284TIP3    H143267   0.933   3.538   4.620  0.4922 -1.8148  0.6906
 7284TIP3    H243268   0.790   3.489   4.634  0.2023 -1.5997 -1.1841
 7285TIP3   OH243269   5.393   4.617   5.741  0.3860  0.0137  0.4664
 7285TIP3    H143270   5.394   4.545   5.804  0.5264  0.3071  0.8029
 7285TIP3    H243271   5.474   4.664   5.757  0.3495  0.1800  0.1665
 7286TIP3   OH243272   3.351   0.424   3.081 -0.2525 -0.6315 -0.1259
 7286TIP3    H143273   3.320   0.379   3.003 -0.3145 -0.0917 -0.4228
 7286TIP3    H243274   3.271   0.447   3.128 -0.5417  2.4800 -1.8499
 7287TIP3   OH243275   2.301   6.112   3.604  0.0138 -0.4834 -0.1701
 7287TIP3    H143276   2.323   6.095   3.512  1.8299  0.1772  0.1055
 7287TIP3    H243277   2.328   6.033   3.650  1.4500  0.1379  0.1022
 7288TIP3   OH243278   5.666   5.290  11.328 -0.3880  0.3839 -0.5432
 7288TIP3    H143279   5.597   5.254  11.384 -1.3947  1.5639 -0.9953
 7288TIP3    H243280   5.672   5.228  11.255  1.6570 -1.7556  1.2651
 7289TIP3   OH243281   3.224   0.362  11.405  0.2272 -0.3858  0.6181
 7289TIP3    H143282   3.300   0.412  11.376 -1.1694  1.3238 -0.2649
 7289TIP3    H243283   3.204   0.303  11.333  0.5312 -0.6203  0.7260
 7290TIP3   OH243284   2.177   6.421  14.005 -0.3020 -0.0787  0.6702
 7290TIP3    H143285   2.179   6.326  13.994 -0.1825 -0.1020  0.8724
 7290TIP3    H243286   2.200   6.455  13.919  1.4204 -0.2663  1.0023
 7291TIP3   OH243287   3.053   6.224   3.471  0.4782 -0.7148  0.1620
 7291TIP3    H143288   3.025   6.289   3.535  0.2885  0.3793 -0.9822
 7291TIP3    H243289   3.125   6.178   3.513 -0.6618 -1.1201  1.7558
 7292TIP3   OH243290   5.179   6.147  17.282 -0.7010  0.5588  0.6178
 7292TIP3    H143291   5.205   6.104  17.201  1.0701 -1.1570  2.0041
 7292TIP3    H243292   5.196   6.240  17.266 -1.2723  0.3883 -1.2445
 7293TIP3   OH243293   0.594   0.955   5.062 -0.3432 -0.1959  0.2991
 7293TIP3    H143294   0.529   1.023   5.040 -1.8260 -1.5731  0.2036
 7293TIP3    H243295   0.667   1.004   5.100 -0.8162  1.5675 -0.8970
 7294TIP3   OH243296   6.009   6.044   0.682  0.0500  0.2929 -0.2422
 7294TIP3    H143297   6.038   6.112   0.742  0.4353 -0.6962  0.7185
 7294TIP3    H243298   6.079   5.979   0.683 -1.1591 -1.0496  0.3728
 7295TIP3   OH243299   6.382   0.013   0.412  0.1753  0.3444 -0.3877
 7295TIP3    H143300   6.410  -0.038   0.336 -1.9666  0.8844 -1.6289
 7295TIP3    H243301   6.287   0.014   0.406  0.0215  1.7775  1.4112
 7296TIP3   OH243302   2.677   0.383   5.191 -0.1511  0.1339  0.1084
 7296TIP3    H143303   2.646   0.410   5.277 -0.7027 -1.6467  0.5065
 7296TIP3    H243304   2.706   0.292   5.202  1.4144  0.4047 -1.1967
 7297TIP3   OH243305   3.334   6.164   3.363 -0.3158  0.1345 -0.7685
 7297TIP3    H143306   3.285   6.223   3.305  0.5865  0.9932 -0.6807
 7297TIP3    H243307   3.351   6.217   3.441 -0.0453 -0.4610 -0.4235
 7298TIP3   OH243308   2.380   3.023  13.598 -0.3122  0.3105 -0.2043
 7298TIP3    H143309   2.329   3.018  13.517 -0.7217 -2.6007  0.1356
 7298TIP3    H243310   2.467   3.050  13.569 -0.3975 -0.8607 -1.6936
 7299TIP3   OH243311   4.504   3.979  14.985  0.9814  0.5557 -0.1532
 7299TIP3    H143312   4.434   3.954  15.046  1.8358 -0.4600  0.4585
 7299TIP3    H243313   4.536   3.895  14.952  1.6405  1.0344 -0.7333
 7300TIP3   OH243314   5.595   1.182   2.055 -0.1456 -0.3092 -0.1576
 7300TIP3    H143315   5.618   1.275   2.053  0.2807 -0.3801  0.9328
 7300TIP3    H243316   5.618   1.153   2.143 -2.3900 -0.9013  0.3004
 7301TIP3   OH243317   6.653   0.054   3.898  0.2122 -0.1232  0.7202
 7301TIP3    H143318   6.598   0.130   3.881  0.4226 -0.0008  0.5954
 7301TIP3    H243319   6.720   0.085   3.958  0.2183 -0.2427  0.7753
 7302TIP3   OH243320   4.187   2.113  14.709  0.7941 -0.3061  0.4675
 7302TIP3    H143321   4.201   2.116  14.615  1.4435  0.4348  0.5737
 7302TIP3    H243322   4.272   2.089  14.746  0.4544 -0.9627  0.8506
 7303TIP3   OH243323   6.087   3.487  14.291 -0.5949 -0.5410  0.2736
 7303TIP3    H143324   6.176   3.519  14.302 -0.3279 -1.6479  1.5152
 7303TIP3    H243325   6.048   3.491  14.378 -2.5728  2.1091 -0.5836
 7304TIP3   OH243326   5.736   3.551   2.576  0.2157  0.5150 -0.3372
 7304TIP3    H143327   5.725   3.636   2.534  0.5779  0.2258 -1.0263
 7304TIP3    H243328   5.651   3.508   2.567  0.3460  0.3749 -0.9675
 7305TIP3   OH243329   0.873   0.395  15.424 -0.3336 -0.3278  0.0725
 7305TIP3    H143330   0.925   0.430  15.352 -0.5256 -0.5262 -0.1620
 7305TIP3    H243331   0.919   0.424  15.503 -1.0671  1.3662 -0.0740
 7306TIP3   OH243332   6.620   6.142  16.773  0.0172 -0.2775  0.1720
 7306TIP3    H143333   6.624   6.175  16.863 -3.2316  0.9039  0.0255
 7306TIP3    H243334   6.658   6.213  16.720 -0.7680  0.3384  0.4110
 7307TIP3   OH243335   5.553   0.270  12.717 -0.1204  0.3058 -0.0226
 7307TIP3    H143336   5.547   0.342  12.654 -2.9363 -0.1427 -0.3871
 7307TIP3    H243337   5.595   0.200  12.668  2.0133  1.4019  0.1189
 7308TIP3   OH243338   6.648   6.480   1.938  0.6440  0.4931 -0.1363
 7308TIP3    H143339   6.595   6.515   1.866 -1.3099 -0.5856  0.7068
 7308TIP3    H243340   6.614   6.392   1.952  2.3140 -0.0328  0.8420
 7309TIP3   OH243341   2.353   4.350  13.425  0.3228  0.2833 -0.0586
 7309TIP3    H143342   2.381   4.414  13.359  0.5349  0.1525 -0.0970
 7309TIP3    H243343   2.323   4.402  13.499  0.0225  0.4316 -0.2877
 7310TIP3   OH243344   6.251   5.181  13.772  0.6431 -0.0312 -0.1986
 7310TIP3    H143345   6.251   5.211  13.863 -1.6187 -2.6202  0.8078
 7310TIP3    H243346   6.158   5.182  13.747  0.8805 -2.2566 -1.3766
 7311TIP3   OH243347   5.893   5.866  13.400 -0.4617  0.2441 -0.0117
 7311TIP3    H143348   5.812   5.816  13.392  0.6165 -1.5505 -0.1995
 7311TIP3    H243349   5.886   5.909  13.486 -1.2944 -0.4864  0.2991
 7312TIP3   OH243350   0.967   4.989   5.924  0.4728  0.2068  0.2761
 7312TIP3    H143351   1.019   4.911   5.941  1.6572  0.7512 -0.6869
 7312TIP3    H243352   1.011   5.032   5.850 -0.9449  1.0623 -0.1160
 7313TIP3   OH243353   3.807   4.905   2.685 -0.0628 -0.5260  0.3622
 7313TIP3    H143354   3.890   4.913   2.638 -1.8517 -1.4610 -3.3225
 7313TIP3    H243355   3.768   4.993   2.681  0.3699 -0.2584  1.4811
 7314TIP3   OH243356   0.500   5.989   3.612 -0.1770  0.1596  0.5915
 7314TIP3    H143357   0.427   6.044   3.583 -0.1454  0.0952  0.3859
 7314TIP3    H243358   0.508   5.922   3.544  1.5365  1.4872 -0.6345
 7315TIP3   OH243359   5.573   1.093  16.069  0.0094 -0.3808 -0.6357
 7315TIP3    H143360   5.542   1.061  15.984 -0.5156 -1.0049 -0.2239
 7315TIP3    H243361   5.618   1.019  16.107  0.3764 -0.0517 -0.4309
 7316TIP3   OH243362   0.472   3.936   1.869  0.0532  0.1861  0.4981
 7316TIP3    H143363   0.531   3.954   1.942  0.3543 -1.2920  0.6367
 7316TIP3    H243364   0.397   3.994   1.884  1.9154  3.0400 -0.3453
 7317TIP3   OH243365   5.460   2.606  16.479  0.8045 -0.1398 -0.4472
 7317TIP3    H143366   5.449   2.532  16.420  0.3463 -0.7724  0.4081
 7317TIP3    H243367   5.518   2.573  16.548  0.4099  0.2179  0.0663
 7318TIP3   OH243368   3.448   6.688   1.051 -0.1753  0.4132 -0.5765
 7318TIP3    H143369   3.463   6.599   1.082 -3.2976 -0.1674 -0.4505
 7318TIP3    H243370   3.533   6.716   1.018  1.0999 -2.2927  0.1307
 7319TIP3   OH243371   2.516   2.959  13.087 -0.2404  0.4348  0.5149
 7319TIP3    H143372   2.589   2.905  13.116 -2.1206 -0.9677  3.0510
 7319TIP3    H243373   2.457   2.963  13.163 -2.3638  2.2578 -1.0777
 7320TIP3   OH243374   0.655   5.271  14.403  0.5066  0.2431 -0.1227
 7320TIP3    H143375   0.630   5.205  14.467  0.6287  0.3075 -0.0082
 7320TIP3    H243376   0.612   5.351  14.433 -0.8194 -0.0969 -1.0516
 7321TIP3   OH243377   1.169   3.094  13.470  0.3426 -0.2510 -0.0398
 7321TIP3    H143378   1.203   3.018  13.517 -0.2211  0.1025  0.9706
 7321TIP3    H243379   1.246   3.150  13.457  0.6966 -0.8252 -0.4985
 7322TIP3   OH243380   4.409   4.756  11.079  0.0029 -0.0930  0.1525
 7322TIP3    H143381   4.479   4.694  11.057 -0.9449 -0.9645 -0.4987
 7322TIP3    H243382   4.387   4.735  11.170 -0.2004 -0.6150 -0.0114
 7323TIP3   OH243383   2.872   1.335  16.917  0.2268 -0.3027 -0.1297
 7323TIP3    H143384   2.954   1.381  16.899  1.1232 -0.8492  2.2865
 7323TIP3    H243385   2.855   1.350  17.010 -1.8570 -1.1106 -0.3225
 7324TIP3   OH243386   5.677   5.501  16.732 -0.0701 -0.0192  0.4072
 7324TIP3    H143387   5.665   5.406  16.727  0.7407 -0.1238  0.3328
 7324TIP3    H243388   5.757   5.512  16.782  0.5327  0.5846 -0.6663
 7325TIP3   OH243389   5.800   4.781  13.827 -0.2063 -0.6587 -0.1569
 7325TIP3    H143390   5.839   4.695  13.844 -0.7416 -0.8129  0.2894
 7325TIP3    H243391   5.760   4.772  13.740  0.6986 -0.5103 -0.6059
 7326TIP3   OH243392   4.851   0.731   2.631  0.0728  0.0612  0.1496
 7326TIP3    H143393   4.922   0.702   2.574  0.7228  0.2647  0.8421
 7326TIP3    H243394   4.814   0.650   2.666 -0.3285 -0.0638 -0.5475
 7327TIP3   OH243395   2.287   2.904   3.236  0.0561 -0.3443  0.3093
 7327TIP3    H143396   2.199   2.871   3.251 -0.0634  0.6050  1.8481
 7327TIP3    H243397   2.344   2.842   3.281  0.2070 -0.9621 -0.6906
 7328TIP3   OH243398   2.732   0.935  14.665 -0.5081 -0.2043  0.0505
 7328TIP3    H143399   2.821   0.970  14.662  0.0356 -1.4127  1.0976
 7328TIP3    H243400   2.690   0.980  14.738 -0.2259 -0.7625  0.5687
 7329TIP3   OH243401   5.446   5.647   5.890  0.0263  0.3663 -0.2271
 7329TIP3    H143402   5.525   5.601   5.917  0.5377  1.9848  1.2067
 7329TIP3    H243403   5.475   5.708   5.823  0.0689  1.1373  0.4767
 7330TIP3   OH243404   4.936   1.642  15.186 -0.3778  0.4924  0.0141
 7330TIP3    H143405   4.964   1.603  15.103 -0.9095 -0.8478  0.4306
 7330TIP3    H243406   4.840   1.645  15.180 -0.9350 -3.8688  2.2002
 7331TIP3   OH243407   6.267   1.067   2.119  0.1406  0.5413 -0.0509
 7331TIP3    H143408   6.173   1.080   2.132  0.2169  2.5869 -1.1946
 7331TIP3    H243409   6.272   1.017   2.037  0.0329 -2.4946  1.6348
 7332TIP3   OH243410   6.548   5.115  12.454  0.6873  0.4775  0.3859
 7332TIP3    H143411   6.477   5.166  12.415 -0.9240  0.4749  3.0363
 7332TIP3    H243412   6.606   5.180  12.493  1.1713  0.4104 -0.2071
 7333TIP3   OH243413   0.147   1.535   5.837  0.0366  0.5566  0.2543
 7333TIP3    H143414   0.137   1.440   5.845 -1.3179  0.6203 -0.4185
 7333TIP3    H243415   0.242   1.549   5.836  0.2620 -0.7423  0.7600
 7334TIP3   OH243416   5.927   4.209  16.367 -0.3206  0.1794 -0.4327
 7334TIP3    H143417   5.871   4.217  16.445 -1.0207  1.4870 -1.0296
 7334TIP3    H243418   5.870   4.234  16.294 -0.4167 -3.3467 -1.7568
 7335TIP3   OH243419   5.482   2.196  12.570  0.1787 -0.5969  0.1860
 7335TIP3    H143420   5.402   2.145  12.560  0.0318 -0.0459 -1.8658
 7335TIP3    H243421   5.545   2.156  12.510  0.4028  0.8874 -0.6352
 7336TIP3   OH243422   3.090   5.475   4.321  0.6881 -0.0523 -0.7745
 7336TIP3    H143423   3.091   5.439   4.410 -0.1144  0.5810 -0.4942
 7336TIP3    H243424   3.082   5.398   4.264 -1.3594 -0.3377 -0.1742
 7337TIP3   OH243425   2.983   3.288   4.066 -0.0565 -0.6499  0.1399
 7337TIP3    H143426   3.037   3.264   4.142  0.0129  1.4814  0.8455
 7337TIP3    H243427   2.901   3.319   4.105 -0.3639 -0.3902 -0.7047
 7338TIP3   OH243428   6.105   6.125   2.463 -0.0844  0.1104 -0.0612
 7338TIP3    H143429   6.176   6.061   2.451 -0.4173 -0.3584  0.4153
 7338TIP3    H243430   6.125   6.167   2.547  0.7922  1.5043 -0.9243
 7339TIP3   OH243431   1.966   5.703  12.937  0.4671  0.0839 -0.3698
 7339TIP3    H143432   1.920   5.705  12.853  0.2374  1.0529 -0.2253
 7339TIP3    H243433   1.986   5.794  12.956  1.8256 -0.2510 -0.0780
 7340TIP3   OH243434   6.395   0.823  16.571 -0.1894 -0.2096 -0.3571
 7340TIP3    H143435   6.327   0.785  16.516 -0.6324 -2.4322  1.5844
 7340TIP3    H243436   6.475   0.814  16.518 -0.8399 -0.7637 -1.2938
 7341TIP3   OH243437   4.854   3.244  11.563 -0.3325 -0.3622 -0.6868
 7341TIP3    H143438   4.848   3.307  11.491  0.1444 -0.0828 -0.4800
 7341TIP3    H243439   4.814   3.164  11.527 -0.4696 -0.1036 -1.1235
 7342TIP3   OH243440   2.384   4.970  16.400  0.7461  0.7809  0.1323
 7342TIP3    H143441   2.435   4.889  16.396 -1.0538 -0.4675  0.9544
 7342TIP3    H243442   2.409   5.018  16.322  2.5073 -0.1598  0.0660
 7343TIP3   OH243443   4.119   5.062  13.460  0.3041 -0.3734  0.2884
 7343TIP3    H143444   4.072   5.132  13.505 -1.1214 -0.6516 -0.7187
 7343TIP3    H243445   4.082   4.981  13.497 -0.3065 -0.5994 -0.7942
 7344TIP3   OH243446   5.662   3.897  16.227  0.0256 -0.6747 -0.2377
 7344TIP3    H143447   5.627   3.826  16.172  1.3410 -1.8400  0.3744
 7344TIP3    H243448   5.700   3.852  16.303  0.4609  0.7302  0.3986
 7345TIP3   OH243449   5.765   5.799   0.765  0.2010  0.3016  0.4723
 7345TIP3    H143450   5.713   5.763   0.837  0.0989  0.4402  0.4678
 7345TIP3    H243451   5.840   5.740   0.759 -0.4961 -0.5535 -0.2345
 7346TIP3   OH243452   2.733   5.741  12.038 -0.0339 -0.2043  0.3584
 7346TIP3    H143453   2.770   5.804  11.976 -0.0872  0.1567  0.6934
 7346TIP3    H243454   2.806   5.682  12.058  0.1079 -0.0489  0.3019
 7347TIP3   OH243455   6.451   5.778  15.697 -0.1834  0.2264  0.3916
 7347TIP3    H143456   6.453   5.698  15.749 -0.1620 -0.1832 -0.2382
 7347TIP3    H243457   6.516   5.764  15.628 -1.0308  0.2940 -0.4364
 7348TIP3   OH243458   2.575   3.135   5.529  0.2721 -0.6392  0.0211
 7348TIP3    H143459   2.537   3.103   5.611  0.7980  0.0042  0.5249
 7348TIP3    H243460   2.587   3.057   5.476 -1.3350 -0.9157  0.0194
 7349TIP3   OH243461   3.853   0.513  15.083 -0.1048 -0.8293 -0.3009
 7349TIP3    H143462   3.794   0.523  15.008 -2.1508 -0.4349  1.2701
 7349TIP3    H243463   3.795   0.495  15.157  1.7343 -0.0025  1.4338
 7350TIP3   OH243464   1.967   4.405  11.275  0.2900  0.3867 -0.3175
 7350TIP3    H143465   1.876   4.416  11.248  0.0002 -0.1780  0.3741
 7350TIP3    H243466   2.015   4.473  11.228 -0.6499  1.3891  0.1462
 7351TIP3   OH243467   2.292   3.944   3.302 -0.3933 -0.5146 -0.5564
 7351TIP3    H143468   2.307   4.030   3.342  0.2329 -0.5433 -0.7176
 7351TIP3    H243469   2.201   3.923   3.323 -0.3115 -0.1665  0.1588
 7352TIP3   OH243470   0.969   5.174  11.332  0.7029 -0.7858 -0.6941
 7352TIP3    H143471   0.948   5.108  11.399  0.7875  0.1972  0.3483
 7352TIP3    H243472   1.005   5.247  11.382  1.2066 -0.1959 -1.8877
 7353TIP3   OH243473   5.371   0.918  11.793 -0.5601 -0.3218 -0.0818
 7353TIP3    H143474   5.409   1.005  11.806 -2.1948  0.3752  0.2516
 7353TIP3    H243475   5.439   0.868  11.748  1.1754  0.5050  1.4877
 7354TIP3   OH243476   3.777   1.280  13.117  0.0244 -0.6998 -0.3345
 7354TIP3    H143477   3.817   1.230  13.188 -1.1052  1.0368  1.6554
 7354TIP3    H243478   3.683   1.276  13.136 -0.2640  0.2145 -1.4581
 7355TIP3   OH243479   0.389   6.325  15.460  0.1972 -0.6878  0.2466
 7355TIP3    H143480   0.476   6.360  15.480  0.6230 -0.9129 -1.1093
 7355TIP3    H243481   0.329   6.397  15.480  0.8433  0.0189 -0.2918
 7356TIP3   OH243482   0.019   2.285  12.166 -0.1659 -0.2444 -0.0953
 7356TIP3    H143483  -0.058   2.336  12.141 -0.4102  1.5033  3.5771
 7356TIP3    H243484  -0.016   2.199  12.190 -0.7093 -0.0309 -0.1139
 7357TIP3   OH243485   6.314   6.001  15.809 -0.2329 -0.6507 -0.2461
 7357TIP3    H143486   6.343   5.923  15.762  2.2712 -0.2728  0.5535
 7357TIP3    H243487   6.301   6.067  15.740  1.3981 -0.7053 -0.6563
 7358TIP3   OH243488   2.765   2.040   5.477 -0.9064  0.5873  0.2830
 7358TIP3    H143489   2.767   2.110   5.412 -2.1537  0.7635  0.4186
 7358TIP3    H243490   2.679   2.047   5.518 -0.8592 -0.7032  0.6523
 7359TIP3   OH243491   6.052   4.669   2.625 -0.1929  0.2986 -0.3270
 7359TIP3    H143492   6.145   4.653   2.608 -0.5798  0.2841 -2.7436
 7359TIP3    H243493   6.036   4.757   2.592 -0.9725  0.4549  0.4342
 7360TIP3   OH243494   0.222   0.952   0.161  0.0181  0.4663 -0.3566
 7360TIP3    H143495   0.269   1.025   0.119 -1.3789  0.5995 -1.7779
 7360TIP3    H243496   0.152   0.993   0.211 -1.0515  0.1126 -1.5218
 7361TIP3   OH243497   3.219   3.873   3.010 -0.8205  0.5986  0.3000
 7361TIP3    H143498   3.234   3.878   2.916 -1.0115 -0.7618  0.1745
 7361TIP3    H243499   3.228   3.780   3.031  1.4862  1.1139  2.0295
 7362TIP3   OH243500   5.356   5.114  13.845 -0.0983 -0.2830 -0.7396
 7362TIP3    H143501   5.317   5.089  13.761  1.7373 -0.1530 -1.6875
 7362TIP3    H243502   5.444   5.078  13.842 -0.1090 -0.5914  1.3209
 7363TIP3   OH243503   1.922   3.087  13.540  0.1259 -0.3794 -0.4892
 7363TIP3    H143504   1.978   3.070  13.464  0.7595  1.9987 -0.6278
 7363TIP3    H243505   1.892   3.000  13.567  1.7330 -1.4987 -2.0387
 7364TIP3   OH243506   2.401   2.881  14.280  0.3655  0.2372  0.4244
 7364TIP3    H143507   2.372   2.937  14.208  1.0192  0.8693  0.6464
 7364TIP3    H243508   2.436   2.941  14.345 -1.2656 -0.2229  1.7982
 7365TIP3   OH243509   2.324   3.016  16.629  0.3685  0.4189 -0.3444
 7365TIP3    H143510   2.317   3.111  16.643 -1.1961 -0.0031  2.3058
 7365TIP3    H243511   2.380   2.985  16.700  0.7300 -0.6938 -1.0893
 7366TIP3   OH243512   1.279   4.425  13.962  0.0644  0.4247 -0.1681
 7366TIP3    H143513   1.260   4.332  13.964  1.0402  0.2154 -0.0409
 7366TIP3    H243514   1.348   4.434  13.896  0.3305  0.9766  0.1761
 7367TIP3   OH243515   0.783   3.635   1.633  0.4458 -0.1643  1.1535
 7367TIP3    H143516   0.703   3.666   1.675 -0.5714 -1.5059  0.2806
 7367TIP3    H243517   0.842   3.614   1.706 -0.6219 -0.7657  1.8618
 7368TIP3   OH243518   0.813   1.137  12.579 -0.6809  0.7608 -0.3218
 7368TIP3    H143519   0.726   1.104  12.560 -0.2953 -0.7122  0.3114
 7368TIP3    H243520   0.850   1.159  12.493 -1.1908  0.1065 -0.7185
 7369TIP3   OH243521   3.016   2.128  12.762 -0.0488 -0.5800 -0.0293
 7369TIP3    H143522   2.990   2.220  12.763  0.9384 -0.2827  0.9928
 7369TIP3    H243523   2.943   2.082  12.803  0.0425 -0.0600  0.7371
 7370TIP3   OH243524   3.142   5.741  12.954 -0.5011  0.0401  0.4223
 7370TIP3    H143525   3.129   5.830  12.921  0.1487 -0.7090 -2.0530
 7370TIP3    H243526   3.070   5.690  12.916 -0.6426 -0.5925  1.4917
 7371TIP3   OH243527   4.414   3.340   6.383  0.4493 -0.0013 -0.8742
 7371TIP3    H143528   4.350   3.275   6.412  0.0452  0.2676 -1.1529
 7371TIP3    H243529   4.493   3.319   6.433  0.4591 -0.9750 -1.2766
 7372TIP3   OH243530   1.141   6.287   4.921 -0.8725 -0.2429  0.2171
 7372TIP3    H143531   1.123   6.220   4.987 -1.8169 -2.1596 -1.8529
 7372TIP3    H243532   1.057   6.301   4.878 -0.1572  0.4946 -0.9866
 7373TIP3   OH243533   4.355   5.452  16.916 -0.0076 -0.6823  0.4102
 7373TIP3    H143534   4.286   5.421  16.973 -0.7598 -0.5263 -0.3829
 7373TIP3    H243535   4.349   5.397  16.838  0.7288 -0.6274  0.3017
 7374TIP3   OH243536   0.281   0.648   0.533 -0.4395  0.3891  0.0811
 7374TIP3    H143537   0.372   0.673   0.545 -0.5983  1.5678 -0.9346
 7374TIP3    H243538   0.248   0.631   0.621  1.4541 -2.7737  0.3232
 7375TIP3   OH243539   0.716   2.849  12.703  0.1932 -0.2430  0.0563
 7375TIP3    H143540   0.736   2.928  12.753  1.3209 -0.5481  0.1189
 7375TIP3    H243541   0.739   2.777  12.762 -0.5456 -0.6274 -0.1067
 7376TIP3   OH243542   6.320   5.086   3.969 -0.1319 -0.0626  0.7206
 7376TIP3    H143543   6.406   5.122   3.947 -1.4624  4.0699  1.2435
 7376TIP3    H243544   6.275   5.077   3.885  0.0987 -0.0472  0.5958
 7377TIP3   OH243545   6.233   4.052   3.537  0.0693 -0.3662  0.3266
 7377TIP3    H143546   6.172   4.117   3.573 -0.2776 -0.9343  0.7842
 7377TIP3    H243547   6.318   4.079   3.571  0.1258  0.5901 -0.5409
 7378TIP3   OH243548   3.177   6.084   0.813  0.3483  0.4626 -0.2269
 7378TIP3    H143549   3.217   6.165   0.781  1.2088 -0.1907 -0.8662
 7378TIP3    H243550   3.246   6.018   0.803 -0.5922 -0.5167 -0.4721
 7379TIP3   OH243551   3.630   5.610   0.047 -0.2119 -0.3515 -0.1213
 7379TIP3    H143552   3.667   5.551   0.112 -0.6388 -0.6772 -0.1660
 7379TIP3    H243553   3.536   5.613   0.067 -0.3478 -0.4462 -0.7022
 7380TIP3   OH243554   5.262   4.627   0.875  0.3277  0.4077 -0.0623
 7380TIP3    H143555   5.312   4.708   0.863  0.5880  0.2357 -0.1370
 7380TIP3    H243556   5.171   4.654   0.864  0.1897  1.1695  2.2928
 7381TIP3   OH243557   5.968   0.917   0.148  0.0246  0.0060  0.3081
 7381TIP3    H143558   6.030   0.962   0.091 -0.5204 -0.6633 -0.8553
 7381TIP3    H243559   5.896   0.892   0.089 -1.7124  1.3777  1.7043
 7382TIP3   OH243560   2.594   3.497   4.247 -0.1151 -0.7456  0.4324
 7382TIP3    H143561   2.535   3.540   4.308 -0.7521  0.5004 -0.9858
 7382TIP3    H243562   2.545   3.419   4.219 -0.6084 -0.3473  0.1564
 7383TIP3   OH243563   3.263   0.763   4.399 -0.0957  0.6611  1.0790
 7383TIP3    H143564   3.314   0.690   4.364 -0.7473  1.2607 -1.3403
 7383TIP3    H243565   3.187   0.722   4.440  0.7000 -0.0946  1.8274
 7384TIP3   OH243566   3.429   4.844   4.547  0.1159 -0.5439  0.1584
 7384TIP3    H143567   3.470   4.772   4.499  3.5188  0.8187  0.6750
 7384TIP3    H243568   3.421   4.812   4.636  0.3076 -0.7626  0.0989
 7385TIP3   OH243569   5.888   0.967  15.576  0.6504 -0.0363 -0.2518
 7385TIP3    H143570   5.858   1.043  15.526  1.4428 -1.2226 -2.7165
 7385TIP3    H243571   5.962   0.999  15.627 -0.2371  1.2562  0.2622
 7386TIP3   OH243572   6.692   0.251  16.087 -0.8642 -0.3377 -0.0314
 7386TIP3    H143573   6.710   0.174  16.033 -1.9746 -0.2620 -0.5471
 7386TIP3    H243574   6.742   0.237  16.167  0.6321 -0.5677 -0.9816
 7387TIP3   OH243575   4.431   0.809   2.522 -0.5291 -0.0769  0.1916
 7387TIP3    H143576   4.423   0.767   2.437  0.6308 -0.4949  0.2805
 7387TIP3    H243577   4.515   0.855   2.520 -1.0440  0.9430  0.6739
 7388TIP3   OH243578   4.206   4.295  12.791  0.1611  0.2554  0.1205
 7388TIP3    H143579   4.208   4.247  12.874 -0.4861 -0.0992 -0.0589
 7388TIP3    H243580   4.250   4.378  12.810 -0.5668  0.4528  0.9853
 7389TIP3   OH243581   6.478   4.137  13.066 -0.1219 -0.3914 -0.2316
 7389TIP3    H143582   6.436   4.194  13.131 -2.9673 -1.3120 -1.1413
 7389TIP3    H243583   6.461   4.180  12.982 -0.7370 -1.6296 -0.7627
 7390TIP3   OH243584   5.598   1.615  14.097  0.1235  0.4034 -0.4060
 7390TIP3    H143585   5.590   1.563  14.177 -1.1924  0.2732 -0.6139
 7390TIP3    H243586   5.692   1.634  14.091  1.0870 -3.5662 -1.3125
 7391TIP3   OH243587   0.161   5.583  12.172  0.4808  0.1771 -0.1303
 7391TIP3    H143588   0.109   5.524  12.227  0.3670  0.8598  0.5098
 7391TIP3    H243589   0.098   5.644  12.136  0.3955 -0.9026 -1.9023
 7392TIP3   OH243590   5.863   0.340   4.972 -0.2213 -0.4662  0.3845
 7392TIP3    H143591   5.780   0.320   4.929  0.0117 -0.6525  0.0201
 7392TIP3    H243592   5.866   0.436   4.975 -0.2488 -0.4514  0.0067
 7393TIP3   OH243593   4.952   2.638   1.488  0.0562  0.0549  0.3700
 7393TIP3    H143594   4.881   2.684   1.533  0.7179 -0.1101  1.6152
 7393TIP3    H243595   4.931   2.546   1.498 -0.6985  0.0240 -1.1925
 7394TIP3   OH243596   0.169   3.964   1.628  0.6561  0.5272 -0.2900
 7394TIP3    H143597   0.195   4.054   1.647  0.3785  0.0764  2.5773
 7394TIP3    H243598   0.251   3.915   1.624  0.6912  0.2545  2.2625
 7395TIP3   OH243599   2.074   1.703  16.993 -0.6599 -0.0436  0.4772
 7395TIP3    H143600   2.009   1.639  17.022  0.2498 -0.4684  1.6894
 7395TIP3    H243601   2.129   1.656  16.930  1.5119 -1.3498  3.1365
 7396TIP3   OH243602   3.037   0.731  16.026 -0.0680 -0.0716  0.6910
 7396TIP3    H143603   3.035   0.685  15.943 -1.0061 -1.2749  1.3620
 7396TIP3    H243604   3.073   0.668  16.088 -0.8679  0.2708  1.5218
 7397TIP3   OH243605   1.956   0.013   4.740  0.7752 -0.2801 -0.0249
 7397TIP3    H143606   2.042  -0.029   4.743  1.4363  1.0500  0.1285
 7397TIP3    H243607   1.903  -0.047   4.687  2.1652 -0.4580 -1.2901
 7398TIP3   OH243608   1.388   4.913  15.141  0.0796 -0.1700  0.1330
 7398TIP3    H143609   1.428   4.884  15.223 -0.5814 -2.8830 -0.3921
 7398TIP3    H243610   1.458   4.961  15.096  0.9624 -0.0604  1.5641
 7399TIP3   OH243611   2.966   4.658   6.554 -0.0026 -0.6210 -0.0719
 7399TIP3    H143612   3.032   4.607   6.507 -0.3331 -0.2549 -0.9563
 7399TIP3    H243613   2.914   4.593   6.600  0.4048 -0.9790 -0.1064
 7400TIP3   OH243614   0.383   3.096  11.907  0.2563 -0.6525  0.1647
 7400TIP3    H143615   0.355   3.155  11.977  2.6089 -0.1670  0.7916
 7400TIP3    H243616   0.353   3.137  11.827 -0.6391 -0.1197  0.7507
 7401TIP3   OH243617   1.809   2.523  11.828 -0.3011  0.3510 -0.4090
 7401TIP3    H143618   1.784   2.553  11.740 -1.5127  0.0988 -0.1751
 7401TIP3    H243619   1.877   2.458  11.813  0.1703  0.9866 -1.1059
 7402TIP3   OH243620   2.226   4.034   5.378 -0.1691  0.3449  0.4833
 7402TIP3    H143621   2.271   4.119   5.375  0.0243  0.3132  1.9098
 7402TIP3    H243622   2.283   3.979   5.431 -1.1264 -0.1616  1.0071
 7403TIP3   OH243623   1.990   5.865  11.752  0.1145 -0.0410  0.1850
 7403TIP3    H143624   1.947   5.921  11.817 -2.2751 -1.7494  0.2390
 7403TIP3    H243625   1.965   5.903  11.668 -1.5032 -0.9166  0.2215
 7404TIP3   OH243626   0.559   1.771  14.707  0.2757  0.1653 -0.3582
 7404TIP3    H143627   0.482   1.796  14.758  0.0410 -0.2040 -0.5261
 7404TIP3    H243628   0.632   1.815  14.750  0.0348  0.1203  0.1028
 7405TIP3   OH243629   2.679   2.044  11.995 -0.0384 -0.1966  0.3298
 7405TIP3    H143630   2.760   2.095  12.003 -0.3773  1.6460 -4.5527
 7405TIP3    H243631   2.706   1.963  11.951 -0.5984 -0.4217  0.3898
 7406TIP3   OH243632   5.506   4.399  17.296 -0.4237 -0.0510  0.2121
 7406TIP3    H143633   5.476   4.489  17.304 -1.4568 -0.4338  0.8904
 7406TIP3    H243634   5.542   4.393  17.208 -1.2887  0.7505 -0.2078
 7407TIP3   OH243635   1.532   2.145  12.751  0.1415  0.3307  0.5265
 7407TIP3    H143636   1.593   2.185  12.813 -0.0854  1.1515  0.2405
 7407TIP3    H243637   1.570   2.060  12.731  1.4125  0.9800  0.0657
 7408TIP3   OH243638   0.013   3.818   5.536 -0.1165  0.3121  0.1559
 7408TIP3    H143639   0.072   3.839   5.608  1.6725 -0.0856 -1.1149
 7408TIP3    H243640   0.047   3.869   5.462 -2.9937  2.1826 -0.0271
 7409TIP3   OH243641   4.436   0.940   2.780  0.0962  0.0700  0.3016
 7409TIP3    H143642   4.477   0.853   2.775 -0.7242 -0.2912 -0.3642
 7409TIP3    H243643   4.508   1.001   2.766  0.7944 -0.4775  1.3547
 7410TIP3   OH243644   6.504   3.535   3.665  0.2146  0.3057 -0.0128
 7410TIP3    H143645   6.500   3.627   3.638 -2.2537  0.2852  0.0692
 7410TIP3    H243646   6.463   3.487   3.594  0.8198 -0.6741  0.2806
 7411TIP3   OH243647   1.568   2.622  11.715  0.4773  0.5906  0.4329
 7411TIP3    H143648   1.483   2.664  11.726  0.1765  0.3199 -0.6736
 7411TIP3    H243649   1.565   2.586  11.626  1.8795  0.8863  0.2412
 7412TIP3   OH243650   2.892   2.227  14.340  0.8017  0.1240 -0.1040
 7412TIP3    H143651   2.863   2.300  14.395  3.1015  0.7672  0.3625
 7412TIP3    H243652   2.852   2.149  14.380 -2.2590  1.1264 -1.0243
 7413TIP3   OH243653   3.628   4.325  14.773 -0.8299 -0.1366  0.1208
 7413TIP3    H143654   3.579   4.245  14.756 -0.0709 -0.0547 -3.1842
 7413TIP3    H243655   3.681   4.305  14.849 -0.5641 -2.8659 -0.6758
 7414TIP3   OH243656   3.183   0.215   1.986  0.1598 -0.0505  0.1477
 7414TIP3    H143657   3.230   0.171   2.057 -0.0783  1.2638  1.1545
 7414TIP3    H243658   3.188   0.308   2.008 -1.4897  0.2506 -0.5887
 7415TIP3   OH243659   2.125   6.427   2.864  0.2758  0.2808  0.5490
 7415TIP3    H143660   2.178   6.474   2.928  0.5135  0.0366  0.5323
 7415TIP3    H243661   2.105   6.343   2.906  0.1937  0.2332  0.4175
 7416TIP3   OH243662   6.100   4.057  14.255 -0.0601  0.0621 -0.1616
 7416TIP3    H143663   6.104   3.968  14.291  3.9117  1.3831  3.3572
 7416TIP3    H243664   6.038   4.103  14.311 -0.7038  0.0626 -0.8425
 7417TIP3   OH243665   4.947   4.141  15.722  0.3084  1.4798  0.3983
 7417TIP3    H143666   5.024   4.198  15.725 -0.2809  2.2430  1.6301
 7417TIP3    H243667   4.945   4.100  15.808  0.9069 -0.7207 -0.5452
 7418TIP3   OH243668   3.735   1.900   5.311 -0.1892 -0.2040  0.1058
 7418TIP3    H143669   3.680   1.973   5.283  0.9031 -0.0751 -1.8358
 7418TIP3    H243670   3.687   1.822   5.283  0.2333 -0.1160 -0.8812
 7419TIP3   OH243671   5.325   2.582  12.120 -0.3280  0.4958  0.9664
 7419TIP3    H143672   5.278   2.665  12.117 -0.2940  0.5059  0.7487
 7419TIP3    H243673   5.280   2.526  12.058  0.2589  0.6685  0.3709
 7420TIP3   OH243674   5.938   1.137   1.342  0.1042  0.3543 -0.3397
 7420TIP3    H143675   5.990   1.067   1.304 -0.8729 -1.2363  1.1440
 7420TIP3    H243676   5.847   1.113   1.325 -0.2650  1.0472  0.5233
 7421TIP3   OH243677   2.889   4.808  14.912 -0.3976  0.0377  0.6110
 7421TIP3    H143678   2.958   4.774  14.855  0.7229  1.7197  0.9174
 7421TIP3    H243679   2.933   4.830  14.993 -1.6599 -0.6250  1.5064
 7422TIP3   OH243680   5.212   3.612   3.644 -0.5262  0.6896  0.1379
 7422TIP3    H143681   5.288   3.663   3.674 -0.1524 -0.2763  0.8898
 7422TIP3    H243682   5.169   3.669   3.580 -0.2454  2.0342  1.0874
 7423TIP3   OH243683   3.898   4.312  11.223  0.4183 -0.1910 -0.4652
 7423TIP3    H143684   3.936   4.381  11.169 -2.5458  1.3047 -0.8449
 7423TIP3    H243685   3.847   4.258  11.162  0.3256 -0.9525  0.2598
 7424TIP3   OH243686   0.622   1.861  13.872 -0.1128  0.1555 -0.0825
 7424TIP3    H143687   0.554   1.905  13.923 -0.9098 -1.3436  0.2455
 7424TIP3    H243688   0.582   1.776  13.849  2.1360 -1.3937  1.3306
 7425TIP3   OH243689   0.337   4.777  13.314  0.0654  0.4604 -0.8579
 7425TIP3    H143690   0.247   4.798  13.339  0.3076  1.1741 -0.5661
 7425TIP3    H243691   0.380   4.751  13.395  0.0526 -0.1757 -1.0455
 7426TIP3   OH243692   2.310   6.219  13.594 -0.2061 -0.4890  0.6093
 7426TIP3    H143693   2.301   6.283  13.524  0.0668 -0.5965  0.4789
 7426TIP3    H243694   2.403   6.216  13.614 -0.1173 -1.3399  0.1501
 7427TIP3   OH243695   2.044   4.711  15.947  0.4437  0.4746  0.1313
 7427TIP3    H143696   2.064   4.675  15.860 -1.0892  1.5681 -0.7194
 7427TIP3    H243697   1.991   4.643  15.989  1.4693 -0.1995  0.3547
 7428TIP3   OH243698   4.251   1.455  17.341  0.6928  0.6289  0.0369
 7428TIP3    H143699   4.244   1.360  17.350  2.3356  0.2859 -1.7084
 7428TIP3    H243700   4.186   1.478  17.273  0.4789  0.7290  0.2729
 7429TIP3   OH243701   3.972   6.101  14.857 -0.6552  0.1455 -0.4327
 7429TIP3    H143702   3.918   6.097  14.779  0.0145 -2.3398 -0.8800
 7429TIP3    H243703   3.931   6.038  14.917  0.0204  0.4716  0.3837
 7430TIP3   OH243704   6.049   6.249  13.858  0.0019 -0.2139  0.1395
 7430TIP3    H143705   6.042   6.181  13.926  1.4151 -0.2624  0.2774
 7430TIP3    H243706   5.985   6.224  13.792  0.5285 -1.7480  0.1656
 7431TIP3   OH243707   4.345   4.005   1.046 -0.2055  0.5206 -0.0303
 7431TIP3    H143708   4.301   4.084   1.014  0.6110  0.6747 -0.8185
 7431TIP3    H243709   4.437   4.029   1.050 -0.3137  0.7614  3.2535
 7432TIP3   OH243710   5.823   0.827   1.573  0.0619 -0.2781  0.7284
 7432TIP3    H143711   5.916   0.825   1.595  0.0694 -0.1135  0.7147
 7432TIP3    H243712   5.813   0.762   1.503  0.3377  0.3652  0.0832
 7433TIP3   OH243713   1.930   3.966  15.867 -0.3174 -0.0525 -0.3493
 7433TIP3    H143714   1.864   4.021  15.825 -0.6135  0.5046  0.8004
 7433TIP3    H243715   2.013   4.005  15.841 -0.5302  2.5651  2.3995
 7434TIP3   OH243716   2.353   6.228   5.008 -0.5809  0.9996 -0.5696
 7434TIP3    H143717   2.306   6.198   4.930 -1.5820  0.7183  0.1298
 7434TIP3    H243718   2.286   6.265   5.065 -0.0222  0.3025  0.5848
 7435TIP3   OH243719   4.202   3.326   1.716 -0.3429 -0.0352 -0.2986
 7435TIP3    H143720   4.208   3.416   1.748  2.3579  0.7176 -2.6253
 7435TIP3    H243721   4.228   3.273   1.791 -1.5048  1.0874  0.9683
 7436TIP3   OH243722   0.696   1.668   4.224 -0.2836  0.3106 -0.0161
 7436TIP3    H143723   0.746   1.739   4.185 -1.4734  1.4748  0.5006
 7436TIP3    H243724   0.729   1.662   4.314  0.6981 -0.6779 -0.4164
 7437TIP3   OH243725   1.607   0.849   0.291  0.1506 -0.5427 -0.4841
 7437TIP3    H143726   1.566   0.905   0.357 -1.0378 -3.2534  1.2523
 7437TIP3    H243727   1.554   0.862   0.212 -1.9073 -1.2813  0.7099
 7438TIP3   OH243728   5.251   3.577   0.579 -0.4968 -0.2014  0.2921
 7438TIP3    H143729   5.187   3.512   0.552 -1.3327 -0.1849  2.0450
 7438TIP3    H243730   5.198   3.654   0.604  0.3108  0.3745  0.2736
 7439TIP3   OH243731   4.925   3.606   5.178  0.4027 -0.4212 -0.3310
 7439TIP3    H143732   4.919   3.513   5.154 -1.9281 -0.7949  1.4456
 7439TIP3    H243733   4.974   3.606   5.260 -0.3969 -0.1842  0.1499
 7440TIP3   OH243734   4.278   1.889   1.155  0.2045 -0.1435 -0.0322
 7440TIP3    H143735   4.334   1.941   1.213  1.5121 -0.0226 -1.3351
 7440TIP3    H243736   4.270   1.942   1.076  1.2912 -1.7248 -1.2668
 7441TIP3   OH243737   2.178   3.246  13.178 -0.1151 -0.5041 -0.4545
 7441TIP3    H143738   2.092   3.271  13.145 -1.1621 -2.4762  0.6169
 7441TIP3    H243739   2.231   3.233  13.099 -0.1222  2.6160 -1.1089
 7442TIP3   OH243740   3.189   3.632  11.583 -1.0103  0.5888 -0.3744
 7442TIP3    H143741   3.235   3.670  11.508  1.6065 -1.6763 -0.0677
 7442TIP3    H243742   3.223   3.680  11.659  1.8867 -1.6786 -0.0443
 7443TIP3   OH243743   4.836   2.785   0.629 -0.0518 -0.9489  0.5837
 7443TIP3    H143744   4.806   2.854   0.688 -1.7662  0.5237 -1.7931
 7443TIP3    H243745   4.873   2.718   0.686 -0.9113  0.6739  3.2170
 7444TIP3   OH243746   6.665   1.346  14.600  0.7058 -0.1584 -0.3904
 7444TIP3    H143747   6.637   1.334  14.509 -0.1015 -0.9294 -0.0653
 7444TIP3    H243748   6.756   1.318  14.601  0.9051  0.4515 -1.0843
 7445TIP3   OH243749   5.055   1.348   2.202 -0.4807  0.0584  0.0511
 7445TIP3    H143750   5.029   1.433   2.238 -0.8977  0.0919 -0.3245
 7445TIP3    H243751   5.131   1.322   2.255  1.2198  1.8029 -1.3845
 7446TIP3   OH243752   2.996   4.497  17.301  0.3904 -0.6287 -0.5977
 7446TIP3    H143753   2.993   4.403  17.318  0.9285 -0.2006  2.5211
 7446TIP3    H243754   2.915   4.530  17.339  1.0202  0.3495 -0.0677
 7447TIP3   OH243755   2.879   0.310   2.006 -0.0677 -0.4277 -0.2051
 7447TIP3    H143756   2.949   0.363   2.045  0.2729 -0.7873 -0.3279
 7447TIP3    H243757   2.810   0.374   1.985  1.5714  0.5073 -3.2604
 7448TIP3   OH243758   4.244   5.742   1.125  0.1892 -0.1955  0.1152
 7448TIP3    H143759   4.258   5.763   1.032 -0.4018  1.3167  0.3369
 7448TIP3    H243760   4.264   5.649   1.131 -2.4660 -1.0592 -2.1064
 7449TIP3   OH243761   3.808   3.164  13.517 -0.1088 -0.2037  0.5463
 7449TIP3    H143762   3.797   3.069  13.530  0.8142 -0.8980 -2.7033
 7449TIP3    H243763   3.728   3.191  13.472 -0.7816  0.8247  2.2731
 7450TIP3   OH243764   0.078   5.850  11.523 -0.0502  0.1073  0.0200
 7450TIP3    H143765  -0.003   5.851  11.472 -0.0048 -0.9334 -0.0866
 7450TIP3    H243766   0.051   5.878  11.611 -0.1435  1.8180 -0.5079
 7451TIP3   OH243767   5.103   3.797  12.988  0.2020  0.0586  0.1785
 7451TIP3    H143768   5.120   3.889  13.005  0.0163  0.0526  0.3970
 7451TIP3    H243769   5.016   3.795  12.949 -0.3578 -0.1472  1.4139
 7452TIP3   OH243770   4.655   2.837  11.781 -0.0893  0.4020 -0.0292
 7452TIP3    H143771   4.614   2.920  11.757  2.1127  1.2538 -1.2216
 7452TIP3    H243772   4.642   2.830  11.875 -0.0300  2.3092  0.1714
 7453TIP3   OH243773   0.305   4.664   1.039 -0.4977  0.0323  0.0958
 7453TIP3    H143774   0.377   4.672   0.976  0.3125 -2.1026  0.6825
 7453TIP3    H243775   0.231   4.635   0.986 -0.4241  0.3611 -0.1978
 7454TIP3   OH243776   1.263   1.920  11.543 -0.0455 -0.1844  0.2530
 7454TIP3    H143777   1.227   1.864  11.612 -0.7410  0.0895  0.1279
 7454TIP3    H243778   1.255   1.869  11.463 -0.4331 -0.0161  0.1808
 7455TIP3   OH243779   3.181   0.854   0.929  0.3891  0.1084  0.2624
 7455TIP3    H143780   3.180   0.831   1.022  1.7287  2.3142  0.9134
 7455TIP3    H243781   3.251   0.800   0.892 -2.0324 -2.9547 -0.2227
 7456TIP3   OH243782   3.234   0.336   2.373 -0.2432  0.8359 -0.7189
 7456TIP3    H143783   3.292   0.297   2.438  0.9529  0.5409 -1.9179
 7456TIP3    H243784   3.261   0.428   2.367  0.9229  0.4402 -2.0900
 7457TIP3   OH243785   0.260   3.313  13.379  0.4090  0.3320 -0.6066
 7457TIP3    H143786   0.344   3.303  13.423 -0.7742  1.3004  2.0975
 7457TIP3    H243787   0.212   3.377  13.431 -1.1685  1.6469 -3.4005
 7458TIP3   OH243788   6.704   0.982   5.745 -0.2970  0.0425 -0.2632
 7458TIP3    H143789   6.714   0.998   5.839 -0.2075 -0.3513 -0.2063
 7458TIP3    H243790   6.771   1.037   5.704  2.1262 -2.4291  0.0930
 7459TIP3   OH243791   2.159   2.894   2.307 -0.1758  0.0028  0.6158
 7459TIP3    H143792   2.218   2.892   2.232 -1.7768 -0.2912 -0.6987
 7459TIP3    H243793   2.127   2.805   2.315 -1.3613  0.4045  0.5167
 7460TIP3   OH243794   2.236   4.801  16.150 -0.2952 -0.3973 -0.4434
 7460TIP3    H143795   2.209   4.893  16.155 -0.5145 -0.4655 -0.3405
 7460TIP3    H243796   2.171   4.760  16.093 -0.5387 -0.6071 -0.0199
 7461TIP3   OH243797   1.396   6.370  13.896  0.0227  0.1664  0.1323
 7461TIP3    H143798   1.490   6.382  13.912 -0.2472  0.2948  1.7656
 7461TIP3    H243799   1.392   6.308  13.823  1.3644  0.1676  0.0296
 7462TIP3   OH243800   5.664   2.824  15.992  0.4003  0.0989 -0.3715
 7462TIP3    H143801   5.718   2.888  16.037  0.0437  0.4427 -0.4249
 7462TIP3    H243802   5.575   2.860  15.996 -0.2601 -1.6035  1.8402
 7463TIP3   OH243803   0.789   3.903  12.578 -0.1941  0.1256  0.1041
 7463TIP3    H143804   0.823   3.864  12.659 -0.3022 -0.2587 -0.0356
 7463TIP3    H243805   0.827   3.850  12.508 -1.2375 -0.4422 -0.0514
 7464TIP3   OH243806   5.539   0.858   2.307  0.2580 -0.0667  0.3599
 7464TIP3    H143807   5.468   0.822   2.360 -1.3747  1.0221 -0.9722
 7464TIP3    H243808   5.524   0.953   2.308  1.4712  0.1478 -0.2637
 7465TIP3   OH243809   3.158   1.752  13.215 -0.1947 -0.0334 -0.2182
 7465TIP3    H143810   3.252   1.750  13.235 -0.2035  1.0579  0.0276
 7465TIP3    H243811   3.150   1.819  13.147 -0.5539 -1.5984 -1.7768
 7466TIP3   OH243812   3.311   0.576  15.446 -0.1986  0.2730  0.1674
 7466TIP3    H143813   3.243   0.642  15.435 -0.8625 -0.4743 -0.3680
 7466TIP3    H243814   3.263   0.495  15.465  0.5667 -0.1544  0.3380
 7467TIP3   OH243815   5.005   0.242  13.556  0.3178 -0.3838  0.1119
 7467TIP3    H143816   5.058   0.163  13.555 -0.2699 -0.7843  0.0978
 7467TIP3    H243817   5.028   0.287  13.475  1.8693  0.3001  0.8828
 7468TIP3   OH243818   2.893   4.654   2.143  0.1059 -0.2245  0.1934
 7468TIP3    H143819   2.957   4.582   2.145 -0.1912 -0.4835  0.3752
 7468TIP3    H243820   2.808   4.611   2.140 -0.0989  0.1164  0.9131
 7469TIP3   OH243821   1.232   0.655   0.165 -0.0906  0.2306  0.0336
 7469TIP3    H143822   1.223   0.608   0.248 -0.2832 -1.1311 -0.7325
 7469TIP3    H243823   1.231   0.586   0.098  1.0837  1.2119 -1.0480
 7470TIP3   OH243824   2.062   6.426  15.042  0.2019 -0.1971 -0.8245
 7470TIP3    H143825   2.093   6.351  14.990  0.0846 -0.8237 -0.0175
 7470TIP3    H243826   1.980   6.395  15.081  0.1246  0.3730 -0.5309
 7471TIP3   OH243827   0.678   5.171  15.661  0.1972 -0.0732 -0.6610
 7471TIP3    H143828   0.671   5.264  15.683  0.1613 -0.6613  2.0826
 7471TIP3    H243829   0.764   5.144  15.693 -0.3894 -1.3092 -0.0694
 7472TIP3   OH243830   6.710   3.062   4.281 -0.3655  0.6267 -0.3588
 7472TIP3    H143831   6.711   2.990   4.344 -0.1999 -0.1790 -1.2649
 7472TIP3    H243832   6.730   3.140   4.334  0.3121 -0.0985  0.4902
 7473TIP3   OH243833   3.477   0.248   4.912 -0.7128  0.1227  0.0480
 7473TIP3    H143834   3.418   0.274   4.841 -0.1685  0.3194 -0.3422
 7473TIP3    H243835   3.437   0.284   4.991 -1.6579 -0.6293 -0.0674
 7474TIP3   OH243836   4.516   1.534  11.130  0.3597 -0.1023 -0.2942
 7474TIP3    H143837   4.487   1.612  11.082  1.0949 -0.6993 -1.7951
 7474TIP3    H243838   4.561   1.569  11.207  2.5981  1.1299 -2.0113
 7475TIP3   OH243839   0.674   3.890   3.474 -0.0727 -0.4103  0.0340
 7475TIP3    H143840   0.767   3.911   3.471  0.3975 -1.5355  2.9615
 7475TIP3    H243841   0.630   3.972   3.453  1.5406  0.2452 -1.0208
 7476TIP3   OH243842   3.780   6.295   5.465  0.5682 -0.8052 -0.1497
 7476TIP3    H143843   3.714   6.291   5.534  0.9250  0.3888  0.2678
 7476TIP3    H243844   3.762   6.377   5.419  1.9922 -0.2520  0.2199
 7477TIP3   OH243845   1.438   5.411   5.745  0.2402  0.4893  0.1034
 7477TIP3    H143846   1.441   5.505   5.730  2.8753  0.3330 -0.9851
 7477TIP3    H243847   1.418   5.402   5.838 -0.7521  2.0588  0.0831
 7478TIP3   OH243848   3.463   0.489  11.342  0.3192  0.5542  0.4341
 7478TIP3    H143849   3.505   0.512  11.259 -0.0869  0.4650  0.2015
 7478TIP3    H243850   3.536   0.483  11.404  0.8604 -1.2115 -0.3150
 7479TIP3   OH243851   4.089   4.212  12.249  0.2479  0.0091 -0.0121
 7479TIP3    H143852   4.176   4.209  12.288  0.6982  4.8714 -0.0358
 7479TIP3    H243853   4.029   4.200  12.323  0.7859 -2.7815  0.0870
 7480TIP3   OH243854   5.027   6.739   0.011  0.2187  0.1135  0.1185
 7480TIP3    H143855   4.968   6.665   0.026 -1.0615  1.0296 -0.2452
 7480TIP3    H243856   4.974   6.816   0.033  0.8155  1.0414 -1.5349
 7481TIP3   OH243857   0.984   1.515  17.056  0.3099  0.0106  0.0930
 7481TIP3    H143858   0.965   1.602  17.091  0.6431  0.0522  0.1760
 7481TIP3    H243859   1.038   1.531  16.979  2.0043 -0.1812  1.1939
 7482TIP3   OH243860   6.323   3.044   1.804  0.4071 -0.3658  0.1472
 7482TIP3    H143861   6.290   2.970   1.854 -0.9854  0.8606  1.1456
 7482TIP3    H243862   6.333   3.114   1.869  1.4742  0.4068 -0.8013
 7483TIP3   OH243863   5.508   1.709   4.858 -0.3846 -0.6113  0.4912
 7483TIP3    H143864   5.465   1.670   4.934 -0.3587  1.5346  1.6723
 7483TIP3    H243865   5.471   1.797   4.851  1.3181  0.0870 -0.5266
 7484TIP3   OH243866   0.146   5.784  10.929 -0.1898 -0.6253 -0.0219
 7484TIP3    H143867   0.233   5.811  10.900 -0.8959  2.4364  0.3638
 7484TIP3    H243868   0.095   5.778  10.848 -0.1915 -0.0027 -0.0756
 7485TIP3   OH243869   3.427   3.726   4.374  0.0009 -0.0737  0.9215
 7485TIP3    H143870   3.334   3.741   4.357 -0.2658 -2.4952 -0.1749
 7485TIP3    H243871   3.462   3.812   4.396 -2.2169  1.1302  0.0173
 7486TIP3   OH243872   0.808   5.803   4.065  0.4495 -0.4772 -0.4263
 7486TIP3    H143873   0.821   5.883   4.013 -1.4745 -0.4627 -0.9782
 7486TIP3    H243874   0.863   5.815   4.142 -0.1936  1.6498 -0.2370
 7487TIP3   OH243875   2.406   2.739   4.551  0.2470  0.8247 -0.9704
 7487TIP3    H143876   2.450   2.664   4.511  2.8614  1.7175  0.0592
 7487TIP3    H243877   2.336   2.700   4.604  1.5108 -0.9111 -0.4842
 7488TIP3   OH243878   6.321   3.533  10.531 -0.2904  0.0200  0.6131
 7488TIP3    H143879   6.301   3.610  10.477 -0.5672 -0.7341 -0.3964
 7488TIP3    H243880   6.237   3.486  10.537  0.1839 -0.9492 -0.0274
 7489TIP3   OH243881   5.271   0.204   5.928 -0.2255  0.3779 -0.1478
 7489TIP3    H143882   5.194   0.187   5.873 -1.7983 -0.2653  2.1275
 7489TIP3    H243883   5.236   0.208   6.017  2.4887 -0.6732  1.0565
 7490TIP3   OH243884   5.247   0.408   2.445  0.0716  0.0894  0.2325
 7490TIP3    H143885   5.318   0.443   2.391  0.7886 -0.0170  1.0760
 7490TIP3    H243886   5.242   0.316   2.420 -0.8837  0.4575 -0.9960
 7491TIP3   OH243887   4.644   2.253   6.139  0.1739  0.1400 -0.3147
 7491TIP3    H143888   4.628   2.163   6.166  2.9970 -0.0056  1.2298
 7491TIP3    H243889   4.622   2.305   6.216  1.1855  0.4769 -0.2438
 7492TIP3   OH243890   6.085   4.946  15.164  0.2475 -0.0437  0.1826
 7492TIP3    H143891   6.026   4.883  15.122  0.1809  0.8813 -1.1618
 7492TIP3    H243892   6.068   5.029  15.120  1.6079  0.5316  0.6758
 7493TIP3   OH243893   2.622   2.962  15.971  0.4233  0.0254 -0.0584
 7493TIP3    H143894   2.675   2.884  15.987  0.8986  0.8168  2.7736
 7493TIP3    H243895   2.628   2.976  15.876  1.7070 -2.3628 -0.4137
 7494TIP3   OH243896   0.427   4.356  12.447 -0.5340  0.1105  0.7346
 7494TIP3    H143897   0.350   4.376  12.394  0.0993  1.2620  0.2023
 7494TIP3    H243898   0.435   4.431  12.506  0.6026  0.3983  0.2535
 7495TIP3   OH243899   1.673   0.962  16.861 -0.2121  0.0210 -0.0522
 7495TIP3    H143900   1.580   0.943  16.872 -0.1177 -1.1613 -1.1304
 7495TIP3    H243901   1.704   0.980  16.950 -1.0319 -1.6328  0.6072
 7496TIP3   OH243902   1.419   1.327  16.000  0.3688 -0.3497  0.0481
 7496TIP3    H143903   1.476   1.321  15.924  1.3511  0.7971  0.6669
 7496TIP3    H243904   1.414   1.237  16.034  1.8735 -0.4630  0.0252
 7497TIP3   OH243905   0.864   2.235  11.289 -0.2785 -0.7256 -0.5160
 7497TIP3    H143906   0.780   2.248  11.332 -0.6346 -0.1514 -1.3656
 7497TIP3    H243907   0.848   2.256  11.198  1.5531  2.8867 -0.1893
 7498TIP3   OH243908   4.209   0.121   2.706  0.5871  0.2008 -0.6027
 7498TIP3    H143909   4.254   0.047   2.664 -1.2192 -0.1202 -2.1620
 7498TIP3    H243910   4.227   0.111   2.799  0.4282 -2.2300 -0.7654
 7499TIP3   OH243911   6.000   5.200   4.567  0.1299 -0.0845 -0.4675
 7499TIP3    H143912   6.074   5.190   4.508  0.5834 -0.2598  0.1188
 7499TIP3    H243913   5.936   5.135   4.537  0.2753 -0.0382 -0.8817
 7500TIP3   OH243914   5.428   4.266  17.042  0.3458 -0.2740 -0.2010
 7500TIP3    H143915   5.416   4.247  16.949 -0.5912 -2.9655  0.4122
 7500TIP3    H243916   5.474   4.190  17.077  1.1812  0.9289  1.4816
 7501TIP3   OH243917   3.814   4.126   3.258 -0.7637  0.5755  0.2925
 7501TIP3    H143918   3.722   4.111   3.278 -0.6012 -1.1696 -0.1376
 7501TIP3    H243919   3.861   4.099   3.337 -0.5190 -0.3179 -0.1479
 7502TIP3   OH243920   4.667   1.073  14.276 -0.0230  0.3380 -0.1738
 7502TIP3    H143921   4.709   1.151  14.312 -1.4601  1.2061 -0.3035
 7502TIP3    H243922   4.600   1.050  14.340 -2.8189  2.0772 -2.2451
 7503TIP3   OH243923   3.688   2.497   2.971  0.4674 -0.7110  0.4157
 7503TIP3    H143924   3.645   2.514   3.054 -1.4872 -0.0201 -0.6645
 7503TIP3    H243925   3.777   2.471   2.994 -0.3165 -1.5114  2.7342
 7504TIP3   OH243926   0.783   0.370  11.020  0.1420  0.5141 -0.7447
 7504TIP3    H143927   0.842   0.323  10.961  0.9666 -0.7695  1.0123
 7504TIP3    H243928   0.836   0.443  11.054 -0.2586  1.1209 -1.4108
 7505TIP3   OH243929   6.470   3.968   4.905  0.2098 -0.7389  0.1861
 7505TIP3    H143930   6.430   4.052   4.929  0.6892 -0.0900 -1.1951
 7505TIP3    H243931   6.409   3.902   4.938 -0.3268  0.1486  1.0249
 7506TIP3   OH243932   2.292   1.862  17.010 -0.0221  0.0777 -0.7148
 7506TIP3    H143933   2.211   1.811  17.014  1.6321 -2.7164 -0.1169
 7506TIP3    H243934   2.340   1.825  16.936  0.6368  1.8258 -1.1943
 7507TIP3   OH243935   3.921   1.082   3.590 -0.9573 -0.0122  0.1467
 7507TIP3    H143936   4.008   1.108   3.560 -2.0656  0.9918 -2.4996
 7507TIP3    H243937   3.884   1.034   3.516 -1.9245 -2.3545  2.0246
 7508TIP3   OH243938   4.583   2.144  16.956 -0.0546  0.0034 -0.0735
 7508TIP3    H143939   4.607   2.052  16.945  0.5343  0.1659 -0.2163
 7508TIP3    H243940   4.489   2.147  16.941 -0.1113 -0.6121  0.1582
 7509TIP3   OH243941   6.574   2.359   2.646 -0.5383 -0.5002  0.6187
 7509TIP3    H143942   6.561   2.305   2.724 -0.7607 -1.5276 -0.1083
 7509TIP3    H243943   6.486   2.391   2.625 -0.8872 -2.0251 -0.4509
 7510TIP3   OH243944   1.825   2.878   0.783 -0.4008 -0.5168  0.2164
 7510TIP3    H143945   1.815   2.939   0.856 -1.7179 -1.4013  0.8119
 7510TIP3    H243946   1.820   2.933   0.705  3.1313  0.7479  0.6960
 7511TIP3   OH243947   3.405   4.155  11.480  0.0731 -0.2292 -0.5084
 7511TIP3    H143948   3.474   4.107  11.434 -0.6253 -1.1416 -0.6324
 7511TIP3    H243949   3.352   4.193  11.410  0.7508  0.9257 -0.4072
 7512TIP3   OH243950   3.839   2.720   4.089 -0.4310  0.0925  0.2173
 7512TIP3    H143951   3.903   2.728   4.160 -0.9329 -1.8505  0.9455
 7512TIP3    H243952   3.862   2.790   4.028  1.8330 -0.0069  0.8846
 7513TIP3   OH243953   5.919   3.472   2.351 -0.2754  0.2222  0.6021
 7513TIP3    H143954   5.851   3.435   2.408  0.5051 -1.5913  0.4235
 7513TIP3    H243955   5.945   3.553   2.394 -2.5597  1.0126  0.6629
 7514TIP3   OH243956   5.338   5.093   4.598 -0.4520  0.4415  0.2976
 7514TIP3    H143957   5.317   5.174   4.645 -1.1439  0.6281 -0.2970
 7514TIP3    H243958   5.316   5.023   4.659  2.7288  0.6501  1.8989
 7515TIP3   OH243959   2.261   4.339  15.258  0.0415 -0.0368  0.2191
 7515TIP3    H143960   2.196   4.271  15.241 -0.2772  0.1358  0.7106
 7515TIP3    H243961   2.336   4.315  15.204 -0.8653  0.4111 -1.2925
 7516TIP3   OH243962   2.792   3.309  17.167 -1.0546 -0.1042  0.0032
 7516TIP3    H143963   2.823   3.305  17.257 -1.6639 -0.8851  0.1926
 7516TIP3    H243964   2.823   3.393  17.134  0.4966 -0.4824  0.4412
 7517TIP3   OH243965   6.380   0.574   0.678  0.0895 -0.1493 -0.4244
 7517TIP3    H143966   6.337   0.497   0.639 -0.3328  0.4837 -1.2424
 7517TIP3    H243967   6.469   0.544   0.696 -0.1516 -0.9217 -0.4568
 7518TIP3   OH243968   4.579   1.831  15.609  0.2982  0.0127 -0.4597
 7518TIP3    H143969   4.602   1.875  15.691  1.5764 -0.0386 -0.7735
 7518TIP3    H243970   4.484   1.834  15.606  0.3011  1.3893  0.2739
 7519TIP3   OH243971   4.564   0.855   3.416  0.0743 -0.3181 -0.4704
 7519TIP3    H143972   4.607   0.777   3.382 -1.6972 -1.3001 -0.5845
 7519TIP3    H243973   4.538   0.904   3.338  0.2399 -0.1571 -0.4239
 7520TIP3   OH243974   3.391   2.160   3.854 -0.6349 -0.0469 -0.1997
 7520TIP3    H143975   3.466   2.219   3.865 -1.4889  1.1359 -0.5677
 7520TIP3    H243976   3.388   2.110   3.935  0.8137 -0.4301 -0.3571
 7521TIP3   OH243977   0.487   1.460  15.641 -0.2331 -0.1768  0.5178
 7521TIP3    H143978   0.503   1.488  15.731 -2.5423  1.8597  0.4222
 7521TIP3    H243979   0.454   1.539  15.597 -2.6183 -1.9205 -1.1042
 7522TIP3   OH243980   6.312   2.449  12.274 -0.5063  0.1260  0.0387
 7522TIP3    H143981   6.361   2.488  12.201 -0.2501  1.2012  0.7762
 7522TIP3    H243982   6.264   2.376  12.233  0.2703  0.1902 -1.0452
 7523TIP3   OH243983   6.395   2.955  13.223 -0.5806 -0.2682 -0.1936
 7523TIP3    H143984   6.487   2.931  13.211 -0.5302 -0.8576  1.2029
 7523TIP3    H243985   6.391   2.989  13.312 -1.6260  0.2920 -0.4378
 7524TIP3   OH243986   0.984   5.871  11.667  0.2578 -0.1476  0.0953
 7524TIP3    H143987   0.978   5.926  11.745 -0.5972 -1.7532  1.2217
 7524TIP3    H243988   1.076   5.845  11.663 -0.1185 -2.0938  2.1133
 7525TIP3   OH243989   5.208   2.539   1.311  0.0943  0.2375  0.3445
 7525TIP3    H143990   5.147   2.610   1.290 -1.2038 -0.7603  0.6107
 7525TIP3    H243991   5.179   2.466   1.257  0.9796 -0.3185  0.6018
 7526TIP3   OH243992   0.998   3.502   0.083 -0.2654  0.1756 -0.4271
 7526TIP3    H143993   0.921   3.557   0.072 -0.0828  0.7674  1.0081
 7526TIP3    H243994   1.001   3.482   0.176 -0.4431 -2.4995 -0.8920
 7527TIP3   OH243995   4.850   5.558   2.710  0.0501 -0.0913  0.4581
 7527TIP3    H143996   4.778   5.515   2.756 -0.6309  0.3493 -0.1721
 7527TIP3    H243997   4.836   5.652   2.723  0.7795 -0.0105  0.7198
 7528TIP3   OH243998   0.541   1.294   2.984  0.0350 -0.3089 -0.1214
 7528TIP3    H143999   0.495   1.350   2.921 -0.1325  0.6836  0.8499
 7528TIP3    H244000   0.471   1.247   3.030  0.1220 -0.5162 -0.1973
 7529TIP3   OH244001   2.011   0.190   5.913 -0.1871 -0.1707  0.0226
 7529TIP3    H144002   1.918   0.172   5.923 -0.0104 -0.9915  0.2746
 7529TIP3    H244003   2.020   0.282   5.937 -1.0828  0.2102 -1.0348
 7530TIP3   OH244004   3.242   5.203  11.681 -0.3469  0.1943 -0.0476
 7530TIP3    H144005   3.286   5.208  11.766 -1.5462  1.7650  0.5398
 7530TIP3    H244006   3.308   5.234  11.618 -0.7128  3.2392  0.9009
 7531TIP3   OH244007   4.496   5.698  12.571  0.7213  0.5801 -0.1424
 7531TIP3    H144008   4.464   5.635  12.505  0.3681  0.5276  0.0767
 7531TIP3    H244009   4.566   5.651  12.616  0.8268  0.5418 -0.3406
 7532TIP3   OH244010   3.518   5.401   4.322 -0.3062  0.2160 -0.3687
 7532TIP3    H144011   3.593   5.367   4.371 -1.1711  1.0668  1.6607
 7532TIP3    H244012   3.545   5.395   4.230  0.7458 -3.0035  0.0407
 7533TIP3   OH244013   1.648   2.830   4.733 -0.0713  0.2303 -0.3574
 7533TIP3    H144014   1.680   2.912   4.770 -1.3731  1.5806 -2.0883
 7533TIP3    H244015   1.641   2.771   4.809  1.3326  1.5170  0.8547
 7534TIP3   OH244016   4.375   4.449   2.049  0.3664  0.2176  0.2659
 7534TIP3    H144017   4.372   4.418   1.959  0.0084  1.8389 -0.3238
 7534TIP3    H244018   4.286   4.482   2.066  0.6202  0.5811  0.9571
 7535TIP3   OH244019   4.071   3.883  16.999 -0.3153  0.0624  0.4066
 7535TIP3    H144020   4.055   3.844  17.085  1.9799  0.1251  0.9259
 7535TIP3    H244021   4.136   3.825  16.958  0.0216  1.0543 -0.4982
 7536TIP3   OH244022   4.447   6.064   4.286  0.1505 -0.1831 -0.2751
 7536TIP3    H144023   4.400   6.043   4.366  1.2945 -0.4162  0.3673
 7536TIP3    H244024   4.513   6.127   4.313 -1.8792  2.7886 -1.7950
 7537TIP3   OH244025   4.996   6.165  13.421 -0.1081  0.1119 -0.5894
 7537TIP3    H144026   4.962   6.088  13.466  1.9135  0.2809  1.3611
 7537TIP3    H244027   4.925   6.229  13.427 -0.3182 -0.2553  1.4102
 7538TIP3   OH244028   1.437   5.120   1.541 -0.0033 -0.0619 -0.0115
 7538TIP3    H144029   1.354   5.165   1.525  0.3162  0.3165 -0.6485
 7538TIP3    H244030   1.412   5.040   1.587 -0.6285  0.5037  0.6526
 7539TIP3   OH244031   1.395   5.326   4.743 -0.0906  0.4970 -0.5122
 7539TIP3    H144032   1.341   5.401   4.766  2.4260  2.2997 -0.0286
 7539TIP3    H244033   1.413   5.282   4.826  0.9129  1.1859 -0.3494
 7540TIP3   OH244034   4.439   4.074   0.365 -0.2745  0.4190 -0.0570
 7540TIP3    H144035   4.530   4.058   0.342 -0.5372 -0.8107 -0.3193
 7540TIP3    H244036   4.443   4.130   0.443  0.6598  1.8883 -1.1280
 7541TIP3   OH244037   4.476   3.263   0.050  0.1285  0.2369 -0.0232
 7541TIP3    H144038   4.408   3.257   0.117  1.2127  1.8629  1.3181
 7541TIP3    H244039   4.504   3.355   0.053  2.7054 -0.4597 -0.1553
 7542TIP3   OH244040   4.290   0.623   1.692 -0.5313 -0.4813  0.0651
 7542TIP3    H144041   4.350   0.548   1.695 -0.9217 -1.0682 -3.0210
 7542TIP3    H244042   4.203   0.584   1.697 -0.7605  0.1626  2.0125
 7543TIP3   OH244043   1.485   3.664   6.460 -0.0830  0.1497  0.2417
 7543TIP3    H144044   1.397   3.673   6.497  0.2048  0.5094  0.8500
 7543TIP3    H244045   1.505   3.571   6.466 -1.4399 -0.3895 -2.2859
 7544TIP3   OH244046   0.444   1.845  16.878 -0.3879 -0.3119  0.0718
 7544TIP3    H144047   0.432   1.900  16.955  0.9186  1.1858 -0.7291
 7544TIP3    H244048   0.535   1.815  16.884 -0.2583 -0.1453 -0.8908
 7545TIP3   OH244049   1.171   5.539   0.233  0.0589 -0.0985 -0.1805
 7545TIP3    H144050   1.144   5.449   0.213 -0.2120  0.3974 -2.2334
 7545TIP3    H244051   1.266   5.539   0.217 -0.0683  0.1551 -1.0026
 7546TIP3   OH244052   4.381   1.627  17.045 -0.2202  0.7975  0.0805
 7546TIP3    H144053   4.325   1.550  17.034  0.2393  0.6121 -1.1644
 7546TIP3    H244054   4.422   1.639  16.959  1.1861  1.2758  0.7876
 7547TIP3   OH244055   4.382   0.319   2.703  0.1147 -0.1855 -0.4011
 7547TIP3    H144056   4.401   0.349   2.792 -0.0227 -0.0817 -0.4076
 7547TIP3    H244057   4.311   0.255   2.713  0.1874 -0.2705 -0.4227
 7548TIP3   OH244058   4.117   6.427   2.723 -0.3542 -0.1332 -0.4466
 7548TIP3    H144059   4.106   6.384   2.808  0.0336 -1.7269 -1.1787
 7548TIP3    H244060   4.046   6.492   2.720  0.6279  1.1727  1.7847
 7549TIP3   OH244061   0.671   2.733   6.028  0.3394  0.4359  0.4117
 7549TIP3    H144062   0.755   2.706   5.990  0.6665  0.9921  0.7200
 7549TIP3    H244063   0.665   2.684   6.109 -0.2084 -0.5103 -0.1810
 7550TIP3   OH244064   4.145   4.425   6.281  0.1137 -0.3661  0.5230
 7550TIP3    H144065   4.130   4.330   6.279 -1.2286 -0.1705 -0.2107
 7550TIP3    H244066   4.084   4.458   6.347  0.9272 -0.0597  1.1293
 7551TIP3   OH244067   6.095   1.811  13.998  0.2731  0.2632  0.6171
 7551TIP3    H144068   6.162   1.742  13.995  1.8456  1.7303  0.5235
 7551TIP3    H244069   6.102   1.854  13.913 -0.9568  0.3335  0.5372
 7552TIP3   OH244070   1.653   0.362   3.117 -1.0004 -0.1468 -0.3463
 7552TIP3    H144071   1.620   0.274   3.138  3.6768 -2.0443  0.3329
 7552TIP3    H244072   1.705   0.349   3.038  0.6623  1.7227  0.3569
 7553TIP3   OH244073   5.554   3.886  14.728 -0.2381 -0.1783  0.1181
 7553TIP3    H144074   5.553   3.976  14.697  0.8657  0.4586  1.8127
 7553TIP3    H244075   5.545   3.893  14.823  2.8178 -1.6437  0.6230
 7554TIP3   OH244076   5.794   2.463   6.858  0.1706 -0.1382 -0.1803
 7554TIP3    H144077   5.812   2.521   6.784  0.0540  1.0163  0.6711
 7554TIP3    H244078   5.863   2.483   6.921 -1.4175  1.0924  1.2603
 7555TIP3   OH244079   0.778   0.239  15.198  0.4524  0.0395 -0.0695
 7555TIP3    H144080   0.760   0.294  15.274  0.2595 -0.0802 -0.0290
 7555TIP3    H244081   0.843   0.175  15.229  0.0898 -0.2505  0.1033
 7556TIP3   OH244082   1.047   3.720   5.480 -0.1161 -0.1459 -0.0357
 7556TIP3    H144083   1.123   3.763   5.442  0.3549  0.1064  1.1375
 7556TIP3    H244084   1.059   3.730   5.575 -2.0282  0.6469  0.1578
 7557TIP3   OH244085   4.301   6.715   3.337 -0.5335  0.0091 -0.6013
 7557TIP3    H144086   4.220   6.707   3.388  0.1848 -1.8006  0.3835
 7557TIP3    H244087   4.306   6.807   3.313 -2.6576  0.2421 -0.3290
 7558TIP3   OH244088   5.059   5.413   5.729  0.3940 -0.2369  0.0496
 7558TIP3    H144089   5.096   5.350   5.790 -0.0435 -0.0091  0.5625
 7558TIP3    H244090   5.134   5.464   5.698  0.4297  0.8837  1.8396
 7559TIP3   OH244091   1.661   2.441  13.504  0.7232 -0.1621  0.4104
 7559TIP3    H144092   1.708   2.421  13.584  1.5297 -1.6915 -0.4016
 7559TIP3    H244093   1.723   2.423  13.434 -0.0056  0.9957 -0.5824
 7560TIP3   OH244094   5.277   3.305  15.872  0.6261 -0.5305  0.4062
 7560TIP3    H144095   5.202   3.257  15.836 -0.5518  0.3798  1.5969
 7560TIP3    H244096   5.299   3.259  15.953  2.4325 -1.7557 -0.6682
 7561TIP3   OH244097   1.363   3.639   5.935  0.0933  0.4434 -0.2122
 7561TIP3    H144098   1.360   3.590   5.852 -0.8234  0.7365 -0.3630
 7561TIP3    H244099   1.351   3.730   5.910  1.9422  0.7961  0.0574
 7562TIP3   OH244100   2.411   1.166  11.850 -0.4499  0.3887  0.3294
 7562TIP3    H144101   2.333   1.154  11.796  0.4815 -0.8809 -0.8007
 7562TIP3    H244102   2.415   1.087  11.904  0.4604  0.0690 -0.1857
 7563TIP3   OH244103   5.872   6.613  14.299  0.5006 -0.1936  0.3207
 7563TIP3    H144104   5.903   6.596  14.388  2.2345  0.7333 -0.0652
 7563TIP3    H244105   5.931   6.564  14.243 -1.2732 -1.6917 -0.3262
 7564TIP3   OH244106   1.944   0.183  16.381 -0.2624  0.1261  0.2660
 7564TIP3    H144107   1.920   0.273  16.363  0.2367 -0.0145 -1.3194
 7564TIP3    H244108   1.861   0.138  16.397 -0.9258  0.1835 -2.4429
 7565TIP3   OH244109   2.287   1.846  11.420 -0.6833 -0.2583  0.2812
 7565TIP3    H144110   2.291   1.888  11.334 -1.8005 -0.2861  0.2020
 7565TIP3    H244111   2.307   1.916  11.482  1.9419 -0.6136 -0.0424
 7566TIP3   OH244112   0.506   3.236  13.997 -0.0233  0.7085 -0.4715
 7566TIP3    H144113   0.514   3.319  14.045  0.8765 -0.3986  1.3781
 7566TIP3    H244114   0.458   3.179  14.056 -0.1032 -0.3044 -1.4766
 7567TIP3   OH244115   0.951   5.135   2.410 -0.3221 -0.1613  0.1175
 7567TIP3    H144116   1.022   5.088   2.365  0.9994  2.0301 -0.2524
 7567TIP3    H244117   0.903   5.179   2.339 -0.1718  0.7709  0.5790
 7568TIP3   OH244118   5.669   0.960  11.819  0.1495 -1.1488  0.1838
 7568TIP3    H144119   5.676   1.055  11.813  0.4983 -1.2085 -0.3937
 7568TIP3    H244120   5.715   0.937  11.899  1.4387 -0.9737 -0.4853
 7569TIP3   OH244121   0.815   5.699  12.778 -0.1891  0.0117 -0.0165
 7569TIP3    H144122   0.743   5.754  12.745 -1.5898 -1.6248  0.1525
 7569TIP3    H244123   0.799   5.693  12.872 -1.9179 -3.0477 -0.3583
 7570TIP3   OH244124   5.676   5.400  17.214  0.1619 -0.5831 -0.3094
 7570TIP3    H144125   5.638   5.458  17.149 -2.5296 -2.6999 -0.8038
 7570TIP3    H244126   5.737   5.344  17.165  0.3132 -0.2962 -0.4476
 7571TIP3   OH244127   4.042   0.120  13.794 -0.2272 -0.2328  0.0437
 7571TIP3    H144128   4.067   0.196  13.741 -2.3664  0.0207 -0.6986
 7571TIP3    H244129   4.065   0.144  13.883  1.3888  0.2493 -0.4703
 7572TIP3   OH244130   5.289   0.570  12.224  0.0291  0.5085  0.3095
 7572TIP3    H144131   5.325   0.659  12.224  0.2642  0.4156  0.1159
 7572TIP3    H244132   5.319   0.533  12.141 -0.6120  0.4658  0.0889
 7573TIP3   OH244133   5.188   2.768  16.929  0.1238  0.3111 -0.1749
 7573TIP3    H144134   5.140   2.721  16.861  0.4885 -1.2437  0.6063
 7573TIP3    H244135   5.122   2.823  16.972  0.0293  1.8942 -2.2184
 7574TIP3   OH244136   6.305   5.490  16.078  0.8401  0.1796  0.5217
 7574TIP3    H144137   6.231   5.449  16.122 -0.7983  0.7212 -1.5319
 7574TIP3    H244138   6.373   5.424  16.079 -0.4813 -1.2383  0.4658
 7575TIP3   OH244139   2.883   5.594   3.400  0.3163 -0.0967  0.1790
 7575TIP3    H144140   2.799   5.612   3.357  0.6776  0.1738 -0.4140
 7575TIP3    H244141   2.920   5.680   3.418 -0.4834 -0.1380  2.3737
 7576TIP3   OH244142   3.083   4.256   2.744  0.6549 -0.2573  0.1772
 7576TIP3    H144143   3.171   4.293   2.752  0.2330  0.9149 -0.3646
 7576TIP3    H244144   3.081   4.219   2.655  0.1302  1.0538 -0.3750
 7577TIP3   OH244145   1.446   5.024   2.229  0.0621 -0.2897 -0.4545
 7577TIP3    H144146   1.390   5.044   2.153  0.3785 -0.7093 -0.7971
 7577TIP3    H244147   1.454   4.929   2.229 -0.0656 -0.3079  0.2062
 7578TIP3   OH244148   3.944   1.930  14.737  0.7631 -0.1477 -0.3260
 7578TIP3    H144149   4.019   1.988  14.731  0.9370 -0.1401  1.3711
 7578TIP3    H244150   3.872   1.979  14.698  0.6693  1.6945  1.9575
 7579TIP3   OH244151   5.534   1.038  15.783  0.0287  0.1131 -0.5540
 7579TIP3    H144152   5.623   1.052  15.750  0.0404  1.2167 -0.0912
 7579TIP3    H244153   5.503   0.962  15.735  1.9834 -1.6532  0.7883
 7580TIP3   OH244154   4.758   0.882  13.387  0.2927  0.1129  0.0357
 7580TIP3    H144155   4.812   0.959  13.405 -0.0511  0.5010 -0.5510
 7580TIP3    H244156   4.820   0.809  13.390  0.4973  0.3195  1.2897
 7581TIP3   OH244157   4.476   5.231   4.923  0.1103 -0.0217 -0.0315
 7581TIP3    H144158   4.506   5.320   4.941 -0.9345  0.4528 -0.5312
 7581TIP3    H244159   4.409   5.215   4.990 -1.5606  0.5773 -1.4814
 7582TIP3   OH244160   3.813   3.013   2.426  0.3912 -0.2511  0.4410
 7582TIP3    H144161   3.908   3.000   2.420  0.4139  0.0862  0.0196
 7582TIP3    H244162   3.785   2.951   2.492  0.9217 -0.2964  0.6321
 7583TIP3   OH244163   1.047   4.568  14.057 -0.5321 -0.2061  0.5675
 7583TIP3    H144164   0.979   4.516  14.100 -0.3027 -1.8900 -0.9733
 7583TIP3    H244165   1.087   4.508  13.994  1.6366  1.0717  0.6320
 7584TIP3   OH244166   6.022   3.781  17.129  0.4083  0.1884 -0.7041
 7584TIP3    H144167   6.081   3.711  17.102  0.3115  0.1280 -0.7618
 7584TIP3    H244168   5.965   3.742  17.195 -1.4893 -0.6165 -2.6952
 7585TIP3   OH244169   6.374   6.691   3.254 -0.5843  0.1236  0.1322
 7585TIP3    H144170   6.411   6.602   3.258 -0.7405  0.1043  2.2716
 7585TIP3    H244171   6.303   6.689   3.318  0.1299  2.1095  1.0386
 7586TIP3   OH244172   0.496   5.062  12.228  0.1049  0.0848  0.3103
 7586TIP3    H144173   0.447   5.080  12.308 -0.3875 -0.1659  0.0739
 7586TIP3    H244174   0.548   5.141  12.213 -0.0861  0.2827  0.6697
 7587TIP3   OH244175   4.065   0.358  11.893 -0.2870  0.2968 -0.0544
 7587TIP3    H144176   4.113   0.320  11.967 -1.2934  0.7078  0.8253
 7587TIP3    H244177   3.987   0.303  11.885  0.1871 -0.2287 -1.3396
 7588TIP3   OH244178   4.750   3.015  17.024  0.2164  0.1398  0.4272
 7588TIP3    H144179   4.709   3.044  17.106  1.9192  0.8789  1.0809
 7588TIP3    H244180   4.677   2.995  16.966 -1.0744  2.6061  1.0633
 7589TIP3   OH244181   6.750   6.320  12.374 -0.1332 -0.3539  0.1283
 7589TIP3    H144182   6.771   6.267  12.297 -2.2224 -0.9051 -0.1115
 7589TIP3    H244183   6.746   6.257  12.447  1.5710  0.1257  0.6747
 7590TIP3   OH244184   2.934   0.697   2.972  0.6168  0.3114  0.1858
 7590TIP3    H144185   3.028   0.709   2.984  0.8782  0.5213 -1.7814
 7590TIP3    H244186   2.912   0.752   2.897 -0.7171 -1.1453 -0.5400
 7591TIP3   OH244187   2.517   4.829  16.741  0.6963  0.2793  0.1910
 7591TIP3    H144188   2.563   4.911  16.728  1.3050 -0.0657  0.1309
 7591TIP3    H244189   2.584   4.768  16.773  0.8674 -0.9089 -2.1972
 7592TIP3   OH244190   5.810   1.984   4.846  0.3084  0.1412  0.1578
 7592TIP3    H144191   5.852   2.070   4.849  0.7190  0.0028 -1.0933
 7592TIP3    H244192   5.717   2.003   4.850  0.4220  0.5356  1.5295
 7593TIP3   OH244193   0.122   1.310   3.218 -0.5018  0.3170 -0.1388
 7593TIP3    H144194   0.176   1.388   3.201 -1.4020  1.3013  1.2905
 7593TIP3    H244195   0.121   1.263   3.135  1.6841  0.8031 -0.5053
 7594TIP3   OH244196   4.964   2.529   0.202 -0.2615 -0.2617  0.0128
 7594TIP3    H144197   4.885   2.488   0.237 -0.2526 -0.7634 -0.5230
 7594TIP3    H244198   5.007   2.567   0.278 -1.0749  0.1221  0.2971
 7595TIP3   OH244199   0.287   4.459  15.323  0.2352 -0.6287  0.3819
 7595TIP3    H144200   0.325   4.439  15.238  0.3321 -1.0358  0.5222
 7595TIP3    H244201   0.357   4.505  15.370 -0.6679  2.0642 -0.7106
 7596TIP3   OH244202   3.265   1.466  16.676 -0.6484  0.6317 -0.0652
 7596TIP3    H144203   3.188   1.491  16.727  0.0033  0.7102  0.9160
 7596TIP3    H244204   3.235   1.396  16.619 -1.2101 -0.0644  1.0552
 7597TIP3   OH244205   5.997   6.269   4.019 -0.0847 -0.1058 -0.1412
 7597TIP3    H144206   5.995   6.229   4.106 -1.3955 -1.0045 -0.5504
 7597TIP3    H244207   5.993   6.363   4.036 -0.4016 -0.2717  0.7741
 7598TIP3   OH244208   6.582   0.589   0.951 -0.3155  0.8240 -0.4317
 7598TIP3    H144209   6.560   0.498   0.929  0.9165  0.1280  1.0792
 7598TIP3    H244210   6.656   0.611   0.894 -0.4241  0.7781 -0.5893
 7599TIP3   OH244211   1.456   6.048   4.256  0.1811  0.6459  0.7719
 7599TIP3    H144212   1.507   6.127   4.275  0.8819 -0.1245  2.2906
 7599TIP3    H244213   1.378   6.080   4.212  0.5979  2.1567  1.0773
 7600TIP3   OH244214   2.640   3.162  11.265  0.1735 -0.6503  0.0079
 7600TIP3    H144215   2.591   3.182  11.344  0.0734 -1.0723  0.0540
 7600TIP3    H244216   2.574   3.158  11.196  0.1271 -1.2826  0.0820
 7601TIP3   OH244217   3.257   5.042   0.128 -0.2454 -0.0010  0.3661
 7601TIP3    H144218   3.181   5.064   0.182 -1.4768 -0.1642 -1.2394
 7601TIP3    H244219   3.242   4.951   0.101  0.5932 -0.0743  0.1178
 7602TIP3   OH244220   6.516   4.537   3.081 -0.0922  0.0095 -0.5340
 7602TIP3    H144221   6.572   4.464   3.057 -0.5190 -0.3019 -0.5881
 7602TIP3    H244222   6.437   4.497   3.117  0.6608  0.4485  1.7708
 7603TIP3   OH244223   3.748   6.583  14.274  0.4640  0.1739  0.2609
 7603TIP3    H144224   3.821   6.526  14.250  1.1823  0.9728  0.4833
 7603TIP3    H244225   3.724   6.627  14.192  0.7481  0.4777  0.3373
 7604TIP3   OH244226   4.476   3.222  13.416 -0.5081 -0.0797 -0.4567
 7604TIP3    H144227   4.571   3.218  13.425 -0.5863 -0.8666  0.1602
 7604TIP3    H244228   4.459   3.204  13.324 -0.0867 -0.4248 -0.4673
 7605TIP3   OH244229   2.960   4.446   4.705  0.4628 -0.0571  0.2895
 7605TIP3    H144230   3.016   4.369   4.709 -1.0376 -1.2250 -0.1045
 7605TIP3    H244231   2.893   4.430   4.771 -0.5469  0.3313 -0.6117
 7606TIP3   OH244232   6.055   3.062   6.593  0.0026 -0.1186  0.5646
 7606TIP3    H144233   6.132   3.077   6.537 -0.2031  0.6581  0.4779
 7606TIP3    H244234   6.058   2.969   6.613  0.1817 -0.3735 -0.5908
 7607TIP3   OH244235   5.696   5.292  15.420  0.0348 -0.1028 -0.3149
 7607TIP3    H144236   5.677   5.218  15.476 -3.1806  1.1263  0.4142
 7607TIP3    H244237   5.745   5.255  15.347 -2.0741 -3.1135 -0.3666
 7608TIP3   OH244238   4.698   3.160  14.672 -0.5775 -0.0598 -0.3134
 7608TIP3    H144239   4.689   3.254  14.688  1.1373 -0.0598  1.0418
 7608TIP3    H244240   4.760   3.154  14.599 -0.0690 -0.1273  0.1180
 7609TIP3   OH244241   0.473   3.528   4.784 -0.3160 -0.2505 -0.1742
 7609TIP3    H144242   0.557   3.482   4.792 -0.8342 -0.8839  2.3760
 7609TIP3    H244243   0.409   3.469   4.824 -1.5863  1.2270  0.0885
 7610TIP3   OH244244   2.321   5.270  14.552 -0.0364 -0.2271  0.2536
 7610TIP3    H144245   2.227   5.257  14.562 -0.1452  0.2299 -0.1530
 7610TIP3    H244246   2.337   5.263  14.458  0.3848 -0.6156  0.3487
 7611TIP3   OH244247   5.137   0.802  15.239  0.3876 -0.0480  0.0593
 7611TIP3    H144248   5.184   0.749  15.304  1.2322 -0.3500 -0.7715
 7611TIP3    H244249   5.168   0.770  15.155 -0.6746  0.3604 -0.5036
 7612TIP3   OH244250   2.506   0.039   5.398 -0.2687  0.0688  0.0823
 7612TIP3    H144251   2.445   0.111   5.411 -0.4924 -0.1092  0.0340
 7612TIP3    H244252   2.485  -0.023   5.468 -0.4766 -0.2162 -0.2270
 7613TIP3   OH244253   4.314   6.229  13.173 -0.3048  0.4096 -0.3692
 7613TIP3    H144254   4.290   6.150  13.126 -0.5908  0.6172 -0.5715
 7613TIP3    H244255   4.235   6.283  13.172 -1.9168 -1.3620  4.1644
 7614TIP3   OH244256   1.168   1.966   4.766 -0.2063 -0.3632  0.1848
 7614TIP3    H144257   1.142   1.965   4.674  0.7233  1.0412 -0.1090
 7614TIP3    H244258   1.114   2.034   4.806  1.9556  1.6444 -0.1497
 7615TIP3   OH244259   3.661   0.901   2.230  0.1094  0.4668 -0.7614
 7615TIP3    H144260   3.667   0.896   2.135 -0.9994  1.0331 -0.8774
 7615TIP3    H244261   3.657   0.994   2.249 -0.0120  0.3473 -0.1854
 7616TIP3   OH244262   2.544   1.024   0.246  0.2608 -0.0372  0.3308
 7616TIP3    H144263   2.525   1.080   0.322 -0.5768  0.6870 -0.3848
 7616TIP3    H244264   2.459   0.989   0.220  0.5651 -0.4244 -0.1680
 7617TIP3   OH244265   6.686   5.473  13.292  0.0745  0.2517 -0.5741
 7617TIP3    H144266   6.762   5.439  13.341  0.2402  0.2689 -0.8171
 7617TIP3    H244267   6.642   5.395  13.260  0.5110  0.2607 -1.2157
 7618TIP3   OH244268   4.403   0.043  12.490 -0.2817  0.2721 -0.8473
 7618TIP3    H144269   4.409   0.010  12.400 -1.1621  0.3129 -0.9265
 7618TIP3    H244270   4.453   0.125  12.489  0.3432 -0.1006 -1.1061
 7619TIP3   OH244271   6.627   3.936   4.260  0.3959 -0.4022  0.0611
 7619TIP3    H144272   6.696   3.926   4.326 -0.7270 -1.3647  1.1266
 7619TIP3    H244273   6.672   3.975   4.185  1.7377  0.6262  1.3285
 7620TIP3   OH244274   5.896   5.997  13.641 -0.3804 -0.1906 -0.2233
 7620TIP3    H144275   5.904   6.091  13.625 -1.7211 -0.2267 -1.2699
 7620TIP3    H244276   5.973   5.974  13.693  1.1520  1.0574 -1.8678
 7621TIP3   OH244277   2.269   5.646   0.042 -0.5934  0.0183 -0.0172
 7621TIP3    H144278   2.281   5.663   0.136 -1.1885 -0.0548  0.0764
 7621TIP3    H244279   2.202   5.709   0.015  1.5463  2.0098 -1.0283
 7622TIP3   OH244280   6.662   0.087   3.598 -0.5221 -0.0018  0.1698
 7622TIP3    H144281   6.620   0.131   3.672  0.1015 -0.9835  1.1367
 7622TIP3    H244282   6.755   0.100   3.611 -0.3079 -1.6723  0.5549
 7623TIP3   OH244283   5.153   0.612   4.439  0.2433  0.4669 -0.1860
 7623TIP3    H144284   5.148   0.658   4.523  0.2584 -2.6030  1.6474
 7623TIP3    H244285   5.067   0.626   4.399 -1.1832 -0.9763  2.1423
 7624TIP3   OH244286   5.157   1.636   0.150  0.0447 -0.5863 -0.1890
 7624TIP3    H144287   5.247   1.612   0.171 -0.4046 -1.0674  1.3003
 7624TIP3    H244288   5.156   1.732   0.155  0.8303 -0.4542 -1.8570
 7625TIP3   OH244289   2.585   6.467  14.897 -0.9840 -0.7357  0.0398
 7625TIP3    H144290   2.510   6.426  14.939 -1.2608 -0.3191 -0.0308
 7625TIP3    H244291   2.547   6.512  14.821 -1.2022  2.0423  1.6361
 7626TIP3   OH244292   3.545   0.557   4.776  0.3136  0.2514  0.4081
 7626TIP3    H144293   3.542   0.465   4.751 -0.8324  0.4862 -0.4383
 7626TIP3    H244294   3.472   0.568   4.837  1.0426  0.4091  1.2778
 7627TIP3   OH244295   1.264   5.534  17.338  0.1209  0.2007  0.3151
 7627TIP3    H144296   1.179   5.501  17.369  0.4017 -0.5891  0.2686
 7627TIP3    H244297   1.291   5.470  17.271 -0.3411  1.7044 -1.3898
 7628TIP3   OH244298   3.572   4.528  14.067 -0.1198  0.3941 -0.2074
 7628TIP3    H144299   3.587   4.571  13.983 -1.9834  0.1328 -0.7292
 7628TIP3    H244300   3.506   4.582  14.111  0.2079  0.0613  0.7277
 7629TIP3   OH244301   6.107   3.915   5.317  0.3608  0.3050  0.3098
 7629TIP3    H144302   6.044   3.851   5.284 -0.7732  1.9492 -0.9189
 7629TIP3    H244303   6.068   3.947   5.398  1.3664 -1.1362  1.4075
 7630TIP3   OH244304   2.188   6.274  12.318  0.4719 -0.0484 -0.1877
 7630TIP3    H144305   2.216   6.362  12.342 -0.8577  0.2388  0.4380
 7630TIP3    H244306   2.126   6.287  12.246  0.2675 -0.4730 -0.0931
 7631TIP3   OH244307   3.401   0.085  15.444  0.5080 -0.1867  0.3249
 7631TIP3    H144308   3.377   0.074  15.352 -0.0635  0.9669  0.3078
 7631TIP3    H244309   3.322   0.122  15.485  0.8505 -0.4052  1.2221
 7632TIP3   OH244310   4.799   5.031   2.796 -0.4782 -0.0797 -0.4404
 7632TIP3    H144311   4.787   5.077   2.713  1.3965 -0.2965 -0.8669
 7632TIP3    H244312   4.767   5.092   2.863  3.7612  2.8953 -0.7529
 7633TIP3   OH244313   0.451   5.138  16.220 -0.2146  0.5750  0.7304
 7633TIP3    H144314   0.524   5.198  16.205 -0.8062  0.5808 -3.5557
 7633TIP3    H244315   0.491   5.052  16.226  0.3022  0.8318  1.0185
 7634TIP3   OH244316   0.121   0.537  17.128  0.7513 -0.2994 -0.6037
 7634TIP3    H144317   0.074   0.621  17.122  0.5257 -0.3857 -0.0755
 7634TIP3    H244318   0.134   0.524  17.221  2.1125 -0.1282 -0.7552
 7635TIP3   OH244319   5.256   2.480  13.933  0.4982 -0.2020  0.1219
 7635TIP3    H144320   5.195   2.444  13.870  1.1564  1.4162 -1.5456
 7635TIP3    H244321   5.295   2.556  13.888  1.4949  0.6212  2.2251
 7636TIP3   OH244322   1.224   2.330   6.494 -0.0906 -0.5600 -0.5926
 7636TIP3    H144323   1.199   2.373   6.413 -0.7831 -0.4740 -0.3452
 7636TIP3    H244324   1.243   2.402   6.555 -3.8829 -0.3880  0.6651
 7637TIP3   OH244325   0.090   0.167   5.593  0.2714  0.0417 -0.3173
 7637TIP3    H144326   0.011   0.152   5.645  1.0768 -2.1548  0.4001
 7637TIP3    H244327   0.066   0.138   5.505  0.2463 -0.6042 -0.1044
 7638TIP3   OH244328   2.930   3.427  11.887 -0.2815 -0.1980 -0.5292
 7638TIP3    H144329   2.879   3.370  11.945  0.5277  0.5981  1.0053
 7638TIP3    H244330   2.905   3.516  11.912  1.8051  0.2181  0.2399
 7639TIP3   OH244331   5.501   4.327   5.459  0.3223 -0.0994 -0.3976
 7639TIP3    H144332   5.475   4.387   5.389 -2.0418 -0.5479 -0.0198
 7639TIP3    H244333   5.539   4.383   5.526 -0.9549  0.9037 -0.4614
 7640TIP3   OH244334   6.618   0.757   5.015 -0.1733  0.3482 -0.4514
 7640TIP3    H144335   6.542   0.805   4.982 -2.4329 -1.0889  2.2500
 7640TIP3    H244336   6.662   0.818   5.073  0.5584  1.0386 -1.6812
 7641TIP3   OH244337   1.626   1.759  15.117 -0.0172  0.4559 -0.0580
 7641TIP3    H144338   1.634   1.781  15.210 -0.4723 -0.5294  0.2364
 7641TIP3    H244339   1.659   1.669  15.112 -0.2638  0.4048 -0.8073
 7642TIP3   OH244340   3.592   3.913   2.762  0.3637  0.1525  0.5024
 7642TIP3    H144341   3.666   3.872   2.806 -0.0407  0.1641  1.2220
 7642TIP3    H244342   3.533   3.840   2.742 -0.1032  0.3047  1.2826
 7643TIP3   OH244343   3.265   3.616  16.855  0.7629  0.0963 -0.4641
 7643TIP3    H144344   3.246   3.672  16.930 -0.9698 -2.0862  0.8487
 7643TIP3    H244345   3.357   3.635  16.833  0.6356  2.4028  0.7319
 7644TIP3   OH244346   2.917   1.976   3.786 -0.6831 -0.0177 -0.4207
 7644TIP3    H144347   3.002   1.932   3.788 -0.6454  0.0730  0.8430
 7644TIP3    H244348   2.937   2.068   3.799 -0.8981  0.1405 -1.2030
 7645TIP3   OH244349   1.221   5.164   3.439  0.8228  0.5598 -0.5230
 7645TIP3    H144350   1.287   5.188   3.504  2.5181  1.8673 -2.5443
 7645TIP3    H244351   1.246   5.214   3.361 -1.6679 -0.1547 -1.8897
 7646TIP3   OH244352   4.843   3.543   0.634  0.4803  0.2580 -1.0122
 7646TIP3    H144353   4.811   3.523   0.722  2.0226  1.7460 -0.0489
 7646TIP3    H244354   4.813   3.632   0.617  1.7344  0.6535 -1.2235
 7647TIP3   OH244355   3.576   5.931  11.259 -0.1479 -0.0118 -0.3945
 7647TIP3    H144356   3.503   5.915  11.200 -0.3783 -0.6629  0.0470
 7647TIP3    H244357   3.650   5.951  11.202 -0.7455  1.0184 -0.8329
 7648TIP3   OH244358   5.476   0.673  14.910  0.4718  0.8294  0.5015
 7648TIP3    H144359   5.564   0.677  14.948  1.3016  1.6276 -1.3888
 7648TIP3    H244360   5.491   0.660  14.817 -1.4565  0.1436  0.2513
 7649TIP3   OH244361   0.656   4.338  14.317 -0.6053 -0.0139  0.3660
 7649TIP3    H144362   0.624   4.395  14.387  1.5701 -0.8932  2.2060
 7649TIP3    H244363   0.636   4.249  14.347 -0.6160 -0.3747 -0.6716
 7650TIP3   OH244364   2.827   4.685   0.693 -0.0526 -0.1442  1.1692
 7650TIP3    H144365   2.771   4.635   0.633  1.2513 -0.6984  0.3717
 7650TIP3    H244366   2.768   4.715   0.761 -1.5723  0.3254 -0.2798
 7651TIP3   OH244367   5.395   0.342  17.066 -0.6106  0.3756  0.2941
 7651TIP3    H144368   5.447   0.406  17.114 -0.2804 -0.1651  0.6675
 7651TIP3    H244369   5.420   0.354  16.975  0.9689 -0.5788  0.5690
 7652TIP3   OH244370   2.931   2.940  16.180 -0.4360  0.5086  0.2352
 7652TIP3    H144371   2.950   2.901  16.095 -1.2099 -1.1970  0.8002
 7652TIP3    H244372   2.916   2.865  16.238  1.3613  1.5737  2.2061
 7653TIP3   OH244373   1.586   6.604   2.402  0.2760  0.2579  0.5749
 7653TIP3    H144374   1.548   6.678   2.450  1.2532  1.3856 -0.3222
 7653TIP3    H244375   1.511   6.555   2.370 -0.5005  2.3137 -0.9780
 7654TIP3   OH244376   4.501   2.718  10.955  0.8264 -0.1647  0.3462
 7654TIP3    H144377   4.533   2.807  10.947  1.8250 -0.3403  1.9357
 7654TIP3    H244378   4.559   2.666  10.900 -0.6419  0.2911 -1.7583
 7655TIP3   OH244379   1.575   5.694  12.833  0.4940 -0.4128 -0.3883
 7655TIP3    H144380   1.654   5.687  12.779  1.6867 -2.1336  1.4539
 7655TIP3    H244381   1.607   5.722  12.918 -0.9760 -0.6202  0.2585
 7656TIP3   OH244382   0.456   0.254  13.549 -0.1054 -0.1035  0.1074
 7656TIP3    H144383   0.517   0.180  13.545  0.3582  0.2874 -0.2239
 7656TIP3    H244384   0.485   0.304  13.625 -0.7545 -0.5438  0.6523
 7657TIP3   OH244385   6.046   6.396  12.890  0.7353  0.1704  0.2039
 7657TIP3    H144386   5.980   6.364  12.950 -0.0529 -1.3100 -1.3444
 7657TIP3    H244387   5.997   6.437  12.819  1.2439 -2.4018 -1.7982
 7658TIP3   OH244388   4.240   3.896   0.343 -0.7310 -0.1431 -0.2031
 7658TIP3    H144389   4.220   3.868   0.432  0.3609  0.5690  0.2852
 7658TIP3    H244390   4.316   3.954   0.352  0.4138 -1.3138 -1.7630
 7659TIP3   OH244391   3.455   2.764  14.893 -0.3438 -0.4046 -0.5036
 7659TIP3    H144392   3.363   2.790  14.902 -0.4702 -1.0673  0.1455
 7659TIP3    H244393   3.458   2.720  14.808 -0.3550  0.7260 -1.1084
 7660TIP3   OH244394   1.737   0.456  13.094  0.3364  0.3997  0.2795
 7660TIP3    H144395   1.657   0.405  13.078  0.7549  0.2566 -1.6399
 7660TIP3    H244396   1.807   0.391  13.096  0.5086  0.6051  1.1208
 7661TIP3   OH244397   2.989   0.397   0.633  0.8250 -0.0260 -0.4883
 7661TIP3    H144398   3.031   0.444   0.705  1.6049 -0.1872 -0.8353
 7661TIP3    H244399   3.060   0.349   0.590  0.0791 -1.4759 -0.1883
 7662TIP3   OH244400   1.856   2.316  12.178 -0.1038  0.4142 -0.0198
 7662TIP3    H144401   1.788   2.383  12.165  0.2711  0.4494 -2.2051
 7662TIP3    H244402   1.808   2.233  12.181 -0.4479  0.6376  1.2816
 7663TIP3   OH244403   5.944   2.781  12.405 -0.6644  0.1376  1.2486
 7663TIP3    H144404   6.030   2.743  12.425 -0.3475  0.7587  1.0708
 7663TIP3    H244405   5.961   2.845  12.337 -1.4527 -0.5822  0.3418
 7664TIP3   OH244406   4.519   4.688  12.612  0.0168  0.4295  0.4495
 7664TIP3    H144407   4.511   4.775  12.574  0.9588  0.7673  0.9831
 7664TIP3    H244408   4.550   4.633  12.540  1.6951  1.0429  0.6537
 7665TIP3   OH244409   1.503   1.734   1.420  0.2477 -0.1449 -0.1580
 7665TIP3    H144410   1.561   1.810   1.432 -0.1336  0.0145  0.8053
 7665TIP3    H244411   1.562   1.663   1.392  0.7728  0.2364 -0.0364
 7666TIP3   OH244412   5.095   1.050  11.132  0.6292 -0.1936 -0.1019
 7666TIP3    H144413   5.057   1.137  11.115 -1.1966 -1.1502 -1.1620
 7666TIP3    H244414   5.142   1.061  11.215  0.9608  1.9620 -0.5235
 7667TIP3   OH244415   3.559   3.628  16.491 -0.5089 -0.0478 -0.1577
 7667TIP3    H144416   3.526   3.662  16.574  0.7234  1.5633 -0.2743
 7667TIP3    H244417   3.611   3.700  16.455  3.2210 -2.3757  0.0689
 7668TIP3   OH244418   3.619   6.342  15.599  0.7018  0.2641  0.0694
 7668TIP3    H144419   3.545   6.400  15.580  0.0913 -0.4283  0.2926
 7668TIP3    H244420   3.645   6.365  15.688  0.8022  0.5507 -0.0313
 7669TIP3   OH244421   0.617   6.431  14.616 -0.5411  0.2246  1.1815
 7669TIP3    H144422   0.547   6.496  14.624 -1.0057 -0.0532 -0.1959
 7669TIP3    H244423   0.684   6.475  14.563 -0.4918 -0.1175  0.9532
 7670TIP3   OH244424   4.674   3.602   6.512  0.4171 -0.2024  0.0320
 7670TIP3    H144425   4.672   3.696   6.524 -2.2401 -0.2154  0.4183
 7670TIP3    H244426   4.681   3.566   6.600  0.9941 -0.3673 -0.0792
 7671TIP3   OH244427   6.253   1.115   4.626 -0.1649 -0.1126  0.1492
 7671TIP3    H144428   6.287   1.051   4.563  0.3574 -0.4638  0.7635
 7671TIP3    H244429   6.243   1.196   4.576  2.5864  0.3116  0.1184
 7672TIP3   OH244430   6.180   1.624  12.213 -0.3484  0.1578 -0.2008
 7672TIP3    H144431   6.203   1.636  12.305  0.6272 -0.7201 -0.3146
 7672TIP3    H244432   6.101   1.676  12.201  1.2521  2.8916  0.3497
 7673TIP3   OH244433   1.101   5.703   5.307  0.6229  0.1135  0.4436
 7673TIP3    H144434   1.007   5.685   5.302 -0.0423  2.9630  0.9737
 7673TIP3    H244435   1.140   5.639   5.248 -1.2686 -3.0598  2.3405
 7674TIP3   OH244436   4.900   4.795  13.169  0.1220  0.4596  0.6309
 7674TIP3    H144437   4.922   4.712  13.125 -0.1418 -0.2130  1.7395
 7674TIP3    H244438   4.882   4.855  13.097  0.2059 -0.4737 -0.2006
 7675TIP3   OH244439   3.152   3.836   3.903 -0.0929  0.6590 -0.1181
 7675TIP3    H144440   3.237   3.856   3.942 -0.0964  2.3144 -0.8571
 7675TIP3    H244441   3.151   3.886   3.821 -2.0746  1.3249  0.2568
 7676TIP3   OH244442   3.019   3.154   0.420 -0.8227  0.5606  0.8023
 7676TIP3    H144443   3.081   3.225   0.435 -0.6042  0.5339  0.0619
 7676TIP3    H244444   3.068   3.089   0.370 -0.7107 -0.5821  2.3027
 7677TIP3   OH244445   3.317   5.783   2.601 -0.5351 -0.8240  0.0182
 7677TIP3    H144446   3.327   5.801   2.508  0.3592  0.0109  0.2679
 7677TIP3    H244447   3.260   5.706   2.604  0.5109 -1.6957 -1.2672
 7678TIP3   OH244448   0.480   1.499  11.295 -0.0202  0.1517 -0.8199
 7678TIP3    H144449   0.465   1.498  11.390  0.2550 -0.2072 -0.7785
 7678TIP3    H244450   0.398   1.534  11.259  0.0431  0.7332 -0.4238
 7679TIP3   OH244451   1.855   3.418   0.818  0.1508 -0.6053  0.4410
 7679TIP3    H144452   1.882   3.489   0.760 -0.3517 -0.2765  0.6027
 7679TIP3    H244453   1.937   3.374   0.841  0.6977  0.9330  1.6654
 7680TIP3   OH244454   5.253   5.519   5.351  0.3143  0.3021  0.0196
 7680TIP3    H144455   5.228   5.559   5.434  0.0302  0.1018  0.0320
 7680TIP3    H244456   5.183   5.545   5.290  0.2711  0.0495 -0.0380
 7681TIP3   OH244457   4.021   5.447  16.806 -0.7171  0.5665 -0.8511
 7681TIP3    H144458   4.003   5.541  16.806  0.5274  0.8438  0.4524
 7681TIP3    H244459   4.070   5.433  16.887 -1.2725 -1.2935 -0.8027
 7682TIP3   OH244460   4.857   3.517  12.644  0.0761 -0.0225 -0.6897
 7682TIP3    H144461   4.812   3.528  12.560  0.9759 -0.4724 -1.2529
 7682TIP3    H244462   4.928   3.456  12.625  0.1907 -0.2641  0.4484
 7683TIP3   OH244463   6.464   0.757  17.050 -0.2928  0.4250 -0.2212
 7683TIP3    H144464   6.420   0.720  16.974 -0.6899 -0.3214  0.3628
 7683TIP3    H244465   6.484   0.682  17.105  1.2528  0.8093 -0.2261
 7684TIP3   OH244466   4.611   5.760   3.146  0.5413  0.0964  0.3114
 7684TIP3    H144467   4.607   5.669   3.174 -0.1962 -0.1559 -0.5794
 7684TIP3    H244468   4.701   5.771   3.114 -0.7150 -2.0688 -5.0699
 7685TIP3   OH244469   3.632   0.321   1.281 -0.0179 -0.1824  0.1165
 7685TIP3    H144470   3.612   0.357   1.195 -0.2583  2.2415  1.1112
 7685TIP3    H244471   3.690   0.386   1.321  0.9122 -1.7429  1.4330
 7686TIP3   OH244472   2.990   2.607  11.703 -0.5029  0.2661  0.1404
 7686TIP3    H144473   2.907   2.568  11.676  0.6259 -1.4664 -1.1021
 7686TIP3    H244474   3.054   2.536  11.693  1.2262  1.6845  0.5353
 7687TIP3   OH244475   6.251   4.351  15.655  0.2015  0.2938  0.2367
 7687TIP3    H144476   6.263   4.295  15.732 -1.1282 -2.9616 -1.6959
 7687TIP3    H244477   6.331   4.338  15.604  0.0304  0.4595 -0.0752
 7688TIP3   OH244478   5.989   6.420  14.114  0.3900 -0.4805  0.1674
 7688TIP3    H144479   5.986   6.328  14.140  0.0483 -1.5002 -3.0311
 7688TIP3    H244480   6.065   6.425  14.056 -1.2337  0.4598 -2.0383
 7689TIP3   OH244481   3.528   5.106   5.928 -0.0656  0.6771 -0.3418
 7689TIP3    H144482   3.524   5.032   5.989 -0.3238  0.1329 -1.0024
 7689TIP3    H244483   3.554   5.180   5.982 -1.6063  0.5001  0.6973
 7690TIP3   OH244484   4.424   0.476  12.978  0.2151  0.2684 -0.6599
 7690TIP3    H144485   4.404   0.407  12.914  0.0892 -0.0810 -0.2458
 7690TIP3    H244486   4.373   0.453  13.055  0.2080  0.8039 -0.5012
 7691TIP3   OH244487   2.537   2.908   6.387  0.3262  0.3299  0.1571
 7691TIP3    H144488   2.490   2.921   6.469 -1.6433 -1.9340 -0.4971
 7691TIP3    H244489   2.608   2.972   6.390  0.6092  0.0688  3.7837
 7692TIP3   OH244490   5.620   6.250  16.092 -0.1764 -0.0277  0.3094
 7692TIP3    H144491   5.669   6.322  16.053 -1.5721  0.9322  0.2534
 7692TIP3    H244492   5.539   6.290  16.123 -2.1370 -1.9725 -1.9237
 7693TIP3   OH244493   0.219   1.353   3.707 -0.3856 -0.3630  0.1456
 7693TIP3    H144494   0.158   1.420   3.739  0.0174 -1.4876  3.5867
 7693TIP3    H244495   0.297   1.403   3.681 -0.9284  0.6915  0.4664
 7694TIP3   OH244496   2.004   2.838   3.685  0.0434 -0.3938 -0.6615
 7694TIP3    H144497   2.075   2.901   3.669 -0.8810  0.6220 -0.9201
 7694TIP3    H244498   1.925   2.892   3.690 -0.7149 -1.4944 -0.3386
 7695TIP3   OH244499   4.684   3.168  13.727  0.3894  0.3244 -0.2568
 7695TIP3    H144500   4.726   3.092  13.685  0.9617  0.0082  0.8583
 7695TIP3    H244501   4.715   3.166  13.817 -1.4800  0.5245  0.4202
 7696TIP3   OH244502   1.146   4.469  13.690  0.1478  0.3009 -0.3759
 7696TIP3    H144503   1.183   4.548  13.728  0.0038 -0.1621  0.7929
 7696TIP3    H244504   1.215   4.403  13.699  0.2495  0.2701 -1.2905
 7697TIP3   OH244505   0.253   4.902  14.994  0.3101  0.2131 -0.8248
 7697TIP3    H144506   0.197   4.979  14.987  0.6122  0.3957 -1.2782
 7697TIP3    H244507   0.303   4.916  15.075  0.2534  0.4173 -0.8238
 7698TIP3   OH244508   6.383   2.988  12.138 -0.9337  0.0136  0.5775
 7698TIP3    H144509   6.399   3.083  12.137  0.6142 -0.2093 -0.3718
 7698TIP3    H244510   6.349   2.970  12.225 -1.4659  1.4713  0.6977
 7699TIP3   OH244511   5.033   4.579   4.148  0.3391  0.3595 -0.1313
 7699TIP3    H144512   5.005   4.519   4.217  1.5354 -0.8574 -0.6605
 7699TIP3    H244513   5.066   4.656   4.195  0.7096 -0.2615  0.6348
 7700TIP3   OH244514   1.154   1.056  16.983 -0.3080  0.0438  0.1826
 7700TIP3    H144515   1.062   1.033  16.964  0.0637 -1.2946 -0.1064
 7700TIP3    H244516   1.148   1.129  17.045 -1.5660  0.2668 -0.1678
 7701TIP3   OH244517   4.132   2.821   2.845 -0.2224  0.0260  0.1033
 7701TIP3    H144518   4.119   2.734   2.806 -2.0265  0.3047  0.0155
 7701TIP3    H244519   4.137   2.804   2.939  0.2271 -0.2481  0.0341
 7702TIP3   OH244520   2.792   5.414   0.527 -0.2023  0.6182 -0.1090
 7702TIP3    H144521   2.774   5.323   0.549  1.8304  0.0392 -0.5572
 7702TIP3    H244522   2.795   5.459   0.611 -1.9274  0.4414  0.0688
 7703TIP3   OH244523   6.421   3.400  12.976  0.4382  0.2655 -0.1478
 7703TIP3    H144524   6.477   3.421  13.050  0.4827 -0.9816  0.1845
 7703TIP3    H244525   6.336   3.440  12.998  0.7047  0.6828  0.1356
 7704TIP3   OH244526   2.059   2.233  15.894  0.0365 -0.0344  0.3777
 7704TIP3    H144527   2.023   2.317  15.864  1.0851  0.0893 -0.6015
 7704TIP3    H244528   2.051   2.237  15.989 -0.4731  0.9279  0.3113
 7705TIP3   OH244529   5.752   6.007  16.505  0.2215 -0.5654 -0.0216
 7705TIP3    H144530   5.746   5.914  16.528  0.2630 -0.5326  0.1198
 7705TIP3    H244531   5.758   6.052  16.589  1.2560 -0.5038 -0.1166
 7706TIP3   OH244532   1.646   4.065   3.636  0.0291  0.1623  0.3307
 7706TIP3    H144533   1.698   4.132   3.680  1.4945  0.4558 -1.7114
 7706TIP3    H244534   1.579   4.115   3.589 -0.9182 -0.0788  1.3896
 7707TIP3   OH244535   4.102   1.985  11.188 -0.0598  0.1848 -0.3834
 7707TIP3    H144536   4.135   1.990  11.099 -0.5594 -2.5202 -0.7914
 7707TIP3    H244537   4.009   2.007  11.180  0.1887  1.4070 -0.2352
 7708TIP3   OH244538   1.900   5.802  15.095 -0.1398 -0.1214 -0.5578
 7708TIP3    H144539   1.842   5.878  15.098  0.5066  0.3913 -0.9001
 7708TIP3    H244540   1.847   5.731  15.132 -0.0466  0.9602  1.8710
 7709TIP3   OH244541   1.201   3.075   3.365  0.2221 -0.2219 -0.5297
 7709TIP3    H144542   1.113   3.039   3.369  0.5034 -1.0914 -1.6133
 7709TIP3    H244543   1.249   3.015   3.307  1.8892 -0.5176  1.0617
 7710TIP3   OH244544   0.890   1.084   2.804  0.6788 -0.0405 -0.4649
 7710TIP3    H144545   0.860   1.128   2.883 -1.3978 -1.5277 -0.3580
 7710TIP3    H244546   0.844   1.128   2.733  1.7369  0.6020 -0.7693
 7711TIP3   OH244547   5.137   4.195   3.369  0.2220  0.2404 -0.7496
 7711TIP3    H144548   5.210   4.243   3.331 -0.9729  0.7835 -2.5068
 7711TIP3    H244549   5.063   4.256   3.363 -1.1144 -1.3944 -2.1242
 7712TIP3   OH244550   1.454   6.608   0.772 -0.1346  0.9481  0.3384
 7712TIP3    H144551   1.529   6.662   0.744  1.4371 -1.5205 -0.5303
 7712TIP3    H244552   1.469   6.594   0.866  1.0740 -0.2545  0.0060
 7713TIP3   OH244553   1.829   4.236  16.097  0.1150  0.1047 -0.0373
 7713TIP3    H144554   1.924   4.243  16.088  0.0311  0.8884 -0.3679
 7713TIP3    H244555   1.798   4.230  16.006 -0.1660 -0.0373  0.0683
 7714TIP3   OH244556   4.900   5.454  16.339 -0.5230 -0.2445 -0.4515
 7714TIP3    H144557   4.861   5.376  16.301 -0.1654 -0.3286 -0.6497
 7714TIP3    H244558   4.825   5.511  16.357 -0.9175 -1.1819  1.0016
 7715TIP3   OH244559   5.618   2.591  17.200 -0.3102 -0.9015  0.1818
 7715TIP3    H144560   5.526   2.593  17.223 -0.0192  0.2019  1.3603
 7715TIP3    H244561   5.632   2.670  17.148  0.3948  0.1899  1.9236
 7716TIP3   OH244562   2.855   3.751   1.867 -0.4982  0.2059  0.0496
 7716TIP3    H144563   2.786   3.796   1.817 -1.1772  1.9768  2.4241
 7716TIP3    H244564   2.936   3.776   1.822 -1.2517 -1.6848 -2.6241
 7717TIP3   OH244565   5.236   5.852  15.012  0.4862  0.4773 -0.4331
 7717TIP3    H144566   5.185   5.933  15.011 -0.5953 -0.0536  2.3484
 7717TIP3    H244567   5.179   5.786  14.973  0.4795  0.5770 -0.5954
 7718TIP3   OH244568   5.806   3.004  11.589 -0.2359 -0.1869  0.0376
 7718TIP3    H144569   5.777   2.914  11.572  1.1765 -0.4752 -1.0437
 7718TIP3    H244570   5.727   3.057  11.580 -0.5604 -0.9766 -2.4170
 7719TIP3   OH244571   4.059   3.607   5.074  0.0461  0.0855 -0.6390
 7719TIP3    H144572   4.140   3.558   5.063 -0.2291 -0.9533  1.4594
 7719TIP3    H244573   4.085   3.699   5.062  1.2103 -0.3133 -1.4032
 7720TIP3   OH244574   4.683   0.553  13.293 -0.2141 -0.4109  0.2141
 7720TIP3    H144575   4.612   0.538  13.355  0.8438  0.4079  1.6753
 7720TIP3    H244576   4.643   0.608  13.225 -1.1562 -0.5711  0.6132
 7721TIP3   OH244577   0.454   5.524  14.168  0.2869  0.0285 -0.1073
 7721TIP3    H144578   0.394   5.595  14.192  0.0444 -0.1328 -0.2335
 7721TIP3    H244579   0.397   5.450  14.150  0.5404 -0.1903 -0.0107
 7722TIP3   OH244580   2.496   0.276  12.281 -0.6319 -0.4083 -0.3325
 7722TIP3    H144581   2.549   0.341  12.235  0.5163 -1.9350 -1.2555
 7722TIP3    H244582   2.433   0.327  12.332  1.5586  1.4857  0.6213
 7723TIP3   OH244583   5.936   1.945   5.624  0.1732 -0.3041 -0.1864
 7723TIP3    H144584   5.900   1.930   5.711 -1.6603 -1.9629 -1.1662
 7723TIP3    H244585   5.949   2.040   5.619 -1.6635  0.0551  1.1466
 7724TIP3   OH244586   0.931   0.821  11.435 -0.6002 -0.0145  0.6286
 7724TIP3    H144587   0.963   0.784  11.518 -0.1419 -1.7937 -0.2813
 7724TIP3    H244588   1.010   0.832  11.382 -1.0005  0.1235  0.0577
 7725TIP3   OH244589   3.256   0.325   1.134 -0.6299 -0.2575 -0.0585
 7725TIP3    H144590   3.286   0.246   1.180 -1.0323 -1.7212 -2.2078
 7725TIP3    H244591   3.233   0.386   1.205 -1.1404 -2.3515  1.6915
 7726TIP3   OH244592   6.425   3.504  15.677 -0.3897  0.0587 -0.3617
 7726TIP3    H144593   6.452   3.453  15.601  0.1500  0.0139 -0.1483
 7726TIP3    H244594   6.507   3.524  15.722 -0.6102  0.9369 -0.3333
 7727TIP3   OH244595   3.181   6.087   6.169  0.0505  0.3431  0.5944
 7727TIP3    H144596   3.269   6.115   6.197  0.1113  0.2966  0.4543
 7727TIP3    H244597   3.171   5.999   6.205  0.4393 -0.0268 -0.1675
 7728TIP3   OH244598   6.269   3.824   5.948  0.3853 -0.1429  0.2319
 7728TIP3    H144599   6.305   3.741   5.919  0.1955 -0.2739  0.3722
 7728TIP3    H244600   6.306   3.837   6.036  1.8861  0.8065 -0.4831
 7729TIP3   OH244601   6.558   4.365   2.509 -0.3584 -0.3055  0.3609
 7729TIP3    H144602   6.485   4.425   2.490 -1.6315 -1.8068  0.3171
 7729TIP3    H244603   6.636   4.417   2.491 -1.4077  0.5253 -2.3200
 7730TIP3   OH244604   2.883   1.972  16.984 -0.6511  0.3048  0.4161
 7730TIP3    H144605   2.932   1.918  17.046  0.2998  1.0556  0.3406
 7730TIP3    H244606   2.792   1.944  16.994 -0.1901 -1.2683  0.4036
 7731TIP3   OH244607   0.254   0.165   3.094  0.0008  0.1715 -0.3617
 7731TIP3    H144608   0.263   0.132   3.005  1.6729 -0.2996 -0.0478
 7731TIP3    H244609   0.279   0.091   3.150 -1.0272  0.4529  0.5144
 7732TIP3   OH244610   4.267   4.069   2.537  0.2995  0.5532  0.3740
 7732TIP3    H144611   4.292   4.135   2.472  0.6154  1.0279  0.9624
 7732TIP3    H244612   4.350   4.032   2.567  0.1234 -0.1200  0.0501
 7733TIP3   OH244613   0.343   5.494  17.377 -0.3880  0.8424  0.3179
 7733TIP3    H144614   0.336   5.504  17.472 -2.1644 -2.1574  0.6289
 7733TIP3    H244615   0.259   5.526  17.343 -0.4743  0.2603 -0.0329
 7734TIP3   OH244616   2.562   0.136   1.089  0.5431 -0.0535  0.6080
 7734TIP3    H144617   2.497   0.066   1.079  0.0813  0.3061  1.0770
 7734TIP3    H244618   2.512   0.216   1.074  1.1045  0.1768 -0.0792
 7735TIP3   OH244619   6.548   4.672  16.220 -0.3786 -0.6017 -0.4838
 7735TIP3    H144620   6.499   4.685  16.139 -0.0377 -0.6894 -0.7065
 7735TIP3    H244621   6.639   4.670  16.193 -0.2502 -0.4473 -0.0711
 7736TIP3   OH244622   5.058   5.490  11.800  0.0745  0.1248  0.0542
 7736TIP3    H144623   4.999   5.499  11.875  1.2793 -1.7417  1.3028
 7736TIP3    H244624   5.128   5.553  11.818  0.5371 -0.5572  0.7072
 7737TIP3   OH244625   5.249   1.823   5.906 -0.3562  0.1249  0.2622
 7737TIP3    H144626   5.159   1.844   5.884 -0.2809  2.9231  2.0293
 7737TIP3    H244627   5.255   1.837   6.001  2.0406  0.7066  0.1125
 7738TIP3   OH244628   6.129   2.254  12.063 -0.0665 -0.0848 -0.2342
 7738TIP3    H144629   6.082   2.317  12.118  1.8528  0.8123  0.4777
 7738TIP3    H244630   6.152   2.303  11.985 -0.0824 -0.4186 -0.4494
 7739TIP3   OH244631   3.102   1.280  16.570  0.6716 -0.0401  0.0402
 7739TIP3    H144632   3.127   1.257  16.481  0.8936 -0.4082  0.1981
 7739TIP3    H244633   3.006   1.290  16.566  0.5202 -1.3076  0.0342
 7740TIP3   OH244634   4.180   2.414  13.986  0.4211 -0.2385 -0.2053
 7740TIP3    H144635   4.141   2.423  13.899  0.1578 -0.6224 -0.1239
 7740TIP3    H244636   4.185   2.504  14.018  1.6195  0.0448 -1.0961
 7741TIP3   OH244637   3.606   6.057  16.184 -0.3553  0.2979 -0.9392
 7741TIP3    H144638   3.591   6.132  16.241 -0.5969 -0.2036 -0.3345
 7741TIP3    H244639   3.644   6.094  16.105 -0.3478  1.0424 -0.5898
 7742TIP3   OH244640   3.723   0.131   3.810 -0.2157  0.3804 -0.5910
 7742TIP3    H144641   3.777   0.189   3.757  1.7987 -0.4386  0.4828
 7742TIP3    H244642   3.762   0.044   3.799 -0.8231 -0.1045  0.8347
 7743TIP3   OH244643   3.723   3.455  16.795  0.2498 -0.7696  0.5921
 7743TIP3    H144644   3.770   3.458  16.711  0.1882  2.6039  0.5345
 7743TIP3    H244645   3.779   3.503  16.856 -0.7978 -1.1006  1.8674
 7744TIP3   OH244646   3.567   2.298   6.332  0.0748 -0.3839  0.4405
 7744TIP3    H144647   3.480   2.306   6.292  0.8721 -1.3574 -1.6232
 7744TIP3    H244648   3.572   2.371   6.393 -1.9284  0.0980  0.0943
 7745TIP3   OH244649   3.780   5.891   6.752 -0.1008 -0.4337 -0.8901
 7745TIP3    H144650   3.755   5.800   6.769 -0.2157 -0.5086 -1.4247
 7745TIP3    H244651   3.729   5.943   6.814  0.5789 -0.7847 -0.0147
 7746TIP3   OH244652   5.094   5.083   0.753 -0.1760 -0.4470  0.2746
 7746TIP3    H144653   5.113   5.025   0.826  0.6370  0.0018  0.4272
 7746TIP3    H244654   5.163   5.149   0.755 -0.4159 -0.1455 -0.6033
 7747TIP3   OH244655   2.773   1.295   1.737 -0.8153  0.1712 -0.5929
 7747TIP3    H144656   2.838   1.225   1.740 -1.4196 -0.3744  0.6102
 7747TIP3    H244657   2.810   1.360   1.677 -0.7774 -1.6854 -2.6869
 7748TIP3   OH244658   0.157   4.261  12.336 -0.1122 -0.3915  0.2227
 7748TIP3    H144659   0.173   4.338  12.282  0.1246 -0.0135  0.8176
 7748TIP3    H244660   0.130   4.193  12.274 -1.0567  0.3722 -0.2478
 7749TIP3   OH244661   3.524   2.025   2.561 -0.0813 -0.5482 -0.5556
 7749TIP3    H144662   3.431   2.035   2.582  0.1501  2.7368 -0.5932
 7749TIP3    H244663   3.569   2.047   2.643  0.6499  1.1462 -1.3661
 7750TIP3   OH244664   2.132   5.877   2.737  0.4197 -0.1966  0.2450
 7750TIP3    H144665   2.066   5.931   2.693 -1.3081 -2.7621 -0.5627
 7750TIP3    H244666   2.215   5.919   2.716 -0.8058  2.2700 -0.0543
 7751TIP3   OH244667   1.862   5.231   2.931  0.0564  0.4285 -0.2337
 7751TIP3    H144668   1.841   5.301   2.869 -2.7653 -0.3555 -0.2887
 7751TIP3    H244669   1.839   5.151   2.885 -1.0100 -0.2445  1.3787
 7752TIP3   OH244670   6.724   3.284  16.995 -0.2667  0.4448  0.4661
 7752TIP3    H144671   6.673   3.211  16.958 -1.8875  1.1229  1.2658
 7752TIP3    H244672   6.769   3.322  16.919  0.4837 -1.2538  0.0079
 7753TIP3   OH244673   3.124   3.612  16.631 -0.6084  0.3681 -0.9973
 7753TIP3    H144674   3.172   3.596  16.712 -1.4121 -0.5094 -0.6730
 7753TIP3    H244675   3.071   3.533  16.618 -2.0327  1.3220 -1.2855
 7754TIP3   OH244676   5.641   3.617  12.334 -0.3077 -0.3137  0.3711
 7754TIP3    H144677   5.613   3.673  12.262  0.1496  0.1631  0.5613
 7754TIP3    H244678   5.674   3.538  12.291  1.2384  0.5184 -0.0275
 7755TIP3   OH244679   2.793   1.362   0.379  0.3179 -0.1246  0.1637
 7755TIP3    H144680   2.856   1.317   0.323  0.6092 -0.8734  1.0711
 7755TIP3    H244681   2.843   1.435   0.416  0.3178 -0.0397  0.0003
 7756TIP3   OH244682   1.757   1.084  16.551  0.3420  0.2422 -0.3876
 7756TIP3    H144683   1.833   1.135  16.579  0.5229 -0.4479  0.4047
 7756TIP3    H244684   1.742   1.021  16.622 -0.3016 -0.3433 -1.0242
 7757TIP3   OH244685   0.125   1.495   1.553 -0.5371  0.8712  0.4173
 7757TIP3    H144686   0.202   1.542   1.521 -0.7193  0.7588 -0.1910
 7757TIP3    H244687   0.063   1.563   1.578 -0.8117  0.9638 -0.4914
 7758TIP3   OH244688   5.017   5.073   4.599 -0.0334  0.2188 -0.1600
 7758TIP3    H144689   5.065   5.156   4.592 -0.7249  0.9261  2.3304
 7758TIP3    H244690   4.972   5.079   4.683 -4.5177 -0.3973 -2.2298
 7759TIP3   OH244691   4.950   4.234  10.865 -0.1415 -0.3276 -0.0789
 7759TIP3    H144692   4.984   4.150  10.835  1.1620  0.7957 -2.0036
 7759TIP3    H244693   4.856   4.227  10.854 -0.1405 -1.7829  0.5638
 7760TIP3   OH244694   5.882   2.206  12.820 -0.0152  0.4332  0.3807
 7760TIP3    H144695   5.841   2.142  12.879  2.4087 -0.5376  1.1412
 7760TIP3    H244696   5.817   2.275  12.811 -1.4333 -0.5521  2.2554
 7761TIP3   OH244697   5.811   6.088   1.472  0.4580 -0.6372 -0.3110
 7761TIP3    H144698   5.777   6.114   1.557  0.0455  0.7108 -0.8589
 7761TIP3    H244699   5.738   6.104   1.412  0.6641 -1.7806 -0.9054
 7762TIP3   OH244700   2.661   3.125  14.124  0.0649  0.0873 -0.0111
 7762TIP3    H144701   2.674   3.219  14.117  0.7315 -0.0779 -1.3033
 7762TIP3    H244702   2.572   3.110  14.091  0.6121  0.1001 -1.5849
 7763TIP3   OH244703   0.280   2.174  11.410  0.4034  0.3006 -0.0908
 7763TIP3    H144704   0.198   2.178  11.362 -0.2301 -1.3562  0.7693
 7763TIP3    H244705   0.255   2.147  11.498  1.8339  0.1417  0.2958
 7764TIP3   OH244706   2.264   0.133  12.616  0.7311  0.1047  0.6167
 7764TIP3    H144707   2.180   0.112  12.657  0.6739 -3.5610 -0.9260
 7764TIP3    H244708   2.329   0.093  12.674  1.3095  1.5519  0.9900
 7765TIP3   OH244709   3.180   3.565  13.375  0.2179 -0.0999  0.1769
 7765TIP3    H144710   3.188   3.659  13.394  0.7483  0.4080 -2.1271
 7765TIP3    H244711   3.179   3.561  13.279 -0.7322 -2.3988  0.2246
 7766TIP3   OH244712   6.539   2.492  16.301 -0.1344 -0.5152 -0.0934
 7766TIP3    H144713   6.560   2.558  16.367 -0.5880  0.6132 -1.0435
 7766TIP3    H244714   6.624   2.467  16.264  0.1776 -1.5567  1.2578
 7767TIP3   OH244715   4.778   4.116   0.589 -0.2242 -0.4514  0.1979
 7767TIP3    H144716   4.781   4.043   0.528  0.6929 -0.0685 -0.2269
 7767TIP3    H244717   4.779   4.194   0.534  0.9008 -0.0991  0.6946
 7768TIP3   OH244718   6.277   3.720   2.332  0.2131  0.2827  0.2954
 7768TIP3    H144719   6.314   3.727   2.244  1.0879 -0.7728  0.5569
 7768TIP3    H244720   6.310   3.796   2.379  1.1642 -0.0683  0.2059
 7769TIP3   OH244721   5.018   5.945  15.653  0.0006  0.0234 -0.1978
 7769TIP3    H144722   4.949   5.968  15.590 -0.8862  1.0984  1.1169
 7769TIP3    H244723   4.990   5.861  15.690 -0.0477 -0.0663 -0.4359
 7770TIP3   OH244724   4.356   0.427  17.057 -0.0070  0.0348  0.5105
 7770TIP3    H144725   4.385   0.361  17.119 -1.0260 -0.1367  0.8234
 7770TIP3    H244726   4.389   0.398  16.972 -0.9058 -1.1718  0.5589
 7771TIP3   OH244727   2.113   6.675   6.231  0.2864  0.5275 -0.3040
 7771TIP3    H144728   2.128   6.610   6.300 -1.5756 -0.9223 -1.1662
 7771TIP3    H244729   2.021   6.663   6.206  0.1038  2.9685 -1.0870
 7772TIP3   OH244730   4.514   6.069  11.459 -0.1007  0.4859 -1.0894
 7772TIP3    H144731   4.420   6.051  11.449 -0.2434 -0.3050  1.0207
 7772TIP3    H244732   4.517   6.140  11.523  0.7373  0.3909 -1.0158
 7773TIP3   OH244733   5.918   3.032  13.225  0.3575  0.1459 -0.4943
 7773TIP3    H144734   5.991   3.043  13.165 -0.8691  0.8519 -1.9168
 7773TIP3    H244735   5.955   3.047  13.312  2.3241 -1.5897 -0.9748
 7774TIP3   OH244736   0.737   2.871  11.255  0.1051  0.3838 -0.6470
 7774TIP3    H144737   0.688   2.905  11.179 -1.4811  1.3522  0.7254
 7774TIP3    H244738   0.773   2.949  11.297 -0.6782  0.0821  0.6425
 7775TIP3   OH244739   0.028   1.100  12.512  0.4001  0.0245 -0.2870
 7775TIP3    H144740  -0.056   1.118  12.471  0.7755  4.3273  0.3333
 7775TIP3    H244741   0.090   1.094  12.439  0.6434  5.0206 -0.8934
 7776TIP3   OH244742   1.854   5.809   4.356 -0.4819  0.4462 -0.4711
 7776TIP3    H144743   1.774   5.810   4.304 -1.2154  1.9787  0.6048
 7776TIP3    H244744   1.860   5.719   4.389 -2.2680  0.4975  0.1310
 7777TIP3   OH244745   1.973   1.146  13.838 -0.2568  0.5991 -0.4158
 7777TIP3    H144746   1.953   1.091  13.762  0.8122  1.2912 -1.2204
 7777TIP3    H244747   1.911   1.218  13.832 -0.1250  0.6921 -0.6719
 7778TIP3   OH244748   2.439   4.567  14.485  0.3075  0.1033  0.1956
 7778TIP3    H144749   2.428   4.574  14.580 -1.0897 -0.1306  0.0740
 7778TIP3    H244750   2.473   4.652  14.458  0.0140  0.4200  0.8132
 7779TIP3   OH244751   1.087   0.637   5.758  0.1850 -0.3302  0.3308
 7779TIP3    H144752   1.136   0.649   5.676  1.2058 -2.1554  0.6340
 7779TIP3    H244753   0.998   0.663   5.736  0.4301 -0.8147 -1.3941
 7780TIP3   OH244754   6.719   1.270  15.202 -0.5248 -0.3613 -0.3404
 7780TIP3    H144755   6.679   1.200  15.151  0.0364 -2.1561  1.5094
 7780TIP3    H244756   6.669   1.348  15.180 -1.0318 -1.2760 -2.6695
 7781TIP3   OH244757   2.370   3.562  16.485  0.2179 -0.3610 -0.0729
 7781TIP3    H144758   2.355   3.612  16.404  1.2864  1.3962  0.7518
 7781TIP3    H244759   2.317   3.607  16.550  2.0257  0.4138  0.9283
 7782TIP3   OH244760   2.071   5.853   3.483  0.0144  0.4071 -0.3603
 7782TIP3    H144761   1.994   5.830   3.535  0.3036  0.1111 -0.0607
 7782TIP3    H244762   2.085   5.776   3.427 -0.4477  0.8244 -1.0608
 7783TIP3   OH244763   0.941   1.955   5.010 -0.1133 -0.2424 -0.0261
 7783TIP3    H144764   0.949   2.050   5.013  1.3110 -0.3436 -0.1346
 7783TIP3    H244765   0.875   1.939   4.943 -0.0252  0.6484 -0.3370
 7784TIP3   OH244766   4.224   1.942  17.055 -0.0914  0.0923  0.5359
 7784TIP3    H144767   4.174   1.861  17.050 -1.0502  0.6545  0.8301
 7784TIP3    H244768   4.290   1.925  17.123  1.8022 -1.5113 -1.5287
 7785TIP3   OH244769   3.054   1.755  11.785 -0.1711 -0.3117 -0.0935
 7785TIP3    H144770   2.990   1.794  11.725  1.2569 -2.0259 -2.9578
 7785TIP3    H244771   3.078   1.827  11.843 -2.0714  1.3357 -1.1844
 7786TIP3   OH244772   1.969   1.413   1.918  0.4380 -0.2552 -0.0067
 7786TIP3    H144773   2.036   1.349   1.943 -0.9780 -1.7670  0.0664
 7786TIP3    H244774   1.975   1.419   1.823  0.0608 -1.1184 -0.0932
 7787TIP3   OH244775   2.569   3.568   1.598 -0.5396  0.0011 -0.5256
 7787TIP3    H144776   2.498   3.538   1.541 -0.4528 -2.3835  0.5143
 7787TIP3    H244777   2.648   3.555   1.546 -0.5449 -1.2276 -0.2525
 7788TIP3   OH244778   1.589   2.808  17.099  0.4865  0.7732  0.4495
 7788TIP3    H144779   1.525   2.749  17.061  0.5816  0.9682 -0.0234
 7788TIP3    H244780   1.636   2.755  17.163 -0.0272  0.5866  0.6767
 7789TIP3   OH244781   2.435   0.519   5.871  0.0089 -0.1498 -0.0403
 7789TIP3    H144782   2.522   0.531   5.910 -0.6701 -1.1935  1.9051
 7789TIP3    H244783   2.438   0.430   5.835 -1.0363 -1.2698  2.4100
 7790TIP3   OH244784   0.032   5.372  16.030 -0.2812 -0.5580  0.6061
 7790TIP3    H144785   0.061   5.304  16.091 -0.0839 -0.8763  0.1665
 7790TIP3    H244786   0.082   5.355  15.950 -0.9827 -0.5287  0.1511
 7791TIP3   OH244787   1.776   0.795   4.432  0.1393  0.4342 -0.3671
 7791TIP3    H144788   1.850   0.836   4.387  1.3919  0.3826  1.4922
 7791TIP3    H244789   1.699   0.838   4.396  1.2289  2.3671 -0.5623
 7792TIP3   OH244790   0.826   4.706   1.563  0.4786 -0.1966 -0.0278
 7792TIP3    H144791   0.733   4.687   1.551 -0.1254  0.7459  2.5314
 7792TIP3    H244792   0.861   4.710   1.474 -2.0883  0.2883 -1.1126
 7793TIP3   OH244793   1.099   2.546  17.061 -0.3120  0.3203  0.8236
 7793TIP3    H144794   1.064   2.578  17.145  1.4193  1.7280  1.0626
 7793TIP3    H244795   1.156   2.473  17.086  0.8388  1.2472  1.0088
 7794TIP3   OH244796   2.320   0.593   2.970 -0.4799  0.1912  0.0481
 7794TIP3    H144797   2.237   0.618   2.930 -0.9073  1.9487  1.8654
 7794TIP3    H244798   2.304   0.506   3.007 -0.7592 -0.4591 -1.5059
 7795TIP3   OH244799   3.521   3.186   1.055  0.0939  0.2047 -0.2636
 7795TIP3    H144800   3.593   3.126   1.034 -1.4706 -1.5642 -0.8388
 7795TIP3    H244801   3.512   3.240   0.977  0.5042  0.1291 -0.3674
 7796TIP3   OH244802   0.098   2.018  14.892 -0.0668  0.4906  0.0753
 7796TIP3    H144803   0.110   1.959  14.967  1.4501 -0.5970 -0.9627
 7796TIP3    H244804   0.178   2.070  14.891  0.6178 -0.5218 -1.6096
 7797TIP3   OH244805   0.697   3.017   0.144 -0.0629 -0.5184 -0.1690
 7797TIP3    H144806   0.623   2.978   0.097  0.0008 -1.2784  0.3410
 7797TIP3    H244807   0.746   2.942   0.177 -0.1690 -0.0149  1.1999
 7798TIP3   OH244808   3.724   0.087   4.330  0.1038  0.2207 -0.3554
 7798TIP3    H144809   3.713   0.004   4.283 -1.7866 -0.0059  0.3891
 7798TIP3    H244810   3.713   0.154   4.263  0.1911 -0.1246 -0.7225
 7799TIP3   OH244811   0.255   2.158   4.495 -0.1124 -0.1867 -0.2137
 7799TIP3    H144812   0.316   2.195   4.431 -1.3519  0.5815 -0.9929
 7799TIP3    H244813   0.282   2.196   4.579  0.5904 -0.0221 -0.5041
 7800TIP3   OH244814   1.417   0.222  15.384  0.2604  0.2138 -0.4036
 7800TIP3    H144815   1.428   0.151  15.447  1.2677  0.1305 -0.6552
 7800TIP3    H244816   1.420   0.179  15.299 -1.6438  0.2530 -0.5281
 7801TIP3   OH244817   2.556   1.039  16.139  0.0945  0.2983  0.7234
 7801TIP3    H144818   2.488   0.987  16.181  0.3373 -0.9259 -0.3400
 7801TIP3    H244819   2.621   0.975  16.110  1.5163  1.4018  1.3493
 7802TIP3   OH244820   4.707   5.059  14.442  0.2525 -0.0130 -0.3431
 7802TIP3    H144821   4.648   5.032  14.371  0.1397  0.1812 -0.3220
 7802TIP3    H244822   4.669   5.140  14.476 -0.2772 -0.6619  0.6462
 7803TIP3   OH244823   3.775   0.708  16.335 -0.2497 -0.0632 -0.1179
 7803TIP3    H144824   3.724   0.678  16.410  0.8982  2.4689  1.8374
 7803TIP3    H244825   3.854   0.653  16.336 -0.4939 -0.4129  0.1819
 7804TIP3   OH244826   0.941   0.059  15.314  0.2851  0.1916  0.8340
 7804TIP3    H144827   1.015   0.033  15.260  0.3310  0.1223  0.9296
 7804TIP3    H244828   0.981   0.084  15.398  0.2286  0.4219  0.7937
 7805TIP3   OH244829   2.696   4.845  13.839  0.1558  0.0455 -0.3337
 7805TIP3    H144830   2.619   4.896  13.863 -0.5251 -0.9048 -0.4105
 7805TIP3    H244831   2.725   4.805  13.921 -0.0750 -0.4215 -0.4697
 7806TIP3   OH244832   6.227   6.296   2.933 -0.2154  0.5093  0.1356
 7806TIP3    H144833   6.178   6.362   2.981 -1.0876 -0.1367  0.1637
 7806TIP3    H244834   6.300   6.343   2.893 -0.0383  1.2340  1.2745
 7807TIP3   OH244835   6.349   0.203  11.090  0.1286 -0.1442  0.3769
 7807TIP3    H144836   6.431   0.183  11.045 -0.0942  0.4425 -0.3236
 7807TIP3    H244837   6.351   0.150  11.169  1.9485  1.0729  1.2136
 7808TIP3   OH244838   1.328   3.310   2.867  0.5906  0.4253 -0.1684
 7808TIP3    H144839   1.368   3.277   2.787  0.9555  1.5718 -0.4851
 7808TIP3    H244840   1.290   3.395   2.841  0.7952  0.8507  0.8784
 7809TIP3   OH244841   3.335   6.677   2.480 -0.2143  0.6240 -0.1030
 7809TIP3    H144842   3.277   6.659   2.553 -1.0695 -1.3444 -1.1962
 7809TIP3    H244843   3.277   6.704   2.409  0.4570  0.9983 -0.5283
 7810TIP3   OH244844   6.587   3.259  10.412  0.3338  0.2319 -0.0889
 7810TIP3    H144845   6.595   3.165  10.429  0.1292  0.0775 -0.8168
 7810TIP3    H244846   6.661   3.298  10.459  1.7549 -0.5261 -1.6210
 7811TIP3   OH244847   3.827   0.395   3.424  0.5140 -0.3596  0.7637
 7811TIP3    H144848   3.772   0.317   3.431  0.0062 -0.0717  0.0465
 7811TIP3    H244849   3.832   0.413   3.331  1.9457 -0.4440  0.7984
 7812TIP3   OH244850   5.016   1.266   5.932 -0.2402 -0.1362 -0.5206
 7812TIP3    H144851   5.100   1.313   5.937 -0.2445 -0.1557 -0.2293
 7812TIP3    H244852   4.961   1.310   5.997  0.2242 -1.4769  0.8305
 7813TIP3   OH244853   4.352   3.815  13.756 -0.3019  0.1056  0.0887
 7813TIP3    H144854   4.276   3.832  13.812  0.6270  0.3718  1.3110
 7813TIP3    H244855   4.345   3.722  13.734 -2.0938  0.5796 -1.5479
 7814TIP3   OH244856   0.512   3.447  15.573  0.1368  0.1538 -0.3321
 7814TIP3    H144857   0.510   3.533  15.531  0.4615 -0.4758 -1.6733
 7814TIP3    H244858   0.427   3.441  15.618 -0.7498  0.3722 -1.9014
 7815TIP3   OH244859   6.078   6.386  14.505  0.0528 -0.7259 -0.2667
 7815TIP3    H144860   6.158   6.434  14.483 -0.2161  1.3701  2.7002
 7815TIP3    H244861   6.107   6.296  14.518  1.4244 -0.5300 -1.6590
 7816TIP3   OH244862   6.206   2.427  15.329 -0.3853 -0.0711  0.4805
 7816TIP3    H144863   6.185   2.423  15.236 -0.4452  0.6944  0.4520
 7816TIP3    H244864   6.241   2.516  15.341 -0.8835  0.0183  1.2924
 7817TIP3   OH244865   5.337   3.326  11.763 -0.3505 -0.4394  0.3059
 7817TIP3    H144866   5.296   3.412  11.752 -0.8240 -0.6006  0.7862
 7817TIP3    H244867   5.411   3.327  11.702 -0.0493  0.4986  0.6698
 7818TIP3   OH244868   0.660   5.424   4.145 -0.0836 -0.2699  0.0802
 7818TIP3    H144869   0.576   5.411   4.190 -0.5163  2.9212  0.4938
 7818TIP3    H244870   0.635   5.442   4.054  0.2079 -0.1849  0.0166
 7819TIP3   OH244871   3.639   1.099   1.676 -0.0147 -0.5648  0.0002
 7819TIP3    H144872   3.618   1.157   1.604  0.2817 -1.2313 -0.6384
 7819TIP3    H244873   3.653   1.157   1.751 -1.4636  0.0515 -0.1839
 7820TIP3   OH244874   1.506   0.390   4.462 -0.5615  0.0487  0.7364
 7820TIP3    H144875   1.491   0.321   4.526  0.4557 -0.8433  0.0526
 7820TIP3    H244876   1.601   0.402   4.461 -0.2140 -1.8696 -2.4549
 7821TIP3   OH244877   1.514   3.357   4.576 -0.4137  0.6432  0.1044
 7821TIP3    H144878   1.553   3.436   4.615 -0.0223  0.1218  0.8058
 7821TIP3    H244879   1.589   3.308   4.541 -0.7127  0.8500 -0.8490
 7822TIP3   OH244880   0.160   1.193   1.158 -0.4729  0.2344 -0.2566
 7822TIP3    H144881   0.159   1.245   1.077 -0.5445  0.8062  0.1061
 7822TIP3    H244882   0.201   1.250   1.222 -2.4180  0.6638  0.6848
 7823TIP3   OH244883   1.805   5.555   4.071  0.1750  0.4518  0.0069
 7823TIP3    H144884   1.773   5.490   4.008  0.3393 -1.7508  2.0427
 7823TIP3    H244885   1.741   5.626   4.067 -1.1971 -0.7656 -0.8602
 7824TIP3   OH244886   5.273   4.154   4.019 -0.0476 -0.4037 -0.1589
 7824TIP3    H144887   5.324   4.117   3.947 -0.7057 -1.2263 -0.2231
 7824TIP3    H244888   5.283   4.249   4.009 -0.4963 -0.4721 -1.6340
 7825TIP3   OH244889   4.046   5.521   3.143  0.1937  0.3512  0.0274
 7825TIP3    H144890   4.111   5.502   3.210  0.4632  0.9232 -0.0658
 7825TIP3    H244891   3.964   5.487   3.179  0.9721 -3.3178 -1.1648
 7826TIP3   OH244892   6.523   3.941   3.328  0.0097  0.3442  0.2329
 7826TIP3    H144893   6.433   3.971   3.318  0.0859  0.8882  1.0873
 7826TIP3    H244894   6.575   4.005   3.281 -0.2119 -1.5948 -2.9747
 7827TIP3   OH244895   0.090   0.212   1.917  0.2442  0.7050  0.2258
 7827TIP3    H144896   0.083   0.273   1.990 -1.9412  0.8073 -0.0232
 7827TIP3    H244897   0.020   0.149   1.932  0.1651  0.3652 -1.4519
 7828TIP3   OH244898   3.925   6.034  14.050  0.3198 -0.3386  0.1470
 7828TIP3    H144899   3.978   5.988  14.115  1.1275  0.4345  0.0584
 7828TIP3    H244900   3.838   6.041  14.091  0.7955  0.0802  1.1269
 7829TIP3   OH244901   1.134   2.025  16.656 -0.7715  0.0440 -0.1985
 7829TIP3    H144902   1.204   1.963  16.637 -1.6202 -0.9795 -0.0683
 7829TIP3    H244903   1.054   1.977  16.638 -1.4634  1.0099  0.2161
 7830TIP3   OH244904   1.451   6.288   3.788 -0.1170  0.5054 -0.4037
 7830TIP3    H144905   1.380   6.350   3.799 -0.8764 -0.2548 -0.8841
 7830TIP3    H244906   1.425   6.212   3.839  0.6757  0.4688 -0.0413
 7831TIP3   OH244907   2.600   5.031  11.712 -0.4993 -0.4033 -0.2299
 7831TIP3    H144908   2.645   5.109  11.680 -0.7634 -0.9030 -1.9260
 7831TIP3    H244909   2.667   4.962  11.710 -0.7923 -0.6797 -0.7563
 7832TIP3   OH244910   2.505   0.278  16.911 -0.2152  0.5090 -0.0980
 7832TIP3    H144911   2.585   0.242  16.873 -0.5612  0.5593 -0.8955
 7832TIP3    H244912   2.440   0.209  16.901 -0.2125  0.3711  0.7826
 7833TIP3   OH244913   0.931   1.033   4.085 -0.7430  0.4767 -0.8610
 7833TIP3    H144914   0.973   0.991   4.159  1.8603 -1.1571 -3.0673
 7833TIP3    H244915   0.951   1.126   4.096 -0.8811  0.3305  0.7449
 7834TIP3   OH244916   1.816   3.699  12.229  0.3365 -0.1381 -0.8633
 7834TIP3    H144917   1.792   3.617  12.185  0.1325 -1.0459  0.8733
 7834TIP3    H244918   1.902   3.682  12.267  0.6604  0.7551 -1.1658
 7835TIP3   OH244919   4.087   3.944   2.694 -0.6701 -0.5939  0.2631
 7835TIP3    H144920   4.150   3.998   2.646 -1.5807  0.3007  0.0235
 7835TIP3    H244921   4.035   3.901   2.627 -1.0674 -0.4014  0.4401
 7836TIP3   OH244922   5.919   2.273  13.713 -0.3160  0.8567 -0.1712
 7836TIP3    H144923   5.960   2.186  13.707 -0.5570  0.6639  0.8539
 7836TIP3    H244924   5.926   2.308  13.624 -1.4591 -0.7830 -0.9732
 7837TIP3   OH244925   3.114   6.024  13.315  0.5806  0.2962  0.4659
 7837TIP3    H144926   3.120   5.936  13.279 -1.2344  0.1098  0.5128
 7837TIP3    H244927   3.150   6.081  13.248 -0.6161 -0.2671 -0.7022
 7838TIP3   OH244928   3.929   1.520  12.496 -1.0168  0.4871 -0.3744
 7838TIP3    H144929   3.998   1.585  12.498 -1.0794  0.5620 -0.6540
 7838TIP3    H244930   3.850   1.569  12.474 -1.2295  0.4625  0.2905
 7839TIP3   OH244931   0.595   0.783  11.626  0.2723 -0.3749 -0.6017
 7839TIP3    H144932   0.539   0.717  11.585  1.8027 -1.2935 -1.3006
 7839TIP3    H244933   0.634   0.737  11.701  0.9556 -0.1110 -0.7887
 7840TIP3   OH244934   5.772   3.554   4.158 -0.0493  0.1118  0.6131
 7840TIP3    H144935   5.855   3.599   4.172 -0.4001  0.8503  0.3831
 7840TIP3    H244936   5.705   3.622   4.170 -0.6031 -0.3996  0.4961
 7841TIP3   OH244937   0.133   2.232   3.557 -0.4501  0.2119  0.5057
 7841TIP3    H144938   0.096   2.145   3.574 -0.5400  0.1261 -0.0997
 7841TIP3    H244939   0.228   2.219   3.562 -0.4283 -0.1329 -0.5084
 7842TIP3   OH244940   1.699   2.199   1.634 -0.3726 -0.2614  0.0002
 7842TIP3    H144941   1.780   2.242   1.659 -1.2612  1.6283 -0.1696
 7842TIP3    H244942   1.630   2.255   1.669 -1.6557 -2.3386  1.0259
 7843TIP3   OH244943   1.820   1.064   2.605 -0.9487  0.0819  0.2767
 7843TIP3    H144944   1.849   0.976   2.581  0.9836  0.4464  1.0625
 7843TIP3    H244945   1.805   1.060   2.700  1.3744  1.0823  0.7594
 7844TIP3   OH244946   6.544   4.192   6.429 -0.4348 -0.1563 -0.4311
 7844TIP3    H144947   6.592   4.254   6.485 -0.0311 -1.8442  1.1848
 7844TIP3    H244948   6.452   4.207   6.451 -0.3042 -0.4950  0.3914
 7845TIP3   OH244949   2.356   4.974  12.183  0.2853  0.2451  0.2576
 7845TIP3    H144950   2.304   5.049  12.152  1.7950  1.1678 -0.1317
 7845TIP3    H244951   2.333   4.903  12.123 -2.3351 -0.1221  1.5573
 7846TIP3   OH244952   4.057   1.003   6.042  0.3113 -0.0882  0.0240
 7846TIP3    H144953   4.036   1.056   5.965  0.7271  1.0879  0.7035
 7846TIP3    H244954   3.978   1.006   6.096  0.0242 -0.9026 -0.3343
 7847TIP3   OH244955   1.433   0.851  13.029  0.6283 -0.6633 -0.1013
 7847TIP3    H144956   1.424   0.803  13.112  0.5611  0.2501  0.4385
 7847TIP3    H244957   1.343   0.865  13.000  0.6528 -3.6888 -1.9861
 7848TIP3   OH244958   4.231   6.496  15.364 -0.4037 -0.0099  0.9066
 7848TIP3    H144959   4.321   6.521  15.342 -0.1037 -0.4462  1.5901
 7848TIP3    H244960   4.206   6.555  15.435 -0.8345  0.4096  0.4246
 7849TIP3   OH244961   0.129   1.179   6.621 -0.4119 -0.2452  0.2571
 7849TIP3    H144962   0.123   1.161   6.527  0.0031  1.0984 -0.0506
 7849TIP3    H244963   0.194   1.249   6.627  1.1128 -1.7057  1.7429
 7850TIP3   OH244964   6.401   2.652   1.811  0.1041 -0.2157 -0.3218
 7850TIP3    H144965   6.488   2.692   1.798  0.0611  0.7146  1.8942
 7850TIP3    H244966   6.420   2.562   1.838  0.2953 -0.6536 -1.8398
 7851TIP3   OH244967   4.874   5.484  16.874  0.0255 -0.1052  0.0905
 7851TIP3    H144968   4.857   5.420  16.806  0.2610 -0.4282  0.3338
 7851TIP3    H244969   4.788   5.503  16.912 -0.2767  0.9504 -1.0693
 7852TIP3   OH244970   0.594   4.257   4.558 -0.0238  0.2409  0.1320
 7852TIP3    H144971   0.616   4.176   4.512 -1.6025 -0.6235  0.8103
 7852TIP3    H244972   0.656   4.260   4.631 -0.1847 -0.5983  0.3250
 7853TIP3   OH244973   3.120   1.696  14.854 -0.5815 -0.2910 -0.2585
 7853TIP3    H144974   3.085   1.607  14.858  1.0405 -1.0191 -1.0387
 7853TIP3    H244975   3.187   1.698  14.923  0.6303 -0.2917 -1.4000
 7854TIP3   OH244976   6.019   4.483  15.191  0.6064 -0.7970  0.1209
 7854TIP3    H144977   5.958   4.443  15.252  1.9834  0.7339  2.6633
 7854TIP3    H244978   6.012   4.430  15.112 -3.5284 -1.0349  0.4246
 7855TIP3   OH244979   3.842   1.843  16.831 -0.0598  0.0050  0.1965
 7855TIP3    H144980   3.761   1.868  16.875 -0.1328 -1.4864  0.9879
 7855TIP3    H244981   3.899   1.920  16.839 -0.7577  0.4401  1.2174
 7856TIP3   OH244982   5.179   2.757  11.949  0.1173 -0.0176  0.1553
 7856TIP3    H144983   5.094   2.725  11.980  0.0546 -0.2760 -0.2721
 7856TIP3    H244984   5.157   2.816  11.877  0.2992 -0.0077  0.1082
 7857TIP3   OH244985   5.417   4.820  12.682 -0.1674  0.2662  0.0357
 7857TIP3    H144986   5.359   4.799  12.755  1.0160 -0.3569  0.8248
 7857TIP3    H244987   5.422   4.915  12.681  1.5987  0.2894  2.2836
 7858TIP3   OH244988   0.426   4.811   5.855 -0.3074 -0.6476  0.1559
 7858TIP3    H144989   0.495   4.780   5.795 -1.4658 -0.6152 -1.2611
 7858TIP3    H244990   0.438   4.906   5.857  1.3071 -0.8312  2.0411
 7859TIP3   OH244991   5.814   4.494  13.996  0.0535  0.4258  0.3070
 7859TIP3    H144992   5.907   4.513  13.991  0.2259 -0.4219  0.1283
 7859TIP3    H244993   5.809   4.399  14.005 -0.8732 -0.0553 -3.5908
 7860TIP3   OH244994   1.007   0.887  16.498 -0.1170 -0.3530 -0.5804
 7860TIP3    H144995   1.005   0.978  16.529 -0.9961 -0.2294 -0.9717
 7860TIP3    H244996   0.936   0.882  16.434 -1.3845 -1.7992  0.8346
 7861TIP3   OH244997   4.267   0.117  16.683 -0.2851  0.5258 -0.3207
 7861TIP3    H144998   4.327   0.053  16.646  0.8160  2.2385 -1.6946
 7861TIP3    H244999   4.232   0.163  16.607 -3.9480 -0.8137  0.3685
 7862TIP3   OH245000   6.524   0.080  15.841 -0.0282 -0.2543  0.1447
 7862TIP3    H145001   6.467   0.010  15.874  0.9102 -0.1777  2.1190
 7862TIP3    H245002   6.612   0.052  15.866  0.3193  1.8395  1.5286
 7863TIP3   OH245003   4.158   4.570  12.207 -0.1351 -0.1646 -0.2318
 7863TIP3    H145004   4.163   4.647  12.151  0.3843 -1.2223 -1.7142
 7863TIP3    H245005   4.099   4.595  12.278 -2.2712  0.6467 -2.1919
 7864TIP3   OH245006   1.690   3.857   4.969 -0.1223  0.7635 -0.1782
 7864TIP3    H145007   1.715   3.826   5.056  1.2522  0.3782 -0.6814
 7864TIP3    H245008   1.764   3.911   4.941 -1.8643  3.4864  0.1294
 7865TIP3   OH245009   6.708   0.653   2.339 -0.1975 -0.1526 -0.1451
 7865TIP3    H145010   6.712   0.723   2.274 -0.4557  0.7164  0.7524
 7865TIP3    H245011   6.767   0.586   2.306 -1.4910 -0.4200 -2.0696
 7866TIP3   OH245012   3.327   4.314  11.253 -0.0802  0.1175 -0.2603
 7866TIP3    H145013   3.411   4.313  11.207  1.4061  3.4594  2.0375
 7866TIP3    H245014   3.268   4.361  11.194  0.1139 -0.7287 -1.1520
 7867TIP3   OH245015   3.504   4.480   3.872 -0.2824 -0.3354 -0.6588
 7867TIP3    H145016   3.438   4.445   3.932 -0.3098  1.3184  0.3139
 7867TIP3    H245017   3.513   4.572   3.896  0.3020  0.1900 -2.6768
 7868TIP3   OH245018   5.777   0.700  11.935 -0.0041 -0.1783  0.0284
 7868TIP3    H145019   5.717   0.753  11.987 -0.0863 -0.5775  0.3408
 7868TIP3    H245020   5.858   0.751  11.931  0.6458 -0.9606  2.1160
 7869TIP3   OH245021   0.387   0.685   3.011 -0.3045  0.2761 -0.5439
 7869TIP3    H145022   0.435   0.669   2.930 -0.2650  0.0814 -0.4842
 7869TIP3    H245023   0.371   0.598   3.047 -0.2072  0.3646 -0.2783
 7870TIP3   OH245024   5.731   3.617   3.859 -0.2267  0.0336 -0.3666
 7870TIP3    H145025   5.724   3.629   3.954  0.3951  0.9771 -0.4364
 7870TIP3    H245026   5.819   3.582   3.845 -0.6690 -1.0784 -0.5229
 7871TIP3   OH245027   4.132   3.952  12.450  0.2446  0.3157  0.6919
 7871TIP3    H145028   4.175   3.992  12.526 -0.3347  0.0630  1.1628
 7871TIP3    H245029   4.077   3.884  12.487 -0.3403  0.4400  0.0736
 7872TIP3   OH245030   0.981   1.317   2.439 -0.0874  0.2141  0.5534
 7872TIP3    H145031   0.928   1.255   2.488 -1.1484  0.1388 -0.6377
 7872TIP3    H245032   0.934   1.400   2.446 -0.4870  0.1137 -0.6429
 7873TIP3   OH245033   2.031   0.063   0.124 -0.0836 -0.6975 -0.3987
 7873TIP3    H145034   1.998   0.103   0.205 -0.5827 -0.6823 -0.6090
 7873TIP3    H245035   2.031  -0.031   0.143 -0.0779 -0.6857 -0.3381
 7874TIP3   OH245036   2.537   0.193   4.787 -0.0057 -0.2590 -0.1272
 7874TIP3    H145037   2.541   0.274   4.837 -0.7058 -0.5284  0.3735
 7874TIP3    H245038   2.530   0.222   4.696 -1.5122  0.2920  0.1218
 7875TIP3   OH245039   2.790   5.089  14.135  0.0360  0.0329 -0.2468
 7875TIP3    H145040   2.797   5.071  14.042 -0.1766 -0.9310 -0.0789
 7875TIP3    H245041   2.797   5.185  14.141 -2.4266  0.3759 -1.4819
 7876TIP3   OH245042   5.170   0.438   2.716 -0.2324  0.2581 -0.4330
 7876TIP3    H145043   5.212   0.420   2.632  0.9181  1.1157 -0.0764
 7876TIP3    H245044   5.187   0.360   2.768  1.1151  0.6531 -0.2415
 7877TIP3   OH245045   4.134   3.367  16.591 -0.6561 -0.1547 -0.5787
 7877TIP3    H145046   4.223   3.400  16.602 -1.3937  1.8199 -0.1865
 7877TIP3    H245047   4.122   3.305  16.663  0.0419  0.4088  0.0344
 7878TIP3   OH245048   0.113   2.997  15.949 -0.0801 -0.6145  0.0024
 7878TIP3    H145049   0.158   3.037  15.874 -0.4141 -0.3840 -0.0754
 7878TIP3    H245050   0.142   3.048  16.024 -1.6777  0.7828 -0.2780
 7879TIP3   OH245051   0.552   1.390   6.238 -0.1352  0.7483 -0.3910
 7879TIP3    H145052   0.464   1.426   6.248  0.1611  0.9912  1.9446
 7879TIP3    H245053   0.605   1.436   6.303  1.4723 -0.1936 -0.9486
 7880TIP3   OH245054   2.211   3.214   5.728  0.5593 -0.2362 -0.0446
 7880TIP3    H145055   2.151   3.159   5.677 -0.0609 -0.3668  0.8036
 7880TIP3    H245056   2.237   3.283   5.667 -2.9417  1.6912  0.4001
 7881TIP3   OH245057   1.280   5.238   0.674 -0.0286  0.5951 -0.0107
 7881TIP3    H145058   1.260   5.219   0.765  0.2353 -0.0572 -0.0824
 7881TIP3    H245059   1.375   5.241   0.670  0.1667 -3.0545 -0.9267
 7882TIP3   OH245060   2.107   1.380   4.442 -0.3552 -0.2852  0.5343
 7882TIP3    H145061   2.166   1.448   4.407 -0.2111 -1.1770 -1.0284
 7882TIP3    H245062   2.020   1.409   4.417 -0.3284 -0.4566  0.2384
 7883TIP3   OH245063   5.288   1.842  11.889  0.0139 -0.2409  0.2510
 7883TIP3    H145064   5.329   1.894  11.820  3.0498 -0.2324  1.8805
 7883TIP3    H245065   5.249   1.906  11.948 -0.9751 -0.1656 -0.4493
 7884TIP3   OH245066   2.390   0.611  15.027  0.0507  0.4608 -0.2734
 7884TIP3    H145067   2.412   0.665  14.950 -0.4391  1.1103  0.0307
 7884TIP3    H245068   2.307   0.569  15.003  0.8060 -0.7741 -0.8092
 7885TIP3   OH245069   3.523   3.647  15.913  0.1483 -0.0545 -0.0074
 7885TIP3    H145070   3.473   3.644  15.995 -0.3316  4.3082  0.0939
 7885TIP3    H245071   3.460   3.618  15.846 -0.8952  0.5076  0.6971
 7886TIP3   OH245072   4.184   2.781   0.591 -0.0830  0.1551  0.3130
 7886TIP3    H145073   4.244   2.718   0.551  1.4659  1.5226  0.3756
 7886TIP3    H245074   4.126   2.807   0.519  0.9687  0.6072 -0.3991
 7887TIP3   OH245075   4.651   3.815  12.167 -0.0362  0.6326  0.4486
 7887TIP3    H145076   4.654   3.835  12.260 -1.7129  0.1314  0.6369
 7887TIP3    H245077   4.677   3.897  12.124 -2.2062  1.8425  1.3001
 7888TIP3   OH245078   5.108   0.678  15.563 -0.4418 -0.3779 -0.1527
 7888TIP3    H145079   5.154   0.678  15.479  0.1011 -1.1603  0.1364
 7888TIP3    H245080   5.128   0.764  15.601 -2.1519  0.7139 -1.5831
 7889TIP3   OH245081   5.329   4.818   3.352 -0.5107 -0.5373  0.6634
 7889TIP3    H145082   5.337   4.907   3.386 -2.6158 -0.2492  0.5226
 7889TIP3    H245083   5.305   4.830   3.260 -3.0782 -1.1430  1.1733
 7890TIP3   OH245084   3.550   0.620  13.066  0.1695 -0.2933  0.0204
 7890TIP3    H145085   3.518   0.663  13.145  0.4700  0.4493 -0.2525
 7890TIP3    H245086   3.490   0.648  12.997  0.3341 -0.3535 -0.1483
 7891TIP3   OH245087   6.235   0.679  12.416  0.2668  0.7626  0.3471
 7891TIP3    H145088   6.204   0.724  12.494 -0.3582  0.4100  0.3096
 7891TIP3    H245089   6.311   0.628  12.446 -0.1541  0.3868  0.7975
 7892TIP3   OH245090   0.053   3.193  11.209  0.0081 -0.3886 -0.2878
 7892TIP3    H145091   0.091   3.116  11.166 -0.6664 -0.5001 -0.7023
 7892TIP3    H245092  -0.039   3.170  11.223 -0.2233  0.3683 -0.4868
 7893TIP3   OH245093   3.206   4.835   3.316 -0.4573 -0.2891  0.5092
 7893TIP3    H145094   3.276   4.784   3.357 -0.4750  0.8103  1.9662
 7893TIP3    H245095   3.131   4.824   3.373 -0.9225  0.0787 -0.0206
 7894TIP3   OH245096   2.284   3.737  16.681  0.4424  0.0937  0.3293
 7894TIP3    H145097   2.332   3.802  16.732  0.1991  0.9959 -0.5568
 7894TIP3    H245098   2.193   3.746  16.710  0.5670 -0.6357  0.9918
 7895TIP3   OH245099   6.676   1.729   2.094  0.3143 -0.3288  0.1064
 7895TIP3    H145100   6.608   1.665   2.118 -1.8151  1.4850 -0.6807
 7895TIP3    H245101   6.693   1.778   2.175 -0.5831  0.2838 -0.0616
 7896TIP3   OH245102   0.527   0.910   4.710 -0.0706 -0.6511 -0.3078
 7896TIP3    H145103   0.542   0.851   4.636  3.1391 -1.3188  0.6864
 7896TIP3    H245104   0.559   0.995   4.680  0.0317 -0.6265 -0.1316
 7897TIP3   OH245105   6.601   3.233   0.769 -0.4961  0.1580 -0.6361
 7897TIP3    H145106   6.672   3.296   0.778 -1.2542  1.0927 -0.8862
 7897TIP3    H245107   6.599   3.186   0.852 -1.4627  2.1867  0.5887
 7898TIP3   OH245108   6.367   4.485  12.711  0.5423  0.5343  0.3180
 7898TIP3    H145109   6.276   4.506  12.732 -0.1549 -1.2428 -0.7495
 7898TIP3    H245110   6.395   4.555  12.652 -0.7087  0.1489 -0.7617
 7899TIP3   OH245111   6.609   0.610   1.437  0.1536 -0.1371 -0.1266
 7899TIP3    H145112   6.593   0.705   1.433  0.6249 -0.0983 -1.7209
 7899TIP3    H245113   6.673   0.599   1.507  1.5016  0.9559 -1.1361
 7900TIP3   OH245114   6.332   1.299  11.176 -0.6244 -0.0591  0.1088
 7900TIP3    H145115   6.399   1.310  11.108 -2.4352  2.3436 -1.4878
 7900TIP3    H245116   6.343   1.209  11.206  0.5196 -1.1707 -3.1770
 7901TIP3   OH245117   6.509   6.242  14.312 -0.1678 -0.2774  0.5625
 7901TIP3    H145118   6.460   6.212  14.235  1.7020 -0.2557 -0.6870
 7901TIP3    H245119   6.581   6.180  14.320  1.4301  1.4836  0.4141
 7902TIP3   OH245120   5.875   2.794  12.693 -0.1877 -0.3519  0.4260
 7902TIP3    H145121   5.842   2.711  12.728  0.2433 -1.2555 -1.1902
 7902TIP3    H245122   5.873   2.781  12.598  1.9865  0.6733  0.1951
 7903TIP3   OH245123   4.042   4.855  14.194  0.1206 -0.2607  0.5986
 7903TIP3    H145124   4.035   4.863  14.099 -0.8822  1.8364  0.7786
 7903TIP3    H245125   3.972   4.795  14.219  0.7241 -1.2340 -0.0042
 7904TIP3   OH245126   1.631   2.677  15.449 -0.5000  0.4442  0.0147
 7904TIP3    H145127   1.593   2.621  15.382  0.7884 -1.4373  0.7776
 7904TIP3    H245128   1.699   2.624  15.489 -1.0764  1.5458  2.6912
 7905TIP3   OH245129   2.888   0.543  16.792  0.5296  0.2797 -0.1088
 7905TIP3    H145130   2.864   0.474  16.854 -2.2342  0.3405 -0.9841
 7905TIP3    H245131   2.981   0.527  16.773  0.8551 -1.1137  2.2502
 7906TIP3   OH245132   4.504   0.965   2.187  0.3874 -0.4005 -0.1729
 7906TIP3    H145133   4.553   1.048   2.183  0.0593 -0.2091 -0.2854
 7906TIP3    H245134   4.509   0.939   2.279  1.6370 -0.9609 -0.3678
 7907TIP3   OH245135   0.775   0.109   2.482 -0.0814 -0.4302  0.5506
 7907TIP3    H145136   0.704   0.166   2.453  0.6085 -0.6213 -1.7423
 7907TIP3    H245137   0.745   0.021   2.460  1.1720 -0.4492 -1.4062
 7908TIP3   OH245138   1.453   6.153   5.453 -0.4189 -0.0287 -0.2775
 7908TIP3    H145139   1.456   6.217   5.524  0.0388 -1.8397  1.4265
 7908TIP3    H245140   1.433   6.205   5.375  1.1696  2.3552  0.7719
 7909TIP3   OH245141   3.059   1.861  16.669  0.0225 -0.7436 -0.1064
 7909TIP3    H145142   3.042   1.773  16.702  1.9201 -1.4379 -0.8704
 7909TIP3    H245143   2.996   1.872  16.597 -0.6972 -1.1713  0.4361
 7910TIP3   OH245144   4.948   2.743  13.066 -0.2432  0.2623 -0.1790
 7910TIP3    H145145   4.940   2.652  13.095 -1.8428  0.9973  2.0012
 7910TIP3    H245146   4.874   2.755  13.007  0.5528 -0.0905 -1.2723
 7911TIP3   OH245147   2.629   0.511  14.349 -0.1362  0.5664  0.6980
 7911TIP3    H145148   2.670   0.445  14.294  0.9398 -0.2275  2.3575
 7911TIP3    H245149   2.538   0.482  14.359  0.0316 -0.0448  0.4764
 7912TIP3   OH245150   0.019   0.893  14.195 -0.3256  0.3308  0.0569
 7912TIP3    H145151   0.046   0.810  14.235  1.1082  0.6399 -0.2342
 7912TIP3    H245152   0.012   0.954  14.269 -0.1784  0.2697  0.1203
 7913TIP3   OH245153   1.667   3.910   4.153 -0.4793 -0.3243 -0.5717
 7913TIP3    H145154   1.721   3.989   4.156 -3.1101  1.6265 -1.3837
 7913TIP3    H245155   1.626   3.912   4.067 -2.3015 -1.3521  0.2148
 7914TIP3   OH245156   4.735   5.049   2.268  0.2994 -0.5605  0.6475
 7914TIP3    H145157   4.773   5.136   2.280  0.2251 -0.4578  0.1836
 7914TIP3    H245158   4.693   5.029   2.352  0.7652 -0.3757  0.9266
 7915TIP3   OH245159   1.510   5.985  11.447 -0.1432  0.2479  0.5785
 7915TIP3    H145160   1.432   6.030  11.479  0.0608 -0.1457  1.6614
 7915TIP3    H245161   1.569   5.983  11.522  0.6653 -0.0070 -0.0514
 7916TIP3   OH245162   1.707   6.554   2.976  0.0409  0.2679  0.1212
 7916TIP3    H145163   1.732   6.563   2.884  0.4939  0.3516  0.2540
 7916TIP3    H245164   1.615   6.526   2.972 -0.1910  1.0451 -0.3456
 7917TIP3   OH245165   6.350   1.706  13.030  0.1864  0.0344 -0.1160
 7917TIP3    H145166   6.315   1.707  13.119  1.2023 -2.0890  0.3568
 7917TIP3    H245167   6.277   1.736  12.975  0.4417  4.7036  1.5945
 7918TIP3   OH245168   4.064   2.894   3.525 -0.1903 -0.1707 -0.1793
 7918TIP3    H145169   4.012   2.905   3.604 -0.2578  0.9280 -0.3508
 7918TIP3    H245170   4.062   2.981   3.483  2.1338  0.0387  0.0258
 7919TIP3   OH245171   4.129   3.621  12.970  0.1745 -0.1368 -0.1884
 7919TIP3    H145172   4.077   3.590  13.044 -1.0055  1.3630 -0.3479
 7919TIP3    H245173   4.089   3.581  12.893 -1.7423  2.0720 -0.4591
 7920TIP3   OH245174   0.802   3.085  12.832 -0.0379  0.0845  0.0505
 7920TIP3    H145175   0.890   3.122  12.827  0.2491 -0.5780  0.1584
 7920TIP3    H245176   0.793   3.056  12.923 -1.3981  2.6385  0.8292
 7921TIP3   OH245177   3.739   5.486  11.603 -0.1879  0.2617 -0.4854
 7921TIP3    H145178   3.665   5.438  11.640  0.4275 -1.0954 -0.9549
 7921TIP3    H245179   3.737   5.466  11.510  0.8570  0.0691 -0.4809
 7922TIP3   OH245180   5.799   5.186  17.081 -0.1562  0.1954 -0.1276
 7922TIP3    H145181   5.845   5.161  17.161 -0.9448  0.4510  0.4231
 7922TIP3    H245182   5.851   5.149  17.010 -0.1190 -1.1125  0.5648
 7923TIP3   OH245183   6.631   6.517  14.194 -0.1736  0.2176  0.0709
 7923TIP3    H145184   6.726   6.528  14.191 -0.0839 -0.5705 -0.3900
 7923TIP3    H245185   6.613   6.495  14.286 -0.1763  2.3319  0.6327
 7924TIP3   OH245186   3.532   0.160  12.859  0.2863  0.0616  0.6963
 7924TIP3    H145187   3.497   0.236  12.906 -0.3921  0.0478  0.2284
 7924TIP3    H245188   3.589   0.116  12.923  2.2998  2.0378  0.3806
 7925TIP3   OH245189   1.973   2.235  12.590 -0.0089  0.1644  0.2477
 7925TIP3    H145190   1.979   2.177  12.666  1.2824 -0.6565 -0.4498
 7925TIP3    H245191   1.955   2.177  12.517  0.1884  0.7822 -0.2979
 7926TIP3   OH245192   2.497   5.952  14.757 -0.3419 -0.2659 -0.6855
 7926TIP3    H145193   2.531   5.863  14.753 -0.2673 -0.2183 -1.1638
 7926TIP3    H245194   2.407   5.945  14.725  0.1250  0.0542 -2.1679
 7927TIP3   OH245195   2.766   4.225  14.928  0.4615 -0.0788 -0.2746
 7927TIP3    H145196   2.760   4.301  14.985 -0.1322 -0.0888 -0.3147
 7927TIP3    H245197   2.855   4.194  14.939  0.7732  0.7463 -0.4237
 7928TIP3   OH245198   0.997   4.436   1.720 -0.7923 -0.1261  0.4084
 7928TIP3    H145199   0.947   4.443   1.639  1.8403 -0.6680 -1.3900
 7928TIP3    H245200   0.958   4.362   1.766 -1.0496 -1.1820 -1.4156
 7929TIP3   OH245201   5.423   3.674  13.860  0.1019 -0.0954 -0.6657
 7929TIP3    H145202   5.434   3.765  13.884  3.5113 -0.8411  1.1526
 7929TIP3    H245203   5.504   3.650  13.815  0.2395 -2.7156  0.7508
 7930TIP3   OH245204   1.211   5.541   1.396 -0.4594  0.0797 -0.4413
 7930TIP3    H145205   1.273   5.580   1.335 -0.8266  1.3775 -0.0140
 7930TIP3    H245206   1.162   5.615   1.432 -1.0440 -0.7583  0.5552
 7931TIP3   OH245207   3.271   2.323   0.585  0.0436  0.0198 -0.4854
 7931TIP3    H145208   3.365   2.338   0.595  0.5519 -3.2006  0.5438
 7931TIP3    H245209   3.261   2.289   0.496  0.1084 -1.0535 -0.0963
 7932TIP3   OH245210   3.363   4.407   1.938  0.5166 -0.6325 -0.0888
 7932TIP3    H145211   3.379   4.497   1.909 -0.9144 -0.3622 -0.1306
 7932TIP3    H245212   3.281   4.382   1.895  0.2115 -1.4865  0.9337
 7933TIP3   OH245213   4.654   4.438   5.392 -0.2086 -0.4613  0.0782
 7933TIP3    H145214   4.678   4.398   5.475  0.7158  0.4288  0.2629
 7933TIP3    H245215   4.729   4.421   5.335 -0.6851 -0.7556 -0.4670
 7934TIP3   OH245216   2.295   2.346  11.713 -0.0879 -0.3604  0.4019
 7934TIP3    H145217   2.212   2.304  11.736 -0.8170  0.7874 -0.0728
 7934TIP3    H245218   2.333   2.288  11.647 -1.8057  0.4532 -1.3859
 7935TIP3   OH245219   4.499   5.390   1.523 -0.1516  0.4106 -0.2870
 7935TIP3    H145220   4.461   5.451   1.460  0.0266  1.2514  0.4159
 7935TIP3    H245221   4.592   5.386   1.499 -0.0881  0.7128 -0.0845
 7936TIP3   OH245222   4.695   0.540  15.440  0.2720 -0.0212  0.3422
 7936TIP3    H145223   4.730   0.628  15.424 -1.0359  0.7259  1.3994
 7936TIP3    H245224   4.603   0.546  15.413  0.0187 -0.9022  0.9751
 7937TIP3   OH245225   5.429   5.689  11.315 -0.2076  0.3968  0.1398
 7937TIP3    H145226   5.468   5.777  11.309 -2.4676  1.5501  1.0671
 7937TIP3    H245227   5.371   5.694  11.391 -2.3601 -1.0465 -1.3033
 7938TIP3   OH245228   2.210   0.027  15.340  0.1336  0.7486  0.0137
 7938TIP3    H145229   2.167  -0.005  15.260  1.9038 -0.7724 -0.3926
 7938TIP3    H245230   2.143   0.017  15.408 -0.4028 -0.9216 -0.7091
 7939TIP3   OH245231   3.580   2.326  16.498 -0.1422  0.2336  0.0727
 7939TIP3    H145232   3.564   2.355  16.408  2.9029  0.2725 -0.5658
 7939TIP3    H245233   3.568   2.231  16.494  3.5793 -0.3324 -1.4547
 7940TIP3   OH245234   0.038   4.981   5.947 -1.5831  0.2970  0.7028
 7940TIP3    H145235   0.039   5.020   5.860 -0.5650 -0.0316  0.5499
 7940TIP3    H245236   0.118   5.015   5.989 -0.3817 -1.9671  0.3899
 7941TIP3   OH245237   0.239   4.330  14.726 -0.1229 -0.7536  0.2979
 7941TIP3    H145238   0.277   4.358  14.643 -0.6240 -1.5504 -0.2087
 7941TIP3    H245239   0.159   4.283  14.702 -0.2739 -1.0063  1.2296
 7942TIP3   OH245240   4.471   2.339   5.611  0.1482 -0.0016  0.0707
 7942TIP3    H145241   4.546   2.397   5.595 -1.3090  1.9264 -0.1308
 7942TIP3    H245242   4.455   2.347   5.705 -0.2285  0.1444 -0.0060
 7943TIP3   OH245243   1.646   1.340  13.338  0.0604 -0.6499  0.0445
 7943TIP3    H145244   1.741   1.330  13.333  0.2893  0.1945  1.9096
 7943TIP3    H245245   1.612   1.257  13.306  1.4577 -1.3861  0.3586
 7944TIP3   OH245246   6.076   1.832   5.180  0.8726 -0.1901  0.1365
 7944TIP3    H145247   6.084   1.924   5.202  1.3252  0.3045 -1.8594
 7944TIP3    H245248   6.068   1.831   5.084  0.4916 -2.1923  0.1424
 7945TIP3   OH245249   0.579   5.974   1.328  0.0562 -0.1309  0.1431
 7945TIP3    H145250   0.511   6.031   1.365 -1.0015 -1.3515  0.1777
 7945TIP3    H245251   0.535   5.930   1.255  1.0753 -0.3487 -0.3461
 7946TIP3   OH245252   5.951   2.081  15.914 -0.0608 -0.0254 -0.1518
 7946TIP3    H145253   5.980   2.059  15.825  1.2746  0.3758  0.1608
 7946TIP3    H245254   6.016   2.143  15.946 -1.0401  0.5573  0.7828
 7947TIP3   OH245255   0.099   3.602   0.053 -0.5311 -0.2256  0.1119
 7947TIP3    H145256   0.004   3.599   0.044 -0.4107 -0.8822 -1.1314
 7947TIP3    H245257   0.129   3.515   0.027  0.4185 -0.0256  0.4700
 7948TIP3   OH245258   3.014   3.775  14.529 -0.3930  0.2147  0.2241
 7948TIP3    H145259   2.999   3.854  14.581 -1.1066 -0.3498  0.9015
 7948TIP3    H245260   3.036   3.708  14.593  0.9954  0.0258 -0.4081
 7949TIP3   OH245261   5.459   6.176   2.210 -0.6574  0.2346  0.0134
 7949TIP3    H145262   5.508   6.259   2.210 -0.0426  0.0274  3.3476
 7949TIP3    H245263   5.473   6.140   2.123  3.3374  1.2527  0.0114
 7950TIP3   OH245264   0.353   1.781   5.800 -0.0949 -0.2123  0.1173
 7950TIP3    H145265   0.269   1.799   5.758  0.5187 -1.3311 -1.7027
 7950TIP3    H245266   0.418   1.800   5.733  1.1919  1.2580  1.7092
 7951TIP3   OH245267   5.815   4.583  13.593  0.1718  0.7913 -0.5896
 7951TIP3    H145268   5.832   4.502  13.546 -0.2943  0.6270 -0.4834
 7951TIP3    H245269   5.810   4.650  13.525 -1.0183  0.4747 -0.8467
 7952TIP3   OH245270   0.201   6.319   2.667 -0.2725  0.0097 -0.1306
 7952TIP3    H145271   0.213   6.341   2.759 -1.2885 -0.1854  0.0588
 7952TIP3    H245272   0.127   6.372   2.639  0.6713  0.8517 -1.1302
 7953TIP3   OH245273   3.654   2.011   3.385  0.5974 -0.0486  0.5872
 7953TIP3    H145274   3.645   2.102   3.413  1.4112  0.3321 -0.3160
 7953TIP3    H245275   3.732   1.978   3.431  0.1351 -0.3846  1.1375
 7954TIP3   OH245276   2.038   6.404  15.383 -0.1732 -0.3707 -0.0298
 7954TIP3    H145277   1.943   6.407  15.393 -0.1443 -1.8175  1.0618
 7954TIP3    H245278   2.054   6.332  15.322  0.2454 -0.9260  0.7118
 7955TIP3   OH245279   3.148   5.791  14.261 -0.3727 -0.2032 -0.7320
 7955TIP3    H145280   3.056   5.776  14.240 -0.3638  1.4219 -2.1387
 7955TIP3    H245281   3.179   5.708  14.297 -1.6990 -1.6612 -2.7588
 7956TIP3   OH245282   6.433   0.345  14.928 -0.4100 -0.0145 -0.0426
 7956TIP3    H145283   6.384   0.326  14.848 -0.5421 -0.2780  0.0987
 7956TIP3    H245284   6.366   0.357  14.995 -0.3011  0.2431  0.0191
 7957TIP3   OH245285   2.302   0.810  15.526 -0.4327 -0.2140 -0.8982
 7957TIP3    H145286   2.343   0.744  15.469  0.1656 -0.7522  0.1329
 7957TIP3    H245287   2.352   0.890  15.508 -0.5164 -0.2724 -1.4239
 7958TIP3   OH245288   2.557   6.573  12.236  0.0704 -0.0255  0.4834
 7958TIP3    H145289   2.521   6.578  12.148 -1.1398  2.4503  1.0177
 7958TIP3    H245290   2.642   6.531  12.226 -0.0750  0.1465 -1.8365
 7959TIP3   OH245291   0.542   5.665  13.681 -0.3186 -0.0416 -0.4345
 7959TIP3    H145292   0.627   5.677  13.638  0.1144  0.9898  0.6419
 7959TIP3    H245293   0.479   5.664  13.609  0.5335 -0.1166 -1.2049
 7960TIP3   OH245294   2.296   2.590  13.501  0.2179 -0.2368  0.1779
 7960TIP3    H145295   2.283   2.650  13.428 -0.1551  0.9505  1.2072
 7960TIP3    H245296   2.370   2.535  13.473 -0.4029 -0.3227 -1.4027
 7961TIP3   OH245297   5.692   6.668  12.036 -0.2734  0.5608  0.8437
 7961TIP3    H145298   5.743   6.607  11.982 -3.5983 -0.2101 -1.7582
 7961TIP3    H245299   5.693   6.750  11.986  0.5095  1.3475  2.0996
 7962TIP3   OH245300   6.434   4.849   0.210  0.2036  0.0445  0.2645
 7962TIP3    H145301   6.473   4.771   0.170 -0.3665  0.3701 -1.0038
 7962TIP3    H245302   6.379   4.886   0.140 -0.6673  0.7809  1.3062
 7963TIP3   OH245303   3.061   5.090   2.421  0.1132  0.0061  0.0772
 7963TIP3    H145304   2.970   5.118   2.431 -0.0667 -0.5294 -0.0199
 7963TIP3    H245305   3.060   4.996   2.442  0.6315 -0.0126  0.0286
 7964TIP3   OH245306   3.763   4.430  12.388  0.2103  0.5537 -0.5387
 7964TIP3    H145307   3.727   4.406  12.302 -2.8618  2.0589  0.1921
 7964TIP3    H245308   3.753   4.525  12.392  0.4841  0.5288  1.4071
 7965TIP3   OH245309   0.990   4.666  10.840 -0.4581  1.0029 -0.1264
 7965TIP3    H145310   0.904   4.654  10.881 -0.4710  0.8703 -0.1932
 7965TIP3    H245311   1.053   4.655  10.912 -0.5823  3.9965  0.6032
 7966TIP3   OH245312   1.906   5.918   3.232 -0.1575  0.1505 -0.5220
 7966TIP3    H145313   1.878   5.921   3.140  1.4389 -1.2295 -1.1194
 7966TIP3    H245314   1.825   5.926   3.282 -1.0370  1.3146 -2.0281
 7967TIP3   OH245315   0.103   6.005  16.743 -0.0009 -0.6420 -0.3619
 7967TIP3    H145316   0.142   5.979  16.660 -0.9494 -1.6364 -0.5222
 7967TIP3    H245317   0.014   6.035  16.721 -0.0179 -0.2370  0.2061
 7968TIP3   OH245318   2.610   1.382  12.994  0.8778 -0.4860  0.2374
 7968TIP3    H145319   2.585   1.322  12.924  0.8293  0.4079 -0.5459
 7968TIP3    H245320   2.660   1.451  12.949  1.4787 -0.2824  1.2044
 7969TIP3   OH245321   1.659   1.866   1.776  0.4030  0.0593 -0.2067
 7969TIP3    H145322   1.718   1.920   1.829  1.3841  0.3998 -1.5866
 7969TIP3    H245323   1.589   1.841   1.836  0.9476  1.2483  0.9792
 7970TIP3   OH245324   0.935   3.138   5.632 -0.4344 -0.4590 -0.8167
 7970TIP3    H145325   0.893   3.197   5.569 -2.2947  1.0346  1.6311
 7970TIP3    H245326   0.865   3.079   5.660 -0.5517  0.8369  1.9445
 7971TIP3   OH245327   6.106   2.121  13.605  0.1567  0.5475  0.2383
 7971TIP3    H145328   6.177   2.183  13.625  0.8727 -0.4635  0.9997
 7971TIP3    H245329   6.131   2.041  13.653 -0.3613 -0.5684 -1.2719
 7972TIP3   OH245330   6.300   4.108   5.230  0.3601 -0.1972  0.6491
 7972TIP3    H145331   6.388   4.073   5.213  0.2114 -0.8811  1.2457
 7972TIP3    H245332   6.242   4.033   5.214 -0.2717  0.6203 -1.2155
 7973TIP3   OH245333   6.516   5.302  16.107 -0.2947 -0.2371  0.2308
 7973TIP3    H145334   6.596   5.333  16.065 -0.4229 -2.2992 -1.7118
 7973TIP3    H245335   6.547   5.240  16.173 -0.2670 -1.0789 -0.5605
 7974TIP3   OH245336   5.760   6.044   5.409 -0.3068  0.2847 -0.3929
 7974TIP3    H145337   5.761   6.139   5.394 -0.3974  0.2978 -0.3176
 7974TIP3    H245338   5.669   6.024   5.432 -0.2659  0.1940 -0.3104
 7975TIP3   OH245339   3.388   5.810  11.753 -0.2223  0.0825  0.3237
 7975TIP3    H145340   3.319   5.840  11.811  0.8868  1.1565  1.1542
 7975TIP3    H245341   3.359   5.837  11.665 -2.0343 -1.7941  0.2863
 7976TIP3   OH245342   0.058   2.088   5.414 -0.3319 -0.1197  0.1435
 7976TIP3    H145343   0.023   2.165   5.369 -0.1904 -0.9163 -1.4175
 7976TIP3    H245344   0.090   2.121   5.498 -0.0656  1.5664 -0.5757
 7977TIP3   OH245345   1.624   0.085  16.421 -0.0606  0.0270  0.6194
 7977TIP3    H145346   1.612   0.151  16.352 -3.2335 -1.0188  0.0437
 7977TIP3    H245347   1.602   0.132  16.502 -0.7799  0.1056  0.3875
 7978TIP3   OH245348   5.251   4.065   0.507  0.1806 -0.3887  0.3732
 7978TIP3    H145349   5.158   4.087   0.500  0.0443 -1.0184  0.1227
 7978TIP3    H245350   5.257   3.975   0.476  0.7084 -0.7633  1.5039
 7979TIP3   OH245351   2.574   4.720   1.490 -0.2255  0.8098  0.0166
 7979TIP3    H145352   2.643   4.786   1.497  0.5892 -0.1254  1.4126
 7979TIP3    H245353   2.517   4.752   1.420  1.1608  2.0295 -0.6194
 7980TIP3   OH245354   4.318   3.242   0.282  0.5921  0.2270 -0.4798
 7980TIP3    H145355   4.360   3.261   0.366  1.0407 -2.3589 -0.0293
 7980TIP3    H245356   4.239   3.193   0.305  1.6673 -2.1847 -1.5026
 7981TIP3   OH245357   2.110   4.132  13.841  0.0244 -0.3752  0.0344
 7981TIP3    H145358   2.149   4.047  13.824  1.2512  0.6094 -2.4184
 7981TIP3    H245359   2.175   4.179  13.893 -0.0189 -0.4091  0.1204
 7982TIP3   OH245360   1.090   1.292  13.014 -0.3908  0.1393 -0.2825
 7982TIP3    H145361   1.110   1.326  12.927 -1.4538  0.8055 -0.2896
 7982TIP3    H245362   0.998   1.315  13.028 -0.0511  0.6379  1.2943
 7983TIP3   OH245363   1.167   5.277   0.245 -0.1613  0.0473 -0.6351
 7983TIP3    H145364   1.261   5.290   0.257 -0.2939  1.4612 -0.9868
 7983TIP3    H245365   1.136   5.242   0.329  0.6490 -0.2872 -0.4718
 7984TIP3   OH245366   3.178   4.209  16.464  0.4862  0.1329 -0.1333
 7984TIP3    H145367   3.263   4.240  16.432  0.5579  0.8892  0.7454
 7984TIP3    H245368   3.161   4.129  16.414  1.7369 -0.0496 -0.3036
 7985TIP3   OH245369   1.596   2.430   5.445 -0.0843  0.4369  0.0287
 7985TIP3    H145370   1.616   2.338   5.428 -0.0456  0.3926  0.3100
 7985TIP3    H245371   1.662   2.478   5.397  1.0442  0.2862  1.3635
 7986TIP3   OH245372   2.760   0.381  16.608  0.3808  0.1838 -0.5019
 7986TIP3    H145373   2.751   0.286  16.619 -1.7146  0.4781  0.7740
 7986TIP3    H245374   2.829   0.405  16.669  0.6254 -0.4517 -0.5144
 7987TIP3   OH245375   0.020   0.355   2.143  0.0430 -0.1329 -0.1821
 7987TIP3    H145376  -0.024   0.419   2.086 -0.2060 -1.5735 -1.6852
 7987TIP3    H245377  -0.050   0.317   2.195 -0.0442 -0.3069 -0.4261
 7988TIP3   OH245378   3.546   1.209  12.677  0.4251 -0.4068  0.0921
 7988TIP3    H145379   3.545   1.144  12.747 -0.3555 -0.8328 -0.2936
 7988TIP3    H245380   3.454   1.229  12.662  0.6332  0.4484 -0.1178
 7989TIP3   OH245381   3.600   4.882   1.724 -0.6035  0.2250 -0.3540
 7989TIP3    H145382   3.609   4.968   1.764 -2.0299 -0.9222  2.8284
 7989TIP3    H245383   3.690   4.849   1.717 -0.2093  0.8017  1.4182
 7990TIP3   OH245384   0.518   5.328  17.126  0.1466  0.1989  0.1165
 7990TIP3    H145385   0.502   5.327  17.032  0.2318  2.0920  0.0369
 7990TIP3    H245386   0.431   5.340  17.165  0.2935  1.0490  0.1869
 7991TIP3   OH245387   0.177   6.576   5.492 -0.5219 -0.3678  0.0709
 7991TIP3    H145388   0.251   6.536   5.447  0.6014  2.4378 -0.7304
 7991TIP3    H245389   0.201   6.574   5.584  0.3192  0.0649 -0.1331
 7992TIP3   OH245390   6.118   4.384  16.737  0.1276 -0.0727  0.5030
 7992TIP3    H145391   6.180   4.455  16.754  0.4289 -0.6225  1.7982
 7992TIP3    H245392   6.145   4.349  16.652  1.4531 -0.1366  0.9219
 7993TIP3   OH245393   3.760   0.971  17.100 -0.6209 -0.1593 -0.1135
 7993TIP3    H145394   3.739   0.980  17.193 -0.2106 -0.6356  0.0307
 7993TIP3    H245395   3.850   0.938  17.099 -1.4570 -2.6203 -0.6037
 7994TIP3   OH245396   6.268   6.628   1.840  0.3554 -0.0704 -0.0097
 7994TIP3    H145397   6.189   6.600   1.795 -0.4918  1.2868  0.5860
 7994TIP3    H245398   6.340   6.592   1.787 -0.6283 -0.1055 -1.3641
 7995TIP3   OH245399   5.740   0.014  14.089 -0.0060  0.3486 -0.0360
 7995TIP3    H145400   5.802  -0.032  14.145 -0.4889  0.5831  0.7088
 7995TIP3    H245401   5.656   0.006  14.135 -0.6449 -0.4112 -1.2741
 7996TIP3   OH245402   2.022   5.146  16.648  0.2944 -0.3795  0.6100
 7996TIP3    H145403   2.076   5.124  16.723  1.7579  0.9817  0.0061
 7996TIP3    H245404   2.049   5.084  16.580 -1.7322 -2.2905  1.3820
 7997TIP3   OH245405   2.021   2.653  14.263 -0.0184  0.2104 -0.6927
 7997TIP3    H145406   2.034   2.696  14.348 -0.7650  0.9971 -0.9588
 7997TIP3    H245407   2.109   2.624  14.238  0.1185 -0.5826  0.6218
 7998TIP3   OH245408   3.938   6.492   4.990 -0.5063  0.1313 -0.0180
 7998TIP3    H145409   3.958   6.576   5.031  0.4554 -0.3668  0.5782
 7998TIP3    H245410   3.931   6.512   4.897  1.5233  0.5902 -0.1118
 7999TIP3   OH245411   3.760   6.448   3.249 -0.4827  0.6293 -0.2556
 7999TIP3    H145412   3.759   6.516   3.182 -0.6210 -0.2016 -1.1085
 7999TIP3    H245413   3.670   6.418   3.254 -0.2861  0.0098 -0.4025
 8000TIP3   OH245414   5.936   4.885   3.575  0.3895 -0.3849  0.0192
 8000TIP3    H145415   6.004   4.946   3.545 -0.4669  0.5139 -0.1653
 8000TIP3    H245416   5.925   4.905   3.668 -0.3043  0.1798 -0.1719
 8001TIP3   OH245417   6.296   3.003   3.879 -0.2755  0.0224 -1.1231
 8001TIP3    H145418   6.243   2.966   3.950 -1.4981 -1.4805 -2.7429
 8001TIP3    H245419   6.237   3.066   3.836 -0.5878 -1.1815 -2.5331
 8002TIP3   OH245420   3.444   2.565  11.407 -0.4639 -0.0401  0.1331
 8002TIP3    H145421   3.422   2.492  11.465 -1.0550  0.3149  0.3526
 8002TIP3    H245422   3.508   2.527  11.346 -0.9250 -0.8095  0.1065
 8003TIP3   OH245423   1.672   1.955  13.306  0.5067  0.2543  0.1744
 8003TIP3    H145424   1.606   1.950  13.237  1.5475  2.0733 -1.0477
 8003TIP3    H245425   1.755   1.952  13.259  1.3244 -1.6536  1.6513
 8004TIP3   OH245426   5.774   1.828   1.038 -0.1959 -0.1979  0.1486
 8004TIP3    H145427   5.816   1.742   1.036  1.1613  0.4458 -1.1103
 8004TIP3    H245428   5.819   1.876   1.106  1.4776  0.6247 -1.4672
 8005TIP3   OH245429   2.904   5.516  13.913  0.2095  0.1381  0.1191
 8005TIP3    H145430   2.838   5.585  13.908 -0.3126 -0.1981  1.6160
 8005TIP3    H245431   2.971   5.541  13.850 -1.9249 -0.1761 -2.4243
 8006TIP3   OH245432   0.824   4.254   0.454  0.1985  0.7163  0.6337
 8006TIP3    H145433   0.892   4.195   0.422 -0.6055 -0.1473  0.4886
 8006TIP3    H245434   0.766   4.268   0.379  1.4236  3.2944  0.0672
 8007TIP3   OH245435   2.363   0.109  16.297  0.1303  0.3562  0.1658
 8007TIP3    H145436   2.366   0.168  16.372  2.0914 -0.7197  1.0103
 8007TIP3    H245437   2.332   0.026  16.334 -0.3903  0.2223 -0.5513
 8008TIP3   OH245438   1.993   6.367  11.560  0.6658 -0.8523 -0.3121
 8008TIP3    H145439   2.021   6.389  11.649  0.0252 -1.7301  0.1163
 8008TIP3    H245440   2.052   6.418  11.504 -0.6460  1.8527  0.5922
 8009TIP3   OH245441   5.822   1.690   0.258 -0.1135  0.1861 -0.3359
 8009TIP3    H145442   5.763   1.713   0.186 -0.0039  0.7002 -0.2653
 8009TIP3    H245443   5.893   1.642   0.217 -0.6152 -0.5132 -0.4121
 8010TIP3   OH245444   0.578   3.632  13.080  0.3471 -0.7025 -0.3324
 8010TIP3    H145445   0.527   3.635  13.161 -1.2021 -0.9573 -1.2490
 8010TIP3    H245446   0.666   3.609  13.108  0.0551  0.0973  1.3588
 8011TIP3   OH245447   1.145   1.433  11.576 -0.4624  0.2976  0.5198
 8011TIP3    H145448   1.123   1.381  11.653  1.0280  2.1004  2.2540
 8011TIP3    H245449   1.238   1.453  11.586 -0.7301  2.3696 -0.6365
 8012TIP3   OH245450   6.063   6.506   5.530 -0.0664  0.0307  0.6826
 8012TIP3    H145451   6.118   6.526   5.605  1.2377 -1.7591  0.2548
 8012TIP3    H245452   5.974   6.502   5.565  0.1561  1.9124  1.5834
 8013TIP3   OH245453   3.134   5.527   0.827 -0.6509  0.5375 -0.2142
 8013TIP3    H145454   3.071   5.517   0.898  0.0607 -0.2431  0.3239
 8013TIP3    H245455   3.195   5.595   0.858 -0.3413  0.1985 -0.0759
 8014TIP3   OH245456   6.366   0.568  16.856  0.2368 -0.0896 -0.7510
 8014TIP3    H145457   6.345   0.503  16.923 -1.5368  1.1017 -0.0699
 8014TIP3    H245458   6.332   0.532  16.775 -0.4306 -0.1837 -0.4366
 8015TIP3   OH245459   4.751   0.758  12.532  0.1531  0.0424 -0.3643
 8015TIP3    H145460   4.740   0.847  12.498  0.7306 -0.6509 -2.5250
 8015TIP3    H245461   4.665   0.718  12.523 -0.0080  0.2355  0.2393
 8016TIP3   OH245462   4.883   6.195   0.732 -0.3826 -0.0177  0.0552
 8016TIP3    H145463   4.960   6.227   0.686 -0.4648  1.3078  0.7893
 8016TIP3    H245464   4.827   6.158   0.664  0.5825 -0.3389 -0.5669
 8017TIP3   OH245465   2.168   2.129  16.400 -0.0406  0.4399  0.4587
 8017TIP3    H145466   2.172   2.119  16.495 -2.1811  2.0610  0.8061
 8017TIP3    H245467   2.158   2.039  16.366 -1.9485 -0.0097  2.0129
 8018TIP3   OH245468   2.279   2.206   2.737  0.0998 -0.5032  0.3756
 8018TIP3    H145469   2.341   2.190   2.807  0.6577  1.5877  0.4297
 8018TIP3    H245470   2.210   2.259   2.777  0.0794  0.1411 -0.4802
 8019TIP3   OH245471   5.369   2.305   0.327 -0.4852 -0.2065 -0.0773
 8019TIP3    H145472   5.402   2.235   0.384  0.3885 -0.6054 -1.0225
 8019TIP3    H245473   5.286   2.271   0.293 -0.7627 -0.1743  0.5584
 8020TIP3   OH245474   6.003   6.064  12.851  0.4438 -0.1660  0.2425
 8020TIP3    H145475   6.077   6.101  12.803 -0.1738  0.3563 -0.3154
 8020TIP3    H245476   5.966   6.138  12.899 -1.2734  0.1722 -1.4907
 8021TIP3   OH245477   6.709   3.850   2.552 -0.1259  0.1280 -0.6589
 8021TIP3    H145478   6.788   3.835   2.501  0.7900  1.5251  0.2951
 8021TIP3    H245479   6.712   3.943   2.575  0.1943 -0.6123  2.9718
 8022TIP3   OH245480   0.005   6.528  14.839 -0.2721  0.3694  0.2707
 8022TIP3    H145481   0.057   6.523  14.919 -1.5352  0.3588  1.1181
 8022TIP3    H245482  -0.072   6.579  14.864 -0.8462  0.0749 -0.8508
 8023TIP3   OH245483   4.776   1.108   3.465  0.0086  0.5422  0.2893
 8023TIP3    H145484   4.708   1.166   3.432 -0.9857  0.2765  1.7616
 8023TIP3    H245485   4.840   1.102   3.394 -0.8498  1.8434 -0.6272
 8024TIP3   OH245486   1.271   5.611   4.858 -0.6112  0.2606  0.3192
 8024TIP3    H145487   1.360   5.613   4.892  0.0094 -3.9974 -0.5517
 8024TIP3    H245488   1.219   5.573   4.929 -1.0007 -0.5651 -0.3901
 8025TIP3   OH245489   5.780   2.359  14.553  0.1457 -0.2995  0.6198
 8025TIP3    H145490   5.688   2.371  14.577  0.0175  0.0622 -0.0474
 8025TIP3    H245491   5.778   2.291  14.485  0.4553 -0.9092  1.2070
 8026TIP3   OH245492   2.683   4.040  11.503  0.0766  0.5301  0.4242
 8026TIP3    H145493   2.687   4.135  11.503 -1.1212  0.6657 -2.5231
 8026TIP3    H245494   2.765   4.012  11.462 -0.0394  0.3371  0.3214
 8027TIP3   OH245495   4.405   5.491  15.417 -0.2028 -0.5948  0.4099
 8027TIP3    H145496   4.477   5.463  15.361  0.8884  1.3540  0.7347
 8027TIP3    H245497   4.330   5.501  15.358  0.8152  1.0169 -0.6578
 8028TIP3   OH245498   0.208   2.234   2.664  0.4995  0.1451  0.0967
 8028TIP3    H145499   0.273   2.266   2.601  0.3204  0.8198  0.2491
 8028TIP3    H245500   0.166   2.313   2.698 -0.0495 -0.2590  0.3797
 8029TIP3   OH245501   1.568   4.487   1.295 -0.0113 -0.3549  0.7396
 8029TIP3    H145502   1.631   4.530   1.353 -0.3280  1.1028  0.0567
 8029TIP3    H245503   1.621   4.433   1.236  0.7931  1.8431 -0.6748
 8030TIP3   OH245504   2.022   2.864   4.459 -0.4353  0.0764 -0.3291
 8030TIP3    H145505   2.086   2.851   4.389 -0.4954 -1.2347 -0.1638
 8030TIP3    H245506   1.939   2.834   4.421 -0.4537 -0.7036  0.3224
 8031TIP3   OH245507   0.050   5.402   1.795  0.6208 -0.9917  0.3620
 8031TIP3    H145508   0.103   5.322   1.790  1.7220 -0.4186  2.0148
 8031TIP3    H245509   0.098   5.466   1.743  0.8311 -0.8513  0.7259
 8032TIP3   OH245510   5.965   1.409  13.645 -0.2942 -0.2401 -0.3400
 8032TIP3    H145511   5.902   1.419  13.716  1.4739  1.1744  1.1025
 8032TIP3    H245512   6.047   1.387  13.688  0.5610 -0.6093 -2.0631
 8033TIP3   OH245513   0.258   3.428   5.673 -0.9787 -0.3569  0.1923
 8033TIP3    H145514   0.184   3.374   5.700 -0.0230 -1.6083  0.4146
 8033TIP3    H245515   0.321   3.366   5.635  0.4985  0.4647  1.1827
 8034TIP3   OH245516   3.546   2.521  10.971  0.0086  0.4908  0.2286
 8034TIP3    H145517   3.494   2.446  10.942 -0.7771  0.4329  1.6733
 8034TIP3    H245518   3.488   2.596  10.958  0.0121  0.5800  0.7172
 8035TIP3   OH245519   2.701   1.895   0.540  0.3601 -0.2314  0.1328
 8035TIP3    H145520   2.652   1.842   0.603 -0.5014  1.8078  1.2733
 8035TIP3    H245521   2.637   1.915   0.471  0.4431 -0.0672  0.1022
 8036TIP3   OH245522   0.070   3.784   2.829  0.1082 -0.3093 -0.1932
 8036TIP3    H145523  -0.007   3.819   2.784 -0.8333 -0.8085  0.9517
 8036TIP3    H245524   0.109   3.860   2.872  0.4479 -0.0003 -1.0339
 8037TIP3   OH245525   0.473   6.008  16.166  0.0533  0.0919 -0.0248
 8037TIP3    H145526   0.487   6.086  16.112 -0.5111 -0.5043 -1.0575
 8037TIP3    H245527   0.393   5.969  16.131  0.7406 -1.3676 -0.0267
 8038TIP3   OH245528   2.597   2.019  11.362  0.0439 -0.2958 -0.3299
 8038TIP3    H145529   2.598   2.012  11.458  1.5495 -0.0294 -0.3100
 8038TIP3    H245530   2.586   2.112  11.344 -1.0355 -0.4290 -0.4453
 8039TIP3   OH245531   1.278   1.232   2.940 -0.6253  0.1674  0.6196
 8039TIP3    H145532   1.255   1.292   3.011 -0.7986 -0.3614  1.0231
 8039TIP3    H245533   1.347   1.277   2.891  0.9494 -0.2710  2.3145
 8040TIP3   OH245534   4.644   0.774  14.391  0.3084 -0.3157  0.2873
 8040TIP3    H145535   4.577   0.831  14.430  1.8122  1.5185  0.3350
 8040TIP3    H245536   4.613   0.759  14.301 -1.2859 -1.4368  0.9766
 8041TIP3   OH245537   0.901   3.603  16.407 -0.4222 -0.5748  0.5160
 8041TIP3    H145538   0.883   3.667  16.339 -1.1713 -1.1443  0.1648
 8041TIP3    H245539   0.823   3.605  16.463  0.2586  0.0163  1.4690
 8042TIP3   OH245540   3.210   3.334   3.164 -0.5742  0.2900  0.1754
 8042TIP3    H145541   3.124   3.319   3.126 -0.3977  0.4600 -0.3076
 8042TIP3    H245542   3.203   3.302   3.254 -0.7365 -0.9502 -0.2606
 8043TIP3   OH245543   1.088   2.809   0.803 -0.1309 -0.9377  0.2190
 8043TIP3    H145544   1.043   2.894   0.798  2.3978  0.5102  0.3108
 8043TIP3    H245545   1.093   2.790   0.897  0.7264 -0.3489  0.2989
 8044TIP3   OH245546   0.871   5.046   3.756 -0.1394  0.4980  0.0072
 8044TIP3    H145547   0.952   5.094   3.773 -0.1010 -0.1048  1.6017
 8044TIP3    H245548   0.803   5.114   3.755 -0.0781  0.6417  2.1851
 8045TIP3   OH245549   2.724   4.337   3.926 -0.2442 -0.2812  0.2746
 8045TIP3    H145550   2.776   4.399   3.874  0.0308 -0.7203  0.0283
 8045TIP3    H245551   2.785   4.267   3.949 -0.4352 -0.2317  0.9546
 8046TIP3   OH245552   6.747   5.311   5.590  0.1944  0.1196 -0.4649
 8046TIP3    H145553   6.665   5.352   5.617 -0.2880  0.2248 -1.9717
 8046TIP3    H245554   6.804   5.318   5.666 -0.9028  0.8408  0.3165
 8047TIP3   OH245555   2.508   1.848  16.040 -0.1058 -0.2156  0.3219
 8047TIP3    H145556   2.554   1.830  15.958  2.5236  1.7396  1.2269
 8047TIP3    H245557   2.433   1.902  16.014 -0.5463 -1.3736 -0.9489
 8048TIP3   OH245558   2.053   1.881   4.650 -0.2002  1.2599  0.3796
 8048TIP3    H145559   2.095   1.910   4.731 -1.5031 -0.6454  1.8467
 8048TIP3    H245560   2.078   1.789   4.642 -0.8452  1.1757 -0.8901
 8049TIP3   OH245561   0.303   6.392   0.414  0.1929  0.2082  0.2930
 8049TIP3    H145562   0.296   6.309   0.460  1.1663 -1.2859 -2.0931
 8049TIP3    H245563   0.360   6.374   0.339 -2.1052  2.2142 -2.1228
 8050TIP3   OH245564   2.904   2.452   6.187  0.5149 -0.5244  0.0178
 8050TIP3    H145565   2.960   2.409   6.251  0.3144  0.2493  0.7257
 8050TIP3    H245566   2.815   2.428   6.212  0.3797  0.5120  0.6050
 8051TIP3   OH245567   3.304   3.003  12.172  0.5718  0.0346 -0.1145
 8051TIP3    H145568   3.391   2.971  12.150  0.8924 -0.2911  1.5389
 8051TIP3    H245569   3.308   3.025  12.265  0.0304  3.8448 -0.8166
 8052TIP3   OH245570   2.594   1.609   6.116 -0.0255 -1.0030 -0.5964
 8052TIP3    H145571   2.659   1.618   6.186 -0.3183 -3.1785  0.0357
 8052TIP3    H245572   2.646   1.606   6.036  0.3639  0.7271 -0.4586
 8053TIP3   OH245573   1.039   5.896  17.360  0.0466  0.3484 -0.5443
 8053TIP3    H145574   0.980   5.966  17.386 -0.2373  0.4183 -1.3389
 8053TIP3    H245575   0.990   5.846  17.295  0.0567 -0.9019  0.3744
 8054TIP3   OH245576   3.022   5.184   6.535  0.4969 -0.4018  0.1764
 8054TIP3    H145577   2.958   5.114   6.518 -0.1075 -0.2465  1.6679
 8054TIP3    H245578   3.073   5.152   6.609  1.1978  0.1135 -0.0736
 8055TIP3   OH245579   4.073   6.404  15.146 -0.2794  0.3022 -0.4399
 8055TIP3    H145580   4.119   6.339  15.092  1.7758  1.6049 -0.3402
 8055TIP3    H245581   4.133   6.421  15.219 -1.3076  1.4560  0.1612
 8056TIP3   OH245582   3.142   2.973   3.331 -0.1383  0.0342  0.1137
 8056TIP3    H145583   3.183   2.951   3.248  0.5700  0.2886  0.3944
 8056TIP3    H245584   3.171   3.062   3.350  0.0088 -0.1535  0.8133
 8057TIP3   OH245585   6.029   1.077   4.413 -0.4366 -0.3095 -0.2203
 8057TIP3    H145586   5.985   0.993   4.424 -0.0190 -0.6144 -0.8765
 8057TIP3    H245587   5.998   1.129   4.488  0.6217 -1.6002  1.1806
 8058TIP3   OH245588   4.450   5.498   5.011 -0.4940 -1.0898  0.5392
 8058TIP3    H145589   4.487   5.553   5.081 -0.0638  1.4929 -1.5618
 8058TIP3    H245590   4.356   5.510   5.019 -0.4589 -1.0168  0.8577
 8059TIP3   OH245591   2.237   5.539  16.803  0.1104  0.2654 -0.4663
 8059TIP3    H145592   2.300   5.494  16.747  0.5438 -0.8772  0.8753
 8059TIP3    H245593   2.152   5.504  16.776  0.3946 -0.9861  0.1662
 8060TIP3   OH245594   1.292   0.037  14.880  0.0050 -0.6756  0.1032
 8060TIP3    H145595   1.362  -0.027  14.867  1.2298  0.7686 -0.7052
 8060TIP3    H245596   1.225   0.011  14.817 -0.0753 -1.8894  0.6625
 8061TIP3   OH245597   5.630   2.701   6.498 -0.4766 -0.1896 -0.4365
 8061TIP3    H145598   5.541   2.697   6.532  0.2400  1.4178  1.9304
 8061TIP3    H245599   5.631   2.778   6.442 -0.5586 -0.1510 -0.3846
 8062TIP3   OH245600   3.736   1.304   6.935  0.2473 -0.1073  0.5384
 8062TIP3    H145601   3.759   1.265   7.019  1.4637  0.6534  0.5946
 8062TIP3    H245602   3.814   1.355   6.911  0.3668 -1.1674 -1.5571
 8063TIP3   OH245603   4.587   3.147   1.278 -0.0570 -0.3553 -0.7044
 8063TIP3    H145604   4.630   3.232   1.269 -0.7736  0.2387  1.0564
 8063TIP3    H245605   4.498   3.161   1.244 -0.7105  0.1030  1.1091
 8064TIP3   OH245606   5.860   0.653   3.085 -0.5318 -0.5740 -0.1149
 8064TIP3    H145607   5.780   0.699   3.058  0.8314  0.8326 -2.0730
 8064TIP3    H245608   5.914   0.652   3.006  2.2291  0.3234  1.6396
 8065TIP3   OH245609   2.019   6.588  15.594 -0.5763 -0.3594  0.1270
 8065TIP3    H145610   1.949   6.542  15.641 -0.7963 -0.4049 -0.2415
 8065TIP3    H245611   2.037   6.533  15.518 -1.4258  0.5854 -0.7779
 8066TIP3   OH245612   0.217   0.896   4.904  0.0279 -0.0020  0.0947
 8066TIP3    H145613   0.275   0.842   4.957  1.1615  1.3984  0.3522
 8066TIP3    H245614   0.261   0.981   4.900 -1.6266  0.8653 -0.4019
 8067TIP3   OH245615   3.685   3.447   1.081  0.6978  0.3178  0.4921
 8067TIP3    H145616   3.675   3.351   1.074  0.4960  0.3487  0.3276
 8067TIP3    H245617   3.691   3.464   1.175  0.9123  0.1252  0.5131
 8068TIP3   OH245618   1.858   5.874  11.477 -0.0232 -0.0463 -0.0304
 8068TIP3    H145619   1.896   5.961  11.471 -1.0222  0.2939 -2.3627
 8068TIP3    H245620   1.804   5.866  11.399 -1.0597 -2.2454  0.8391
 8069TIP3   OH245621   0.558   2.401   1.339  0.3630  0.0586  0.2870
 8069TIP3    H145622   0.648   2.369   1.331  0.5770  0.8392 -0.6515
 8069TIP3    H245623   0.550   2.467   1.270 -1.0092 -0.1806  0.1900
 8070TIP3   OH245624   6.510   1.991   2.979  0.2159  0.3127 -0.2031
 8070TIP3    H145625   6.462   1.908   2.982  0.4452  0.0401 -2.4700
 8070TIP3    H245626   6.556   1.995   3.063 -1.4918 -0.7919  0.8544
 8071TIP3   OH245627   6.167   0.152   3.138  0.2725 -0.4354  0.3876
 8071TIP3    H145628   6.152   0.142   3.232 -0.2125 -0.7998  0.2761
 8071TIP3    H245629   6.080   0.158   3.100  0.4590 -0.5211 -0.0656
 8072TIP3   OH245630   4.339   0.708   5.764  0.2333 -0.3419 -0.5703
 8072TIP3    H145631   4.259   0.729   5.812 -1.6822 -0.2611 -3.5677
 8072TIP3    H245632   4.344   0.612   5.768  1.4067 -0.2607  1.5976
 8073TIP3   OH245633   6.731   0.940   4.297 -0.0421 -0.1839 -0.4754
 8073TIP3    H145634   6.805   0.884   4.322 -1.1768 -1.2250  0.7271
 8073TIP3    H245635   6.770   1.025   4.280  1.3677 -0.5212  0.8364
 8074TIP3   OH245636   6.728   5.970  14.245 -0.2090  0.2609 -0.3361
 8074TIP3    H145637   6.681   5.919  14.178 -0.2413 -0.0436 -0.0813
 8074TIP3    H245638   6.750   6.052  14.201  0.1943 -0.1291 -0.8723
 8075TIP3   OH245639   1.706   5.274  12.637 -0.1625  0.3467 -0.2212
 8075TIP3    H145640   1.752   5.355  12.616 -1.7451  1.3056 -0.2040
 8075TIP3    H245641   1.649   5.297  12.710 -0.3135 -0.9121  0.0792
 8076TIP3   OH245642   3.285   3.570  15.487  0.1423  0.1063 -0.6380
 8076TIP3    H145643   3.288   3.564  15.392  0.1675  1.8259 -0.7794
 8076TIP3    H245644   3.242   3.489  15.515  1.0883 -0.9236 -2.0230
 8077TIP3   OH245645   3.695   2.015  17.064  0.3242  0.4903 -0.5749
 8077TIP3    H145646   3.682   1.938  17.009  2.9098 -1.0406  0.7631
 8077TIP3    H245647   3.621   2.071  17.044 -0.6603 -1.4788 -3.0388
 8078TIP3   OH245648   4.300   4.124   3.007 -0.6250  0.8075 -0.4285
 8078TIP3    H145649   4.220   4.073   2.999 -0.5503  0.3246  1.4749
 8078TIP3    H245650   4.271   4.215   3.013 -1.1102  0.5822  0.9665
 8079TIP3   OH245651   3.099   6.308   3.961 -0.6817 -0.2074  0.3062
 8079TIP3    H145652   3.060   6.386   4.000 -1.5488 -0.2340 -0.4706
 8079TIP3    H245653   3.177   6.340   3.916 -0.7734  0.1357  0.3883
 8080TIP3   OH245654   4.813   5.365  15.743  0.2466 -0.4848  0.6166
 8080TIP3    H145655   4.860   5.429  15.796  2.0794 -1.6030  0.3997
 8080TIP3    H245656   4.797   5.410  15.660  1.6967 -0.3674  0.3857
 8081TIP3   OH245657   6.358   4.862  15.199 -0.4774 -0.3047 -0.0066
 8081TIP3    H145658   6.276   4.910  15.212 -0.7061 -0.9013  0.8918
 8081TIP3    H245659   6.334   4.770  15.209  0.6022 -0.4120  2.2326
 8082TIP3   OH245660   2.865   0.070   4.010  0.0120  0.3899  0.1009
 8082TIP3    H145661   2.806   0.087   3.937 -0.2130  0.9356  0.3985
 8082TIP3    H245662   2.949   0.105   3.982 -0.0566  0.5359  0.0792
 8083TIP3   OH245663   6.557   2.904  11.131  0.4054 -0.1246  0.2680
 8083TIP3    H145664   6.571   2.974  11.194  0.3302  0.6292 -0.5448
 8083TIP3    H245665   6.629   2.843  11.146  1.2119  0.7770  0.1045
 8084TIP3   OH245666   5.397   3.424  10.836  0.2907  0.1235 -0.4977
 8084TIP3    H145667   5.349   3.456  10.759  0.2471  2.3954  0.3946
 8084TIP3    H245668   5.449   3.499  10.864  2.2475 -1.4334  0.2325
 8085TIP3   OH245669   0.326   4.822   5.259 -0.4738  0.4949 -0.2248
 8085TIP3    H145670   0.248   4.854   5.304  0.2503 -0.4199  1.8305
 8085TIP3    H245671   0.392   4.890   5.272 -0.2102  0.1497  0.3123
 8086TIP3   OH245672   1.708   6.712  14.429  0.0463 -0.0691  0.3741
 8086TIP3    H145673   1.705   6.660  14.509 -2.6529  0.2538  0.5787
 8086TIP3    H245674   1.696   6.803  14.458  1.0668  0.3047 -0.2811
 8087TIP3   OH245675   6.050   6.166   4.857 -0.5339 -0.2276  0.5772
 8087TIP3    H145676   6.134   6.141   4.894  0.0419 -1.1624 -1.2560
 8087TIP3    H245677   5.988   6.155   4.928  0.6262 -1.2248  1.4614
 8088TIP3   OH245678   0.538   2.823  13.146 -0.1977  0.3398 -0.4306
 8088TIP3    H145679   0.495   2.903  13.177  0.1969  0.6435 -0.6580
 8088TIP3    H245680   0.469   2.775  13.099 -0.6534  0.1426  0.4146
 8089TIP3   OH245681   3.077   5.913   6.552 -0.5410  1.1725 -0.1233
 8089TIP3    H145682   3.155   5.966   6.567 -2.0940  3.1714  1.3544
 8089TIP3    H245683   3.006   5.976   6.540 -2.1279 -0.5724 -0.4847
 8090TIP3   OH245684   1.085   5.167   0.478 -0.2193 -0.4825 -0.4741
 8090TIP3    H145685   1.133   5.174   0.561 -0.6267 -1.5479 -0.1283
 8090TIP3    H245686   1.020   5.098   0.494 -1.6771  0.7136 -1.0213
 8091TIP3   OH245687   5.363   4.348  16.428 -0.0903  0.3050 -0.1363
 8091TIP3    H145688   5.283   4.394  16.403  1.0258  0.9769 -2.7645
 8091TIP3    H245689   5.397   4.399  16.502 -3.0008 -1.1583  2.4160
 8092TIP3   OH245690   2.218   3.143   6.040  0.0435  0.9689  1.3950
 8092TIP3    H145691   2.238   3.055   6.007 -0.8556  0.8595  1.1275
 8092TIP3    H245692   2.218   3.199   5.962 -0.7143  0.9592  1.3833
 8093TIP3   OH245693   3.579   1.041  10.913 -0.1562  0.3620  0.2749
 8093TIP3    H145694   3.493   1.081  10.927  0.2378  1.2177  0.2944
 8093TIP3    H245695   3.560   0.961  10.863 -1.2471 -0.9134  2.5537
 8094TIP3   OH245696   1.788   5.135  14.495 -0.3576 -0.1978  0.2281
 8094TIP3    H145697   1.755   5.107  14.580  1.7564  0.7792  1.4345
 8094TIP3    H245698   1.812   5.053  14.450 -1.5680 -0.7241  0.5023
 8095TIP3   OH245699   3.831   1.960  10.635  0.1639 -0.2511  0.1471
 8095TIP3    H145700   3.878   2.009  10.568  2.9296 -1.9990  0.6466
 8095TIP3    H245701   3.791   1.887  10.588 -0.0608 -0.0651  0.0489
 8096TIP3   OH245702   1.081   2.947   2.846 -0.1108 -0.0807 -0.0750
 8096TIP3    H145703   1.092   2.983   2.934 -0.9098 -0.9731  0.4106
 8096TIP3    H245704   1.169   2.924   2.818  0.3255  1.4617 -0.0844
 8097TIP3   OH245705   5.959   5.808  11.723 -0.3705 -0.2100  0.4878
 8097TIP3    H145706   6.051   5.832  11.727 -0.7816  1.3560  0.8862
 8097TIP3    H245707   5.914   5.871  11.779 -1.6081 -1.4135  0.9141
 8098TIP3   OH245708   4.154   0.291  12.150  0.3214 -0.1262 -0.6512
 8098TIP3    H145709   4.237   0.249  12.127 -0.1789 -0.9630 -0.9870
 8098TIP3    H245710   4.148   0.281  12.245 -0.6097 -2.4536 -0.8922
 8099TIP3   OH245711   5.301   1.602   2.288 -0.3742 -0.3903 -0.0399
 8099TIP3    H145712   5.223   1.629   2.240  0.4047  1.1253 -0.5218
 8099TIP3    H245713   5.331   1.523   2.243 -0.7086 -0.0591 -0.8653
 8100TIP3   OH245714   2.250   6.629   3.921  0.2456  0.1710  0.5455
 8100TIP3    H145715   2.316   6.585   3.975 -0.2106 -1.0987  0.1178
 8100TIP3    H245716   2.240   6.715   3.961  0.7052 -0.3449  1.8399
 8101TIP3   OH245717   5.817   2.178   4.023  0.4384 -0.1001  0.1804
 8101TIP3    H145718   5.845   2.158   3.934 -1.5085 -2.1335 -0.0838
 8101TIP3    H245719   5.805   2.092   4.064 -1.4177  0.7027  1.4673
 8102TIP3   OH245720   2.450   6.203   1.134  0.2884 -0.0462 -0.6053
 8102TIP3    H145721   2.513   6.154   1.082  2.6524  2.4688 -0.3714
 8102TIP3    H245722   2.466   6.176   1.225  1.5838  1.0166 -0.4777
 8103TIP3   OH245723   1.451   5.858  14.162 -0.2465 -0.3456  0.2176
 8103TIP3    H145724   1.455   5.845  14.257  1.5414 -0.0518  0.2274
 8103TIP3    H245725   1.449   5.953  14.151  2.5619 -0.2217 -0.0103
 8104TIP3   OH245726   6.608   3.425  13.404  0.0079 -0.6515  0.0567
 8104TIP3    H145727   6.535   3.463  13.355 -0.5150 -1.4062  0.2275
 8104TIP3    H245728   6.685   3.442  13.350 -0.5917 -1.6968 -1.1835
 8105TIP3   OH245729   5.918   1.949  11.224 -0.0979 -0.1178 -0.2114
 8105TIP3    H145730   5.837   1.897  11.227 -0.2194 -0.4090 -4.0657
 8105TIP3    H245731   5.981   1.898  11.274 -1.4399 -1.5749  0.0689
 8106TIP3   OH245732   2.029   3.860   1.494 -0.3482  0.6211 -0.3698
 8106TIP3    H145733   2.110   3.812   1.510 -0.1073  1.9580  3.4106
 8106TIP3    H245734   1.960   3.795   1.504  0.1170 -0.0553 -1.3571
 8107TIP3   OH245735   5.052   4.334  17.006 -0.4767  0.1919  0.0728
 8107TIP3    H145736   5.113   4.406  17.019  0.5623 -0.5424 -0.5408
 8107TIP3    H245737   5.070   4.274  17.079 -1.7950  0.8372  0.9575
 8108TIP3   OH245738   4.581   2.057   0.840  0.3589 -0.2602  0.1330
 8108TIP3    H145739   4.553   1.995   0.908  1.0562 -0.7739 -0.0317
 8108TIP3    H245740   4.675   2.068   0.856  0.5944 -0.6337 -0.9335
 8109TIP3   OH245741   2.448   2.087   1.492  0.5058  0.0416  0.5132
 8109TIP3    H145742   2.399   2.134   1.559  1.6698  0.7235  0.9327
 8109TIP3    H245743   2.537   2.121   1.500  1.2083 -1.6260  0.2357
 8110TIP3   OH245744   0.171   3.226  14.310  0.2666  0.4710  0.2953
 8110TIP3    H145745   0.088   3.184  14.286 -0.3625  2.1045 -0.5811
 8110TIP3    H245746   0.161   3.247  14.403 -0.1540  0.3240  0.2860
 8111TIP3   OH245747   1.779   0.528  13.981  0.4645 -0.4857 -0.2145
 8111TIP3    H145748   1.687   0.511  13.963 -0.4112  2.5916  0.7488
 8111TIP3    H245749   1.782   0.549  14.074  2.0964 -0.3161 -0.2751
 8112TIP3   OH245750   1.132   4.481  15.850  0.1881  0.4622  0.2750
 8112TIP3    H145751   1.222   4.458  15.874  0.6027  0.8494 -0.8346
 8112TIP3    H245752   1.139   4.514  15.760 -0.8709  1.8402  0.6783
 8113TIP3   OH245753   4.656   0.297   4.907  0.2785  0.0407  0.3003
 8113TIP3    H145754   4.731   0.279   4.850  1.0137  0.1708  1.1945
 8113TIP3    H245755   4.677   0.381   4.948 -0.8092  0.5494 -0.1319
 8114TIP3   OH245756   1.495   3.454   1.558 -0.1736  0.4558  0.1811
 8114TIP3    H145757   1.500   3.362   1.584  0.4743  0.4561  0.0727
 8114TIP3    H245758   1.410   3.483   1.590 -0.1031  0.0005  0.8127
 8115TIP3   OH245759   1.316   5.516   3.675 -0.0354  0.5358 -0.6745
 8115TIP3    H145760   1.313   5.425   3.647  0.3283  0.1471  0.4727
 8115TIP3    H245761   1.229   5.550   3.657 -0.0726  0.0634 -1.4215
 8116TIP3   OH245762   0.558   2.209   5.170  0.5759 -0.2873 -0.3339
 8116TIP3    H145763   0.626   2.143   5.186 -0.5775 -1.6841 -0.9964
 8116TIP3    H245764   0.498   2.200   5.244  1.0441  0.9169  0.2250
 8117TIP3   OH245765   2.810   1.601  13.527  0.1847 -0.7060  0.3327
 8117TIP3    H145766   2.885   1.623  13.471 -0.1442 -0.8103 -0.1643
 8117TIP3    H245767   2.781   1.516  13.494 -1.9010  0.5752 -1.3967
 8118TIP3   OH245768   0.502   4.526   4.552 -0.0390 -0.0313 -0.3161
 8118TIP3    H145769   0.531   4.435   4.559 -0.6547 -0.1117  1.8712
 8118TIP3    H245770   0.446   4.527   4.474 -0.3915 -1.6503 -0.1231
 8119TIP3   OH245771   2.677   3.971   0.455 -0.3009 -0.0733  0.3710
 8119TIP3    H145772   2.762   3.967   0.411 -0.9878  0.6943 -1.0875
 8119TIP3    H245773   2.685   4.046   0.515  0.0942 -0.1045  0.3615
 8120TIP3   OH245774   4.410   4.894   1.038  0.1278 -0.0722 -0.5434
 8120TIP3    H145775   4.436   4.802   1.029 -1.8185 -0.7035 -0.3432
 8120TIP3    H245776   4.323   4.890   1.077 -0.4820  1.8389 -1.5665
 8121TIP3   OH245777   1.692   3.048   2.585 -0.4014 -0.2395  0.4145
 8121TIP3    H145778   1.674   3.070   2.676  0.9575  0.9483  0.4363
 8121TIP3    H245779   1.769   2.992   2.589 -0.4043 -0.2759  0.0109
 8122TIP3   OH245780   5.637   6.551  16.008  0.3338 -0.4944 -0.5512
 8122TIP3    H145781   5.693   6.581  16.079  0.8130 -0.3812 -0.9648
 8122TIP3    H245782   5.548   6.566  16.039  0.5451  0.5484 -0.3935
 8123TIP3   OH245783   1.933   1.919  16.460 -0.2633  0.3010  0.5906
 8123TIP3    H145784   1.953   1.891  16.371 -1.3137 -1.0076  0.7409
 8123TIP3    H245785   1.844   1.889  16.476  0.0772  0.0597  2.2668
 8124TIP3   OH245786   1.194   0.373  15.369 -0.3914 -0.7897 -0.0362
 8124TIP3    H145787   1.259   0.304  15.359 -1.3719 -1.7117 -0.3168
 8124TIP3    H245788   1.119   0.329  15.411 -1.1072  0.0489 -0.3960
 8125TIP3   OH245789   4.032   0.987  11.690  0.2040 -0.2657  0.1898
 8125TIP3    H145790   4.076   0.930  11.627 -0.0809  0.6202 -0.8528
 8125TIP3    H245791   4.039   1.074  11.651 -1.3550  0.0780  0.6172
 8126TIP3   OH245792   3.460   3.906  11.633 -0.5119  0.1322 -0.7513
 8126TIP3    H145793   3.419   3.893  11.547 -2.7950 -0.2637  0.3171
 8126TIP3    H245794   3.388   3.897  11.695  0.9006  1.3963  1.1687
 8127TIP3   OH245795   3.967   4.124  11.643 -0.0824  0.2066 -0.8408
 8127TIP3    H145796   3.961   4.076  11.561 -0.0849  0.9971 -1.3157
 8127TIP3    H245797   3.932   4.211  11.623 -0.1756  0.3848  0.0224
 8128TIP3   OH245798   5.044   6.389   1.074  0.4228 -0.2583  0.0863
 8128TIP3    H145799   5.091   6.415   0.994  4.1298 -1.2675  1.7215
 8128TIP3    H245800   4.993   6.312   1.048  0.8648 -0.0643 -1.4767
 8129TIP3   OH245801   2.751   1.254  11.923  0.3587  0.1790 -0.3437
 8129TIP3    H145802   2.814   1.305  11.973 -0.6649 -0.4221  1.6675
 8129TIP3    H245803   2.670   1.261  11.974 -0.5552 -1.0497 -1.5760
 8130TIP3   OH245804   5.993   3.710  15.587 -0.0202 -0.1128 -0.2994
 8130TIP3    H145805   6.070   3.690  15.534 -0.6470 -0.8585 -0.9682
 8130TIP3    H245806   5.925   3.733  15.524  0.0582  2.1355  0.3497
 8131TIP3   OH245807   0.979   5.610   3.044  0.3051  0.3868  0.5324
 8131TIP3    H145808   0.909   5.673   3.031  0.6540  0.6943  0.1086
 8131TIP3    H245809   0.934   5.528   3.065 -0.1369  0.8891  1.6206
 8132TIP3   OH245810   3.724   4.709   6.346 -0.2086  0.0552  0.0668
 8132TIP3    H145811   3.775   4.630   6.365 -0.5198 -0.2519 -0.3538
 8132TIP3    H245812   3.783   4.781   6.370  0.1798 -0.2986  0.2027
 8133TIP3   OH245813   2.596   3.120  15.208 -0.4471  0.0248 -0.2853
 8133TIP3    H145814   2.606   3.196  15.152 -1.1231 -0.9048 -1.7350
 8133TIP3    H245815   2.513   3.080  15.180 -0.0173 -1.3395  0.2821
 8134TIP3   OH245816   1.360   5.167  14.276 -0.0837 -0.1345  0.1906
 8134TIP3    H145817   1.372   5.124  14.192 -2.7645 -0.2003 -0.2556
 8134TIP3    H245818   1.342   5.259  14.254 -0.7653 -0.1440  0.6683
 8135TIP3   OH245819   5.776   3.632   1.026 -0.4787  0.1909  0.0540
 8135TIP3    H145820   5.751   3.724   1.016  1.8159  0.7165 -1.4518
 8135TIP3    H245821   5.799   3.604   0.938 -0.2662 -1.5797  0.6409
 8136TIP3   OH245822   6.260   3.656  15.536  0.7635 -0.3209 -0.5142
 8136TIP3    H145823   6.310   3.632  15.614  0.8718  0.4236 -0.3497
 8136TIP3    H245824   6.289   3.594  15.469  0.7097 -0.9317  0.0162
 8137TIP3   OH245825   3.520   3.562  14.979 -0.2118  0.1418  0.3649
 8137TIP3    H145826   3.502   3.621  14.906  0.2808  1.5336  1.3449
 8137TIP3    H245827   3.542   3.479  14.937 -0.4128  0.7772 -1.0568
 8138TIP3   OH245828   1.274   4.914   4.989 -0.1559 -0.2149  0.4844
 8138TIP3    H145829   1.179   4.903   4.992 -0.2481 -0.6667 -2.2536
 8138TIP3    H245830   1.309   4.834   5.027 -0.8142  0.0556  1.7418
 8139TIP3   OH245831   4.270   6.581   4.596  0.2573 -0.5890  0.4909
 8139TIP3    H145832   4.237   6.492   4.583 -1.0372  0.0888 -1.1590
 8139TIP3    H245833   4.215   6.617   4.666 -0.3764 -0.5231 -0.0379
 8140TIP3   OH245834   5.966   2.777   3.030  0.3258 -0.4376  0.2612
 8140TIP3    H145835   6.059   2.772   3.052  0.7943  1.0905 -1.1172
 8140TIP3    H245836   5.964   2.824   2.946 -1.7045 -0.1224  0.4347
 8141TIP3   OH245837   4.336   4.045   1.856  0.3562 -0.0252  0.4517
 8141TIP3    H145838   4.305   4.006   1.774  1.0643  0.6164 -0.1275
 8141TIP3    H245839   4.427   4.068   1.839  0.2981  0.7838  1.1812
 8142TIP3   OH245840   6.516   6.563  15.488  0.2424 -0.0967 -0.3672
 8142TIP3    H145841   6.560   6.480  15.471 -0.5296 -0.4465 -0.6805
 8142TIP3    H245842   6.484   6.556  15.577 -1.0248 -0.7058 -0.8428
 8143TIP3   OH245843   0.805   1.214   3.046  0.3173  0.7532 -0.0250
 8143TIP3    H145844   0.850   1.291   3.080  1.5145  1.2634 -2.4942
 8143TIP3    H245845   0.722   1.247   3.011  0.0641  0.6012  0.4171
 8144TIP3   OH245846   2.229   6.660  17.351  0.3202 -0.1840  0.1382
 8144TIP3    H145847   2.240   6.577  17.397  1.3079 -1.1987 -1.8004
 8144TIP3    H245848   2.193   6.719  17.417  0.0047 -2.0105  1.7051
 8145TIP3   OH245849   4.746   6.494  11.342  0.5938 -0.1665  0.1192
 8145TIP3    H145850   4.701   6.505  11.425  2.5039 -1.3893  1.3876
 8145TIP3    H245851   4.803   6.571  11.334 -0.2380  0.4017 -0.5336
 8146TIP3   OH245852   2.417   4.740  14.138  0.3627 -0.0012 -0.0109
 8146TIP3    H145853   2.487   4.704  14.083 -0.5241 -0.1182 -1.0862
 8146TIP3    H245854   2.456   4.819  14.176  1.9818 -1.4686  1.5813
 8147TIP3   OH245855   0.440   1.353  12.529 -0.1240 -0.6718  0.0759
 8147TIP3    H145856   0.433   1.394  12.616 -1.0754  1.3622 -0.8895
 8147TIP3    H245857   0.512   1.400  12.487  0.2220 -1.5354 -0.3145
 8148TIP3   OH245858   1.362   0.995   3.773  0.2564 -0.7394 -0.1694
 8148TIP3    H145859   1.277   0.958   3.798  0.9554 -1.7956  0.7103
 8148TIP3    H245860   1.425   0.926   3.794  1.8201  1.3965  2.8649
 8149TIP3   OH245861   1.610   4.828  16.890  0.5688  0.2754 -0.0320
 8149TIP3    H145862   1.555   4.840  16.968  1.0206 -2.3387  0.7922
 8149TIP3    H245863   1.700   4.835  16.924  0.7680  1.2862 -0.7508
 8150TIP3   OH245864   4.816   2.095   1.822  0.2638  0.4516 -0.0870
 8150TIP3    H145865   4.870   2.105   1.744  0.5197 -0.6953 -0.0614
 8150TIP3    H245866   4.850   2.160   1.883  2.3030 -0.9226  0.3033
 8151TIP3   OH245867   4.284   1.921  16.214  0.3731 -0.4851  0.7171
 8151TIP3    H145868   4.190   1.910  16.200  0.6013 -0.5234 -1.0106
 8151TIP3    H245869   4.305   1.859  16.284 -0.6092 -1.7348 -0.0467
 8152TIP3   OH245870   6.127   0.285  10.738 -0.2885 -0.0529 -0.4774
 8152TIP3    H145871   6.165   0.197  10.748  1.2745  0.6325 -0.0127
 8152TIP3    H245872   6.033   0.271  10.742 -0.0503 -1.5362  1.3221
 8153TIP3   OH245873   6.520   0.472   3.347 -0.4627 -0.1742  0.4619
 8153TIP3    H145874   6.501   0.562   3.318 -1.3395 -0.5749 -0.2486
 8153TIP3    H245875   6.520   0.477   3.442  0.1760  0.7094  0.4341
 8154TIP3   OH245876   0.823   2.291   4.331 -0.0750  0.3688 -0.6498
 8154TIP3    H145877   0.893   2.308   4.394  0.9661  1.0081 -1.9360
 8154TIP3    H245878   0.834   2.359   4.264 -1.6639  0.2163 -1.1118
 8155TIP3   OH245879   4.545   1.842   0.996 -0.3739  0.4352  0.4624
 8155TIP3    H145880   4.630   1.802   0.979 -0.8947 -0.4098 -0.2307
 8155TIP3    H245881   4.481   1.774   0.973 -1.2303  0.8212  1.5802
 8156TIP3   OH245882   2.343   5.580   4.609  0.6748 -0.3856 -0.0025
 8156TIP3    H145883   2.332   5.581   4.704  0.7931  0.6418  0.0093
 8156TIP3    H245884   2.386   5.497   4.590  0.5106 -0.6614  0.8254
 8157TIP3   OH245885   0.512   5.316   4.446 -0.0254 -0.3256  0.4452
 8157TIP3    H145886   0.532   5.369   4.523 -0.5481 -0.2250  0.5154
 8157TIP3    H245887   0.596   5.306   4.401  0.3529 -0.6822  1.2124
 8158TIP3   OH245888   0.863   3.557  15.254 -0.1660 -0.2863 -0.2555
 8158TIP3    H145889   0.807   3.550  15.176  0.7415 -0.0536 -0.9411
 8158TIP3    H245890   0.810   3.607  15.316  0.3940  2.8132 -2.0429
 8159TIP3   OH245891   1.078   0.123  11.725 -0.6592  0.1613  0.6114
 8159TIP3    H145892   1.150   0.061  11.715  1.0104  2.2378 -1.2999
 8159TIP3    H245893   1.018   0.102  11.654 -1.3757 -0.7853  1.4659
 8160TIP3   OH245894   2.817   2.474  13.785  0.1886  0.1013 -0.1021
 8160TIP3    H145895   2.838   2.401  13.727  0.1220  0.6627 -0.8476
 8160TIP3    H245896   2.864   2.454  13.866  0.2900 -0.6895 -0.3443
 8161TIP3   OH245897   6.332   1.945   5.126  0.1417  0.1289 -0.1915
 8161TIP3    H145898   6.246   1.978   5.101 -0.3421  0.4035  1.7224
 8161TIP3    H245899   6.394   2.001   5.079 -0.7161  0.8301 -0.4947
 8162TIP3   OH245900   4.366   1.643   0.134  0.1063  0.5525 -0.2072
 8162TIP3    H145901   4.311   1.721   0.147  0.2690  0.7583 -0.7408
 8162TIP3    H245902   4.348   1.615   0.045  0.1609  0.0583 -0.0660
 8163TIP3   OH245903   0.052   1.950  16.453  0.5579  0.7523 -0.0101
 8163TIP3    H145904   0.017   2.036  16.477  0.8700  0.9942 -0.4188
 8163TIP3    H245905   0.143   1.967  16.427  0.4652  0.3797 -0.6015
 8164TIP3   OH245906   5.400   3.255  16.742  0.1345 -0.4279  0.4156
 8164TIP3    H145907   5.379   3.264  16.835 -0.3721  0.4757  0.2164
 8164TIP3    H245908   5.347   3.181  16.713 -0.4153 -0.1190  0.6294
 8165TIP3   OH245909   5.826   2.247   1.411  0.7147  0.0022 -0.6537
 8165TIP3    H145910   5.745   2.245   1.360  0.1321  2.0749  0.1259
 8165TIP3    H245911   5.886   2.300   1.358  0.3772  1.4540  0.3731
 8166TIP3   OH245912   1.533   6.083  14.452 -0.6278 -0.3505 -0.5626
 8166TIP3    H145913   1.599   6.120  14.393  1.2408  0.2057  1.6996
 8166TIP3    H245914   1.449   6.111  14.415  0.4792  0.8297 -2.3647
 8167TIP3   OH245915   3.439   6.103   6.252  0.4043 -0.4294 -0.3747
 8167TIP3    H145916   3.395   6.171   6.302 -0.4303 -1.5404  0.4381
 8167TIP3    H245917   3.470   6.041   6.318 -0.1515 -1.5880 -1.1790
 8168TIP3   OH245918   2.855   3.290   5.258 -0.1966  0.8297 -0.5278
 8168TIP3    H145919   2.768   3.313   5.292 -0.0875 -0.3648  0.6335
 8168TIP3    H245920   2.893   3.234   5.325  0.3462 -1.0103 -2.2734
 8169TIP3   OH245921   2.606   3.803  12.852  0.0624 -0.3047 -1.5360
 8169TIP3    H145922   2.696   3.822  12.825  0.9053 -0.3554  0.9835
 8169TIP3    H245923   2.612   3.718  12.896 -0.8426  0.5345  0.2851
 8170TIP3   OH245924   6.405   5.503   3.912  0.1005 -0.5725  0.4324
 8170TIP3    H145925   6.400   5.517   4.006  0.6997 -2.2810  0.7606
 8170TIP3    H245926   6.335   5.440   3.893 -0.3238  0.1126 -0.3592
 8171TIP3   OH245927   1.488   2.432   4.640  0.2389 -0.3403  0.0995
 8171TIP3    H145928   1.480   2.363   4.705  2.3526  0.4112  1.2557
 8171TIP3    H245929   1.407   2.428   4.589 -1.2273 -1.3363  2.3958
 8172TIP3   OH245930   5.522   0.891  13.700  0.2094  0.4777 -0.1652
 8172TIP3    H145931   5.518   0.862  13.792 -0.5227 -0.5001 -0.4840
 8172TIP3    H245932   5.505   0.811  13.650 -0.6737  1.2466 -1.1164
 8173TIP3   OH245933   5.257   3.950  14.209 -0.8512 -0.3792 -0.2838
 8173TIP3    H145934   5.262   3.856  14.227 -3.3228 -0.7529 -1.1061
 8173TIP3    H245935   5.181   3.980  14.260  0.3381  1.3544  0.5567
 8174TIP3   OH245936   1.053   1.483  17.367  0.3577 -0.2817  0.0558
 8174TIP3    H145937   1.061   1.410  17.430  0.3403  0.2088  0.6393
 8174TIP3    H245938   0.968   1.469  17.326  0.9725 -1.4072 -0.8945
 8175TIP3   OH245939   2.345   1.199   1.053 -0.0447 -0.1751  0.5486
 8175TIP3    H145940   2.391   1.253   1.117  1.0152 -1.1315  0.6271
 8175TIP3    H245941   2.409   1.134   1.026 -0.1075  0.8158 -2.2954
 8176TIP3   OH245942   1.576   5.278  14.997  0.0024  0.3269  0.5349
 8176TIP3    H145943   1.610   5.353  14.947  0.6527  0.4177  1.0990
 8176TIP3    H245944   1.524   5.229  14.933 -0.4629  1.2695  0.1658
 8177TIP3   OH245945   5.793   5.361  12.135 -0.9257 -0.0790  0.1660
 8177TIP3    H145946   5.813   5.444  12.092  3.4034 -0.4983  0.9711
 8177TIP3    H245947   5.760   5.306  12.064  0.7395  0.9315 -1.4893
 8178TIP3   OH245948   4.379   2.073   0.591 -0.0645 -0.6862 -0.7854
 8178TIP3    H145949   4.422   2.135   0.532 -0.5160 -0.6892 -1.1333
 8178TIP3    H245950   4.450   2.033   0.641  0.0659  2.8420  2.2648
 8179TIP3   OH245951   5.661   1.648  15.620 -0.2627  0.1817 -0.0093
 8179TIP3    H145952   5.671   1.741  15.638 -0.9041  0.3499 -0.4920
 8179TIP3    H245953   5.643   1.608  15.705  2.1910  0.1577  0.5823
 8180TIP3   OH245954   1.519   4.089  11.093 -0.0554  0.8615 -0.2779
 8180TIP3    H145955   1.572   4.016  11.125  1.7782  2.2883  0.0289
 8180TIP3    H245956   1.465   4.050  11.024  0.7502 -0.8175 -0.0086
 8181TIP3   OH245957   0.723   0.555  15.780 -0.4971 -0.8020 -0.1132
 8181TIP3    H145958   0.680   0.521  15.858 -0.7045  0.5312  0.3838
 8181TIP3    H245959   0.764   0.637  15.809  1.4398 -1.4589 -0.8478
 8182TIP3   OH245960   2.482   1.797   0.366  0.5726 -0.2146 -0.1514
 8182TIP3    H145961   2.425   1.834   0.298  1.3304  1.0882 -0.1229
 8182TIP3    H245962   2.536   1.734   0.319  3.1013  2.6945 -1.5227
 8183TIP3   OH245963   5.178   2.780  13.722 -0.4221 -0.2400  0.7755
 8183TIP3    H145964   5.200   2.821  13.639  0.5706 -0.6582  0.8168
 8183TIP3    H245965   5.087   2.805  13.738 -1.3206 -1.8295 -1.4401
 8184TIP3   OH245966   6.412   5.999   5.303 -0.2495  0.0667  0.6544
 8184TIP3    H145967   6.352   5.932   5.335  0.3515 -0.2783  1.0785
 8184TIP3    H245968   6.454   5.959   5.227  0.2116 -0.1042  0.9909
 8185TIP3   OH245969   4.585   0.497   1.180  0.0356  0.0274 -0.2578
 8185TIP3    H145970   4.534   0.554   1.237 -1.1065 -0.3096 -0.9191
 8185TIP3    H245971   4.669   0.542   1.171 -1.6233  3.0490 -2.7868
 8186TIP3   OH245972   3.017   0.303  13.945 -0.6079  0.2887 -0.1928
 8186TIP3    H145973   2.963   0.320  14.022  1.3127 -0.3883  1.3980
 8186TIP3    H245974   3.090   0.365  13.953  0.0997 -0.4119 -0.9393
 8187TIP3   OH245975   5.676   2.988   1.823  0.2265  0.6430 -0.2501
 8187TIP3    H145976   5.760   2.997   1.778 -0.6739  0.3590 -2.0865
 8187TIP3    H245977   5.662   2.893   1.830 -0.3801  0.6835 -0.8396
 8188TIP3   OH245978   3.436   4.314   3.508  0.1553 -0.2625  0.8775
 8188TIP3    H145979   3.525   4.320   3.542 -0.2354  2.2455  1.6232
 8188TIP3    H245980   3.381   4.320   3.586 -0.7158 -2.1862  0.4668
 8189TIP3   OH245981   1.568   1.888  12.672 -0.4487 -0.6895 -0.2424
 8189TIP3    H145982   1.520   1.813  12.707 -0.9752  0.4008  1.5142
 8189TIP3    H245983   1.658   1.858  12.666 -0.6047 -1.3978  0.7039
 8190TIP3   OH245984   4.078   2.842   4.655  0.3840 -0.2695 -0.1769
 8190TIP3    H145985   4.090   2.818   4.747  0.2337  1.5213  0.3436
 8190TIP3    H245986   4.064   2.759   4.611 -0.9119 -1.0796  1.6292
 8191TIP3   OH245987   3.449   0.609  13.958  0.4191  0.0104  0.3945
 8191TIP3    H145988   3.512   0.602  13.886 -0.1480 -1.1508 -0.0067
 8191TIP3    H245989   3.473   0.691  14.002  0.0615  1.3774 -1.7803
 8192TIP3   OH245990   3.314   1.025  10.823 -0.0198 -0.0508  0.6619
 8192TIP3    H145991   3.332   0.932  10.807  1.1080  0.3723 -0.7075
 8192TIP3    H245992   3.220   1.028  10.841 -0.5786 -1.1610 -1.7083
 8193TIP3   OH245993   2.462   6.511   2.461  0.5081 -0.1927  0.0488
 8193TIP3    H145994   2.465   6.521   2.556  1.1179 -1.5198  0.1932
 8193TIP3    H245995   2.376   6.544   2.436  0.1423 -0.2931  1.1267
 8194TIP3   OH245996   3.787   5.786  17.161  0.0293 -0.1833 -0.1447
 8194TIP3    H145997   3.858   5.729  17.190 -0.2015  0.0826  0.9937
 8194TIP3    H245998   3.818   5.823  17.079  0.8049 -0.7902 -0.1383
 8195TIP3   OH245999   0.193   3.304  13.119  0.3326 -0.2235 -0.1450
 8195TIP3    H146000   0.271   3.338  13.075 -0.5427  1.6856 -0.3309
 8195TIP3    H246001   0.221   3.286  13.209  0.9123  0.8566 -0.0917
 8196TIP3   OH246002   0.294   0.401   1.396 -0.2827  0.0680  0.1350
 8196TIP3    H146003   0.271   0.392   1.488  0.1323 -0.4899  0.1925
 8196TIP3    H246004   0.306   0.311   1.366 -0.0721  0.2614 -0.3721
 8197TIP3   OH246005   2.094   5.705  16.514  0.0750  0.1262 -0.1721
 8197TIP3    H146006   2.081   5.636  16.579 -0.3909 -0.4133 -0.8327
 8197TIP3    H246007   2.137   5.662  16.441 -1.7145  0.1185 -1.2918
 8198TIP3   OH246008   6.627   0.384  13.407 -0.0914 -0.6616  0.1520
 8198TIP3    H146009   6.714   0.423  13.408 -0.9593  1.4254 -0.4748
 8198TIP3    H246010   6.598   0.391  13.316 -1.2211 -0.5545  0.4986
 8199TIP3   OH246011   1.611   1.913  15.660  0.4572  0.1922  0.1440
 8199TIP3    H146012   1.681   1.919  15.595  1.5424  0.6968  1.3302
 8199TIP3    H246013   1.583   2.004  15.673  0.7008  0.1647  0.8686
 8200TIP3   OH246014   5.241   6.229  16.774 -0.2726  0.7805  0.5502
 8200TIP3    H146015   5.322   6.189  16.742 -0.7389 -0.2112  0.5448
 8200TIP3    H246016   5.270   6.300  16.830  0.5843  1.1786 -0.3620
 8201TIP3   OH246017   0.899   5.445  14.712  0.3909  0.1542  0.0723
 8201TIP3    H146018   0.875   5.362  14.671  0.6756  0.2888 -0.3710
 8201TIP3    H246019   0.980   5.471  14.668  0.0595  0.8908 -0.1083
 8202TIP3   OH246020   1.186   1.754  13.530 -0.2247  0.3170  0.0377
 8202TIP3    H146021   1.240   1.787  13.601  1.3496  0.9241 -1.3569
 8202TIP3    H246022   1.183   1.826  13.467  0.5583 -1.0061 -1.6068
 8203TIP3   OH246023   6.244   0.977   6.023  0.5184  0.0194  0.5812
 8203TIP3    H146024   6.181   1.012   6.086  2.2027 -0.2225  2.5227
 8203TIP3    H246025   6.219   0.885   6.013  1.0538 -0.3376  2.1042
 8204TIP3   OH246026   5.279   1.217  13.265  0.2195 -0.3366 -0.3256
 8204TIP3    H146027   5.320   1.208  13.351  0.0435 -0.1763 -0.2243
 8204TIP3    H246028   5.250   1.129  13.242  0.4262 -0.4124 -0.3028
 8205TIP3   OH246029   2.841   3.319   1.721  0.0065 -0.4883  0.1521
 8205TIP3    H146030   2.827   3.267   1.641  0.8192  1.2743 -1.2001
 8205TIP3    H246031   2.854   3.408   1.689  1.1163  0.1438  2.2233
 8206TIP3   OH246032   2.322   5.088   1.358 -0.9830 -0.1346 -0.1539
 8206TIP3    H146033   2.268   5.150   1.407  1.4096  2.5334 -0.5994
 8206TIP3    H246034   2.280   5.084   1.272 -1.3129  0.7013 -0.0454
 8207TIP3   OH246035   6.102   4.023  13.411  0.4093 -0.6841 -0.2433
 8207TIP3    H146036   6.079   4.091  13.348 -0.0159 -0.1402  0.4816
 8207TIP3    H246037   6.125   3.947  13.357 -0.5794 -0.4385 -1.0413
 8208TIP3   OH246038   5.668   2.832   4.263  0.0712  0.3527 -0.2483
 8208TIP3    H146039   5.716   2.803   4.185 -0.4810 -0.1490 -0.4025
 8208TIP3    H246040   5.710   2.786   4.336 -1.5875 -1.8891 -0.6071
 8209TIP3   OH246041   3.104   4.567   1.419 -0.5077  0.1024  0.6601
 8209TIP3    H146042   3.077   4.624   1.347 -1.7810  0.4847  1.3946
 8209TIP3    H246043   3.034   4.502   1.426  0.1244 -0.5720  0.8796
 8210TIP3   OH246044   4.073   3.211   2.030  0.4640 -0.1867 -0.1483
 8210TIP3    H146045   4.023   3.292   2.034  0.5680 -0.0602 -1.1701
 8210TIP3    H246046   4.009   3.142   2.046  0.5258  0.1133  1.5976
 8211TIP3   OH246047   2.859   3.709  12.328 -0.2036 -0.4725 -0.0708
 8211TIP3    H146048   2.839   3.671  12.413  1.7126 -0.4643  0.4314
 8211TIP3    H246049   2.951   3.735  12.334 -1.4668  5.1877  0.0097
 8212TIP3   OH246050   0.605   1.923   1.073  0.6409  0.2790 -0.4882
 8212TIP3    H146051   0.582   1.924   1.166  2.4854 -0.3934  0.0154
 8212TIP3    H246052   0.573   2.006   1.039 -1.3967 -0.1027  0.3806
 8213TIP3   OH246053   5.408   0.678   1.185 -0.2904 -0.2346  0.0772
 8213TIP3    H146054   5.419   0.625   1.265  0.2406 -0.5217 -0.1837
 8213TIP3    H246055   5.494   0.717   1.169 -0.9573  1.7079  0.9364
 8214TIP3   OH246056   3.278   1.422   1.273 -0.1276  0.5003 -0.6808
 8214TIP3    H146057   3.307   1.426   1.182  0.1548 -0.3062 -0.6342
 8214TIP3    H246058   3.286   1.330   1.297 -2.4197  0.2708 -0.5605
 8215TIP3   OH246059   3.368   3.332  10.645  0.1171  0.1107  0.2871
 8215TIP3    H146060   3.334   3.267  10.583 -0.2132  0.0811  0.4999
 8215TIP3    H246061   3.388   3.282  10.724  1.8858 -0.1081 -0.2523
 8216TIP3   OH246062   3.486   3.387  11.129 -0.6527  0.4039 -0.2300
 8216TIP3    H146063   3.569   3.397  11.081 -0.9284 -1.2962 -1.1446
 8216TIP3    H246064   3.513   3.365  11.218 -0.1195  0.6947 -0.3105
 8217TIP3   OH246065   6.382   6.021  16.667  0.5535  0.0140  0.0149
 8217TIP3    H146066   6.333   6.101  16.687  1.4102  0.8761 -1.1924
 8217TIP3    H246067   6.457   6.024  16.726 -0.8137 -1.3876  1.9773
 8218TIP3   OH246068   0.654   2.474  17.276  0.0116 -0.6302 -0.2791
 8218TIP3    H146069   0.704   2.452  17.355 -0.3647  1.2003  0.5312
 8218TIP3    H246070   0.590   2.538  17.306 -1.7203 -1.6325 -1.6384
 8219TIP3   OH246071   2.005   3.363   5.202  0.2926 -0.8655 -0.3099
 8219TIP3    H146072   2.015   3.288   5.260  2.0242 -0.1052  0.4369
 8219TIP3    H246073   2.063   3.344   5.128  1.0570 -0.1212  0.0775
 8220TIP3   OH246074   2.638   2.686  13.779 -0.0939  0.7590 -0.3728
 8220TIP3    H146075   2.683   2.770  13.769  1.1158  0.1109 -0.5702
 8220TIP3    H246076   2.707   2.621  13.773 -0.8896 -0.2271  0.6564
 8221TIP3   OH246077   6.016   5.151   0.908 -0.4011 -0.1911 -0.4731
 8221TIP3    H146078   5.966   5.180   0.832 -0.2262 -1.8315 -1.2516
 8221TIP3    H246079   5.964   5.079   0.945  0.2084 -0.3278  0.1331
 8222TIP3   OH246080   1.436   1.361   2.739 -0.0485 -0.5980 -0.1012
 8222TIP3    H146081   1.515   1.384   2.691 -1.2359 -0.5783 -2.1660
 8222TIP3    H246082   1.369   1.350   2.671 -1.8873 -0.3496  1.5817
 8223TIP3   OH246083   4.729   4.802   2.138 -0.2573 -0.4789  0.1301
 8223TIP3    H146084   4.813   4.764   2.162 -0.3562 -1.9913 -1.7276
 8223TIP3    H246085   4.723   4.881   2.192  1.1655 -1.6522  2.1747
 8224TIP3   OH246086   3.979   5.904   1.257 -0.6248  0.4128 -0.0416
 8224TIP3    H146087   4.041   5.843   1.297 -2.7624 -0.1863  2.6038
 8224TIP3    H246088   3.940   5.855   1.185 -1.3803 -0.9186  1.2357
 8225TIP3   OH246089   5.339   3.536  15.110 -0.1332 -0.6006  0.4178
 8225TIP3    H146090   5.427   3.561  15.140 -0.4788 -0.6952  1.5384
 8225TIP3    H246091   5.354   3.457  15.059  0.8375  1.1726 -2.2712
 8226TIP3   OH246092   2.817   1.352   2.732 -0.3091 -0.2844 -0.1497
 8226TIP3    H146093   2.861   1.410   2.795  0.3527  0.0036 -0.8565
 8226TIP3    H246094   2.724   1.357   2.755 -0.0395 -0.5280  1.0760
 8227TIP3   OH246095   0.948   3.272  14.413 -0.2416 -0.3060 -1.0372
 8227TIP3    H146096   0.948   3.178  14.395 -0.7146 -0.4864 -0.1544
 8227TIP3    H246097   1.028   3.305  14.372  1.0066 -1.4455  0.3979
 8228TIP3   OH246098   4.197   4.147   4.215  0.0689 -0.1825 -0.2678
 8228TIP3    H146099   4.134   4.164   4.144 -1.2386  0.6620  1.0348
 8228TIP3    H246100   4.188   4.222   4.273  0.7287 -1.1117  1.0767
 8229TIP3   OH246101   1.734   1.297  16.894  0.0947 -0.3837  0.0097
 8229TIP3    H146102   1.737   1.209  16.857 -0.7327 -0.2473 -0.3863
 8229TIP3    H246103   1.655   1.298  16.948  0.4638 -0.0906  0.5588
 8230TIP3   OH246104   3.311   1.955  11.773  0.3415 -0.0961 -0.2970
 8230TIP3    H146105   3.362   2.036  11.766  0.3614 -0.0125  0.7866
 8230TIP3    H246106   3.263   1.962  11.855 -1.8495  0.0418 -1.5048
 8231TIP3   OH246107   4.753   4.415   4.659  0.2385  0.3106  0.1001
 8231TIP3    H146108   4.738   4.394   4.751  0.0822  0.6513  0.1536
 8231TIP3    H246109   4.734   4.508   4.652  0.8600  0.4246 -0.1500
 8232TIP3   OH246110   2.850   2.225  11.299 -0.1057  0.1909 -0.3454
 8232TIP3    H146111   2.853   2.153  11.236 -0.7223 -0.3745  0.2507
 8232TIP3    H246112   2.758   2.248  11.304  0.0181  0.6399 -0.0949
 8233TIP3   OH246113   2.055   0.740  12.331  0.4925 -0.1300  0.2700
 8233TIP3    H146114   2.130   0.728  12.390  0.8113 -1.9288 -0.4271
 8233TIP3    H246115   1.978   0.728  12.387  0.7807 -0.8331  0.5288
 8234TIP3   OH246116   6.287   1.495   0.770 -0.8177 -0.1520 -0.3040
 8234TIP3    H146117   6.352   1.515   0.838  0.6264 -0.1253 -1.6507
 8234TIP3    H246118   6.243   1.416   0.802 -0.4261  0.0718  0.8324
 8235TIP3   OH246119   4.533   3.017   4.724  0.0157  0.6150  0.2068
 8235TIP3    H146120   4.440   3.022   4.746 -0.1078  0.4731 -0.2723
 8235TIP3    H246121   4.567   2.946   4.779 -0.2298  0.4414  0.1367
 8236TIP3   OH246122   2.664   1.898   3.967  0.0813 -0.0136 -0.5181
 8236TIP3    H146123   2.754   1.912   3.939 -0.0359  1.2359 -0.3258
 8236TIP3    H246124   2.619   1.868   3.888  0.7084 -0.8758 -0.5569
 8237TIP3   OH246125   2.576   5.132  11.062  0.3276 -0.0689 -0.1407
 8237TIP3    H146126   2.624   5.159  11.140 -4.6540  0.4381  3.2880
 8237TIP3    H246127   2.568   5.037  11.069 -0.6257  0.0338  0.4383
 8238TIP3   OH246128   6.688   3.127   4.783 -0.1754  0.3233  0.0031
 8238TIP3    H146129   6.635   3.204   4.802 -0.7225  0.3281 -1.4351
 8238TIP3    H246130   6.746   3.155   4.712  0.9823 -0.0337  0.7668
 8239TIP3   OH246131   6.082   1.150  17.026  0.0317  0.0132  0.2335
 8239TIP3    H146132   6.058   1.233  16.986 -0.2408  0.3292  1.0436
 8239TIP3    H246133   6.169   1.131  16.989 -0.4818 -0.0485 -1.0156
 8240TIP3   OH246134   3.408   1.063   1.931  0.2330  0.7306  0.0245
 8240TIP3    H146135   3.492   1.019   1.919 -0.7512 -1.3644  0.3364
 8240TIP3    H246136   3.431   1.153   1.953  2.3514  0.5999 -1.3421
 8241TIP3   OH246137   1.375   6.227  12.934  0.4064  0.0609  0.3210
 8241TIP3    H146138   1.429   6.152  12.908  2.1949  1.8345 -1.3427
 8241TIP3    H246139   1.298   6.223  12.877 -0.4897 -1.5020  1.5394
 8242TIP3   OH246140   2.310   2.349  14.213  0.8952 -0.0973 -0.0324
 8242TIP3    H146141   2.336   2.362  14.304 -1.3119  1.2829  0.4866
 8242TIP3    H246142   2.248   2.276  14.216  0.3634  0.3323 -0.3085
 8243TIP3   OH246143   5.764   1.866  13.287  0.6012 -0.1941  0.0225
 8243TIP3    H146144   5.695   1.890  13.224  1.3715 -0.6696 -1.0453
 8243TIP3    H246145   5.770   1.771  13.280  0.3286 -0.3100  1.2447
 8244TIP3   OH246146   3.692   0.180   4.574 -1.0222 -0.4546 -0.0991
 8244TIP3    H146147   3.708   0.133   4.492  1.7573  1.0311 -0.5576
 8244TIP3    H246148   3.774   0.228   4.590 -0.7874 -1.8862  4.4030
 8245TIP3   OH246149   1.670   6.740  13.339 -0.4460 -0.5371 -0.3733
 8245TIP3    H146150   1.720   6.819  13.359 -0.2372 -0.5986 -0.6516
 8245TIP3    H246151   1.579   6.763  13.358 -0.2611 -0.5765  0.6000
 8246TIP3   OH246152   4.461   1.248   2.732 -0.2042  0.1815  0.2980
 8246TIP3    H146153   4.432   1.333   2.766  0.2410 -0.0771  1.3770
 8246TIP3    H246154   4.510   1.270   2.653  1.0225  1.0674  1.2630
 8247TIP3   OH246155   2.642   3.606   4.680  0.3300 -0.0346  0.5399
 8247TIP3    H146156   2.590   3.527   4.669 -0.8139  0.8258 -0.4135
 8247TIP3    H246157   2.733   3.574   4.684 -0.1003 -1.3748  0.1369
 8248TIP3   OH246158   1.742   3.362   5.220  0.2987  0.3110  0.2434
 8248TIP3    H146159   1.748   3.327   5.310 -1.7551 -0.2751  0.1925
 8248TIP3    H246160   1.832   3.357   5.187  0.8905 -0.5737  1.8605
 8249TIP3   OH246161   2.776   3.087   6.207 -0.5943  0.1159 -0.0508
 8249TIP3    H146162   2.794   3.132   6.289 -1.6129 -0.0269  0.2648
 8249TIP3    H246163   2.704   3.138   6.167  0.1760  0.4424 -1.0621
 8250TIP3   OH246164   4.755   6.343  13.379  0.1667  0.6209  0.3490
 8250TIP3    H146165   4.766   6.421  13.325  1.5668 -0.4729 -1.0302
 8250TIP3    H246166   4.667   6.313  13.360 -0.2370  1.6233  0.5790
 8251TIP3   OH246167   1.023   5.596   4.678  0.0797  0.2678 -0.0615
 8251TIP3    H146168   1.113   5.619   4.701  0.2176  0.6818 -0.9689
 8251TIP3    H246169   1.001   5.654   4.606  0.9170 -3.2096 -3.4626
 8252TIP3   OH246170   1.209   5.497  11.660 -0.1594  0.4841 -0.0490
 8252TIP3    H146171   1.140   5.506  11.725 -0.7946  0.6539 -0.7283
 8252TIP3    H246172   1.255   5.581  11.663  1.8068 -0.5550  2.3286
 8253TIP3   OH246173   3.505   0.294  11.899 -0.0605 -0.5699  0.4366
 8253TIP3    H146174   3.588   0.341  11.894 -0.6948  0.4689 -3.2962
 8253TIP3    H246175   3.530   0.201  11.901  1.1829 -0.2596 -0.1537
 8254TIP3   OH246176   6.329   1.383   2.855  0.0865  0.0603 -0.2974
 8254TIP3    H146177   6.255   1.326   2.832 -0.4701  0.7914 -0.3551
 8254TIP3    H246178   6.290   1.452   2.908  0.4395  1.3278 -1.6182
 8255TIP3   OH246179   2.811   0.016  15.206  0.4528  0.0855 -0.1496
 8255TIP3    H146180   2.721   0.049  15.212  0.7279  0.6339  1.5872
 8255TIP3    H246181   2.801  -0.075  15.177 -0.8613 -0.5760  2.1214
 8256TIP3   OH246182   1.484   3.294   1.327  0.4454  0.4222 -0.3739
 8256TIP3    H146183   1.452   3.357   1.392 -2.4562 -2.0776  0.8601
 8256TIP3    H246184   1.557   3.249   1.371 -2.0296 -1.8382  1.7369
 8257TIP3   OH246185   4.061   4.234   2.228  0.0449 -0.3169 -0.2430
 8257TIP3    H146186   4.005   4.272   2.296 -0.8575 -0.7865 -0.7005
 8257TIP3    H246187   4.042   4.140   2.231 -0.3142 -0.2975 -1.4068
 8258TIP3   OH246188   0.401   0.778   3.647 -0.2811  0.2254  0.6223
 8258TIP3    H146189   0.401   0.683   3.658  0.9347 -0.2315 -2.3684
 8258TIP3    H246190   0.314   0.799   3.613  0.0313 -0.1322 -0.4484
 8259TIP3   OH246191   3.727   0.698  11.067 -0.2523  0.1721  0.3241
 8259TIP3    H146192   3.650   0.643  11.052 -0.8869  1.0588  0.2433
 8259TIP3    H246193   3.800   0.648  11.030 -1.1689  0.4934 -2.1251
 8260TIP3   OH246194   0.538   0.956   0.140  0.2299  0.9578 -0.4836
 8260TIP3    H146195   0.446   0.961   0.167 -0.3073  0.4610 -2.0940
 8260TIP3    H246196   0.569   1.046   0.142 -0.5549  1.2417 -0.7207
 8261TIP3   OH246197   3.536   6.470  12.792  0.1425  0.1881 -0.0787
 8261TIP3    H146198   3.562   6.391  12.841  1.2578  0.5418 -0.0666
 8261TIP3    H246199   3.613   6.491  12.738 -0.5733  0.5964 -0.9628
 8262TIP3   OH246200   5.060   4.146   0.128 -0.1876  0.2822 -0.1813
 8262TIP3    H146201   4.989   4.211   0.125  0.7205  1.3229  0.1854
 8262TIP3    H246202   5.057   4.104   0.042  0.3466  2.0900 -1.1438
 8263TIP3   OH246203   1.740   1.436   5.526 -0.0990 -0.3053 -0.5628
 8263TIP3    H146204   1.777   1.424   5.614 -1.4339 -0.1590  0.0437
 8263TIP3    H246205   1.678   1.364   5.516 -0.4582  0.0703 -1.1124
 8264TIP3   OH246206   4.101   0.964  10.589  0.4241 -0.5923 -0.5925
 8264TIP3    H146207   4.084   1.055  10.612 -0.7153 -1.1427  0.8702
 8264TIP3    H246208   4.082   0.958  10.496 -0.0590  0.5347 -0.5713
 8265TIP3   OH246209   2.707   2.265   4.767 -0.4676 -0.2419 -0.0440
 8265TIP3    H146210   2.755   2.252   4.849 -2.2527 -0.9781  0.9607
 8265TIP3    H246211   2.733   2.190   4.712  0.3184 -0.0471  0.0517
 8266TIP3   OH246212   1.329   0.692  16.895 -0.1494 -0.1053 -0.4080
 8266TIP3    H146213   1.253   0.711  16.840 -1.1038 -2.2861  0.0341
 8266TIP3    H246214   1.305   0.723  16.982  0.5896  1.6174 -0.7844
 8267TIP3   OH246215   0.199   0.742   4.197 -0.5317  0.1316  0.8894
 8267TIP3    H146216   0.122   0.687   4.208  0.8105 -1.7390  1.3825
 8267TIP3    H246217   0.224   0.730   4.105 -0.2423 -0.1025  0.9962
 8268TIP3   OH246218   1.928   2.769  15.497  0.3397 -0.0602 -0.0153
 8268TIP3    H146219   1.993   2.778  15.566  1.2558 -1.0100 -0.7320
 8268TIP3    H246220   1.851   2.817  15.531 -0.0656 -2.3320  2.6680
 8269TIP3   OH246221   1.662   4.641  14.024 -0.2657  0.1875  0.0697
 8269TIP3    H146222   1.732   4.577  14.040 -0.4598 -0.3478 -1.1247
 8269TIP3    H246223   1.699   4.724  14.052  0.2705 -0.3321  0.9465
 8270TIP3   OH246224   1.787   2.856   3.207  0.2418 -0.3902  0.0075
 8270TIP3    H146225   1.704   2.810   3.195  0.2501 -0.5956  0.7357
 8270TIP3    H246226   1.773   2.910   3.284  0.4842  0.2711 -0.4025
 8271TIP3   OH246227   4.256   1.687  14.499  0.2766  0.0206 -0.0667
 8271TIP3    H146228   4.287   1.596  14.494  1.2910  0.3337  0.1698
 8271TIP3    H246229   4.194   1.696  14.427 -0.7667 -1.1990  0.6324
 8272TIP3   OH246230   2.887   2.387  15.920 -0.1681  0.5440 -0.0906
 8272TIP3    H146231   2.932   2.329  15.982 -1.1224 -0.9877 -0.7569
 8272TIP3    H246232   2.926   2.473  15.935 -0.0996  0.1674  2.3678
 8273TIP3   OH246233   5.842   3.915  16.441  0.0744 -0.2973  0.1734
 8273TIP3    H146234   5.849   4.010  16.448  0.7691 -0.2407 -0.9960
 8273TIP3    H246235   5.931   3.886  16.421 -0.0694 -1.2360  0.8063
 8274TIP3   OH246236   4.396   3.893   4.659 -0.6191  0.1189  0.7235
 8274TIP3    H146237   4.472   3.947   4.681  0.1777  0.0767 -1.5653
 8274TIP3    H246238   4.355   3.940   4.586 -0.6873 -1.6487 -0.4327
 8275TIP3   OH246239   6.745   6.670  15.708 -0.5465  0.2326  0.2294
 8275TIP3    H146240   6.721   6.734  15.641 -2.1236  1.5688  1.9688
 8275TIP3    H246241   6.662   6.629  15.733 -0.0476  0.0647  1.6624
 8276TIP3   OH246242   5.207   1.980   0.923  0.2158 -0.5519 -1.0860
 8276TIP3    H146243   5.199   1.919   0.849  1.0011 -1.5069 -0.4081
 8276TIP3    H246244   5.125   2.029   0.922 -0.1301 -1.1092 -2.0988
 8277TIP3   OH246245   0.594   0.248   2.373 -0.6004 -0.0665  0.3727
 8277TIP3    H146246   0.538   0.192   2.319  2.3117 -0.0038 -3.0628
 8277TIP3    H246247   0.571   0.337   2.346 -0.1627  0.0342  0.3266
 8278TIP3   OH246248   0.385   2.102  12.689  0.0015  0.2150  0.0558
 8278TIP3    H146249   0.311   2.158  12.715 -0.3232  0.0367 -0.4699
 8278TIP3    H246250   0.353   2.013  12.705 -0.3699  0.0796 -1.3552
 8279TIP3   OH246251   5.766   1.953  14.136  0.4610 -0.6468 -0.1875
 8279TIP3    H146252   5.707   1.928  14.207 -0.6659 -0.0566 -0.8726
 8279TIP3    H246253   5.829   2.013  14.176 -0.3722 -0.0471  0.2588
 8280TIP3   OH246254   4.911   5.848  14.562  0.0652  0.0683  0.0371
 8280TIP3    H146255   4.977   5.901  14.515  1.7612 -1.5131  0.5229
 8280TIP3    H246256   4.963   5.794  14.621 -1.7736 -0.7222  0.9729
 8281TIP3   OH246257   1.715   5.876   5.703 -0.3751  0.2607  0.3108
 8281TIP3    H146258   1.694   5.793   5.746  1.7498  0.1576  1.2969
 8281TIP3    H246259   1.633   5.903   5.661 -1.8509 -0.9844  2.1979
 8282TIP3   OH246260   0.766   2.387   2.631  0.0614  0.6717  0.0556
 8282TIP3    H146261   0.785   2.327   2.703  0.0741  1.1592  0.4660
 8282TIP3    H246262   0.852   2.408   2.594 -0.0374 -0.7216 -1.0655
 8283TIP3   OH246263   4.709   6.453   2.931  0.0933  0.1901  0.0632
 8283TIP3    H146264   4.681   6.362   2.925 -1.8701  0.7006  0.5393
 8283TIP3    H246265   4.723   6.481   2.841  2.1732 -0.9505 -0.0207
 8284TIP3   OH246266   3.403   1.205  12.029 -0.1855  0.5224  0.3193
 8284TIP3    H146267   3.406   1.293  12.067 -1.1175  0.5119  0.4317
 8284TIP3    H246268   3.493   1.173  12.036 -0.0343  1.0978  1.1410
 8285TIP3   OH246269   2.936   6.140  16.311 -0.1866  0.0448  0.0966
 8285TIP3    H146270   2.906   6.078  16.244 -0.0711  0.0877  0.0039
 8285TIP3    H246271   2.944   6.087  16.390  0.1785 -0.1187 -0.0486
 8286TIP3   OH246272   1.148   2.604   3.819  0.1073 -0.0881 -0.1991
 8286TIP3    H146273   1.071   2.568   3.774 -1.3386  0.5964  1.6089
 8286TIP3    H246274   1.158   2.550   3.897 -0.3491  1.5843  1.0801
 8287TIP3   OH246275   0.504   1.419   0.871  0.2878  0.3630 -0.2754
 8287TIP3    H146276   0.454   1.491   0.908  0.2127  0.1609  0.0292
 8287TIP3    H246277   0.504   1.434   0.777 -1.5346 -0.3679 -0.4371
 8288TIP3   OH246278   1.054   4.498  16.787 -0.7008  0.0285 -0.3914
 8288TIP3    H146279   1.139   4.454  16.791 -1.6716 -1.8873  1.3498
 8288TIP3    H246280   1.027   4.505  16.878 -0.8489  4.0042 -0.5922
 8289TIP3   OH246281   3.317   6.583  15.943 -0.0429  0.5222 -0.3966
 8289TIP3    H146282   3.253   6.530  15.896  0.7248  0.4764 -1.4303
 8289TIP3    H246283   3.393   6.586  15.885  1.5329 -0.7921  1.4437
 8290TIP3   OH246284   2.886   3.365  16.385  0.2005 -0.5550  0.4841
 8290TIP3    H146285   2.851   3.276  16.381 -1.8227  0.1905  0.5143
 8290TIP3    H246286   2.846   3.403  16.464 -0.2953  0.8804 -0.4208
 8291TIP3   OH246287   3.632   5.061  14.951 -0.1439 -0.0375  0.1314
 8291TIP3    H146288   3.664   4.993  15.010  1.7233  0.1238 -0.5978
 8291TIP3    H246289   3.683   5.139  14.975 -2.8236  1.4177  1.5182
 8292TIP3   OH246290   3.707   5.151   2.678  0.1696  0.1879 -0.4471
 8292TIP3    H146291   3.708   5.242   2.707  2.4139  0.3742 -0.8742
 8292TIP3    H246292   3.714   5.157   2.582 -1.3741 -0.4390 -0.6148
 8293TIP3   OH246293   6.429   4.956  13.613  0.1167 -0.1911 -0.0366
 8293TIP3    H146294   6.374   5.007  13.673  0.5236 -1.3144  1.3428
 8293TIP3    H246295   6.500   5.016  13.589  1.1054 -0.3085  2.3002
 8294TIP3   OH246296   4.935   4.495   4.439 -0.3054 -0.0545 -0.3779
 8294TIP3    H146297   5.019   4.481   4.482 -0.3338 -0.7315 -0.5262
 8294TIP3    H246298   4.914   4.410   4.400 -0.3782  0.4821 -1.5421
 8295TIP3   OH246299   3.149   0.750  13.187 -0.2910 -0.3994 -0.4090
 8295TIP3    H146300   3.151   0.825  13.127  0.3522 -0.4158 -0.4095
 8295TIP3    H246301   3.134   0.674  13.131 -0.5787 -0.3150 -0.4483
 8296TIP3   OH246302   0.012   0.259  15.763  0.3752 -0.1692  0.0464
 8296TIP3    H146303   0.090   0.225  15.721 -0.2376 -2.0577  0.3686
 8296TIP3    H246304  -0.059   0.204  15.731 -0.3051 -0.7925  2.4260
 8297TIP3   OH246305   1.615   5.328   0.914 -0.1165 -0.4871 -1.0893
 8297TIP3    H146306   1.589   5.337   0.823  0.9011  1.2809 -1.2418
 8297TIP3    H246307   1.692   5.385   0.923  0.8633 -1.9557  0.4517
 8298TIP3   OH246308   1.020   2.583   2.334 -0.0734  0.1304 -0.6569
 8298TIP3    H146309   1.019   2.488   2.324  0.0747 -0.2750  2.1841
 8298TIP3    H246310   0.928   2.607   2.343  0.0013 -0.2771  1.8633
 8299TIP3   OH246311   3.343   2.030   1.119 -0.6868 -0.1312  0.7065
 8299TIP3    H146312   3.341   2.116   1.078  1.2984 -0.4794 -0.2737
 8299TIP3    H246313   3.328   2.047   1.212 -0.5687  1.2429  0.4963
 8300TIP3   OH246314   6.399   1.585   6.000 -0.1426  0.1514  0.0246
 8300TIP3    H146315   6.365   1.661   5.953 -0.4101 -0.8971 -1.5902
 8300TIP3    H246316   6.338   1.572   6.072 -1.2755  0.2723 -0.8816
 8301TIP3   OH246317   0.187   3.449   1.057 -0.5538  0.0781  0.3470
 8301TIP3    H146318   0.262   3.505   1.080 -1.0068  1.0686 -0.5409
 8301TIP3    H246319   0.227   3.368   1.026  0.2546  1.2852 -1.9787
 8302TIP3   OH246320   6.370   0.882  13.458  0.1019 -0.3703  0.2920
 8302TIP3    H146321   6.363   0.915  13.547 -0.1788 -0.5435  0.3361
 8302TIP3    H246322   6.292   0.829  13.446  1.4521 -2.6304  0.8889
 8303TIP3   OH246323   2.923   5.410   2.205  0.1375 -0.2968  0.2483
 8303TIP3    H146324   3.000   5.354   2.217 -0.2886 -0.6077  1.6953
 8303TIP3    H246325   2.940   5.456   2.123  1.4154 -1.0810  0.0442
 8304TIP3   OH246326   3.562   5.211  12.494  0.0494 -0.4270  0.0031
 8304TIP3    H146327   3.528   5.124  12.515 -0.2091  0.0188  1.6066
 8304TIP3    H246328   3.563   5.215  12.399 -1.9982 -1.4016 -0.1090
 8305TIP3   OH246329   2.121   5.083   0.155  0.1097  0.4324 -0.0188
 8305TIP3    H146330   2.148   5.001   0.114  1.5347  1.1520 -0.5959
 8305TIP3    H246331   2.060   5.057   0.223 -0.6762 -0.9742 -1.1991
 8306TIP3   OH246332   0.284   5.709  13.915  0.0650 -0.1706  0.0531
 8306TIP3    H146333   0.288   5.711  14.011 -1.1081  1.8308  0.1308
 8306TIP3    H246334   0.320   5.624  13.891 -0.2531 -1.0157  2.3097
 8307TIP3   OH246335   4.049   4.491   6.573  0.0394  0.1789 -0.4470
 8307TIP3    H146336   4.078   4.581   6.586  0.4180 -0.2807  2.7329
 8307TIP3    H246337   3.980   4.479   6.639  0.0715 -1.8833 -0.7277
 8308TIP3   OH246338   3.793   5.245  11.867  0.7490 -0.3591  0.3243
 8308TIP3    H146339   3.786   5.165  11.920 -0.2045 -1.4175 -1.2947
 8308TIP3    H246340   3.812   5.213  11.779 -3.5904  0.7982 -1.2826
 8309TIP3   OH246341   1.597   4.142  12.599  0.6596  0.1276 -0.2139
 8309TIP3    H146342   1.535   4.214  12.612  1.4586  1.1071 -1.6620
 8309TIP3    H246343   1.682   4.178  12.623  0.7133 -1.3395  2.1883
 8310TIP3   OH246344   0.461   0.341   6.049 -0.0400 -0.0841 -0.5635
 8310TIP3    H146345   0.543   0.366   6.091  0.3691  0.2710 -1.5400
 8310TIP3    H246346   0.393   0.388   6.097  0.3793 -0.0153 -0.0399
 8311TIP3   OH246347   4.027   0.276   2.595  0.3809  0.1160 -0.5991
 8311TIP3    H146348   4.082   0.213   2.642 -0.4496 -1.8477 -2.0898
 8311TIP3    H246349   4.075   0.293   2.514  0.0353  0.4680 -0.7304
 8312TIP3   OH246350   4.372   5.505  11.250 -1.0443  0.1810  0.2126
 8312TIP3    H146351   4.365   5.523  11.344  1.8769  1.7065  0.2555
 8312TIP3    H246352   4.385   5.410  11.245  1.2305  0.3245  1.6581
 8313TIP3   OH246353   6.574   3.233   5.180  0.1839  0.0517  0.2756
 8313TIP3    H146354   6.669   3.234   5.164  0.0163 -1.3619 -1.1102
 8313TIP3    H246355   6.540   3.171   5.115 -1.6745  0.3712  0.8906
 8314TIP3   OH246356   0.857   6.033   4.976 -0.5722  0.5371  0.1243
 8314TIP3    H146357   0.924   6.050   5.043 -1.2026 -0.7815  1.1363
 8314TIP3    H246358   0.816   6.118   4.961 -0.3264  0.8921  1.3268
 8315TIP3   OH246359   2.699   2.485   3.155 -0.3898  0.6586  0.2247
 8315TIP3    H146360   2.665   2.507   3.068 -0.9630 -0.0902  0.2449
 8315TIP3    H246361   2.764   2.417   3.138  0.4880  1.4680  0.2681
 8316TIP3   OH246362   3.747   4.983  11.276  0.3889 -0.2190 -0.3423
 8316TIP3    H146363   3.729   5.054  11.338  1.2767 -1.0316  0.9043
 8316TIP3    H246364   3.826   5.011  11.229 -0.3598  0.4573 -1.2378
 8317TIP3   OH246365   2.084   5.723  11.444 -0.0256 -0.0970 -0.0623
 8317TIP3    H146366   2.016   5.790  11.460  0.9570  0.9203 -0.0373
 8317TIP3    H246367   2.042   5.660  11.386 -0.8727  0.7281 -0.3806
 8318TIP3   OH246368   0.631   0.833  16.043  0.3711 -0.3005  0.2537
 8318TIP3    H146369   0.660   0.857  15.955 -0.9762  1.9819  0.3648
 8318TIP3    H246370   0.564   0.766  16.028 -1.8009  1.9318 -0.7541
 8319TIP3   OH246371   0.793   6.106   1.489 -0.6057  0.5877  0.4489
 8319TIP3    H146372   0.725   6.066   1.435 -1.5328  0.2860  1.7613
 8319TIP3    H246373   0.875   6.078   1.451 -1.2418 -1.1086  0.2706
 8320TIP3   OH246374   3.896   1.092  11.325  0.1123  0.1611  0.0340
 8320TIP3    H146375   3.898   1.063  11.233  0.3966 -0.3424  0.1987
 8320TIP3    H246376   3.807   1.127  11.336 -0.3426 -0.9158 -0.0856
 8321TIP3   OH246377   6.240   0.291   0.950 -0.2693  0.3212  0.3217
 8321TIP3    H146378   6.185   0.250   1.017 -1.4759  3.3837  1.4192
 8321TIP3    H246379   6.278   0.368   0.994  1.9142  0.4122 -1.5064
 8322TIP3   OH246380   1.037   6.180  11.549 -0.1234 -0.3705 -0.3955
 8322TIP3    H146381   0.980   6.253  11.573  1.1212  0.4858  0.0876
 8322TIP3    H246382   1.044   6.127  11.628  0.6999  0.2041 -0.0621
 8323TIP3   OH246383   6.373   6.637  17.086 -0.0702 -0.8841 -0.2557
 8323TIP3    H146384   6.342   6.547  17.078 -1.3796 -0.5258  0.3807
 8323TIP3    H246385   6.302   6.682  17.133  0.7440  0.3751 -0.1889
 8324TIP3   OH246386   5.766   5.833   4.248 -0.1420 -0.4085 -0.0245
 8324TIP3    H146387   5.861   5.832   4.234 -0.0991  0.0937  0.2072
 8324TIP3    H246388   5.730   5.789   4.172  0.2474 -0.0784 -0.4056
 8325TIP3   OH246389   4.647   0.021  16.096  0.3381  0.4434 -0.2001
 8325TIP3    H146390   4.698   0.035  16.017 -1.2954  1.7896 -1.0809
 8325TIP3    H246391   4.678   0.087  16.158  1.4791 -0.4844  0.2613
 8326TIP3   OH246392   5.176   6.163   3.781  0.2209  0.1693 -0.3180
 8326TIP3    H146393   5.128   6.085   3.750  1.3185 -1.3973  1.6954
 8326TIP3    H246394   5.122   6.237   3.753 -1.5493 -1.3619 -1.1721
 8327TIP3   OH246395   1.894   0.993   6.326 -0.3676  0.4170  0.6642
 8327TIP3    H146396   1.873   0.901   6.343 -3.4014  0.8836  0.1374
 8327TIP3    H246397   1.947   1.020   6.400  0.8507 -1.7958  0.6902
 8328TIP3   OH246398   1.795   0.646  12.395  1.0027  0.3134  0.0124
 8328TIP3    H146399   1.715   0.693  12.420  1.6521  0.0278  3.0435
 8328TIP3    H246400   1.769   0.595  12.318 -1.7722  0.2036  0.8994
 8329TIP3   OH246401   3.020   1.651  15.120 -0.0734 -0.2786 -0.3851
 8329TIP3    H146402   2.987   1.676  15.034  1.6064  1.0414 -0.7020
 8329TIP3    H246403   3.080   1.721  15.144 -0.7671 -0.4339  2.0415
 8330TIP3   OH246404   2.955   1.593   5.382  0.2001  0.3790  0.2647
 8330TIP3    H146405   2.866   1.615   5.354  1.0132  2.0248 -1.2625
 8330TIP3    H246406   2.995   1.678   5.400  1.6104 -0.3139  0.4963
 8331TIP3   OH246407   6.453   5.978   4.700  0.2246 -0.0962  0.3644
 8331TIP3    H146408   6.466   6.018   4.614 -2.2024 -1.2373 -0.6226
 8331TIP3    H246409   6.533   5.928   4.716  0.6221 -0.0484 -1.3379
 8332TIP3   OH246410   6.224   6.602  13.073 -0.1108 -0.6476 -0.1233
 8332TIP3    H146411   6.199   6.523  13.119  0.8003 -0.7347  0.2381
 8332TIP3    H246412   6.141   6.645  13.052 -0.5594 -0.1586  2.3446
 8333TIP3   OH246413   1.187   2.777   4.280 -0.4030  0.3101  0.1650
 8333TIP3    H146414   1.169   2.690   4.316 -1.2272  1.1657  1.9401
 8333TIP3    H246415   1.119   2.833   4.318 -2.4082  1.0989 -3.9564
 8334TIP3   OH246416   5.660   2.198  14.833 -0.2236 -0.4248 -0.5521
 8334TIP3    H146417   5.619   2.238  14.757 -0.2326  4.0413  1.4602
 8334TIP3    H246418   5.589   2.149  14.875 -0.9925 -0.4691 -1.8544
 8335TIP3   OH246419   3.640   4.645   2.558 -0.0587  0.2681  0.1012
 8335TIP3    H146420   3.589   4.582   2.507  0.5115 -1.2424  1.2956
 8335TIP3    H246421   3.592   4.654   2.641  0.8824 -0.1708  0.7201
 8336TIP3   OH246422   6.225   0.851  11.329  0.4116 -0.1450 -0.1809
 8336TIP3    H146423   6.273   0.788  11.383  0.5636 -0.2942 -0.4826
 8336TIP3    H246424   6.189   0.798  11.258 -0.7634 -0.1422  0.3979
 8337TIP3   OH246425   2.731   0.208  16.024 -0.1749  0.2585  0.3237
 8337TIP3    H146426   2.694   0.295  16.008 -0.9069 -0.3174 -1.2916
 8337TIP3    H246427   2.656   0.152  16.041  0.2100 -0.2659  0.3353
 8338TIP3   OH246428   0.310   1.141   4.902  0.3331  0.2206 -0.0863
 8338TIP3    H146429   0.329   1.190   4.822  0.9828 -0.1608 -0.1732
 8338TIP3    H246430   0.360   1.185   4.971 -1.3971  1.4730  0.4345
 8339TIP3   OH246431   4.053   5.354  11.316 -0.3158  0.5430 -1.5165
 8339TIP3    H146432   4.077   5.369  11.407  2.0976  0.1713 -2.0194
 8339TIP3    H246433   3.960   5.378  11.311 -0.8822 -0.7188  1.2971
 8340TIP3   OH246434   1.498   4.598  16.729 -0.1636  0.2570 -0.3495
 8340TIP3    H146435   1.572   4.605  16.668 -0.1699 -0.5954 -0.4713
 8340TIP3    H246436   1.527   4.644  16.807 -0.6779  2.6100 -1.4515
 8341TIP3   OH246437   5.112   3.344   2.414  0.2119  0.1093 -0.1840
 8341TIP3    H146438   5.142   3.425   2.373 -0.3995 -0.7960 -2.5977
 8341TIP3    H246439   5.020   3.360   2.436  0.4443  0.4824  0.5288
 8342TIP3   OH246440   0.986   6.282  15.971 -0.1111 -0.3974 -0.0761
 8342TIP3    H146441   1.047   6.236  15.913  2.4296  0.7717  1.5167
 8342TIP3    H246442   0.977   6.224  16.046  1.8299  0.8262  1.2074
 8343TIP3   OH246443   4.611   3.270   1.840  0.4998  0.0789  0.2965
 8343TIP3    H146444   4.706   3.281   1.834  0.7763 -2.4858 -2.6458
 8343TIP3    H246445   4.585   3.239   1.753 -3.2137  1.5091  0.7274
 8344TIP3   OH246446   6.660   2.359  13.704  0.3780 -0.1180  0.2966
 8344TIP3    H146447   6.683   2.386  13.793 -0.0018 -0.5023  0.5182
 8344TIP3    H246448   6.665   2.439  13.652 -1.0937  0.4773  1.0051
 8345TIP3   OH246449   2.249   5.723   6.120  0.5284 -0.0342  0.0094
 8345TIP3    H146450   2.184   5.791   6.138 -1.0354 -1.5288  0.3331
 8345TIP3    H246451   2.330   5.757   6.157  0.5308  2.8241 -2.2309
 8346TIP3   OH246452   0.601   5.584  17.237  0.6141 -0.0822  0.2608
 8346TIP3    H146453   0.545   5.578  17.314  1.9299  0.1634  1.2547
 8346TIP3    H246454   0.594   5.498  17.195 -1.8182  0.4535 -0.6207
 8347TIP3   OH246455   0.850   5.286   2.603 -0.3270  0.2540  0.0002
 8347TIP3    H146456   0.903   5.237   2.541 -0.4124  0.0912  0.0576
 8347TIP3    H246457   0.889   5.374   2.603 -1.4682  0.8225 -1.6991
 8348TIP3   OH246458   4.075   2.454  14.587 -0.3964 -0.0611  0.1196
 8348TIP3    H146459   4.164   2.423  14.568 -0.9412 -0.4339 -2.0743
 8348TIP3    H246460   4.036   2.385  14.639  0.5023  0.0154  0.9414
 8349TIP3   OH246461   0.776   6.597  13.838  0.5045  0.2330  0.6656
 8349TIP3    H146462   0.800   6.689  13.830  0.3599  0.1516 -1.3414
 8349TIP3    H246463   0.682   6.595  13.820  1.0451 -0.5829 -2.7004
 8350TIP3   OH246464   2.365   5.152   0.865  0.1859 -0.2539  0.2442
 8350TIP3    H146465   2.353   5.246   0.854  1.1511  0.0709  1.6853
 8350TIP3    H246466   2.285   5.113   0.830 -0.7201  1.1716  0.6696
 8351TIP3   OH246467   0.631   0.473  16.031  0.3117  0.3409  0.3070
 8351TIP3    H146468   0.573   0.482  16.106  0.5210  3.3410  0.2244
 8351TIP3    H246469   0.715   0.509  16.061  0.7431  0.4669 -0.9798
 8352TIP3   OH246470   0.631   1.627   6.364  0.6182 -0.5118  0.2401
 8352TIP3    H146471   0.687   1.626   6.441  1.7791 -0.8543 -0.5720
 8352TIP3    H246472   0.598   1.717   6.358  1.7048 -0.1011  0.3143
 8353TIP3   OH246473   6.663   4.936   5.248  0.6043  0.3038  0.0583
 8353TIP3    H146474   6.732   4.882   5.287  0.1064 -0.5475 -0.2077
 8353TIP3    H246475   6.660   5.015   5.303  0.8784 -0.2477  0.8896
 8354TIP3   OH246476   2.960   6.340   1.755  0.1667  0.0409  0.1685
 8354TIP3    H146477   2.971   6.287   1.676  1.3109 -0.1525  0.4387
 8354TIP3    H246478   2.867   6.361   1.757 -0.2368 -1.5875 -0.1880
 8355TIP3   OH246479   3.838   4.447   1.099 -0.1089 -0.1880 -0.2789
 8355TIP3    H146480   3.806   4.359   1.117 -0.4824 -0.1043 -0.5290
 8355TIP3    H246481   3.804   4.501   1.170  0.9595 -0.4262  0.4398
 8356TIP3   OH246482   1.935   2.658  14.511 -0.1206  0.8300 -0.7408
 8356TIP3    H146483   1.855   2.690  14.553  0.0738 -0.4795  0.7243
 8356TIP3    H246484   1.910   2.574  14.473  0.4843  0.5348 -0.4962
 8357TIP3   OH246485   0.054   1.942  12.671  0.0487  0.0420 -0.4145
 8357TIP3    H146486  -0.029   1.979  12.701  0.6994  0.4801  0.9352
 8357TIP3    H246487   0.084   2.002  12.602 -1.1289 -0.5898 -1.5284
 8358TIP3   OH246488   6.255   1.295   1.513 -0.1522 -0.5461  0.1758
 8358TIP3    H146489   6.212   1.354   1.575  1.9080  1.0192  0.2467
 8358TIP3    H246490   6.265   1.213   1.561  0.7869  0.4243  1.7499
 8359TIP3   OH246491   6.570   5.009  14.909  0.1285  0.5897  0.1854
 8359TIP3    H146492   6.544   5.090  14.953 -0.8859  0.6294 -0.4535
 8359TIP3    H246493   6.502   4.995  14.843  1.2721  0.1967 -0.9402
 8360TIP3   OH246494   3.091   0.372  10.825  0.1450 -0.3712  0.7960
 8360TIP3    H146495   3.170   0.360  10.878  1.6154  0.5487 -1.0851
 8360TIP3    H246496   3.020   0.378  10.890  1.9853  2.2165  2.8165
 8361TIP3   OH246497   6.708   3.291   4.396 -0.2306  0.3882 -0.2708
 8361TIP3    H146498   6.775   3.307   4.462 -1.9875 -1.7804  2.3063
 8361TIP3    H246499   6.633   3.344   4.424 -1.4499 -1.5650  0.3631
 8362TIP3   OH246500   3.914   5.489   4.403  0.2248  0.0696  0.1301
 8362TIP3    H146501   3.831   5.503   4.448 -0.4308  0.9593 -1.2845
 8362TIP3    H246502   3.977   5.542   4.452 -0.2653  0.2506  0.5697
 8363TIP3   OH246503   2.383   2.194   1.732 -0.0760  0.5010 -0.8107
 8363TIP3    H146504   2.321   2.236   1.790  1.6167  1.1257  0.6345
 8363TIP3    H246505   2.460   2.251   1.733  1.3899 -1.3605 -0.6987
 8364TIP3   OH246506   6.190   0.318  14.730  0.1774 -1.2420 -0.0438
 8364TIP3    H146507   6.236   0.275  14.658  0.7343  0.6362 -0.8702
 8364TIP3    H246508   6.171   0.406  14.698 -0.0935 -0.5340  1.8959
 8365TIP3   OH246509   0.021   0.551   4.938 -0.1984  0.2114 -0.0196
 8365TIP3    H146510  -0.024   0.634   4.953  0.1282  0.3100  0.4433
 8365TIP3    H246511  -0.047   0.493   4.904 -0.6103  0.4388  0.4061
 8366TIP3   OH246512   2.978   1.758  12.777 -0.4173  0.5486 -0.0656
 8366TIP3    H146513   2.908   1.787  12.836  0.0110  0.9586  0.2358
 8366TIP3    H246514   2.962   1.806  12.696 -1.6493 -0.8045 -0.6690
 8367TIP3   OH246515   5.456   2.906   4.150  0.2355  0.2831  0.0441
 8367TIP3    H146516   5.438   2.991   4.190  0.8976  0.2495  0.4153
 8367TIP3    H246517   5.544   2.883   4.179  0.0479 -0.5572 -0.0102
 8368TIP3   OH246518   1.181   5.143  15.946 -0.1811  0.2843  0.1033
 8368TIP3    H146519   1.229   5.083  15.888 -0.5396  0.2359 -0.1433
 8368TIP3    H246520   1.238   5.152  16.023 -0.3459 -0.7883  0.3802
 8369TIP3   OH246521   0.808   1.183  16.236 -0.1255  0.6698  0.5341
 8369TIP3    H146522   0.755   1.224  16.168 -0.0800  0.5250  0.4101
 8369TIP3    H246523   0.842   1.104  16.195 -1.0162 -0.0149  1.0635
 8370TIP3   OH246524   3.591   1.934   0.205  0.0205  0.0726  0.4239
 8370TIP3    H146525   3.604   2.028   0.207  1.9298 -0.1511  0.4531
 8370TIP3    H246526   3.608   1.909   0.114 -0.1823 -0.2845  0.4805
 8371TIP3   OH246527   5.259   5.215  14.088  0.7409 -0.0657 -0.2168
 8371TIP3    H146528   5.324   5.160  14.133  0.6400  0.6346  0.8071
 8371TIP3    H246529   5.257   5.180  13.998  1.1281 -1.3291  0.2396
 8372TIP3   OH246530   0.149   5.516   6.372 -0.0448  0.2070 -0.1512
 8372TIP3    H146531   0.153   5.421   6.386  0.0262  0.1438 -0.5819
 8372TIP3    H246532   0.229   5.549   6.415  1.2807 -0.2168 -2.1651
 8373TIP3   OH246533   1.535   0.403  16.208  0.0568 -0.3786  0.5027
 8373TIP3    H146534   1.501   0.371  16.124  1.4847 -0.5719 -0.0229
 8373TIP3    H246535   1.622   0.365  16.214  0.0280 -0.2381  2.0177
 8374TIP3   OH246536   0.493   1.183   3.504 -0.3606 -0.3521 -0.5212
 8374TIP3    H146537   0.561   1.211   3.566 -0.6610  0.3601 -0.5039
 8374TIP3    H246538   0.417   1.163   3.558 -0.4169 -0.3620 -0.6033
 8375TIP3   OH246539   3.928   2.689  17.264  0.0042 -0.3525  0.1032
 8375TIP3    H146540   3.999   2.664  17.205  0.0457 -2.5597  0.9624
 8375TIP3    H246541   3.849   2.653  17.223 -0.0836 -1.1160  0.8980
 8376TIP3   OH246542   3.282   2.491  14.866 -0.1419 -0.1528 -0.3908
 8376TIP3    H146543   3.317   2.516  14.951  1.0332 -1.9098 -0.3207
 8376TIP3    H246544   3.358   2.468  14.814 -0.9401 -0.4021 -1.4946
 8377TIP3   OH246545   1.100   4.024  12.280 -0.3697  0.2517  0.1513
 8377TIP3    H146546   1.139   4.038  12.193 -3.1344 -1.6445 -1.5627
 8377TIP3    H246547   1.020   4.077  12.279  0.5866  1.8657  2.4541
 8378TIP3   OH246548   1.706   1.484   2.961 -0.4118 -0.0065 -0.0396
 8378TIP3    H146549   1.764   1.415   2.994  2.6117  3.4248  2.6543
 8378TIP3    H246550   1.720   1.483   2.866  1.1942 -1.6953  0.1488
 8379TIP3   OH246551   4.025   0.407  11.449 -0.4931 -0.5651 -0.1559
 8379TIP3    H146552   4.084   0.482  11.461 -1.3960  0.0042  0.9137
 8379TIP3    H246553   4.069   0.353  11.384  0.8984  0.1657  0.1224
 8380TIP3   OH246554   6.744   4.272  14.615 -0.2619 -0.4455  0.3729
 8380TIP3    H146555   6.669   4.212  14.620 -0.3944 -0.2441  0.8961
 8380TIP3    H246556   6.752   4.293  14.522 -0.8533 -0.4750  0.3120
 8381TIP3   OH246557   5.879   3.572  14.601  0.1956  0.3611  0.8227
 8381TIP3    H146558   5.861   3.504  14.666  0.8685  2.0093  2.8462
 8381TIP3    H246559   5.793   3.603  14.574 -0.1057  0.0227  1.3665
 8382TIP3   OH246560   3.600   0.696  12.337  0.6470  0.4943 -0.0261
 8382TIP3    H146561   3.608   0.719  12.244  1.1887  1.6461  0.2881
 8382TIP3    H246562   3.617   0.778  12.384 -1.7951  0.4752  1.0629
 8383TIP3   OH246563   4.771   2.397  16.953  0.3868 -0.0860  0.0704
 8383TIP3    H146564   4.720   2.478  16.964  2.0936  0.7966  2.0740
 8383TIP3    H246565   4.741   2.341  17.024  0.7469 -0.3727 -0.0066
 8384TIP3   OH246566   5.058   0.974  14.695 -0.3394  0.1197  0.2592
 8384TIP3    H146567   5.130   0.971  14.758  0.4197  1.1527 -0.5355
 8384TIP3    H246568   4.982   0.941  14.744  0.4266  0.0336  1.4273
 8385TIP3   OH246569   3.110   1.600   0.141 -0.8470  0.1894 -0.6750
 8385TIP3    H146570   3.184   1.660   0.145 -0.8582  0.3749 -2.6212
 8385TIP3    H246571   3.118   1.547   0.221 -0.7732  2.6329  1.0327
 8386TIP3   OH246572   2.483   5.180  11.937  0.2201  0.5932 -0.3862
 8386TIP3    H146573   2.492   5.274  11.925 -1.5494  0.8798  0.1294
 8386TIP3    H246574   2.506   5.142  11.852 -1.4466  1.7084 -1.4120
 8387TIP3   OH246575   2.144   3.261  14.303 -0.2829  0.8012  0.1498
 8387TIP3    H146576   2.172   3.171  14.315  1.4870  1.5152  1.8860
 8387TIP3    H246577   2.075   3.256  14.237  0.0290 -1.7510 -0.0785
 8388TIP3   OH246578   0.107   4.005   2.029  0.2531 -0.0170  0.4078
 8388TIP3    H146579   0.115   3.910   2.025 -0.9900 -0.1217  0.1239
 8388TIP3    H246580   0.196   4.037   2.015  0.4788 -1.1002 -0.7716
 8389TIP3   OH246581   2.066   5.507   1.115  0.1096 -0.3460 -0.1498
 8389TIP3    H146582   2.081   5.601   1.109 -0.6336 -0.3095 -2.6944
 8389TIP3    H246583   2.009   5.496   1.191  1.4750  1.0446  1.1385
 8390TIP3   OH246584   3.477   2.409   2.807 -0.1086 -0.0982  0.4043
 8390TIP3    H146585   3.557   2.424   2.858  0.4544 -1.9074  0.1049
 8390TIP3    H246586   3.476   2.315   2.790 -1.5086  0.1183 -0.9221
 8391TIP3   OH246587   1.044   4.766  16.827 -0.0687  0.4341  0.0387
 8391TIP3    H146588   1.137   4.789  16.839 -1.0227  3.7793  3.0412
 8391TIP3    H246589   1.045   4.689  16.772  4.5082  0.2574 -0.0187
 8392TIP3   OH246590   0.611   6.666  12.711  0.0727 -0.2873 -0.3051
 8392TIP3    H146591   0.575   6.669  12.622 -1.6197  1.4202  0.3664
 8392TIP3    H246592   0.692   6.717  12.706  0.1340 -0.4349 -0.9077
 8393TIP3   OH246593   1.400   4.469   0.443  0.6715 -0.2776  0.4618
 8393TIP3    H146594   1.388   4.513   0.527 -2.4110  0.7537 -0.3910
 8393TIP3    H246595   1.428   4.538   0.383  0.0130 -0.3769  0.0334
 8394TIP3   OH246596   2.296   3.404   5.560  0.3146 -0.6778  0.1607
 8394TIP3    H146597   2.306   3.359   5.476  1.1737  0.9116 -0.6496
 8394TIP3    H246598   2.341   3.487   5.547  0.1103 -0.2265  2.0866
 8395TIP3   OH246599   6.347   2.060  15.440  0.0514  0.2771  0.0397
 8395TIP3    H146600   6.355   2.094  15.350 -1.8220  0.6425 -0.0298
 8395TIP3    H246601   6.414   2.107  15.489 -0.1239  1.4570 -0.7990
 8396TIP3   OH246602   2.043   3.088  12.456  0.4725 -0.2175 -0.4932
 8396TIP3    H146603   2.046   2.997  12.426  0.7312  0.3294 -2.2829
 8396TIP3    H246604   2.051   3.139  12.375  1.9576  1.4034  0.6068
 8397TIP3   OH246605   5.072   3.063  14.626  0.4144  0.0902 -0.1812
 8397TIP3    H146606   5.024   3.137  14.589 -0.3454  0.5928  1.7059
 8397TIP3    H246607   5.155   3.063  14.579  0.5770  2.3791 -0.0237
 8398TIP3   OH246608   1.783   3.956  16.087  0.0969  0.6917  0.1582
 8398TIP3    H146609   1.836   3.943  16.008  1.1882  0.8223  0.8430
 8398TIP3    H246610   1.737   4.039  16.071  0.7407  1.0075 -0.1189
 8399TIP3   OH246611   4.372   6.593  11.948  0.1547  0.3660 -0.7042
 8399TIP3    H146612   4.388   6.681  11.915  1.2968 -0.5083 -2.6749
 8399TIP3    H246613   4.288   6.600  11.994  0.5323  2.5922 -0.2495
 8400TIP3   OH246614   4.751   3.106  15.544 -0.0245 -0.2817 -0.3987
 8400TIP3    H146615   4.723   3.197  15.553  0.9367  0.0639 -0.7550
 8400TIP3    H246616   4.725   3.081  15.455  1.1774  0.1929 -0.9027
 8401TIP3   OH246617   1.977   4.956  12.814  0.1370  0.0469 -0.5733
 8401TIP3    H146618   2.035   4.991  12.882  1.7911 -0.2870 -1.7233
 8401TIP3    H246619   1.964   4.864  12.839  1.0326 -0.1704 -0.8627
 8402TIP3   OH246620   4.999   0.848  13.603 -0.4786  0.0281  0.2380
 8402TIP3    H146621   4.961   0.802  13.528 -0.5186  0.0178  0.2652
 8402TIP3    H246622   4.987   0.788  13.677 -1.5616  0.5385  0.5113
 8403TIP3   OH246623   1.948   4.631  14.707 -0.7652 -0.3768 -0.2322
 8403TIP3    H146624   1.901   4.548  14.699  0.4128 -0.9003 -3.3155
 8403TIP3    H246625   1.984   4.646  14.619  2.6612  1.2377  1.2522
 8404TIP3   OH246626   4.725   4.744  12.877 -0.0996  0.0988  0.1244
 8404TIP3    H146627   4.801   4.710  12.830 -0.0001 -0.0386  0.3798
 8404TIP3    H246628   4.649   4.708  12.830  0.0013 -0.2141  0.2001
 8405TIP3   OH246629   1.646   4.610   0.874  0.4708  0.3595 -0.5234
 8405TIP3    H146630   1.720   4.667   0.855 -1.9557  3.0274 -3.1434
 8405TIP3    H246631   1.614   4.640   0.959  2.5056 -1.1398  0.8630
 8406TIP3   OH246632   2.619   0.385  11.392 -0.4491 -0.3111 -0.4570
 8406TIP3    H146633   2.634   0.405  11.299 -0.0674  0.5510 -0.2157
 8406TIP3    H246634   2.697   0.338  11.419 -0.1562  0.2350 -0.3455
 8407TIP3   OH246635   4.828   0.499   6.794  0.2165  0.3774  0.0731
 8407TIP3    H146636   4.809   0.420   6.742 -3.0784  0.4719  0.8814
 8407TIP3    H246637   4.895   0.545   6.744  0.5679 -1.8047 -1.6261
 8408TIP3   OH246638   3.246   6.496   4.210 -0.2840 -0.0823 -0.4549
 8408TIP3    H146639   3.273   6.495   4.118  0.3738 -0.1265 -0.2615
 8408TIP3    H246640   3.199   6.580   4.220  0.2117  0.2246 -0.6709
 8409TIP3   OH246641   0.439   4.322   3.418 -0.2683  0.4905  0.4248
 8409TIP3    H146642   0.482   4.369   3.489  1.3560 -0.3269  0.0223
 8409TIP3    H246643   0.356   4.291   3.456 -0.0864  1.2905  1.5044
 8410TIP3   OH246644   3.387   5.885   2.349  0.0394 -0.2228 -0.2437
 8410TIP3    H146645   3.326   5.942   2.304  0.0867 -0.2977 -0.4039
 8410TIP3    H246646   3.406   5.816   2.286 -0.3715 -0.6672  0.1072
 8411TIP3   OH246647   0.079   2.470  13.139 -0.4990 -0.2365  0.4740
 8411TIP3    H146648   0.165   2.462  13.180 -1.2416 -0.3937  2.0903
 8411TIP3    H246649   0.059   2.381  13.108 -0.4158 -0.3858  0.8399
 8412TIP3   OH246650   5.603   6.580  17.140 -0.1481 -0.3848 -0.2133
 8412TIP3    H146651   5.531   6.594  17.079 -1.0410  3.0028  1.4068
 8412TIP3    H246652   5.672   6.640  17.111 -1.1836  2.5085  2.7677
 8413TIP3   OH246653   5.353   1.161  10.624 -0.1880 -0.5916 -0.3140
 8413TIP3    H146654   5.345   1.244  10.670  0.9945 -0.5271 -0.2125
 8413TIP3    H246655   5.266   1.146  10.586 -0.1475  1.1878 -1.1922
 8414TIP3   OH246656   4.570   6.750  14.050  0.3740 -0.4007 -0.3741
 8414TIP3    H146657   4.577   6.738  13.956 -0.5539  0.5823 -0.5856
 8414TIP3    H246658   4.479   6.774  14.065  1.2869  3.2597  0.2889
 8415TIP3   OH246659   1.891   0.705  14.799 -0.1356  0.2207 -0.0778
 8415TIP3    H146660   1.870   0.683  14.708  0.6111  1.1219 -0.4921
 8415TIP3    H246661   1.977   0.748  14.794  0.0108  0.1069  1.0827
 8416TIP3   OH246662   5.594   5.630   3.647 -0.4231  0.1670 -0.1597
 8416TIP3    H146663   5.619   5.625   3.739 -0.5482  0.8441 -0.0796
 8416TIP3    H246664   5.677   5.623   3.600 -0.1888  1.2268  0.0634
 8417TIP3   OH246665   4.105   3.592   2.349  0.1838  0.8782 -0.6979
 8417TIP3    H146666   4.021   3.619   2.313 -1.4947  0.4122  2.5072
 8417TIP3    H246667   4.151   3.674   2.367 -0.3124  1.2107 -0.9369
 8418TIP3   OH246668   0.048   1.572  15.092 -0.8110  0.2382  0.2451
 8418TIP3    H146669   0.027   1.557  15.000  0.4565 -1.1650  0.1522
 8418TIP3    H246670  -0.034   1.560  15.138 -0.8716 -2.2065 -0.3943
 8419TIP3   OH246671   5.087   2.051   3.347 -0.0716 -0.7936  0.4739
 8419TIP3    H146672   5.104   2.121   3.411 -0.2127 -1.5714  1.3790
 8419TIP3    H246673   5.172   2.009   3.335  0.2921  0.2941 -1.0249
 8420TIP3   OH246674   0.358   1.302  14.016  0.1602 -0.2750 -0.7619
 8420TIP3    H146675   0.435   1.344  13.978  0.4134 -0.4547 -0.4572
 8420TIP3    H246676   0.291   1.309  13.948  0.9229 -1.5639 -1.6965
 8421TIP3   OH246677   3.041   4.818   0.377 -0.6202 -0.3222 -0.1302
 8421TIP3    H146678   3.134   4.797   0.380 -0.4268  0.0148 -2.2615
 8421TIP3    H246679   2.997   4.739   0.410  0.3959 -0.3514  1.2377
 8422TIP3   OH246680   0.531   5.158   2.593  0.4038 -0.3406  0.4220
 8422TIP3    H146681   0.567   5.075   2.562  2.4643  0.7638 -0.3387
 8422TIP3    H246682   0.468   5.184   2.525 -0.0372 -1.1033  0.5231
 8423TIP3   OH246683   3.437   0.848   3.358 -0.2409  0.1887 -0.2613
 8423TIP3    H146684   3.399   0.760   3.348  0.6445 -0.1105 -1.2077
 8423TIP3    H246685   3.434   0.865   3.452  0.9832 -1.5180  0.1377
 8424TIP3   OH246686   3.382   5.110  15.416  0.4445  0.2455  0.3398
 8424TIP3    H146687   3.390   5.204  15.400  2.1270  0.3177  1.3721
 8424TIP3    H246688   3.365   5.072  15.330  0.1463  1.4540 -0.1477
 8425TIP3   OH246689   0.452   1.043  14.084 -0.2668  0.5151  0.6383
 8425TIP3    H146690   0.390   0.972  14.100  1.1887 -0.8895  0.4181
 8425TIP3    H246691   0.398   1.120  14.070 -1.9866 -0.7913 -0.3456
 8426TIP3   OH246692   3.953   0.161  16.621  0.4798 -0.2404  0.0019
 8426TIP3    H146693   3.980   0.115  16.701  1.8227  0.0433 -0.2761
 8426TIP3    H246694   4.034   0.173  16.572 -0.3146 -0.2898 -1.3505
 8427TIP3   OH246695   6.400   5.720  11.291  0.1005  0.5251  0.1254
 8427TIP3    H146696   6.426   5.730  11.382  1.5447  1.1637 -0.3350
 8427TIP3    H246697   6.467   5.664  11.252 -0.1633  0.7412 -0.6797
 8428TIP3   OH246698   2.766   2.715   6.184 -0.0576 -0.0120  0.0796
 8428TIP3    H146699   2.702   2.759   6.240  0.5034  1.1119 -0.1346
 8428TIP3    H246700   2.718   2.643   6.143 -1.0080  0.4246  0.4205
 8429TIP3   OH246701   0.682   6.157  14.621 -0.2373  0.9706  0.2518
 8429TIP3    H146702   0.743   6.143  14.693  1.5625  0.7037 -1.2417
 8429TIP3    H246703   0.684   6.252  14.606 -0.6869  1.0380  0.6070
 8430TIP3   OH246704   4.860   4.785  14.368  0.2435 -0.4114 -0.1079
 8430TIP3    H146705   4.902   4.734  14.437  0.1775 -2.7551 -1.6753
 8430TIP3    H246706   4.783   4.824  14.409 -0.2063 -2.3436  1.0012
 8431TIP3   OH246707   4.891   5.796   1.944  0.5694  0.0501  0.1245
 8431TIP3    H146708   4.967   5.761   1.899  0.0572 -2.4294  1.0235
 8431TIP3    H246709   4.925   5.823   2.030  0.2051 -3.1670  1.4275
 8432TIP3   OH246710   5.348   5.504  10.989  0.4153  0.2660  0.6156
 8432TIP3    H146711   5.305   5.589  10.999  0.5036  0.1769  2.1209
 8432TIP3    H246712   5.286   5.441  11.025  0.4625 -0.2815 -0.2447
 8433TIP3   OH246713   2.228   2.566   2.525 -0.3897 -0.3088  0.4169
 8433TIP3    H146714   2.170   2.515   2.469 -0.5912 -0.0822  0.4186
 8433TIP3    H246715   2.170   2.611   2.586 -0.1444 -0.9877  1.1760
 8434TIP3   OH246716   0.858   4.335  12.653  0.3491 -0.4573 -0.3659
 8434TIP3    H146717   0.805   4.409  12.683  0.8542  0.3640 -1.4254
 8434TIP3    H246718   0.822   4.313  12.567  1.6158  0.0525 -1.0590
 8435TIP3   OH246719   6.365   3.472  14.414  0.1123  0.5592  1.1425
 8435TIP3    H146720   6.406   3.543  14.365 -1.4023 -0.3054 -1.6901
 8435TIP3    H246721   6.419   3.396  14.395 -0.6196  0.1704  0.5264
 8436TIP3   OH246722   5.244   0.698  13.602  0.8021 -0.5683  0.2394
 8436TIP3    H146723   5.250   0.706  13.697  2.9729  1.4598  0.0264
 8436TIP3    H246724   5.155   0.668  13.586 -0.2697  0.9060  2.8315
 8437TIP3   OH246725   5.177   2.743   0.525  0.4822 -0.3673  1.1432
 8437TIP3    H146726   5.225   2.671   0.566  1.9583  0.2213  0.5186
 8437TIP3    H246727   5.133   2.787   0.598  1.0245 -0.8341  1.7597
 8438TIP3   OH246728   5.658   5.832   2.103  0.2039 -0.2513  0.4290
 8438TIP3    H146729   5.578   5.864   2.060 -0.1857 -0.2857  1.1265
 8438TIP3    H246730   5.727   5.888   2.067 -0.3173  0.6691  0.8135
 8439TIP3   OH246731   2.683   4.400   3.552  0.5973 -0.4902 -0.4979
 8439TIP3    H146732   2.721   4.314   3.536  0.7198 -0.8552  1.5231
 8439TIP3    H246733   2.591   4.391   3.526  0.6030 -1.2357 -0.2664
 8440TIP3   OH246734   3.371   0.726   1.234  0.2508  0.1432 -0.2697
 8440TIP3    H146735   3.428   0.801   1.246  0.2424  0.1164 -0.0711
 8440TIP3    H246736   3.360   0.689   1.321 -1.9453  1.5133  0.0976
 8441TIP3   OH246737   6.558   6.291  16.467 -0.0224  0.0824 -0.3509
 8441TIP3    H146738   6.532   6.226  16.401 -1.3451 -1.1929  1.3443
 8441TIP3    H246739   6.641   6.257  16.502 -0.2054 -0.1713 -0.1600
 8442TIP3   OH246740   2.017   6.001  15.553  0.2792  0.1546  0.3219
 8442TIP3    H146741   2.109   6.021  15.570  0.1206 -0.4588  2.0460
 8442TIP3    H246742   2.008   5.908  15.575 -0.7231  0.1494 -0.0374
 8443TIP3   OH246743   1.105   4.412  12.340 -0.1921 -0.2520 -0.0106
 8443TIP3    H146744   1.119   4.367  12.257  1.1960  1.0148 -0.5089
 8443TIP3    H246745   1.130   4.348  12.406 -0.8979 -1.1283 -0.5599
 8444TIP3   OH246746   0.830   1.602   6.568  0.2709 -0.0178  0.0223
 8444TIP3    H146747   0.906   1.546   6.580  1.7633  1.9365  0.0746
 8444TIP3    H246748   0.865   1.684   6.532 -1.3564  2.0904  2.8489
 8445TIP3   OH246749   3.369   6.224   4.850  0.2849 -0.2092 -0.5027
 8445TIP3    H146750   3.352   6.277   4.772 -0.4936 -1.0286 -0.9151
 8445TIP3    H246751   3.315   6.146   4.838 -0.2065 -0.1459  1.0929
 8446TIP3   OH246752   2.757   6.418  12.452 -0.3482 -0.3752  0.1494
 8446TIP3    H146753   2.767   6.508  12.483 -1.4616  0.2943 -1.3000
 8446TIP3    H246754   2.665   6.397  12.466 -0.3125 -0.9259 -0.3856
 8447TIP3   OH246755   1.018   5.073   4.947  0.4879 -0.0169  0.3997
 8447TIP3    H146756   1.056   5.065   4.860  0.0627  0.3875  0.1698
 8447TIP3    H246757   0.928   5.041   4.937  0.9932 -1.7971  1.1270
 8448TIP3   OH246758   4.937   5.802   5.578 -0.1338 -0.4424 -0.8785
 8448TIP3    H146759   4.909   5.727   5.526 -1.4341 -0.8079  0.2714
 8448TIP3    H246760   4.943   5.767   5.668  1.2948  0.3371 -0.6507
 8449TIP3   OH246761   1.934   2.759  12.897  0.5050  0.2403  0.0805
 8449TIP3    H146762   1.949   2.835  12.953 -1.3611 -0.0069  1.0229
 8449TIP3    H246763   2.008   2.700  12.915  2.4021  2.0917 -1.2584
 8450TIP3   OH246764   2.302   4.345  14.442 -0.2723 -0.4801 -0.4054
 8450TIP3    H146765   2.332   4.435  14.441  0.7274 -0.7824  0.3370
 8450TIP3    H246766   2.207   4.351  14.434 -0.2259  0.6444 -0.2384
 8451TIP3   OH246767   6.040   6.332   5.760  0.7771  0.1337 -0.7869
 8451TIP3    H146768   6.121   6.360   5.802  1.2422  0.6285 -1.9469
 8451TIP3    H246769   5.971   6.360   5.819  1.4417 -0.1094  0.1240
 8452TIP3   OH246770   1.838   0.973  14.908  0.7993 -0.1790  0.5075
 8452TIP3    H146771   1.840   0.878  14.901 -0.6561 -0.1369 -1.3459
 8452TIP3    H246772   1.869   1.005  14.824  3.1484  1.0979  1.7468
 8453TIP3   OH246773   1.349   2.198  14.457 -0.2007 -0.3110  0.2740
 8453TIP3    H146774   1.423   2.191  14.396 -0.8453  1.4225 -0.7720
 8453TIP3    H246775   1.381   2.156  14.537  1.0627 -1.6893 -0.8867
 8454TIP3   OH246776   5.279   4.961  14.933 -0.3409  0.0131  0.0707
 8454TIP3    H146777   5.284   5.035  14.993  0.4642  2.0292 -2.3234
 8454TIP3    H246778   5.214   4.987  14.868 -2.1925 -2.6682  0.6472
 8455TIP3   OH246779   3.708   6.596   1.242  0.1246 -0.4486  0.3156
 8455TIP3    H146780   3.728   6.532   1.310  1.6976  0.4300  0.7435
 8455TIP3    H246781   3.723   6.681   1.284 -0.3565  0.1589 -0.6924
 8456TIP3   OH246782   3.597   3.464  13.429 -0.5946  0.2062  0.2889
 8456TIP3    H146783   3.506   3.470  13.457 -0.2984 -1.3638  1.7682
 8456TIP3    H246784   3.644   3.524  13.486 -0.5626  0.2489  0.2179
 8457TIP3   OH246785   3.314   1.808   0.240 -0.2557  0.5849 -0.0815
 8457TIP3    H146786   3.408   1.806   0.224 -0.4216  0.0113 -1.0391
 8457TIP3    H246787   3.306   1.831   0.333  0.8794 -1.0287  0.4526
 8458TIP3   OH246788   3.553   2.458  14.783 -0.0174  0.1954 -0.1597
 8458TIP3    H146789   3.620   2.401  14.822 -1.2322 -0.3826  1.1983
 8458TIP3    H246790   3.590   2.546  14.789  0.3925 -0.0433  1.1433
 8459TIP3   OH246791   2.106   1.656   3.765  0.0609 -0.2500 -0.0518
 8459TIP3    H146792   2.132   1.711   3.691  0.7325  0.4130  0.6603
 8459TIP3    H246793   2.173   1.671   3.831 -0.7093 -0.5696  0.8238
 8460TIP3   OH246794   5.134   4.236   6.598  0.1953  0.0606 -0.5803
 8460TIP3    H146795   5.155   4.160   6.652 -0.8555  0.3341  0.2358
 8460TIP3    H246796   5.182   4.221   6.516  1.5053 -0.5417  0.2704
 8461TIP3   OH246797   4.738   0.204  16.292 -0.5544  0.3918  0.1050
 8461TIP3    H146798   4.826   0.239  16.306 -0.8476  0.3503  2.4591
 8461TIP3    H246799   4.683   0.251  16.355 -1.5464 -1.9991  1.1581
 8462TIP3   OH246800   0.815   0.996   6.534  0.2333  0.4574  0.0928
 8462TIP3    H146801   0.736   0.988   6.587  1.2608  0.6309  1.7336
 8462TIP3    H246802   0.805   0.931   6.465 -0.4331 -0.9451  1.4696
 8463TIP3   OH246803   1.458   3.011  11.541  0.1514  0.1167 -0.0249
 8463TIP3    H146804   1.408   3.092  11.531  1.1233  0.7467  0.1065
 8463TIP3    H246805   1.392   2.942  11.536 -0.8563  0.9541  0.9926
 8464TIP3   OH246806   5.544   5.392   5.129 -0.3314  0.5591 -0.5224
 8464TIP3    H146807   5.451   5.388   5.109 -0.1232 -1.1800 -1.3095
 8464TIP3    H246808   5.587   5.393   5.043  0.4570 -3.0563 -0.3161
 8465TIP3   OH246809   2.601   1.919  10.537 -0.2352 -0.3245 -0.2814
 8465TIP3    H146810   2.630   2.001  10.498  0.2468 -0.7259 -0.7916
 8465TIP3    H246811   2.662   1.853  10.503  0.4127 -0.6482  1.3806
 8466TIP3   OH246812   5.252   3.497  11.194  0.2308  0.9718 -0.1707
 8466TIP3    H146813   5.238   3.591  11.184  0.7183  0.9470 -1.1838
 8466TIP3    H246814   5.177   3.457  11.151  0.6924  0.8993 -0.9395
 8467TIP3   OH246815   3.197   6.293  17.194 -0.0194 -0.2758  0.6049
 8467TIP3    H146816   3.285   6.285  17.229  0.3386 -1.1774 -0.4456
 8467TIP3    H246817   3.185   6.387  17.179  0.7749 -0.1516  0.7233
 8468TIP3   OH246818   2.313   5.274   5.600 -0.2263  0.5186 -0.6250
 8468TIP3    H146819   2.296   5.208   5.667  1.2006 -0.0449 -0.7713
 8468TIP3    H246820   2.408   5.287   5.603 -0.5830  3.9342  0.6486
 8469TIP3   OH246821   5.475   5.649  13.508 -0.0397  0.4840  0.0006
 8469TIP3    H146822   5.477   5.611  13.595 -0.0850  0.0537 -0.1863
 8469TIP3    H246823   5.534   5.595  13.456  0.7618  1.3304 -0.0019
 8470TIP3   OH246824   4.337   5.663   2.884 -0.1940 -0.2679 -0.5301
 8470TIP3    H146825   4.387   5.582   2.873 -1.1992 -0.7397 -1.8525
 8470TIP3    H246826   4.248   5.639   2.861 -0.9079  0.7581  0.9982
 8471TIP3   OH246827   6.749   4.392   1.812  0.0779  0.4360 -0.3608
 8471TIP3    H146828   6.704   4.316   1.849  0.6181 -0.3619 -1.3094
 8471TIP3    H246829   6.827   4.403   1.867 -0.3737  0.7677  0.2274
 8472TIP3   OH246830   6.050   2.398  15.103 -0.6254 -0.6319  0.3255
 8472TIP3    H146831   6.052   2.344  15.023 -2.1093 -2.3374  1.3474
 8472TIP3    H246832   5.967   2.375  15.144 -0.3532  0.9699  1.8831
 8473TIP3   OH246833   0.937   0.568  17.180  0.4507  0.5452  0.4788
 8473TIP3    H146834   0.921   0.531  17.267 -2.3400 -0.4345 -0.3473
 8473TIP3    H246835   0.946   0.492  17.123  0.1496  1.1538 -0.4033
 8474TIP3   OH246836   4.290   6.421   3.653  0.4358  0.6387  0.1936
 8474TIP3    H146837   4.307   6.514   3.669  0.8012  0.4923  0.6596
 8474TIP3    H246838   4.198   6.418   3.627  0.7181  1.2633 -0.9492
 8475TIP3   OH246839   1.349   0.979   2.113 -0.1779 -0.5273 -0.3838
 8475TIP3    H146840   1.439   1.010   2.102  0.1754 -0.5148  1.9609
 8475TIP3    H246841   1.308   0.992   2.028  1.5387  1.1236 -1.0185
 8476TIP3   OH246842   6.722   1.119   1.466 -0.1454 -0.1415  0.2991
 8476TIP3    H146843   6.783   1.076   1.406 -0.1692  0.4090 -0.1242
 8476TIP3    H246844   6.776   1.142   1.542 -0.0584 -0.5928  0.3798
 8477TIP3   OH246845   0.334   3.221   1.002  0.0833 -0.0885  0.2827
 8477TIP3    H146846   0.353   3.167   1.079  0.6467 -0.9210 -0.4239
 8477TIP3    H246847   0.413   3.274   0.990 -0.7808  1.5920  1.4849
 8478TIP3   OH246848   2.261   6.179   3.201 -0.6101 -0.5005 -0.3654
 8478TIP3    H146849   2.222   6.157   3.116 -1.0689 -0.9894 -0.0373
 8478TIP3    H246850   2.187   6.206   3.255 -0.1948  0.7179 -0.3946
 8479TIP3   OH246851   5.911   4.717  14.313 -0.4992  0.4540  0.2454
 8479TIP3    H146852   6.006   4.730  14.311 -0.4436  0.1535  0.8009
 8479TIP3    H246853   5.889   4.690  14.224 -0.0530  0.4435  0.1338
 8480TIP3   OH246854   4.523   1.878  11.539 -0.3001  0.4015 -0.0311
 8480TIP3    H146855   4.449   1.898  11.597 -1.3206  2.3600 -1.8841
 8480TIP3    H246856   4.593   1.937  11.568 -0.1601  0.0523  0.3606
 8481TIP3   OH246857   6.527   6.522   4.950 -0.6347 -0.4608 -0.2101
 8481TIP3    H146858   6.584   6.599   4.953  0.5733 -1.2856 -1.2685
 8481TIP3    H246859   6.491   6.522   4.861 -2.8762  0.4000  0.6110
 8482TIP3   OH246860   2.729   5.478  17.118 -0.2998 -0.1597 -0.1673
 8482TIP3    H146861   2.801   5.525  17.075  0.3432  0.1567  1.1931
 8482TIP3    H246862   2.686   5.545  17.171  0.6221 -1.0353  1.7979
 8483TIP3   OH246863   0.291   0.917  13.327 -0.4920 -0.5086 -0.0396
 8483TIP3    H146864   0.351   0.986  13.298 -0.7613 -0.0820  0.3975
 8483TIP3    H246865   0.207   0.961  13.337 -0.7249 -0.9571  0.0044
 8484TIP3   OH246866   3.967   1.133   0.045 -0.7820 -0.9022 -0.5573
 8484TIP3    H146867   4.051   1.113   0.086 -0.4209  0.6650 -0.4448
 8484TIP3    H246868   3.987   1.136  -0.049 -0.3084  1.0223 -0.4366
 8485TIP3   OH246869   2.040   4.831   0.620  0.5023 -1.1201  0.6065
 8485TIP3    H146870   1.988   4.863   0.547  0.4152  0.9300  1.4828
 8485TIP3    H246871   1.976   4.802   0.685  0.5432 -1.6695  0.4028
 8486TIP3   OH246872   2.193   3.301   5.023 -0.1852  0.0504  0.3804
 8486TIP3    H146873   2.278   3.290   5.065  0.0749  3.4998  1.0259
 8486TIP3    H246874   2.197   3.245   4.946  2.0369 -1.0615  1.2135
 8487TIP3   OH246875   3.654   3.939  16.763 -0.0067  0.2060  0.7059
 8487TIP3    H146876   3.698   4.016  16.726 -1.7612  1.1202  0.4475
 8487TIP3    H246877   3.621   3.969  16.847  1.1165 -0.9225  1.5933
 8488TIP3   OH246878   0.074   1.602   2.436  0.1172  0.7603  0.2894
 8488TIP3    H146879   0.058   1.681   2.384 -0.2959 -0.4464 -1.4843
 8488TIP3    H246880  -0.013   1.564   2.450  0.3586  0.3658  0.7521
 8489TIP3   OH246881   4.589   4.150  13.212 -0.7185 -0.0683 -0.3392
 8489TIP3    H146882   4.666   4.192  13.249 -2.1758  2.2364  0.2480
 8489TIP3    H246883   4.523   4.153  13.281 -2.0755  0.2012 -1.5737
 8490TIP3   OH246884   5.176   1.615   6.247  0.5118 -0.0427 -0.3610
 8490TIP3    H146885   5.194   1.625   6.340  2.8155  0.1296 -0.7620
 8490TIP3    H246886   5.160   1.704   6.216 -0.8969 -0.1665 -0.0485
 8491TIP3   OH246887   6.423   4.605  12.234  0.7338  0.2941 -0.0835
 8491TIP3    H146888   6.391   4.558  12.157  0.4569 -0.0091  0.2115
 8491TIP3    H246889   6.437   4.695  12.203  1.4336 -0.0184 -0.6932
 8492TIP3   OH246890   1.124   6.002  13.844 -0.3357  0.3691 -0.1231
 8492TIP3    H146891   1.071   5.990  13.766 -0.9709 -0.9206  0.4816
 8492TIP3    H246892   1.067   6.053  13.903 -1.9266 -2.8622  1.3912
 8493TIP3   OH246893   5.582   4.097   3.097 -0.0942  0.0753  0.1527
 8493TIP3    H146894   5.666   4.125   3.133  0.3403  0.0208 -0.8048
 8493TIP3    H246895   5.567   4.155   3.022 -0.1601 -0.9130 -0.6175
 8494TIP3   OH246896   6.378   4.173  16.535 -0.2424 -0.6655  0.3611
 8494TIP3    H146897   6.326   4.247  16.505  1.4086  0.1255 -0.6695
 8494TIP3    H246898   6.340   4.097  16.489 -1.7852 -0.4654  1.2447
 8495TIP3   OH246899   1.574   3.452  15.145 -0.3374 -0.3905  0.3935
 8495TIP3    H146900   1.555   3.432  15.236 -1.2160  1.4728  0.6640
 8495TIP3    H246901   1.547   3.543  15.134  3.5940  0.8814 -0.6349
 8496TIP3   OH246902   0.791   1.301   4.283 -0.1672  0.7622 -0.8603
 8496TIP3    H146903   0.870   1.293   4.336 -1.2765  1.8990  1.0551
 8496TIP3    H246904   0.811   1.370   4.220  0.8351  0.0342 -1.3767
 8497TIP3   OH246905   0.967   6.285   1.815 -0.1501  0.4806 -0.0743
 8497TIP3    H146906   0.907   6.302   1.743  0.6274  1.5606 -0.5030
 8497TIP3    H246907   0.936   6.204   1.855 -0.5299 -0.2059 -1.7018
 8498TIP3   OH246908   6.265   6.143   2.150  0.3004 -0.2703  0.0025
 8498TIP3    H146909   6.208   6.066   2.149 -0.4050  0.2456 -0.2389
 8498TIP3    H246910   6.226   6.202   2.214  0.6646  0.0138 -0.0319
 8499TIP3   OH246911   2.069   0.820  13.417 -0.3701 -0.3361 -0.0577
 8499TIP3    H146912   2.082   0.743  13.363 -1.6418  0.3251 -1.3823
 8499TIP3    H246913   2.131   0.885  13.383 -0.7805 -0.0974 -0.3550
 8500TIP3   OH246914   2.659   0.997   5.655 -0.1412 -0.0651 -0.0179
 8500TIP3    H146915   2.708   1.070   5.618 -0.3881 -0.3180 -0.8787
 8500TIP3    H246916   2.568   1.015   5.632 -0.2060 -0.6419 -0.2456
 8501TIP3   OH246917   4.368   3.878  16.224 -0.5037 -0.6594 -0.4544
 8501TIP3    H146918   4.413   3.962  16.215  0.7337 -1.1364  0.8268
 8501TIP3    H246919   4.311   3.890  16.301  0.0418 -1.1230  0.0323
 8502TIP3   OH246920   5.863   4.641  13.146 -1.4726 -0.4299 -0.5355
 8502TIP3    H146921   5.834   4.710  13.086  0.6753 -0.3765 -1.6077
 8502TIP3    H246922   5.958   4.642  13.139 -1.2161 -1.3710  1.8765
 8503TIP3   OH246923   5.291   6.149   3.533  0.5352 -0.3268  0.0389
 8503TIP3    H146924   5.290   6.170   3.626 -3.1724 -0.2787  0.1500
 8503TIP3    H246925   5.311   6.056   3.529  0.3792 -0.4017  0.8982
 8504TIP3   OH246926   6.372   4.997   2.143  0.1689 -0.2240 -0.1876
 8504TIP3    H146927   6.353   4.905   2.157  0.1521 -0.2214 -0.1922
 8504TIP3    H246928   6.458   4.998   2.101  0.3056 -0.2227  0.0901
 8505TIP3   OH246929   3.182   6.082  13.976 -0.0323 -0.7454 -0.0032
 8505TIP3    H146930   3.271   6.046  13.981  1.0293  1.6869  0.0677
 8505TIP3    H246931   3.180   6.126  13.891 -1.2399 -0.9046 -0.0623
 8506TIP3   OH246932   5.421   2.155  11.488 -0.0805 -0.2686 -0.1780
 8506TIP3    H146933   5.450   2.074  11.446 -0.0788 -0.2746 -0.1650
 8506TIP3    H246934   5.446   2.145  11.580  1.0028  0.2582 -0.3959
 8507TIP3   OH246935   1.603   5.171  10.187  0.0496  0.3585  0.1698
 8507TIP3    H146936   1.550   5.250  10.198  0.9098  1.1182 -0.9490
 8507TIP3    H246937   1.580   5.116  10.262 -1.5140  1.1186  0.2769
 8508TIP3   OH246938   0.957   1.164   5.321 -0.0548  0.1321 -0.1843
 8508TIP3    H146939   1.041   1.211   5.328 -0.6426  1.3821 -1.1865
 8508TIP3    H246940   0.948   1.120   5.406  1.5536  0.0495 -0.0064
 8509TIP3   OH246941   4.793   6.330  14.743  0.3176 -0.5074 -0.2021
 8509TIP3    H146942   4.804   6.401  14.680 -0.5240  1.6907  1.9759
 8509TIP3    H246943   4.880   6.316  14.779  0.4655 -0.5706 -0.5709
 8510TIP3   OH246944   1.877   5.733  15.986  0.4205  0.6082 -0.1363
 8510TIP3    H146945   1.854   5.653  15.938  0.9557 -0.0341  0.6483
 8510TIP3    H246946   1.969   5.722  16.008  0.1869  0.8497  1.0722
 8511TIP3   OH246947   0.808   6.296   2.090 -0.1490 -0.0570 -0.3965
 8511TIP3    H146948   0.803   6.327   2.000  2.2666 -1.0189 -0.9328
 8511TIP3    H246949   0.743   6.348   2.137 -0.8081  1.1236 -2.4918
 8512TIP3   OH246950   5.495   0.068  13.844 -0.0264 -0.3812  0.3295
 8512TIP3    H146951   5.427   0.034  13.786  0.7280  1.9742 -2.1357
 8512TIP3    H246952   5.450   0.132  13.899  0.0936  1.1635 -1.2896
 8513TIP3   OH246953   1.144   0.759  15.520 -0.2957  0.3136 -0.0999
 8513TIP3    H146954   1.178   0.749  15.432 -0.5532  0.8974 -0.2666
 8513TIP3    H246955   1.221   0.774  15.575  0.0007 -1.3059 -0.0152
 8514TIP3   OH246956   1.374   5.719   3.841 -0.1116  0.0589  0.4066
 8514TIP3    H146957   1.289   5.750   3.870 -0.0620  0.5096  0.0822
 8514TIP3    H246958   1.356   5.672   3.759 -0.1308 -0.3976  0.6716
 8515TIP3   OH246959   0.649   5.529  12.960 -0.2657  0.4051  0.3081
 8515TIP3    H146960   0.666   5.513  13.053 -4.4152 -0.0608  1.1960
 8515TIP3    H246961   0.592   5.606  12.959  1.6639  1.9548 -2.1628
 8516TIP3   OH246962   1.294   6.555  14.238  0.8349 -0.1157 -0.2464
 8516TIP3    H146963   1.293   6.554  14.334  0.8545  0.6740 -0.2289
 8516TIP3    H246964   1.385   6.577  14.216  0.1368  3.1483 -0.3555
 8517TIP3   OH246965   5.796   4.482   6.060 -0.1724  0.0992 -0.3470
 8517TIP3    H146966   5.749   4.399   6.064 -0.0083  0.0096 -0.2512
 8517TIP3    H246967   5.738   4.546   6.102 -0.0297 -0.0970  0.1613
 8518TIP3   OH246968   3.505   1.598  15.236 -0.2253  0.5290 -0.0828
 8518TIP3    H146969   3.558   1.575  15.160 -0.9853 -0.6452 -0.2911
 8518TIP3    H246970   3.566   1.640  15.296  1.5229 -2.7502  0.6600
 8519TIP3   OH246971   3.037   3.567   5.506  0.2285 -0.0728  0.1661
 8519TIP3    H146972   3.057   3.497   5.444  2.8225 -0.4108  1.2417
 8519TIP3    H246973   3.057   3.647   5.458 -1.0504 -0.1018 -0.4800
 8520TIP3   OH246974   2.577   2.481   4.467  0.3455 -0.5730  0.1619
 8520TIP3    H146975   2.578   2.541   4.393  1.1769 -0.8867 -0.0928
 8520TIP3    H246976   2.625   2.528   4.536 -0.9374 -0.0267  0.7379
 8521TIP3   OH246977   1.054   1.170   0.862  0.0467 -0.7218 -0.1898
 8521TIP3    H146978   0.984   1.221   0.819 -0.1368  0.0960  1.0353
 8521TIP3    H246979   1.008   1.115   0.925  0.4413 -0.7355  0.0866
 8522TIP3   OH246980   5.017   4.685  14.658 -0.1385 -0.3497 -0.2970
 8522TIP3    H146981   5.099   4.695  14.707  1.2268  1.1859 -2.7136
 8522TIP3    H246982   5.040   4.627  14.585 -1.4809 -0.6614 -0.4963
 8523TIP3   OH246983   0.355   4.882   2.285  0.0735 -0.3410  0.0582
 8523TIP3    H146984   0.362   4.837   2.201  1.1580 -3.1432  1.5367
 8523TIP3    H246985   0.445   4.894   2.314 -0.2986 -0.1378  1.1940
 8524TIP3   OH246986   1.180   3.422  15.476  0.0988 -0.4786  0.2953
 8524TIP3    H146987   1.153   3.452  15.389  2.0199  1.5287  0.3073
 8524TIP3    H246988   1.271   3.395  15.465  1.0867  1.8136  2.0195
 8525TIP3   OH246989   3.362   3.650   5.887 -0.4145 -0.6401 -0.4687
 8525TIP3    H146990   3.429   3.701   5.842  0.9115 -0.7189  1.3106
 8525TIP3    H246991   3.404   3.565   5.904 -0.9848 -0.7257  0.5943
 8526TIP3   OH246992   5.657   2.960   4.733  0.4755 -0.3107  0.1988
 8526TIP3    H146993   5.718   3.034   4.730 -0.5837  0.6567  1.3353
 8526TIP3    H246994   5.604   2.970   4.654 -0.2606  0.7202  0.7923
 8527TIP3   OH246995   5.650   4.173  14.653  0.5653  0.0771 -0.0640
 8527TIP3    H146996   5.622   4.261  14.628  2.1718  1.1686  1.6854
 8527TIP3    H246997   5.744   4.173  14.636  0.7147 -1.0323  0.6815
 8528TIP3   OH246998   4.714   1.083   6.128 -0.1771  0.2498 -0.6031
 8528TIP3    H146999   4.807   1.065   6.115 -0.4527  0.1566 -2.7632
 8528TIP3    H247000   4.692   1.036   6.209  1.8912  1.3499  0.6984
 8529TIP3   OH247001   2.636   5.294  11.663  0.2193 -0.0057  0.4796
 8529TIP3    H147002   2.680   5.376  11.686  1.8060 -0.9615  0.9568
 8529TIP3    H247003   2.699   5.248  11.607 -1.5777  0.0904 -1.7775
 8530TIP3   OH247004   5.720   2.646  14.038 -0.0878  0.5179  0.1333
 8530TIP3    H147005   5.813   2.659  14.057 -0.1120 -1.5940  2.2172
 8530TIP3    H247006   5.719   2.573  13.975 -0.3392 -0.3082  1.0773
 8531TIP3   OH247007   4.546   3.961   0.737  0.2392  0.0765 -0.1674
 8531TIP3    H147008   4.602   4.038   0.741  0.5159 -0.0265 -1.5634
 8531TIP3    H247009   4.469   3.990   0.688 -0.2609 -0.1892  0.4435
 8532TIP3   OH247010   2.860   6.713   3.582  0.2068  0.2853  0.1846
 8532TIP3    H147011   2.857   6.639   3.643  1.1411  1.3707  1.6246
 8532TIP3    H247012   2.951   6.718   3.555  0.4965  1.8234  1.3342
 8533TIP3   OH247013   5.069   2.386  17.041  0.4709  0.0739  0.4286
 8533TIP3    H147014   4.976   2.378  17.019  0.1177 -1.7149  2.2930
 8533TIP3    H247015   5.077   2.473  17.080 -0.9105 -0.5141  2.1534
 8534TIP3   OH247016   2.472   6.525   4.011 -0.6333  0.2175  0.8635
 8534TIP3    H147017   2.518   6.609   4.022 -1.9265  1.1836 -0.6771
 8534TIP3    H247018   2.537   6.468   3.971  0.0068  0.7298  1.1431
 8535TIP3   OH247019   0.161   1.554  15.680  0.0030  0.3055  0.3911
 8535TIP3    H147020   0.132   1.595  15.762 -1.0611  1.9708 -0.7509
 8535TIP3    H247021   0.248   1.590  15.664 -0.6996  1.7612 -0.3167
 8536TIP3   OH247022   2.738   4.915   3.679 -0.4169 -0.0331 -0.3270
 8536TIP3    H147023   2.731   4.957   3.593 -1.4196 -2.4268 -1.5203
 8536TIP3    H247024   2.818   4.862   3.673 -0.8280 -0.6985 -0.0295
 8537TIP3   OH247025   5.673   3.323  10.690  0.1342  0.2532  0.3625
 8537TIP3    H147026   5.640   3.410  10.712  0.2653  0.6231 -0.8229
 8537TIP3    H247027   5.723   3.296  10.767  0.9520  1.6725  0.3655
 8538TIP3   OH247028   6.198   0.270  16.450  0.1337  0.3606  0.0056
 8538TIP3    H147029   6.182   0.193  16.504 -0.2423 -1.3833 -2.4300
 8538TIP3    H247030   6.275   0.247  16.398 -0.7206  1.0575 -1.6482
 8539TIP3   OH247031   4.727   3.723   4.388  0.1998 -0.4322 -0.0090
 8539TIP3    H147032   4.789   3.796   4.392 -0.5746  0.1827  1.3571
 8539TIP3    H247033   4.781   3.645   4.396  0.9666  0.0073 -0.7071
 8540TIP3   OH247034   2.916   2.000  14.766 -0.2484 -0.1154  0.6854
 8540TIP3    H147035   2.837   1.947  14.763  0.6914 -1.5646  0.5301
 8540TIP3    H247036   2.980   1.951  14.713  0.8836  0.7692  1.1925
 8541TIP3   OH247037   0.878   3.201   0.333 -0.4258  0.0547 -0.8344
 8541TIP3    H147038   0.785   3.218   0.323 -0.4120  1.6605  1.0471
 8541TIP3    H247039   0.916   3.288   0.349  1.2800 -0.6649 -0.7979
 8542TIP3   OH247040   1.278   2.021   3.048  0.1078 -0.4617  0.0189
 8542TIP3    H147041   1.206   1.962   3.070 -2.1593  1.4085 -1.8978
 8542TIP3    H247042   1.235   2.100   3.014  3.0605 -0.1449 -3.5296
 8543TIP3   OH247043   0.761   5.212   1.767  0.2938  0.5002 -0.7071
 8543TIP3    H147044   0.803   5.202   1.681  0.0099  4.0780 -1.4173
 8543TIP3    H247045   0.834   5.227   1.827  0.4630 -1.6195 -0.2980
 8544TIP3   OH247046   3.711   0.109   5.457  0.0784  0.3317 -0.5360
 8544TIP3    H147047   3.647   0.116   5.386 -0.5786 -1.5503 -0.1797
 8544TIP3    H247048   3.766   0.187   5.447  0.9883 -0.5819 -4.0676
 8545TIP3   OH247049   1.397   6.380   5.227  0.2622  0.0874  0.1760
 8545TIP3    H147050   1.312   6.377   5.271 -0.0523 -0.1282 -0.4330
 8545TIP3    H247051   1.400   6.298   5.176  0.8316  0.0974  0.1932
 8546TIP3   OH247052   0.439   3.130   3.296 -0.2349  0.0673  0.3429
 8546TIP3    H147053   0.439   3.226   3.304 -0.3737  0.1087 -0.1236
 8546TIP3    H247054   0.484   3.100   3.375 -0.1515  0.5203  0.4738
 8547TIP3   OH247055   6.636   5.793   0.537  0.4742  0.3564  0.9082
 8547TIP3    H147056   6.696   5.795   0.462  0.2785  3.8673  0.6683
 8547TIP3    H247057   6.693   5.795   0.614  0.6612 -0.0502  0.7817
 8548TIP3   OH247058   3.462   1.285  15.500 -0.4549 -0.1377  0.3570
 8548TIP3    H147059   3.408   1.248  15.570 -0.3717 -2.4263 -0.7036
 8548TIP3    H247060   3.548   1.296  15.541 -0.8185  0.2018  1.0639
 8549TIP3   OH247061   0.639   4.435  11.851 -0.2290  0.3503  0.1144
 8549TIP3    H147062   0.556   4.458  11.894 -0.0793  2.6086 -0.6527
 8549TIP3    H247063   0.680   4.372  11.909 -1.4102  0.9989  1.7167
 8550TIP3   OH247064   1.939   0.179   3.069 -1.0054  0.5629 -0.4475
 8550TIP3    H147065   1.967   0.096   3.108 -3.2600  0.2281  0.6211
 8550TIP3    H247066   1.897   0.155   2.987 -0.9931  0.7449 -0.5091
 8551TIP3   OH247067   3.975   1.069   3.053 -0.1220  0.3712  0.4568
 8551TIP3    H147068   4.012   1.143   3.101 -0.5048  1.0084 -0.2123
 8551TIP3    H247069   4.000   1.085   2.962 -1.0795  0.2239  0.1571
 8552TIP3   OH247070   0.426   3.826  11.053  0.6457 -0.0853 -0.5429
 8552TIP3    H147071   0.349   3.786  11.094 -0.9350 -0.6632 -3.7643
 8552TIP3    H247072   0.500   3.778  11.090 -0.7587 -1.6746  0.3489
 8553TIP3   OH247073   3.717   4.721  16.408  0.3796  0.4174  0.1767
 8553TIP3    H147074   3.632   4.764  16.417  1.1983  2.1027  0.2576
 8553TIP3    H247075   3.697   4.628  16.409 -1.5295  0.7718 -0.3834
 8554TIP3   OH247076   5.861   0.518   5.875 -0.0430 -0.2287  0.1967
 8554TIP3    H147077   5.776   0.557   5.896  0.0307 -0.9936  2.0741
 8554TIP3    H247078   5.925   0.579   5.913  0.2463  0.0233 -0.6684
 8555TIP3   OH247079   3.828   6.504  16.041 -0.3343  0.0041  0.0571
 8555TIP3    H147080   3.806   6.594  16.066 -1.3890 -0.1646 -0.2046
 8555TIP3    H247081   3.887   6.473  16.109 -0.1476  0.8249  0.2733
 8556TIP3   OH247082   4.357   0.441  14.679  0.3397  0.1083  0.5460
 8556TIP3    H147083   4.381   0.442  14.772 -1.0108  1.4600  0.9309
 8556TIP3    H247084   4.426   0.491  14.636  1.5955 -1.5052  0.6086
 8557TIP3   OH247085   2.439   3.011   4.474  0.1332  0.2940  0.3611
 8557TIP3    H147086   2.430   2.919   4.500  0.9595 -0.5860 -2.1745
 8557TIP3    H247087   2.428   3.010   4.379 -1.9960  3.1591  0.4481
 8558TIP3   OH247088   4.549   5.930   5.338 -0.0922  0.5034  0.0505
 8558TIP3    H147089   4.516   6.020   5.335  1.3890  1.0505 -1.3665
 8558TIP3    H247090   4.613   5.931   5.410 -1.2652  0.1057  1.1357
 8559TIP3   OH247091   2.862   2.921  14.775 -0.4026 -0.0582  0.4476
 8559TIP3    H147092   2.823   2.926  14.862 -0.4688  1.4811  0.3499
 8559TIP3    H247093   2.926   2.992  14.773  1.1115 -1.3639 -0.0525
 8560TIP3   OH247094   4.320   2.091  12.633 -0.3567 -0.3641  0.2899
 8560TIP3    H147095   4.353   2.177  12.609 -1.3442  0.4900  1.8191
 8560TIP3    H247096   4.397   2.044  12.665  0.3632 -0.4107 -1.4220
 8561TIP3   OH247097   3.108   6.556  14.512 -0.4568  0.3984 -0.4054
 8561TIP3    H147098   3.017   6.554  14.541  0.3093  0.3295  2.1963
 8561TIP3    H247099   3.105   6.522  14.422 -2.9797  0.4996 -0.4332
 8562TIP3   OH247100   0.142   3.503  14.501 -0.1027  0.4092  0.2617
 8562TIP3    H147101   0.121   3.570  14.436  0.3145 -0.3348 -0.6698
 8562TIP3    H247102   0.073   3.437  14.490 -2.3967  2.0576  3.3331
 8563TIP3   OH247103   2.704   3.765  14.716 -0.5875  0.0357 -0.5795
 8563TIP3    H147104   2.718   3.708  14.791  1.5924  0.1937 -0.8022
 8563TIP3    H247105   2.713   3.854  14.751 -0.7571  0.1511 -0.8217
 8564TIP3   OH247106   3.894   5.918  16.943 -0.8099  0.0135  0.1597
 8564TIP3    H147107   3.962   5.930  17.009 -0.7495 -1.0327  0.3096
 8564TIP3    H247108   3.857   6.005  16.930 -0.8163  0.2452  1.5652
 8565TIP3   OH247109   1.672   4.564   4.565  0.4356 -0.2598  0.5306
 8565TIP3    H147110   1.653   4.540   4.656  0.0189  4.3664  1.9186
 8565TIP3    H247111   1.605   4.628   4.542  2.8315  1.7447 -1.5354
 8566TIP3   OH247112   6.390   3.757  13.438  0.0354  0.5319 -0.0808
 8566TIP3    H147113   6.479   3.776  13.408 -0.0351  2.3130  0.6921
 8566TIP3    H247114   6.402   3.708  13.519  0.3017  0.1533 -0.3469
 8567TIP3   OH247115   3.076   0.458  16.437 -0.1214 -0.7737  0.3189
 8567TIP3    H147116   3.089   0.397  16.510  0.8332 -1.8360 -0.7027
 8567TIP3    H247117   3.081   0.544  16.478  0.9776 -1.3290  1.4321
 8568TIP3   OH247118   3.688   1.073   3.038 -0.3368  0.1289 -0.8067
 8568TIP3    H147119   3.739   0.993   3.022 -1.2146 -0.3202 -1.3806
 8568TIP3    H247120   3.598   1.043   3.048 -0.4132  0.8109  1.1093
 8569TIP3   OH247121   3.892   5.062   5.976 -0.4085  0.1292 -0.7427
 8569TIP3    H147122   3.975   5.024   5.945 -0.5118 -1.5821  0.9382
 8569TIP3    H247123   3.858   4.998   6.039 -1.6793  2.0468  0.6153
 8570TIP3   OH247124   5.687   0.027  12.616  0.3029 -0.6069  0.1713
 8570TIP3    H147125   5.683   0.064  12.528  1.1919  0.8585  0.7247
 8570TIP3    H247126   5.607  -0.026  12.623 -0.2262 -0.0359 -1.1975
 8571TIP3   OH247127   2.666   3.189  12.543  1.0341  0.5062 -0.2803
 8571TIP3    H147128   2.612   3.242  12.602  1.3201  1.3949 -0.7837
 8571TIP3    H247129   2.755   3.198  12.577  1.7985  3.7905 -2.6007
 8572TIP3   OH247130   5.943   2.021  12.424  0.1114  0.5307  0.0547
 8572TIP3    H147131   5.987   2.019  12.339 -0.8389  0.6275 -0.4465
 8572TIP3    H247132   5.985   2.095  12.470  1.7784 -0.5287  0.3373
 8573TIP3   OH247133   1.598   0.771   1.681  0.7129 -0.3722  0.0153
 8573TIP3    H147134   1.594   0.861   1.713 -1.7460  0.1573 -1.5241
 8573TIP3    H247135   1.518   0.731   1.715  1.2359 -1.6711 -0.2418
 8574TIP3   OH247136   4.010   4.083   3.501 -0.4009  0.1699 -0.1226
 8574TIP3    H147137   4.092   4.126   3.527 -1.7010  0.5734  4.0751
 8574TIP3    H247138   4.032   3.990   3.498  0.5949  0.4131 -1.0202
 8575TIP3   OH247139   6.444   4.152  16.809  0.6372  0.0341 -0.2720
 8575TIP3    H147140   6.400   4.146  16.724 -0.1074  0.2066  0.0949
 8575TIP3    H247141   6.377   4.127  16.873  1.1477  0.0467  0.2750
 8576TIP3   OH247142   0.016   2.848  14.219  0.1223 -0.7345  0.6362
 8576TIP3    H147143  -0.016   2.907  14.286  0.5816  0.0791  0.1479
 8576TIP3    H247144   0.094   2.807  14.258  0.1793 -0.5324  0.7345
 8577TIP3   OH247145   2.135   6.081   4.876  0.3940 -0.3938  0.5919
 8577TIP3    H147146   2.194   6.063   4.803  1.6313  1.9711  0.8976
 8577TIP3    H247147   2.047   6.080   4.837  0.7852 -1.7711 -0.3384
 8578TIP3   OH247148   0.908   3.205   4.964 -0.7996  0.2489 -0.2060
 8578TIP3    H147149   0.838   3.231   5.024  0.6211  0.0368  1.6397
 8578TIP3    H247150   0.904   3.110   4.963  1.0600  0.0518  2.0796
 8579TIP3   OH247151   0.861   2.814   3.824  0.2925 -0.3164  0.6589
 8579TIP3    H147152   0.858   2.733   3.773 -0.7138  0.1145  0.0190
 8579TIP3    H247153   0.937   2.803   3.882 -0.3727 -2.1171  1.2527
 8580TIP3   OH247154   3.466   0.809  10.754 -0.2918 -0.1740  0.2572
 8580TIP3    H147155   3.457   0.717  10.779 -1.1096  0.1934  1.3915
 8580TIP3    H247156   3.413   0.816  10.674  1.6609 -1.1657 -1.2078
 8581TIP3   OH247157   4.452   2.805  14.259  0.7307 -0.2214  0.1353
 8581TIP3    H147158   4.491   2.856  14.329  1.6872  0.5226 -0.8951
 8581TIP3    H247159   4.441   2.867  14.187 -2.4894 -0.3506  0.3583
 8582TIP3   OH247160   5.094   5.363  16.061 -0.2228  0.3054 -0.1794
 8582TIP3    H147161   5.182   5.388  16.089  0.3930  1.6161 -2.9351
 8582TIP3    H247162   5.099   5.268  16.048  0.4162  0.1907  0.8597
 8583TIP3   OH247163   5.372   1.478  13.997  0.0951  0.4357  0.4608
 8583TIP3    H147164   5.381   1.453  13.905 -0.2045  1.5252  0.1225
 8583TIP3    H247165   5.453   1.526  14.016 -0.6258  1.7887  0.2229
 8584TIP3   OH247166   0.549   4.655  16.345 -0.1116  0.1136  0.3793
 8584TIP3    H147167   0.594   4.601  16.280  0.9217  0.8618  0.4435
 8584TIP3    H247168   0.610   4.660  16.418  0.5600  2.6383 -0.2514
 8585TIP3   OH247169   4.278   6.299  11.781 -0.1145 -0.3857  0.0787
 8585TIP3    H147170   4.243   6.210  11.786  0.2549 -0.6111 -1.1388
 8585TIP3    H247171   4.211   6.353  11.824 -0.8366 -1.1111 -0.0998
 8586TIP3   OH247172   3.043   6.321  12.151  0.0313 -0.2198  0.5856
 8586TIP3    H147173   3.125   6.278  12.174  1.3103  1.5513 -0.4390
 8586TIP3    H247174   2.982   6.249  12.133  1.9312 -1.5995 -0.6721
 8587TIP3   OH247175   5.577   1.913   4.447  0.7751 -0.2457  0.3043
 8587TIP3    H147176   5.671   1.933   4.444  0.7350 -0.1646 -1.8760
 8587TIP3    H247177   5.568   1.854   4.521  2.3527  0.6335  1.2703
 8588TIP3   OH247178   1.315   6.586   5.882 -0.2401 -0.0711 -0.3886
 8588TIP3    H147179   1.265   6.540   5.815  0.8280 -1.0478 -0.5390
 8588TIP3    H247180   1.260   6.581   5.961 -0.7789 -0.3314 -0.7776
 8589TIP3   OH247181   2.827   4.804   0.178 -0.1310 -0.0834  0.2063
 8589TIP3    H147182   2.744   4.810   0.225 -0.5750  1.8805 -0.7491
 8589TIP3    H247183   2.893   4.825   0.243 -0.4639 -0.4890  0.6852
 8590TIP3   OH247184   4.223   3.714   0.583 -0.2363  0.2866  0.3008
 8590TIP3    H147185   4.302   3.726   0.637 -0.0335 -1.0444  0.3230
 8590TIP3    H247186   4.161   3.669   0.640 -1.4449  2.2394  0.6306
 8591TIP3   OH247187   5.359   6.369  12.917 -0.4893 -0.4334  0.1465
 8591TIP3    H147188   5.342   6.331  12.832  0.2060 -0.2853 -0.0678
 8591TIP3    H247189   5.362   6.295  12.977  4.3812 -1.3050 -0.7811
 8592TIP3   OH247190   6.697   5.036   2.130  0.0865 -0.1225  0.3452
 8592TIP3    H147191   6.736   5.053   2.045 -1.1497  0.4879 -0.1247
 8592TIP3    H247192   6.693   5.122   2.172 -2.6024  0.2306 -0.4616
 8593TIP3   OH247193   6.264   2.234   4.497  0.7838 -0.2083 -0.1344
 8593TIP3    H147194   6.231   2.150   4.466 -0.9244  0.6606 -0.7888
 8593TIP3    H247195   6.191   2.271   4.548  1.4808  0.9063  0.0905
 8594TIP3   OH247196   0.920   1.069   1.116 -0.3595  0.3157 -0.1752
 8594TIP3    H147197   0.925   1.099   1.206 -1.5092 -0.1663  0.0638
 8594TIP3    H247198   0.826   1.062   1.098 -0.1815 -2.3799 -0.4405
 8595TIP3   OH247199   6.036   5.306  15.730  0.4143  0.2146  0.1551
 8595TIP3    H147200   6.013   5.397  15.747  0.4845  0.7611 -2.2962
 8595TIP3    H247201   5.997   5.258  15.803 -1.5456  1.9694  0.3772
 8596TIP3   OH247202   5.006   2.075   6.236 -0.1254 -0.1664 -0.0221
 8596TIP3    H147203   4.931   2.112   6.283  0.1069  0.0393  0.1897
 8596TIP3    H247204   5.066   2.046   6.305  0.0237 -0.2583 -0.1908
 8597TIP3   OH247205   4.401   0.438   4.579  0.1253  0.3945  0.3256
 8597TIP3    H147206   4.320   0.401   4.614  0.8167  0.1734  1.7813
 8597TIP3    H247207   4.440   0.486   4.653  1.8141 -0.3460 -0.0286
 8598TIP3   OH247208   1.873   1.833   3.252  0.4456 -0.5112  0.6747
 8598TIP3    H147209   1.957   1.787   3.254  0.0850 -1.1737  1.0509
 8598TIP3    H247210   1.809   1.765   3.233 -0.0587 -0.0878  0.8289
 8599TIP3   OH247211   1.723   2.195   0.581 -0.4466  0.3366 -0.2695
 8599TIP3    H147212   1.691   2.107   0.563  1.0455 -0.3416  0.2580
 8599TIP3    H247213   1.674   2.223   0.659 -0.9549  0.0028 -0.4672
 8600TIP3   OH247214   4.258   3.056   4.794 -0.1325  0.0627 -0.1785
 8600TIP3    H147215   4.262   3.151   4.777 -0.1895 -0.1864 -1.6588
 8600TIP3    H247216   4.204   3.021   4.724  0.7531 -1.2164 -0.2520
 8601TIP3   OH247217   0.322   0.136   1.304  0.2147 -0.1358  0.2523
 8601TIP3    H147218   0.394   0.076   1.328  0.7238  0.3078 -0.1435
 8601TIP3    H247219   0.316   0.129   1.209  1.4112  1.6797  0.0014
 8602TIP3   OH247220   0.526   1.009  13.168 -0.0811  0.2879 -0.2386
 8602TIP3    H147221   0.544   1.027  13.076  1.5900 -1.6388 -0.3504
 8602TIP3    H247222   0.581   1.070  13.216 -2.0064  2.2974 -0.4079
 8603TIP3   OH247223   1.261   5.850  10.240 -0.0045  0.0266 -0.1635
 8603TIP3    H147224   1.242   5.933  10.283 -2.2775 -1.0770  1.1148
 8603TIP3    H247225   1.351   5.830  10.267 -0.2428  0.9422  1.4562
 8604TIP3   OH247226   1.603   3.989   0.577  0.4830  0.0002 -0.2105
 8604TIP3    H147227   1.689   3.948   0.573 -0.3895 -1.9517 -0.0142
 8604TIP3    H247228   1.556   3.939   0.643 -0.9443  0.7705 -0.6038
 8605TIP3   OH247229   5.815   0.407  16.899  0.5652  0.1158  0.1479
 8605TIP3    H147230   5.824   0.499  16.877 -0.2137  0.0329 -0.5571
 8605TIP3    H247231   5.769   0.368  16.824 -1.1988 -0.3892  1.4347
 8606TIP3   OH247232   2.130   4.695  14.510 -0.1608 -0.8301  0.2559
 8606TIP3    H147233   2.172   4.691  14.424  2.0954 -0.2714  1.2586
 8606TIP3    H247234   2.179   4.762  14.558 -3.9621  2.0114  0.6957
 8607TIP3   OH247235   5.508   1.249   5.287 -0.8789 -0.1954  0.0446
 8607TIP3    H147236   5.586   1.291   5.323  0.1233  0.6893 -2.9205
 8607TIP3    H247237   5.542   1.170   5.243 -1.6035  0.2218 -1.3118
 8608TIP3   OH247238   4.174   2.175  15.446 -0.2020  0.2692 -0.1871
 8608TIP3    H147239   4.249   2.124  15.417 -0.2350 -0.4372  0.9241
 8608TIP3    H247240   4.179   2.256  15.395  0.3567 -0.4556 -1.3237
 8609TIP3   OH247241   0.417   6.145   4.697 -0.1478  0.0405 -0.4900
 8609TIP3    H147242   0.396   6.178   4.609  1.6120  0.5906 -0.7451
 8609TIP3    H247243   0.435   6.224   4.748 -1.5542 -0.2493  0.5109
 8610TIP3   OH247244   2.187   0.494   5.546  0.2984 -0.2598 -0.1238
 8610TIP3    H147245   2.173   0.518   5.454 -1.1345 -0.5689 -0.0197
 8610TIP3    H247246   2.237   0.413   5.541  1.5850  0.5407 -0.5756
 8611TIP3   OH247247   4.844   3.765  12.909 -0.0745 -0.6810 -0.1645
 8611TIP3    H147248   4.769   3.706  12.923 -0.7052  0.2773  0.6812
 8611TIP3    H247249   4.839   3.788  12.816 -1.7955  0.5852  0.1954
 8612TIP3   OH247250   5.194   1.953  14.081  0.9924 -0.1734  0.5060
 8612TIP3    H147251   5.174   1.964  13.988  1.4970  2.4843  0.6176
 8612TIP3    H247252   5.268   1.891  14.082  0.2094 -1.1819 -0.7263
 8613TIP3   OH247253   1.224   0.916  14.563 -0.5706  0.2439  0.0866
 8613TIP3    H147254   1.169   0.852  14.609  0.6522 -1.0776 -0.2403
 8613TIP3    H247255   1.281   0.952  14.631 -1.3397  1.1342  0.2947
 8614TIP3   OH247256   1.837   3.044   3.637 -0.3269  0.3265 -0.1987
 8614TIP3    H147257   1.873   3.078   3.556 -0.9122  1.3866 -0.0445
 8614TIP3    H247258   1.750   3.084   3.643  0.2950  1.5328  1.6992
 8615TIP3   OH247259   4.973   4.934  15.043  0.1074  0.5357  0.1364
 8615TIP3    H147260   4.983   5.013  14.990 -0.5363  0.9015  0.5564
 8615TIP3    H247261   5.016   4.956  15.126  0.5887  0.1729 -0.0100
 8616TIP3   OH247262   2.923   6.259  15.219 -0.0710 -0.5345 -0.4700
 8616TIP3    H147263   2.830   6.244  15.205 -0.0777  0.6100 -1.9392
 8616TIP3    H247264   2.936   6.246  15.313 -1.4580 -1.8854 -0.4255
 8617TIP3   OH247265   5.740   0.307  11.616  0.6136  0.0460  0.5080
 8617TIP3    H147266   5.756   0.330  11.524  2.7307  0.1051  0.8326
 8617TIP3    H247267   5.706   0.388  11.655 -1.1970 -0.2339 -0.3623
 8618TIP3   OH247268   1.817   5.050  11.344  1.0565 -0.4446  0.2021
 8618TIP3    H147269   1.842   5.052  11.252  0.9675 -2.1627  0.1024
 8618TIP3    H247270   1.900   5.046  11.391  1.0810 -1.0027  0.1181
 8619TIP3   OH247271   2.373   1.662   6.694  0.5510  0.5246 -0.3666
 8619TIP3    H147272   2.284   1.682   6.663  0.5900 -1.2179 -1.7470
 8619TIP3    H247273   2.428   1.729   6.654  0.0338  0.7807 -0.6549
 8620TIP3   OH247274   6.594   2.447   5.696  0.6780 -0.0151  0.0043
 8620TIP3    H147275   6.517   2.417   5.648 -0.1377  2.4356 -0.3145
 8620TIP3    H247276   6.563   2.461   5.785  1.4750 -1.6141  0.5911
 8621TIP3   OH247277   6.702   3.112   3.111 -0.1161  0.7116 -0.1055
 8621TIP3    H147278   6.751   3.129   3.031  0.1176 -0.8202 -0.3273
 8621TIP3    H247279   6.767   3.116   3.181  0.0376  0.2525 -0.2166
 8622TIP3   OH247280   6.097   5.835  15.193  0.3787  0.1592 -0.6509
 8622TIP3    H147281   6.033   5.801  15.255 -1.2702  0.8103 -1.9185
 8622TIP3    H247282   6.157   5.762  15.179  3.1297  1.0107  4.3711
 8623TIP3   OH247283   1.539   1.766  11.772  0.1549  0.1985  0.3894
 8623TIP3    H147284   1.502   1.854  11.769  0.2774  0.2360 -0.6090
 8623TIP3    H247285   1.476   1.716  11.824  0.2766  0.9521  1.2815
 8624TIP3   OH247286   3.241   3.541   3.806 -0.4044  0.1564 -0.4438
 8624TIP3    H147287   3.292   3.595   3.866  1.1869 -0.9038 -0.7685
 8624TIP3    H247288   3.233   3.593   3.726  1.0609 -0.0301 -0.7319
 8625TIP3   OH247289   3.846   2.210   5.311  0.4225  0.2494 -0.4268
 8625TIP3    H147290   3.757   2.176   5.313  0.2358  0.7560  0.2232
 8625TIP3    H247291   3.861   2.233   5.220  0.6571 -1.7878 -0.9666
 8626TIP3   OH247292   2.142   6.716   0.394 -0.1087  0.3999 -0.6330
 8626TIP3    H147293   2.094   6.634   0.384  0.4172 -0.1797  1.1113
 8626TIP3    H247294   2.233   6.693   0.373 -0.1395  0.8279 -1.2581
 8627TIP3   OH247295   2.467   2.177  16.245 -0.4163 -1.3243 -0.6127
 8627TIP3    H147296   2.452   2.123  16.323  1.9939 -0.6630  0.4254
 8627TIP3    H247297   2.553   2.149  16.213  1.0972  1.9534  0.1446
 8628TIP3   OH247298   4.160   5.736  11.418  0.3222  0.4902  0.4761
 8628TIP3    H147299   4.200   5.684  11.488  1.5463 -1.4344 -1.5203
 8628TIP3    H247300   4.066   5.731  11.435  0.4681 -1.6127  0.9331
 8629TIP3   OH247301   2.348   1.624  13.142  0.7277  0.0278 -0.8585
 8629TIP3    H147302   2.369   1.573  13.063  0.8338 -0.2832 -0.6318
 8629TIP3    H247303   2.334   1.713  13.110  1.5826  0.0793 -1.1259
 8630TIP3   OH247304   0.038   2.442   2.752 -0.1969  0.4298  0.3614
 8630TIP3    H147305   0.021   2.437   2.846 -0.3572  1.3561  0.3872
 8630TIP3    H247306  -0.047   2.427   2.711 -0.1219 -0.0023  0.3565
 8631TIP3   OH247307   3.643   1.431  12.912 -0.0011  0.4136  0.2254
 8631TIP3    H147308   3.696   1.477  12.977  1.0531 -0.0916 -0.2346
 8631TIP3    H247309   3.695   1.353  12.890  0.3582  1.2592 -2.2348
 8632TIP3   OH247310   4.467   3.559  13.526  0.6233  0.2970 -0.8103
 8632TIP3    H147311   4.518   3.490  13.482 -0.7087 -1.5206  0.3427
 8632TIP3    H247312   4.390   3.513  13.560 -1.7874  2.8717 -2.3591
 8633TIP3   OH247313   4.968   5.940   0.107 -0.0946 -0.0765 -0.5754
 8633TIP3    H147314   4.932   5.852   0.115  2.7374 -1.3348 -0.3370
 8633TIP3    H247315   4.991   5.948   0.014 -0.9490  0.7093 -0.7311
 8634TIP3   OH247316   1.205   6.499   0.971 -0.1733 -0.1668  0.0853
 8634TIP3    H147317   1.295   6.528   0.988 -0.5247  0.1411  1.5317
 8634TIP3    H247318   1.187   6.528   0.882  0.0102  2.8115  0.9344
 8635TIP3   OH247319   0.720   0.062   3.342 -0.4721  0.1087  0.1248
 8635TIP3    H147320   0.658   0.086   3.273  0.2005 -0.0683 -0.5577
 8635TIP3    H247321   0.713  -0.033   3.349 -1.4880  0.2419  1.2383
 8636TIP3   OH247322   4.275   2.835   3.814 -0.0680 -0.0593  0.2555
 8636TIP3    H147323   4.355   2.846   3.866  0.7713 -0.8365 -0.8230
 8636TIP3    H247324   4.278   2.906   3.750  0.4630 -0.8537 -0.6296
 8637TIP3   OH247325   0.146   5.067   3.842 -0.0983 -0.1842 -0.2664
 8637TIP3    H147326   0.089   5.065   3.765  0.2445  0.8282 -0.5714
 8637TIP3    H247327   0.088   5.097   3.913 -0.1983 -0.1969 -0.3419
 8638TIP3   OH247328   5.214   6.581   3.553  0.3481 -0.2056 -0.1150
 8638TIP3    H147329   5.208   6.675   3.537 -0.1492  0.0290  1.2710
 8638TIP3    H247330   5.289   6.572   3.612 -0.1821 -0.5500  0.5234
 8639TIP3   OH247331   5.195   2.880   6.412  0.6729 -0.2467 -0.6699
 8639TIP3    H147332   5.233   2.799   6.444 -0.1552 -0.0558  0.9220
 8639TIP3    H247333   5.270   2.934   6.387  1.2596 -1.2124 -1.0486
 8640TIP3   OH247334   2.997   3.134  16.571  0.3271  0.0500  0.3430
 8640TIP3    H147335   3.052   3.074  16.520  0.3174 -0.9610  1.4834
 8640TIP3    H247336   2.908   3.099  16.561 -0.0492  1.2660 -0.9058
 8641TIP3   OH247337   2.998   3.846  13.872  0.3435  0.2386 -0.0683
 8641TIP3    H147338   3.063   3.887  13.929  1.8503  0.3173 -1.7596
 8641TIP3    H247339   3.050   3.803  13.803 -1.3074 -1.6204 -0.2563
 8642TIP3   OH247340   1.526   1.886   0.179  0.4513 -0.2120  0.1503
 8642TIP3    H147341   1.518   1.798   0.142  0.9174 -0.7995  1.3934
 8642TIP3    H247342   1.451   1.934   0.144  1.3631 -0.4374 -2.2692
 8643TIP3   OH247343   1.126   6.477  12.689 -0.0578 -1.0815  0.6242
 8643TIP3    H147344   1.143   6.383  12.701  0.3137 -1.2298 -0.8033
 8643TIP3    H247345   1.035   6.480  12.659  0.5825 -1.2285 -1.4955
 8644TIP3   OH247346   4.746   5.625  14.493 -0.1846  0.4891 -0.1548
 8644TIP3    H147347   4.705   5.579  14.566 -2.2128  1.3829 -0.6602
 8644TIP3    H247348   4.785   5.703  14.532 -0.8355  0.7120  0.0684
 8645TIP3   OH247349   4.335   3.350   0.540 -0.0568  0.8266  0.0614
 8645TIP3    H147350   4.272   3.294   0.586  0.2185 -1.6382 -2.3245
 8645TIP3    H247351   4.407   3.361   0.602 -0.2593 -1.2826  0.7442
 8646TIP3   OH247352   2.360   0.067  13.711  0.1109  0.0179 -0.1875
 8646TIP3    H147353   2.322   0.155  13.712  0.7600  0.3330 -1.5359
 8646TIP3    H247354   2.454   0.081  13.713  0.2176 -0.6649 -0.2232
 8647TIP3   OH247355   0.061   0.972  16.222  0.0158 -0.0665 -0.4505
 8647TIP3    H147356   0.118   1.013  16.157 -2.2921  0.4203 -2.3321
 8647TIP3    H247357   0.084   0.880  16.221  0.5329  0.0642 -1.4182
 8648TIP3   OH247358   3.592   6.732  16.502  0.3114  0.3455 -0.6431
 8648TIP3    H147359   3.626   6.797  16.563  0.8985 -0.8320  0.3255
 8648TIP3    H247360   3.579   6.653  16.555 -0.2807 -0.3764 -1.8034
 8649TIP3   OH247361   0.214   4.087  11.874  0.3986  0.2793 -0.1244
 8649TIP3    H147362   0.139   4.027  11.879  0.4460  0.2975  1.3569
 8649TIP3    H247363   0.183   4.167  11.915  0.9195  0.6255 -0.4054
 8650TIP3   OH247364   3.850   6.162   2.637  0.6406  0.7869 -0.0204
 8650TIP3    H147365   3.867   6.113   2.556  1.1886 -0.3209  0.7443
 8650TIP3    H247366   3.937   6.181   2.673  0.3846  0.3848  0.8254
 8651TIP3   OH247367   2.692   1.967  15.035  0.0128 -0.5354  0.5394
 8651TIP3    H147368   2.672   1.933  15.122 -0.2014 -2.1308 -0.0946
 8651TIP3    H247369   2.783   1.998  15.041 -0.3543  0.3849  1.6015
 8652TIP3   OH247370   4.426   3.810   1.204 -0.0298  0.3857 -0.4877
 8652TIP3    H147371   4.416   3.808   1.300  0.4838 -0.0131 -0.4419
 8652TIP3    H247372   4.391   3.896   1.179  1.1204  1.0757  0.2093
 8653TIP3   OH247373   0.800   1.660  11.636 -0.2012  0.0195  0.4183
 8653TIP3    H147374   0.886   1.700  11.623 -0.3952  1.7385  3.3718
 8653TIP3    H247375   0.748   1.688  11.560  1.2837  0.6520 -0.3985
 8654TIP3   OH247376   1.438   5.133  14.021 -0.0086 -0.3328  0.0748
 8654TIP3    H147377   1.514   5.190  14.028  1.2655 -1.9748  0.1652
 8654TIP3    H247378   1.406   5.146  13.932 -0.2688  1.1263  0.3619
 8655TIP3   OH247379   0.139   4.324  12.008  0.1465  0.4721  0.3072
 8655TIP3    H147380   0.048   4.302  11.990  0.3932 -0.9147  0.6248
 8655TIP3    H247381   0.138   4.417  12.027 -1.2868  0.3765  0.8051
 8656TIP3   OH247382   3.341   4.247   4.983  0.2078 -0.2530 -0.1004
 8656TIP3    H147383   3.398   4.270   5.056  0.4562  0.0324 -0.3772
 8656TIP3    H247384   3.281   4.321   4.975 -1.3649 -1.3212  1.3027
 8657TIP3   OH247385   5.387   3.244  16.444  0.0697 -0.5248 -0.2085
 8657TIP3    H147386   5.387   3.246  16.539  1.4458 -1.3013 -0.1701
 8657TIP3    H247387   5.294   3.240  16.420 -0.2621 -1.1389  1.1179
 8658TIP3   OH247388   2.273   2.146  13.279  0.2266  0.0251  0.2743
 8658TIP3    H147389   2.186   2.109  13.266 -0.0778  1.4015 -2.2583
 8658TIP3    H247390   2.331   2.069  13.282 -0.8935 -0.8447  0.4468
 8659TIP3   OH247391   5.309   0.068   4.349  0.4768  0.1087  0.7537
 8659TIP3    H147392   5.312   0.164   4.351  0.7233  0.1033  0.7039
 8659TIP3    H247393   5.317   0.042   4.441 -1.5682  0.1793  0.9920
 8660TIP3   OH247394   1.916   1.758   2.674  1.1058  0.1690 -0.2821
 8660TIP3    H147395   1.861   1.835   2.663  0.1522 -0.3079  0.8880
 8660TIP3    H247396   1.960   1.748   2.590 -0.6186  0.5657 -1.2885
 8661TIP3   OH247397   1.436   2.631   0.232  0.1583 -0.0080  0.4113
 8661TIP3    H147398   1.531   2.641   0.235  0.4648 -1.1607 -2.2111
 8661TIP3    H247399   1.404   2.670   0.313  2.8284  0.7671  1.1659
 8662TIP3   OH247400   6.170   3.791   1.992 -0.1700 -0.5032 -0.5248
 8662TIP3    H147401   6.154   3.696   1.993  0.4384 -0.6090 -0.5923
 8662TIP3    H247402   6.249   3.802   2.045 -0.5815  0.0353 -0.0176
 8663TIP3   OH247403   3.929   5.701  16.806 -0.1689  0.4172 -0.3879
 8663TIP3    H147404   3.850   5.686  16.754 -1.9961  1.2907  1.9542
 8663TIP3    H247405   3.911   5.781  16.855  1.5357 -0.2002  1.3806
 8664TIP3   OH247406   5.464   3.719   2.602  0.0440 -0.6647 -0.5510
 8664TIP3    H147407   5.393   3.703   2.665 -1.1730 -2.7789 -2.3151
 8664TIP3    H247408   5.476   3.635   2.557  3.2217 -0.1774 -0.8447
 8665TIP3   OH247409   3.452   4.995   2.651  0.6559  0.1986  0.3982
 8665TIP3    H147410   3.536   4.987   2.605  1.4689  0.6821  1.7324
 8665TIP3    H247411   3.471   5.052   2.725 -1.1638  1.3635  0.0362
 8666TIP3   OH247412   3.739   0.005  14.496  0.5514 -0.1513  0.0985
 8666TIP3    H147413   3.747  -0.061  14.565 -1.7890 -0.2357  0.3660
 8666TIP3    H247414   3.770  -0.039  14.417  0.8265 -0.9280  0.6235
 8667TIP3   OH247415   4.434   2.036  15.308 -0.3430 -1.3524 -0.2841
 8667TIP3    H147416   4.515   2.028  15.258  0.1308 -1.5565  0.5167
 8667TIP3    H247417   4.365   2.011  15.245  0.2298 -1.4942 -0.8676
 8668TIP3   OH247418   1.174   2.551   4.702 -0.4767 -0.0786 -0.4099
 8668TIP3    H147419   1.163   2.539   4.796 -1.6584 -1.1139 -0.6532
 8668TIP3    H247420   1.213   2.469   4.672 -0.1526  0.2281 -0.8401
 8669TIP3   OH247421   6.183   3.298  16.351 -0.3857 -0.0326  0.3732
 8669TIP3    H147422   6.190   3.243  16.273  4.4569  1.0403 -0.2971
 8669TIP3    H247423   6.159   3.385  16.316 -0.1258  0.0162  0.3102
 8670TIP3   OH247424   2.672   2.697   4.698  0.0247 -0.2895  0.0728
 8670TIP3    H147425   2.744   2.703   4.760 -0.1782 -0.5992  0.3336
 8670TIP3    H247426   2.702   2.750   4.623 -0.4544  1.5722  1.1240
 8671TIP3   OH247427   1.656   0.676   5.060 -0.0889 -0.3342  0.2982
 8671TIP3    H147428   1.560   0.673   5.063 -0.4398  0.1591 -4.2126
 8671TIP3    H247429   1.677   0.769   5.063 -0.0288 -0.2641 -1.4808
 8672TIP3   OH247430   1.788   1.921   4.601 -0.5060  0.2901  0.2307
 8672TIP3    H147431   1.876   1.931   4.637  0.2861 -0.5309 -1.3681
 8672TIP3    H247432   1.730   1.921   4.677  1.1582 -2.5224  1.6682
 8673TIP3   OH247433   4.422   0.458  10.527  0.3074  0.2845 -0.1189
 8673TIP3    H147434   4.396   0.538  10.482 -0.9631 -0.7101 -1.2316
 8673TIP3    H247435   4.339   0.414  10.546  1.0239 -1.2279 -0.4038
 8674TIP3   OH247436   6.637   2.495   2.245  0.2703 -0.9721 -0.3084
 8674TIP3    H147437   6.688   2.428   2.201 -0.5911  0.1212 -3.2394
 8674TIP3    H247438   6.654   2.575   2.194 -0.4754  0.5379  1.6756
 8675TIP3   OH247439   0.012   2.531  11.592 -0.0130  0.0240 -0.2274
 8675TIP3    H147440   0.091   2.512  11.541 -1.5978 -1.4596 -2.2858
 8675TIP3    H247441  -0.044   2.454  11.580 -2.3540  1.5864  0.0312
 8676TIP3   OH247442   6.522   5.250   2.498  0.0007  0.0531  0.1281
 8676TIP3    H147443   6.531   5.319   2.432  0.0718  0.9980  1.0974
 8676TIP3    H247444   6.476   5.292   2.571 -0.8008 -1.1912  0.3761
 8677TIP3   OH247445   4.947   1.152  12.096  0.1006  0.4406 -0.2939
 8677TIP3    H147446   4.862   1.133  12.056 -0.1762 -0.8973  0.8377
 8677TIP3    H247447   5.005   1.167  12.022 -0.2839 -2.4012 -1.3141
 8678TIP3   OH247448   2.616   1.084   2.838  0.1177  0.1277 -0.5350
 8678TIP3    H147449   2.525   1.107   2.817  0.2984  1.4431  0.0360
 8678TIP3    H247450   2.658   1.076   2.752 -1.0247 -2.8263 -0.9176
 8679TIP3   OH247451   3.041   3.746  13.618  0.2082 -0.2777  0.7692
 8679TIP3    H147452   2.957   3.791  13.613  1.0163  1.1416 -0.6529
 8679TIP3    H247453   3.018   3.653  13.623 -1.4345 -0.0518 -1.3001
 8680TIP3   OH247454   1.807   2.984  14.847  0.2765  0.1880 -0.2935
 8680TIP3    H147455   1.840   2.999  14.758 -0.8660  1.8218 -0.4723
 8680TIP3    H247456   1.881   3.007  14.903  0.6551  0.1952 -0.7822
 8681TIP3   OH247457   2.288   2.956   0.401  0.1204  0.1987 -0.1140
 8681TIP3    H147458   2.313   2.919   0.486 -1.8512 -1.7226 -0.2955
 8681TIP3    H247459   2.365   2.941   0.345  0.4731 -0.8992  0.6422
 8682TIP3   OH247460   6.021   5.159   4.897 -0.5353  0.4019 -0.0610
 8682TIP3    H147461   5.981   5.076   4.919  1.4055 -0.6352 -0.1748
 8682TIP3    H247462   6.009   5.167   4.802  2.2902 -1.6103 -0.7429
 8683TIP3   OH247463   4.396   1.424   4.439 -0.3878  0.1714 -0.8967
 8683TIP3    H147464   4.441   1.425   4.523  0.9654 -0.6671 -1.5839
 8683TIP3    H247465   4.450   1.480   4.382 -1.0334  0.3584 -1.3414
 8684TIP3   OH247466   2.706   5.470  13.495  0.3357  0.4392 -0.1806
 8684TIP3    H147467   2.670   5.558  13.490 -0.5138  0.2610  1.9302
 8684TIP3    H247468   2.681   5.438  13.581  2.2461 -1.1723 -0.1353
 8685TIP3   OH247469   0.675   0.578   5.870 -0.3235  0.4237  0.5254
 8685TIP3    H147470   0.624   0.501   5.845 -2.0136  1.4654  0.5613
 8685TIP3    H247471   0.724   0.551   5.947  2.0316 -1.7001 -1.5516
 8686TIP3   OH247472   2.895   2.360   1.661 -0.0600  0.0162  0.0054
 8686TIP3    H147473   2.846   2.439   1.638 -1.0341  0.0024  1.8690
 8686TIP3    H247474   2.921   2.373   1.752 -2.0973 -2.6577  1.1096
 8687TIP3   OH247475   5.188   6.459   3.959 -0.1321  0.4520 -0.1513
 8687TIP3    H147476   5.146   6.490   3.879  0.2349 -1.1368 -0.9948
 8687TIP3    H247477   5.189   6.364   3.950  0.3179  0.2624  1.5506
 8688TIP3   OH247478   3.510   1.270   1.499  0.4050  0.1814 -0.1523
 8688TIP3    H147479   3.479   1.360   1.508  0.2080  0.1668 -0.6463
 8688TIP3    H247480   3.457   1.233   1.428 -0.0093 -0.5501  0.5274
 8689TIP3   OH247481   1.299   3.985  17.119  0.0863  0.3047 -0.0853
 8689TIP3    H147482   1.381   3.978  17.070  0.3183  3.0567 -0.2498
 8689TIP3    H247483   1.321   3.953  17.207  0.6381 -1.2579 -0.7578
 8690TIP3   OH247484   5.066   6.590  13.745  0.0433  0.2429  0.5862
 8690TIP3    H147485   4.979   6.626  13.730  0.3244  0.6629 -0.0625
 8690TIP3    H247486   5.050   6.505  13.788 -0.8132 -0.9457 -1.8747
 8691TIP3   OH247487   6.437   0.683   5.887 -0.2758  0.2107 -0.6044
 8691TIP3    H147488   6.471   0.628   5.958  0.7441  1.4827 -0.0784
 8691TIP3    H247489   6.476   0.646   5.807  1.4237  0.8961 -0.1338
 8692TIP3   OH247490   6.463   6.290   4.004 -0.2717  0.0916 -0.6163
 8692TIP3    H147491   6.554   6.312   4.025 -0.2974  1.2664 -1.6450
 8692TIP3    H247492   6.463   6.195   3.991  0.8153  0.0943 -0.6692
 8693TIP3   OH247493   5.162   0.722  14.709  0.2350 -0.1297 -0.7986
 8693TIP3    H147494   5.205   0.675  14.637 -1.4389 -0.4637 -1.6249
 8693TIP3    H247495   5.120   0.797  14.668 -1.5027 -0.8078 -0.3749
 8694TIP3   OH247496   3.266   3.919  13.974  0.4477  0.9540 -0.3063
 8694TIP3    H147497   3.326   3.931  14.048  1.0364 -1.0930 -0.3849
 8694TIP3    H247498   3.271   4.001  13.926  1.2648  1.7497  1.0529
 8695TIP3   OH247499   5.277   5.132   3.223 -0.2246  0.6537 -0.4727
 8695TIP3    H147500   5.328   5.213   3.219  0.8662  0.1307  1.6494
 8695TIP3    H247501   5.286   5.102   3.314  0.6431 -2.6514 -1.5091
 8696TIP3   OH247502   0.101   5.133  11.272 -0.1099 -0.3749  0.0193
 8696TIP3    H147503   0.136   5.199  11.211 -1.1047  0.5618  0.4212
 8696TIP3    H247504   0.009   5.157  11.282 -0.4994 -1.8636  0.1661
 8697TIP3   OH247505   5.823   1.934   0.008  0.3831  0.2214 -0.0542
 8697TIP3    H147506   5.800   1.955  -0.083  0.2397  3.4948  0.6059
 8697TIP3    H247507   5.754   1.975   0.060 -0.4454 -2.9621  1.6000
 8698TIP3   OH247508   4.484   1.459  15.007  0.0665 -0.3273  0.4272
 8698TIP3    H147509   4.516   1.401  15.076  1.4945  0.0587  0.1143
 8698TIP3    H247510   4.463   1.400  14.935  1.5839 -0.4817  0.0858
 8699TIP3   OH247511   6.300   5.818  17.362  0.4968  0.4346  0.2335
 8699TIP3    H147512   6.291   5.724  17.346 -0.2146  0.2755  1.4693
 8699TIP3    H247513   6.392   5.830  17.382  0.8876  0.2448 -1.2912
 8700TIP3   OH247514   6.744   3.513   5.978  0.0696 -0.7764 -0.6748
 8700TIP3    H147515   6.699   3.470   5.905 -2.3633  2.4548 -1.3029
 8700TIP3    H247516   6.831   3.533   5.944  0.5139 -3.0903 -1.0810
 8701TIP3   OH247517   0.273   3.259  11.682  0.0356 -0.0764  0.4358
 8701TIP3    H147518   0.209   3.291  11.619 -0.9900  0.6883  1.8088
 8701TIP3    H247519   0.276   3.164  11.667 -0.4040  0.0481 -0.5313
 8702TIP3   OH247520   5.483   5.549  17.077  0.4240  0.0983 -0.3405
 8702TIP3    H147521   5.449   5.494  17.006 -0.6666 -0.1338  0.3254
 8702TIP3    H247522   5.406   5.566  17.132  1.5383 -1.3046  1.8077
 8703TIP3   OH247523   4.422   6.728  14.624  0.4531 -0.0579  0.4922
 8703TIP3    H147524   4.452   6.781  14.698  2.1556  0.2667 -0.3744
 8703TIP3    H247525   4.502   6.692  14.587  0.0401  1.9721 -2.8148
 8704TIP3   OH247526   2.938   0.920  17.017  0.0364 -0.3433 -0.1382
 8704TIP3    H147527   2.946   0.841  17.070  1.3682 -0.3348 -0.2995
 8704TIP3    H247528   2.909   0.889  16.931 -1.2418 -0.4462  0.3034
 8705TIP3   OH247529   0.434   0.707   1.616 -0.4784 -0.3535 -0.0771
 8705TIP3    H147530   0.375   0.762   1.667 -1.7990 -0.2321 -1.6312
 8705TIP3    H247531   0.393   0.620   1.618  0.0832 -0.6191  0.0397
 8706TIP3   OH247532   3.805   5.856  15.985 -0.3090  0.8239 -0.6958
 8706TIP3    H147533   3.758   5.938  15.970 -2.4089  0.3416  2.4125
 8706TIP3    H247534   3.897   5.882  15.994 -0.7095  2.5903 -1.3008
 8707TIP3   OH247535   0.650   6.222  12.576 -0.0567  0.1230  0.2975
 8707TIP3    H147536   0.741   6.200  12.557  0.0029 -0.5980  1.3291
 8707TIP3    H247537   0.656   6.284  12.649 -0.4236 -0.7577  1.0858
 8708TIP3   OH247538   2.947   5.183   5.703  0.2925  0.3239 -0.2774
 8708TIP3    H147539   2.936   5.263   5.651  0.8794 -0.4964 -1.7225
 8708TIP3    H247540   3.010   5.207   5.772 -0.9641  1.5969  0.4644
 8709TIP3   OH247541   5.539   2.457   0.511 -0.3063 -0.1542  0.0715
 8709TIP3    H147542   5.483   2.402   0.457  1.2849 -1.3205 -0.4888
 8709TIP3    H247543   5.484   2.531   0.536 -1.7124 -0.6412 -1.4150
 8710TIP3   OH247544   5.624   6.239  17.218 -0.2121  0.5653  0.5114
 8710TIP3    H147545   5.563   6.301  17.259 -0.5127  0.5271  0.1227
 8710TIP3    H247546   5.567   6.175  17.175  0.1083  0.5934  0.0506
 8711TIP3   OH247547   2.347   3.086   3.055  0.3214 -0.1798  0.0005
 8711TIP3    H147548   2.433   3.058   3.022 -0.5701 -1.4762 -1.3636
 8711TIP3    H247549   2.323   3.019   3.119  1.2198  1.3323  1.9993
 8712TIP3   OH247550   0.112   0.459  13.140  0.0990 -0.5713  0.2715
 8712TIP3    H147551   0.189   0.476  13.086  1.2762 -2.0967  1.3779
 8712TIP3    H247552   0.134   0.496  13.225 -1.4116  1.0940  0.0027
 8713TIP3   OH247553   3.150   1.977  13.039 -0.1558  0.1129 -0.1540
 8713TIP3    H147554   3.163   2.054  13.095 -2.5665  0.0690  0.5732
 8713TIP3    H247555   3.116   2.012  12.957 -0.7951 -0.1319  0.0031
 8714TIP3   OH247556   6.697   3.034  12.264  0.2435 -0.2164 -0.1577
 8714TIP3    H147557   6.653   3.078  12.337 -0.3699  1.6280 -1.5533
 8714TIP3    H247558   6.672   2.942  12.274 -0.3607  0.0817  1.5553
 8715TIP3   OH247559   0.743   2.347   5.562  0.0688 -0.1664  0.9107
 8715TIP3    H147560   0.799   2.296   5.504 -0.2613 -2.1150  2.2406
 8715TIP3    H247561   0.700   2.410   5.503  1.1670 -0.7715 -0.6243
 8716TIP3   OH247562   6.637   5.924   5.622 -0.0614 -0.2957  0.2961
 8716TIP3    H147563   6.626   5.961   5.710  4.6961  0.7920  0.7097
 8716TIP3    H247564   6.683   5.993   5.573  1.6587 -2.5927 -1.5220
 8717TIP3   OH247565   4.761   0.288   2.585 -0.2190 -0.1105  0.0478
 8717TIP3    H147566   4.821   0.218   2.560  0.6376  0.5857  0.0996
 8717TIP3    H247567   4.814   0.347   2.639 -0.5535  1.2565 -1.0504
 8718TIP3   OH247568   2.365   3.491   1.399  0.5342  0.8653 -0.2190
 8718TIP3    H147569   2.275   3.469   1.378  0.2814 -0.4466  1.9595
 8718TIP3    H247570   2.418   3.439   1.338 -0.1668  0.2258 -0.2878
 8719TIP3   OH247571   0.053   1.160   2.992 -0.2575 -0.0026 -0.6770
 8719TIP3    H147572   0.065   1.065   2.993  0.8693  0.1109  0.9256
 8719TIP3    H247573  -0.028   1.174   2.943 -0.0509 -1.7298 -1.5915
 8720TIP3   OH247574   4.401   1.512  15.716 -0.4114  0.0819  0.4847
 8720TIP3    H147575   4.496   1.522  15.723 -0.2816 -0.8104  0.2199
 8720TIP3    H247576   4.365   1.579  15.773  0.3677  0.8435  0.1023
 8721TIP3   OH247577   3.776   2.183  13.929  0.3766  0.0875  0.4759
 8721TIP3    H147578   3.868   2.189  13.955  1.1030  0.8120 -1.9993
 8721TIP3    H247579   3.727   2.210  14.007  2.3433  1.8497  1.1763
 8722TIP3   OH247580   0.338   6.460   4.081 -0.1359  0.2856  0.0666
 8722TIP3    H147581   0.307   6.372   4.057 -0.4817  0.8616 -1.7407
 8722TIP3    H247582   0.309   6.516   4.010  1.1100  1.6779  0.6003
 8723TIP3   OH247583   1.697   5.253   3.565 -0.2787 -0.5453 -0.3261
 8723TIP3    H147584   1.680   5.255   3.471  1.4953 -0.5613 -0.6802
 8723TIP3    H247585   1.766   5.187   3.575  2.1915  1.9514  0.4682
 8724TIP3   OH247586   4.046   4.186   0.414  0.6987 -0.2271 -0.2113
 8724TIP3    H147587   4.072   4.117   0.353 -1.9452 -1.8041  0.3217
 8724TIP3    H247588   3.977   4.234   0.367  1.8213  1.5304 -0.1854
 8725TIP3   OH247589   6.134   0.696   0.011 -0.1202 -0.4817  0.2266
 8725TIP3    H147590   6.227   0.688  -0.011 -0.2891 -0.1287 -0.6707
 8725TIP3    H247591   6.123   0.787   0.037 -0.0020 -0.8034  1.4239
 8726TIP3   OH247592   6.677   2.225  12.535 -0.2982  0.0129 -0.0465
 8726TIP3    H147593   6.645   2.263  12.454  0.3315  0.4567 -0.0879
 8726TIP3    H247594   6.716   2.298  12.583 -2.1359  0.1153  1.4232
 8727TIP3   OH247595   3.920   4.388  16.502 -0.2963 -1.1031  0.1669
 8727TIP3    H147596   3.929   4.480  16.526  0.2533 -0.8840 -0.8106
 8727TIP3    H247597   3.831   4.365  16.529 -1.4998  0.5164 -2.0410
 8728TIP3   OH247598   6.051   2.662   2.135  0.3206 -0.2744  0.4933
 8728TIP3    H147599   6.030   2.702   2.219 -2.6405  2.3299 -1.2959
 8728TIP3    H247600   6.114   2.722   2.095 -2.0457  1.2863 -1.0774
 8729TIP3   OH247601   0.233   5.885  16.114  0.2037  0.4479 -0.1693
 8729TIP3    H147602   0.211   5.802  16.070  0.1312  0.4906 -0.2142
 8729TIP3    H247603   0.149   5.919  16.145  0.5232 -0.8517  2.2998
 8730TIP3   OH247604   4.659   1.822  12.187  0.5045 -0.5601 -0.2017
 8730TIP3    H147605   4.691   1.768  12.259 -0.1433 -0.9479 -0.1979
 8730TIP3    H247606   4.575   1.856  12.218  0.2258 -0.7206 -0.7595
 8731TIP3   OH247607   3.187   4.823  11.432  0.5444  0.7844  0.0466
 8731TIP3    H147608   3.169   4.912  11.403 -0.6727 -0.1659 -2.4186
 8731TIP3    H247609   3.245   4.787  11.365 -0.5814 -0.8752 -0.0846
 8732TIP3   OH247610   4.771   0.342  14.825 -0.2480 -0.0305  0.0675
 8732TIP3    H147611   4.712   0.355  14.899 -0.2132 -1.5249  0.4040
 8732TIP3    H247612   4.857   0.365  14.859 -0.4381  0.7742  0.0146
 8733TIP3   OH247613   6.618   4.650   3.660  0.5306 -0.6801  0.2483
 8733TIP3    H147614   6.537   4.655   3.711  0.4432  1.0445  0.0007
 8733TIP3    H247615   6.686   4.634   3.725  0.0349 -1.9296  0.4834
 8734TIP3   OH247616   3.661   1.440  16.075 -0.1186  0.1622 -0.0818
 8734TIP3    H147617   3.704   1.523  16.096 -0.0020  0.0493  0.1289
 8734TIP3    H247618   3.626   1.453  15.987  1.9101 -0.3604 -1.0381
 8735TIP3   OH247619   0.108   4.890   3.355 -0.5743 -0.2065  0.1479
 8735TIP3    H147620   0.104   4.974   3.309 -2.8439  0.4574  1.4215
 8735TIP3    H247621   0.186   4.899   3.411 -0.6568  0.9693  0.1164
 8736TIP3   OH247622   4.243   4.520   5.980 -0.6166 -0.1094  0.3212
 8736TIP3    H147623   4.224   4.569   5.900  0.9089  0.7033  0.4351
 8736TIP3    H247624   4.285   4.583   6.038 -0.0451 -1.1517  1.0784
 8737TIP3   OH247625   5.184   6.502  17.386  0.0586 -0.3901 -0.0316
 8737TIP3    H147626   5.139   6.585  17.374  0.0982 -0.5310 -1.2394
 8737TIP3    H247627   5.173   6.482  17.479 -1.4714  0.0761 -0.0959
 8738TIP3   OH247628   6.686   3.800  11.626 -0.1426 -0.2784  0.3879
 8738TIP3    H147629   6.746   3.860  11.582  0.0093 -1.4170 -1.0540
 8738TIP3    H247630   6.740   3.757  11.692  0.6188 -1.0921 -0.7137
 8739TIP3   OH247631   3.438   0.111  15.915 -0.0481 -0.3781 -0.2849
 8739TIP3    H147632   3.365   0.049  15.918  0.4940 -0.9752  0.7106
 8739TIP3    H247633   3.405   0.183  15.861 -0.4102 -1.8561 -2.1332
 8740TIP3   OH247634   3.145   4.717   0.928  0.1358  0.0908 -0.5070
 8740TIP3    H147635   3.129   4.626   0.905 -1.2699  0.6072 -1.7888
 8740TIP3    H247636   3.202   4.714   1.005  2.4322 -1.8203 -2.1391
 8741TIP3   OH247637   4.940   4.474   6.812  0.0311 -0.2359 -0.3018
 8741TIP3    H147638   4.965   4.465   6.720 -1.3356  1.4290 -0.8980
 8741TIP3    H247639   4.865   4.415   6.822 -2.8017  2.8048 -1.6180
 8742TIP3   OH247640   1.628   6.097   1.911  0.4959  0.4970  0.1582
 8742TIP3    H147641   1.606   6.181   1.953 -1.8660  0.8457 -1.5596
 8742TIP3    H247642   1.544   6.063   1.881  1.7761 -0.8465 -2.1712
 8743TIP3   OH247643   0.732   4.939  13.312  0.0875 -0.3041  0.4824
 8743TIP3    H147644   0.788   4.871  13.276  0.5526 -0.3103  1.1930
 8743TIP3    H247645   0.793   5.001  13.353 -0.4287 -0.3633  1.3624
 8744TIP3   OH247646   5.411   0.180   0.786 -0.4146  0.4823 -0.1287
 8744TIP3    H147647   5.463   0.260   0.795 -1.9743  1.4220  1.0303
 8744TIP3    H247648   5.326   0.201   0.826 -2.5452 -0.2428 -3.7858
 8745TIP3   OH247649   6.517   0.850   2.608  0.0361  0.5731 -0.1500
 8745TIP3    H147650   6.613   0.850   2.609  0.0693 -0.6535  1.8664
 8745TIP3    H247651   6.494   0.824   2.518  1.6626 -1.6441 -0.0209
 8746TIP3   OH247652   1.283   2.278   2.849 -0.4244 -0.4614 -0.4030
 8746TIP3    H147653   1.215   2.219   2.817 -0.2558 -0.6022 -0.5024
 8746TIP3    H247654   1.276   2.356   2.793 -1.3045  0.0296  0.3680
 8747TIP3   OH247655   1.412   2.929  12.594 -0.1180 -0.4372 -0.4382
 8747TIP3    H147656   1.351   2.984  12.545 -1.0479 -0.8262  0.2434
 8747TIP3    H247657   1.364   2.906  12.674  1.4418  0.4183  0.8035
 8748TIP3   OH247658   0.491   2.690   2.326  0.0394  0.1400 -0.2060
 8748TIP3    H147659   0.581   2.683   2.359 -0.2583  0.5070  0.7348
 8748TIP3    H247660   0.477   2.610   2.277  0.8083 -0.0280 -0.1622
 8749TIP3   OH247661   2.959   5.899   3.700  0.0508  0.1365 -0.1544
 8749TIP3    H147662   3.044   5.874   3.664  1.1875  1.9645  1.0792
 8749TIP3    H247663   2.978   5.973   3.757 -2.3537  0.4201  0.3938
 8750TIP3   OH247664   1.383   3.864  13.446  0.4265  0.0547 -0.3120
 8750TIP3    H147665   1.397   3.835  13.356 -0.0958 -3.8219  0.6719
 8750TIP3    H247666   1.467   3.850  13.489 -0.1399 -1.1751  0.4543
 8751TIP3   OH247667   5.509   6.215  15.303  0.1021 -0.3397  0.3350
 8751TIP3    H147668   5.418   6.187  15.298  0.6125 -1.8953 -1.0453
 8751TIP3    H247669   5.504   6.310  15.311 -1.6295 -0.2580 -1.0897
 8752TIP3   OH247670   3.759   1.509  13.423  0.2762 -0.4584  0.7146
 8752TIP3    H147671   3.783   1.598  13.399  1.9869 -0.5076  2.0405
 8752TIP3    H247672   3.670   1.498  13.389  0.1001  1.6652  0.3597
 8753TIP3   OH247673   6.259   5.513   1.216  0.5783 -0.1740  0.1397
 8753TIP3    H147674   6.354   5.501   1.215  0.7261  0.9096 -1.2789
 8753TIP3    H247675   6.224   5.434   1.174  0.8301 -0.5669  0.6503
 8754TIP3   OH247676   0.513   5.230   0.068  0.1927 -0.0804  1.0201
 8754TIP3    H147677   0.420   5.251   0.060  0.0388 -0.6884  1.1289
 8754TIP3    H247678   0.532   5.181  -0.012  0.3439 -0.2138  1.1385
 8755TIP3   OH247679   2.655   5.564  12.692 -0.1990  0.0901 -0.3470
 8755TIP3    H147680   2.679   5.491  12.636  0.8870  0.4373 -0.3561
 8755TIP3    H247681   2.614   5.524  12.768  0.7008 -0.5623 -0.1888
 8756TIP3   OH247682   3.033   4.435   2.217 -0.2311 -0.0166 -0.6950
 8756TIP3    H147683   3.111   4.391   2.184 -0.4593 -0.3571 -0.7754
 8756TIP3    H247684   2.997   4.376   2.283 -0.0872  0.4129 -0.2158
 8757TIP3   OH247685   2.859   2.147   4.971  0.6262 -0.7136  0.1821
 8757TIP3    H147686   2.943   2.152   5.018  0.0240  1.6575  1.1498
 8757TIP3    H247687   2.802   2.095   5.028  0.6563 -0.0129  0.8706
 8758TIP3   OH247688   3.001   4.062  14.977  0.0033 -0.2954  0.1288
 8758TIP3    H147689   3.007   3.984  15.031  0.6585  0.0617  0.5786
 8758TIP3    H247690   3.037   4.132  15.031  0.9307  0.0157 -0.8651
 8759TIP3   OH247691   2.244   4.565   1.380 -0.5918 -0.0867  0.1030
 8759TIP3    H147692   2.285   4.647   1.354 -0.9733  0.2013  0.4022
 8759TIP3    H247693   2.316   4.511   1.412 -0.4049  0.3145  0.3704
 8760TIP3   OH247694   2.253   1.330   0.035 -0.2116 -0.1299 -0.3827
 8760TIP3    H147695   2.329   1.364  -0.010 -1.4953  2.2649 -0.8951
 8760TIP3    H247696   2.266   1.355   0.127 -0.2392 -0.0182 -0.4099
 8761TIP3   OH247697   4.877   4.834   4.055  0.1830 -0.1158  0.7899
 8761TIP3    H147698   4.827   4.794   3.983  2.8380 -0.6018 -0.8935
 8761TIP3    H247699   4.927   4.761   4.093  2.1692  0.8695  0.1876
 8762TIP3   OH247700   1.548   4.675   3.872  0.1818  0.2207 -0.0916
 8762TIP3    H147701   1.476   4.671   3.935 -0.3279 -1.5131 -0.7277
 8762TIP3    H247702   1.609   4.739   3.909 -0.3583 -0.3487  1.8889
 8763TIP3   OH247703   3.989   3.402   1.506  0.6687  0.1201  0.5694
 8763TIP3    H147704   4.001   3.308   1.517  1.5892  0.0922 -0.5721
 8763TIP3    H247705   4.031   3.441   1.583  1.7864 -0.3331  0.2073
 8764TIP3   OH247706   2.937   4.087   5.703  0.2964 -0.1000 -0.2046
 8764TIP3    H147707   2.942   4.093   5.607  0.2734 -1.1845 -0.2862
 8764TIP3    H247708   2.853   4.127   5.725 -0.1775 -0.7733 -0.7371
 8765TIP3   OH247709   1.258   1.914   5.638 -0.6055  0.0530  0.1787
 8765TIP3    H147710   1.306   1.840   5.675 -0.4530  0.9908  1.9521
 8765TIP3    H247711   1.295   1.991   5.681 -2.5383  0.9404  0.3751
 8766TIP3   OH247712   5.683   5.240  16.703  0.5493  0.1270  0.2812
 8766TIP3    H147713   5.729   5.159  16.681  0.0007 -0.4016  1.0146
 8766TIP3    H247714   5.596   5.212  16.730  0.1594  1.0173 -0.0053
 8767TIP3   OH247715   3.811   6.325   2.192  0.1116 -0.0867  0.2227
 8767TIP3    H147716   3.758   6.253   2.159 -0.2769 -0.6869  2.0480
 8767TIP3    H247717   3.758   6.403   2.177 -0.1400 -0.3553 -0.3256
 8768TIP3   OH247718   2.977   1.513  15.674 -0.4368 -0.1937  0.6003
 8768TIP3    H147719   2.919   1.527  15.749  0.4684  1.4427  1.0313
 8768TIP3    H247720   3.065   1.531  15.707  0.2601 -1.8417 -0.2579
 8769TIP3   OH247721   4.997   3.302  12.561 -0.1563  0.1478 -0.2152
 8769TIP3    H147722   5.039   3.221  12.590  1.1880  0.0465 -2.2171
 8769TIP3    H247723   5.043   3.325  12.480 -2.0387  1.6913 -0.9255
 8770TIP3   OH247724   3.789   4.277   1.594  0.1973 -0.2016  0.1327
 8770TIP3    H147725   3.865   4.334   1.605  0.1278 -0.3643  1.8062
 8770TIP3    H247726   3.747   4.277   1.680 -0.0857 -2.3584  0.0504
 8771TIP3   OH247727   3.464   1.799  14.760 -0.3384  0.8115 -0.5647
 8771TIP3    H147728   3.477   1.871  14.697 -0.4301  1.4919  0.1742
 8771TIP3    H247729   3.427   1.728  14.708 -1.0848  1.6065 -1.1398
 8772TIP3   OH247730   0.663   2.627   0.658 -0.2032 -0.7251  0.1551
 8772TIP3    H147731   0.625   2.662   0.577  1.7908  1.7759  0.1649
 8772TIP3    H247732   0.663   2.532   0.645  0.6547 -0.4157 -3.1226
 8773TIP3   OH247733   3.226   2.370   1.809 -0.6515  0.6169 -0.0415
 8773TIP3    H147734   3.217   2.324   1.892 -1.8508 -0.1089 -0.5491
 8773TIP3    H247735   3.207   2.461   1.829  1.1963  0.8505  0.8684
 8774TIP3   OH247736   5.696   1.430  11.535 -0.4524  0.9950  0.7006
 8774TIP3    H147737   5.701   1.392  11.447  2.8933 -2.1872  2.0065
 8774TIP3    H247738   5.633   1.373  11.581  0.1683  0.6608  1.1480
 8775TIP3   OH247739   0.677   1.958   4.057 -0.2276 -0.0469  0.1736
 8775TIP3    H147740   0.746   2.017   4.089 -1.2750  0.7271  1.0672
 8775TIP3    H247741   0.609   2.016   4.023 -1.7850 -0.6397  2.1034
 8776TIP3   OH247742   4.658   3.620   3.777 -0.5971  0.0366  0.6291
 8776TIP3    H147743   4.577   3.645   3.822 -0.2874  0.8386  0.7649
 8776TIP3    H247744   4.724   3.677   3.815  0.5324 -2.1849  2.2235
 8777TIP3   OH247745   4.151   1.883  15.395  0.6453  0.2539 -0.8789
 8777TIP3    H147746   4.071   1.932  15.417 -0.1115 -1.6871  1.0897
 8777TIP3    H247747   4.173   1.836  15.475  0.6498 -3.4532 -2.8302
 8778TIP3   OH247748   3.933   1.763   3.678  0.9071 -0.2223  0.1147
 8778TIP3    H147749   3.875   1.811   3.737  0.8446  0.5827 -0.5670
 8778TIP3    H247750   4.021   1.793   3.700  0.7672  1.4025 -1.2891
 8779TIP3   OH247751   3.380   2.077   1.991 -0.3885 -0.1493 -0.4195
 8779TIP3    H147752   3.439   2.108   2.059 -0.7650 -0.1034 -0.1053
 8779TIP3    H247753   3.400   1.984   1.982  0.0999 -0.0169 -0.6995
 8780TIP3   OH247754   5.858   4.767   5.254  0.2919  0.1662 -0.0494
 8780TIP3    H147755   5.908   4.709   5.196 -1.5715 -0.5846 -1.0066
 8780TIP3    H247756   5.914   4.844   5.265  0.8162  0.2729 -2.7282
 8781TIP3   OH247757   2.107   0.689   5.234  0.1619  0.3045  0.2049
 8781TIP3    H147758   2.180   0.630   5.251 -0.1859  0.1094  1.0429
 8781TIP3    H247759   2.033   0.632   5.216  0.3883  0.5001 -1.4972
 8782TIP3   OH247760   0.043   0.192   1.410 -0.0372  0.3636  0.2104
 8782TIP3    H147761   0.131   0.167   1.383 -0.1027  0.4629 -0.0967
 8782TIP3    H247762   0.021   0.266   1.353  0.5956  1.8775  1.8301
 8783TIP3   OH247763   4.193   1.839  12.833  0.6091 -0.8081 -0.2373
 8783TIP3    H147764   4.284   1.808  12.827  0.8822  0.2548 -2.2142
 8783TIP3    H247765   4.158   1.794  12.910  2.3006 -2.5560 -0.4048
 8784TIP3   OH247766   3.466   6.310  11.812 -0.7493  0.6026 -0.1840
 8784TIP3    H147767   3.506   6.333  11.728 -1.2229  1.0734 -0.2872
 8784TIP3    H247768   3.538   6.316  11.875 -0.3851  0.2199 -0.5560
 8785TIP3   OH247769   2.224   6.507   0.884  1.0844  0.1203  0.4435
 8785TIP3    H147770   2.163   6.516   0.957  0.9529 -1.2774  0.5447
 8785TIP3    H247771   2.309   6.489   0.925  0.7062 -2.3382  0.2999
 8786TIP3   OH247772   6.209   1.331  13.777 -0.1812  0.0414  0.0221
 8786TIP3    H147773   6.285   1.374  13.816  0.5242 -1.6714  0.5915
 8786TIP3    H247774   6.244   1.251  13.738 -1.5696 -0.3458 -0.4777
 8787TIP3   OH247775   5.493   6.036   1.596  0.0667 -0.5245  0.2957
 8787TIP3    H147776   5.523   5.950   1.624  2.2336  0.2890  0.7036
 8787TIP3    H247777   5.499   6.091   1.675  1.5798  0.6625 -0.5930
 8788TIP3   OH247778   3.978   0.822  17.258  0.5861  0.5150  0.2291
 8788TIP3    H147779   4.056   0.769  17.274  1.3543  1.3774 -0.5902
 8788TIP3    H247780   4.011   0.906  17.229 -0.6502  0.1285 -2.5661
 8789TIP3   OH247781   6.424   0.551   3.641  0.5767 -0.1828  0.1658
 8789TIP3    H147782   6.376   0.469   3.653  2.2393 -1.2184  0.0994
 8789TIP3    H247783   6.361   0.610   3.600 -0.7340 -1.3531  0.4276
 8790TIP3   OH247784   0.371   0.867  15.560 -0.7992  0.6256  1.0492
 8790TIP3    H147785   0.459   0.892  15.588 -0.6861  0.3792  0.9127
 8790TIP3    H247786   0.321   0.949  15.561 -0.2616  0.9769 -0.0570
 8791TIP3   OH247787   4.579   1.195  15.216  0.3631 -0.5725  0.4463
 8791TIP3    H147788   4.508   1.137  15.188  0.1860 -0.1950  0.1090
 8791TIP3    H247789   4.564   1.209  15.309 -1.5749  1.6468 -0.1079
 8792TIP3   OH247790   6.060   0.608  11.520 -0.2464  1.1106  0.7728
 8792TIP3    H147791   6.137   0.578  11.568  1.0130  0.2500 -1.6163
 8792TIP3    H247792   6.012   0.527  11.499 -0.0956  1.3264 -0.4613
 8793TIP3   OH247793   3.594   3.737  13.518 -0.3354  0.1695  0.1857
 8793TIP3    H147794   3.609   3.810  13.579 -0.8353  0.7578 -0.3878
 8793TIP3    H247795   3.586   3.778  13.432 -0.1165 -0.6143 -0.2206
 8794TIP3   OH247796   5.144   3.711  11.449 -0.2483  0.5512  0.0452
 8794TIP3    H147797   5.074   3.670  11.398  0.9581 -2.2602  0.4570
 8794TIP3    H247798   5.217   3.719  11.387 -0.2723  1.6107  0.1355
 8795TIP3   OH247799   5.038   2.520   5.135  0.2374 -0.1142  0.4650
 8795TIP3    H147800   5.019   2.512   5.229  0.8297 -1.2865  0.4918
 8795TIP3    H247801   4.957   2.554   5.098  1.0980  4.2213  1.8918
 8796TIP3   OH247802   1.637   2.102   5.461  0.6085  0.1336 -0.3584
 8796TIP3    H147803   1.662   2.067   5.546 -0.2579 -0.4971 -0.3426
 8796TIP3    H247804   1.715   2.149   5.430  0.8329  0.6270  0.8973
 8797TIP3   OH247805   2.077   6.155  13.172  0.0509 -0.1818 -0.0691
 8797TIP3    H147806   2.081   6.191  13.261 -0.0560 -2.7949  1.0748
 8797TIP3    H247807   2.169   6.143  13.147  0.0711 -1.0579  0.4062
 8798TIP3   OH247808   2.865   4.868  16.459  0.2402  0.4658  0.1433
 8798TIP3    H147809   2.788   4.917  16.489  0.0048  0.3497 -0.2636
 8798TIP3    H247810   2.892   4.817  16.535  0.5128  1.2497  0.5872
 8799TIP3   OH247811   1.204   0.908   0.765 -0.3969  0.0893  0.4524
 8799TIP3    H147812   1.281   0.952   0.803 -0.4684  1.4999 -0.9355
 8799TIP3    H247813   1.213   0.817   0.791  2.7675 -0.1959 -1.1888
 8800TIP3   OH247814   4.388   3.344  16.678 -0.0134  0.1957  0.5432
 8800TIP3    H147815   4.458   3.406  16.698 -0.3094  0.4889  0.6765
 8800TIP3    H247816   4.406   3.268  16.734 -0.0806  0.4672  0.9339
 8801TIP3   OH247817   5.486   2.632   6.897 -0.1886 -0.7989 -0.3619
 8801TIP3    H147818   5.453   2.579   6.825  1.8322 -1.0589 -1.1865
 8801TIP3    H247819   5.472   2.723   6.869  2.4963 -0.8180 -2.2189
 8802TIP3   OH247820   0.214   4.832   4.660 -0.5346  0.2034  0.5411
 8802TIP3    H147821   0.132   4.881   4.656 -0.7987 -0.2548  0.0606
 8802TIP3    H247822   0.267   4.866   4.588 -2.0214 -2.4040 -2.0294
 8803TIP3   OH247823   1.395   3.575   4.008 -0.2646 -0.4489 -0.0654
 8803TIP3    H147824   1.314   3.526   4.022  1.3674 -3.0435  0.8988
 8803TIP3    H247825   1.437   3.578   4.094  1.0221  0.1844 -0.6869
 8804TIP3   OH247826   4.369   2.333  13.519  0.5512 -0.0373  0.3773
 8804TIP3    H147827   4.367   2.309  13.612 -1.2952 -1.0434  0.1387
 8804TIP3    H247828   4.399   2.254  13.474  0.2446  0.0384  0.0346
 8805TIP3   OH247829   4.068   4.294  15.865 -0.1649  0.3430 -0.1043
 8805TIP3    H147830   3.979   4.321  15.886  0.0289  0.3818  0.7067
 8805TIP3    H247831   4.075   4.303  15.770 -0.4191  2.1528  0.0261
 8806TIP3   OH247832   0.803   0.713  14.575 -0.7409  0.4088  0.0266
 8806TIP3    H147833   0.815   0.618  14.575  0.0703  0.5092  0.7501
 8806TIP3    H247834   0.816   0.739  14.484 -1.9113 -0.2742 -0.3616
 8807TIP3   OH247835   1.545   5.977   0.810  0.3947 -0.1262  0.0991
 8807TIP3    H147836   1.487   6.051   0.790 -0.7045 -0.6007  1.4133
 8807TIP3    H247837   1.631   6.006   0.782 -0.0905  1.4951  0.1968
 8808TIP3   OH247838   3.463   4.100   2.913 -0.1699  0.4654 -0.1424
 8808TIP3    H147839   3.528   4.050   2.863 -2.0952 -0.8151 -1.5405
 8808TIP3    H247840   3.422   4.157   2.847 -0.7482  0.9171  0.5964
 8809TIP3   OH247841   3.962   6.640   2.741 -0.0171  0.1535  0.0878
 8809TIP3    H147842   3.983   6.691   2.819  0.0897 -0.1913  0.2866
 8809TIP3    H247843   4.014   6.682   2.672 -0.8833  1.0831 -0.0151
 8810TIP3   OH247844   2.467   4.670  16.030  0.6348  0.3260 -0.3565
 8810TIP3    H147845   2.401   4.601  16.036 -0.3874  1.2484 -0.6272
 8810TIP3    H247846   2.419   4.750  16.049  1.5667  1.0873 -1.1256
 8811TIP3   OH247847   1.551   6.040  14.735 -0.6244  0.4717 -0.1821
 8811TIP3    H147848   1.492   6.107  14.769 -0.9427  0.0064  0.1966
 8811TIP3    H247849   1.546   6.051  14.640  0.4420  1.9276 -0.1038
 8812TIP3   OH247850   0.303   0.061   2.670 -0.0901  0.1035  0.1023
 8812TIP3    H147851   0.360   0.031   2.599 -1.4560  0.0587 -1.0179
 8812TIP3    H247852   0.334   0.149   2.690 -0.4623  0.6211 -1.4437
 8813TIP3   OH247853   3.942   5.064  12.252 -0.4712  0.3668 -0.6229
 8813TIP3    H147854   4.025   5.106  12.272  1.0128 -1.2703 -2.8185
 8813TIP3    H247855   3.880   5.136  12.240 -0.3084  1.5983  4.0335
 8814TIP3   OH247856   5.746   5.578  13.744  0.4400 -0.0165 -0.3139
 8814TIP3    H147857   5.733   5.485  13.763  0.0580 -0.2083 -1.4479
 8814TIP3    H247858   5.835   5.597  13.774  0.1346 -0.4690  0.9263
 8815TIP3   OH247859   3.295   4.300  15.342  0.4784 -0.3517  0.1565
 8815TIP3    H147860   3.369   4.342  15.386  0.0030  0.6690  0.0240
 8815TIP3    H247861   3.249   4.254  15.412  0.3197  0.3853  0.5530
 8816TIP3   OH247862   1.306   6.715  11.727  0.7709 -0.2988  0.1039
 8816TIP3    H147863   1.350   6.723  11.812  0.4831 -0.5974  0.2872
 8816TIP3    H247864   1.346   6.639  11.686  2.2955  0.9919 -0.8915
 8817TIP3   OH247865   4.904   2.097   2.303 -0.1161  0.0672 -0.3049
 8817TIP3    H147866   4.978   2.056   2.257  0.3443  1.0171 -0.4233
 8817TIP3    H247867   4.852   2.023   2.334  2.1693 -0.7475  1.9643
 8818TIP3   OH247868   3.910   5.386  14.679 -0.5788 -0.5085 -0.0701
 8818TIP3    H147869   3.877   5.464  14.723 -0.1235  1.0466 -2.3435
 8818TIP3    H247870   3.831   5.339  14.651 -0.8439 -0.3325  0.3648
 8819TIP3   OH247871   4.101   6.713  16.252 -0.2471 -0.5597 -0.2435
 8819TIP3    H147872   4.191   6.741  16.270  0.5838 -3.6600  1.0937
 8819TIP3    H247873   4.108   6.651  16.180 -1.0915 -1.7932  0.6864
 8820TIP3   OH247874   4.041   6.610  12.356 -0.3913  0.3388  0.1675
 8820TIP3    H147875   4.073   6.535  12.407 -2.0556 -0.1009  0.6276
 8820TIP3    H247876   4.022   6.677  12.421 -1.5814  0.1290  0.0552
 8821TIP3   OH247877   5.963   3.711  11.109  0.5012 -0.0981  0.0440
 8821TIP3    H147878   6.014   3.744  11.034  0.0844  3.1428  1.0581
 8821TIP3    H247879   5.946   3.619  11.087  1.0944  0.4787 -3.4376
 8822TIP3   OH247880   1.600   3.105   3.100  0.0053  0.4515  0.3484
 8822TIP3    H147881   1.694   3.119   3.085 -0.0246 -0.8097 -1.2873
 8822TIP3    H247882   1.583   3.148   3.184  1.8618  1.4347  0.2880
 8823TIP3   OH247883   3.310   4.171  14.572  0.1165 -0.1194  0.0143
 8823TIP3    H147884   3.217   4.156  14.554 -0.3839  0.7775  1.5811
 8823TIP3    H247885   3.314   4.182  14.667  1.8405 -0.1435 -0.0245
 8824TIP3   OH247886   3.252   2.867   1.882 -0.6764 -0.2100 -0.4476
 8824TIP3    H147887   3.262   2.879   1.976 -0.5205 -0.5097 -0.4256
 8824TIP3    H247888   3.330   2.819   1.855 -0.0395  1.0559 -0.9570
 8825TIP3   OH247889   4.689   4.797   5.586 -0.0195 -0.5197 -0.1160
 8825TIP3    H147890   4.656   4.817   5.499 -0.6698 -0.1184  0.2177
 8825TIP3    H247891   4.677   4.878   5.636  3.0495  0.2508 -0.4213
 8826TIP3   OH247892   0.340   2.841  10.898  0.2921 -0.1196  0.4416
 8826TIP3    H147893   0.355   2.771  10.835  2.4706  1.1301 -0.5305
 8826TIP3    H247894   0.393   2.818  10.974  3.1263  1.5805 -0.8544
 8827TIP3   OH247895   0.089   1.218   5.208 -0.1606  0.4535  0.8722
 8827TIP3    H147896   0.011   1.264   5.176  1.1358  1.2718 -1.3353
 8827TIP3    H247897   0.130   1.279   5.270  1.2429  2.2049 -1.6110
 8828TIP3   OH247898   3.590   4.128   6.554  0.4727  0.0657 -0.1301
 8828TIP3    H147899   3.521   4.193   6.538  0.0545 -0.3261  0.0435
 8828TIP3    H247900   3.649   4.135   6.479  0.1354  0.2732 -0.3763
 8829TIP3   OH247901   3.155   6.214  15.495 -0.1453  0.3391 -0.3539
 8829TIP3    H147902   3.166   6.258  15.579 -0.7267  0.1797 -0.1926
 8829TIP3    H247903   3.093   6.142  15.513 -1.6592  1.3605 -1.2783
 8830TIP3   OH247904   2.163   5.972  13.576 -0.0122  0.1349 -0.3563
 8830TIP3    H147905   2.141   5.976  13.482  0.9155 -0.3265 -0.5951
 8830TIP3    H247906   2.195   6.060  13.596 -1.8782  0.7938 -0.0287
 8831TIP3   OH247907   3.723   5.611   3.841  0.3621 -0.2839  0.1367
 8831TIP3    H147908   3.689   5.614   3.752 -0.3197 -0.3499  0.3918
 8831TIP3    H247909   3.750   5.701   3.860 -1.8034  0.2960  0.7398
 8832TIP3   OH247910   2.281   4.326   6.710  0.5332  0.3902  0.0693
 8832TIP3    H147911   2.254   4.396   6.770 -1.7831 -1.8315  1.7851
 8832TIP3    H247912   2.334   4.268   6.763 -0.5664 -0.9999 -0.2952
 8833TIP3   OH247913   3.586   0.481  15.564  0.5409 -0.4374  0.2685
 8833TIP3    H147914   3.579   0.412  15.629  1.5249 -1.1008 -0.3034
 8833TIP3    H247915   3.496   0.503  15.542  0.2045 -0.6702  1.3535
 8834TIP3   OH247916   0.883   0.540  16.126 -0.6178 -0.1844  0.2759
 8834TIP3    H147917   0.889   0.553  16.221  0.2245  2.1155 -0.0249
 8834TIP3    H247918   0.970   0.511  16.100 -0.2294  1.1239  0.0103
 8835TIP3   OH247919   2.273   5.583   4.121  0.1374  0.5996 -0.2601
 8835TIP3    H147920   2.346   5.525   4.104  0.1760  0.7518 -0.6202
 8835TIP3    H247921   2.295   5.626   4.204  0.7598  1.1119 -0.6763
 8836TIP3   OH247922   2.996   2.096   2.582 -0.0056  0.1191  0.2639
 8836TIP3    H147923   2.967   2.155   2.652 -1.4341  1.1789 -1.1530
 8836TIP3    H247924   2.916   2.051   2.555 -0.1418  1.8950 -2.6437
 8837TIP3   OH247925   1.456   4.284  13.058 -0.1144 -0.1323 -0.3286
 8837TIP3    H147926   1.451   4.378  13.043 -2.1988 -0.3740 -1.6434
 8837TIP3    H247927   1.463   4.275  13.153 -2.0909  1.3454  0.0170
 8838TIP3   OH247928   6.736   2.436  13.966 -0.0129 -0.0646  0.5125
 8838TIP3    H147929   6.804   2.437  14.035  1.4685 -0.0774 -0.8822
 8838TIP3    H247930   6.747   2.521  13.923  0.6766 -0.9702 -1.1666
 8839TIP3   OH247931   2.258   3.887  13.793  0.0843 -0.7100  0.2737
 8839TIP3    H147932   2.319   3.867  13.864  0.0981  0.0506  0.4922
 8839TIP3    H247933   2.191   3.819  13.799  1.1685 -1.8469 -0.2921
 8840TIP3   OH247934   1.551   1.017  15.130  0.0629 -0.1406  0.4714
 8840TIP3    H147935   1.514   1.006  15.043 -1.9910 -0.9625  1.3869
 8840TIP3    H247936   1.575   0.928  15.158 -1.5282 -0.2550  1.6256
 8841TIP3   OH247937   3.054   3.598   1.487 -0.0838  0.8752 -0.6401
 8841TIP3    H147938   3.001   3.520   1.473 -0.4867  1.0692 -0.1997
 8841TIP3    H247939   3.104   3.607   1.406  0.5582 -0.2887 -0.3929
 8842TIP3   OH247940   5.077   4.434   6.241  0.3600 -0.2717  0.3168
 8842TIP3    H147941   5.164   4.463   6.271  0.9261 -1.5213 -0.0726
 8842TIP3    H247942   5.080   4.339   6.246 -0.7716 -0.3617 -0.3427
 8843TIP3   OH247943   3.663   5.457  12.861 -0.2782  0.0361  0.6883
 8843TIP3    H147944   3.689   5.501  12.942  0.4404  1.6954 -0.4006
 8843TIP3    H247945   3.726   5.487  12.796  0.0620 -2.3840 -0.2176
 8844TIP3   OH247946   5.453   3.027   3.561 -0.1915 -0.2997 -0.2237
 8844TIP3    H147947   5.484   3.069   3.481  0.8330  0.5736  0.5984
 8844TIP3    H247948   5.453   2.933   3.541  0.3240 -0.1123 -1.1436
 8845TIP3   OH247949   6.342   0.089   6.332  0.3299  0.1155 -0.1174
 8845TIP3    H147950   6.392   0.023   6.285  0.1926 -0.9045  1.1240
 8845TIP3    H247951   6.266   0.106   6.276  0.8981  0.0192 -0.9397
 8846TIP3   OH247952   1.966   4.015  12.419 -0.1536  0.0789 -0.1730
 8846TIP3    H147953   2.010   3.945  12.467  1.9635  1.2184 -0.3107
 8846TIP3    H247954   1.977   4.092  12.476 -1.2668  0.5722 -0.6093
 8847TIP3   OH247955   2.874   1.829   1.795  0.2617 -0.2290 -0.8610
 8847TIP3    H147956   2.962   1.866   1.804  0.4718 -0.2566 -2.5614
 8847TIP3    H247957   2.882   1.740   1.830  0.8679 -0.1720 -0.8345
 8848TIP3   OH247958   4.422   3.890   5.518 -0.3703  0.5010  0.1121
 8848TIP3    H147959   4.438   3.966   5.463 -0.4163  0.8026  0.5164
 8848TIP3    H247960   4.479   3.902   5.594  0.1877 -0.2428 -0.1706
 8849TIP3   OH247961   0.640   4.430   6.190 -0.0306  0.1109 -0.1021
 8849TIP3    H147962   0.628   4.369   6.118 -1.6431  0.9608 -0.5986
 8849TIP3    H247963   0.682   4.506   6.151 -1.0074  0.6173 -0.1783
 8850TIP3   OH247964   5.442   5.642  16.773 -0.3238  1.1947 -0.0964
 8850TIP3    H147965   5.536   5.624  16.780 -0.3748  0.6933 -0.6286
 8850TIP3    H247966   5.414   5.592  16.697 -1.0802  1.1234  0.2249
 8851TIP3   OH247967   3.910   4.750   4.749 -0.0588  0.1278 -0.6203
 8851TIP3    H147968   3.837   4.811   4.753 -0.4064 -0.2779 -0.7559
 8851TIP3    H247969   3.988   4.806   4.743 -0.3490  0.5598 -0.3963
 8852TIP3   OH247970   2.329   6.295  11.230 -0.8978  0.1055  0.9116
 8852TIP3    H147971   2.335   6.320  11.138 -0.5258 -1.6947  0.4178
 8852TIP3    H247972   2.391   6.354  11.274 -1.1007  1.0060  0.0432
 8853TIP3   OH247973   6.004   0.609   2.032 -0.1723 -0.8316  0.2923
 8853TIP3    H147974   6.008   0.653   2.117 -0.8401  0.2725 -0.2359
 8853TIP3    H247975   5.911   0.609   2.009  0.0206 -0.9839 -0.5194
 8854TIP3   OH247976   1.560   1.506   4.417  0.2677  0.4696  0.3234
 8854TIP3    H147977   1.615   1.522   4.494 -0.9547  0.8069  1.1494
 8854TIP3    H247978   1.515   1.424   4.437 -2.1608  1.9333  1.2714
 8855TIP3   OH247979   2.597   6.452   4.745 -0.0017  0.2238 -0.3545
 8855TIP3    H147980   2.648   6.439   4.665  0.8972  1.0316  0.0748
 8855TIP3    H247981   2.508   6.468   4.714  0.0025 -1.0999 -1.1127
 8856TIP3   OH247982   6.150   5.789  15.977 -0.0349 -0.2648 -0.5460
 8856TIP3    H147983   6.198   5.859  15.932  0.9929 -1.3413 -1.1955
 8856TIP3    H247984   6.059   5.803  15.954 -0.2706  2.4260  1.4863
 8857TIP3   OH247985   4.806   5.954  16.069  0.0153 -0.0747 -0.1861
 8857TIP3    H147986   4.843   6.041  16.077 -0.9910  0.3635 -0.1120
 8857TIP3    H247987   4.749   5.958  15.992 -0.1504 -0.6145 -0.1023
 8858TIP3   OH247988   1.056   3.481  13.451  0.0365  0.4555  0.3955
 8858TIP3    H147989   1.049   3.387  13.465  0.2141  0.2818 -0.5992
 8858TIP3    H247990   1.115   3.512  13.520 -0.1577 -0.1301  0.8254
 8859TIP3   OH247991   5.927   1.577   2.295 -0.3843  0.5492  0.0385
 8859TIP3    H147992   5.984   1.648   2.326  0.5057 -0.9602  2.1266
 8859TIP3    H247993   5.900   1.532   2.375  0.4213 -2.4552 -1.2527
 8860TIP3   OH247994   2.046   3.447   1.214 -0.6613  0.0618 -0.1075
 8860TIP3    H147995   2.085   3.534   1.199  0.8288 -0.6457 -0.5389
 8860TIP3    H247996   1.955   3.457   1.187 -1.2406  2.1704  2.2081
 8861TIP3   OH247997   2.778   3.412   6.498 -0.2442 -0.2280  0.2648
 8861TIP3    H147998   2.692   3.450   6.517  0.2768  0.6916  0.8940
 8861TIP3    H247999   2.830   3.431   6.575  0.9820  0.6517 -0.7347
 8862TIP3   OH248000   4.294   1.353  13.646 -0.0676 -0.0462  0.2372
 8862TIP3    H148001   4.222   1.291  13.653  0.8431 -1.0551  1.0410
 8862TIP3    H248002   4.373   1.299  13.646  0.7734  1.1010  1.3036
 8863TIP3   OH248003   3.914   0.177  14.161  0.0199  0.0513 -0.1990
 8863TIP3    H148004   3.971   0.117  14.208  1.8718  1.4204 -0.5981
 8863TIP3    H248005   3.850   0.121  14.117 -0.6011 -1.3817  2.3307
 8864TIP3   OH248006   4.151   4.907   0.136 -0.0546 -0.2455  0.0733
 8864TIP3    H148007   4.139   5.001   0.122  0.0211  0.0201  1.6374
 8864TIP3    H248008   4.119   4.891   0.225 -0.4876 -1.7897 -0.3180
 8865TIP3   OH248009   4.246   5.239   0.819 -0.3333 -0.3274 -0.1033
 8865TIP3    H148010   4.189   5.246   0.895 -0.0248  1.0923  0.0413
 8865TIP3    H248011   4.323   5.192   0.850  0.3559  1.3345  0.8629
 8866TIP3   OH248012   4.224   5.778  11.857 -0.7966 -0.7734 -0.1698
 8866TIP3    H148013   4.204   5.714  11.789  0.7636  0.0608 -1.5072
 8866TIP3    H248014   4.263   5.726  11.928  0.5891 -1.3394 -1.2911
 8867TIP3   OH248015   5.151   1.268   4.290  0.3111  0.2892 -0.5777
 8867TIP3    H148016   5.104   1.346   4.262 -1.3961  0.2057  1.7610
 8867TIP3    H248017   5.084   1.212   4.330  2.0730 -0.6836  1.2075
 8868TIP3   OH248018   6.001   6.504  11.660  0.3515  0.2433 -0.1327
 8868TIP3    H148019   6.026   6.594  11.679  0.0927  0.5077 -1.0244
 8868TIP3    H248020   5.929   6.486  11.720  0.3800  0.6411  0.0215
 8869TIP3   OH248021   5.442   3.208   2.728 -0.2664  0.0277 -0.3217
 8869TIP3    H148022   5.393   3.126   2.719  4.2087 -2.8858 -1.4289
 8869TIP3    H248023   5.435   3.229   2.821 -2.1218 -1.1925 -0.1283
 8870TIP3   OH248024   3.972   4.887  12.805  0.3402  0.0610  0.3085
 8870TIP3    H148025   4.043   4.843  12.758 -0.9580  1.1522 -2.9263
 8870TIP3    H248026   4.009   4.971  12.831  0.6044  0.1179 -0.2313
 8871TIP3   OH248027   0.134   6.326  16.302  0.4976  0.0990 -0.0040
 8871TIP3    H148028   0.136   6.381  16.224  1.5305  0.3484  0.1861
 8871TIP3    H248029   0.094   6.382  16.369  1.9027  0.7730  0.2902
 8872TIP3   OH248030   2.596   5.358  14.030  0.0836 -0.5093  0.0679
 8872TIP3    H148031   2.665   5.387  14.090 -0.7183 -0.5608  1.0558
 8872TIP3    H248032   2.532   5.430  14.031  0.3283 -0.2617 -1.1881
 8873TIP3   OH248033   3.069   2.712  13.737  0.3377 -0.2546 -0.0822
 8873TIP3    H148034   3.077   2.801  13.771  1.2129 -0.9801  1.7512
 8873TIP3    H248035   3.117   2.658  13.800  0.8155 -1.8918 -1.7636
 8874TIP3   OH248036   0.002   2.037  13.909 -0.4676 -0.3653 -0.1102
 8874TIP3    H148037   0.012   2.048  13.814 -0.1424 -2.0662 -0.2942
 8874TIP3    H248038  -0.092   2.023  13.922 -0.5409  0.0678 -0.1430
 8875TIP3   OH248039   5.740   5.366   1.656  0.0753  0.1036  0.1119
 8875TIP3    H148040   5.823   5.386   1.613 -0.2393  2.5238  0.4824
 8875TIP3    H248041   5.762   5.357   1.748  0.0286  0.0158  0.1147
 8876TIP3   OH248042   2.337   3.485  11.668  0.4763 -0.0639 -0.4745
 8876TIP3    H148043   2.305   3.448  11.586  0.7675 -0.0705 -0.5882
 8876TIP3    H248044   2.259   3.500  11.721  0.1565  1.2682 -1.2972
 8877TIP3   OH248045   2.274   3.708  16.246  0.2341  0.3632  0.4118
 8877TIP3    H148046   2.208   3.744  16.186  0.0658 -0.9444 -0.2169
 8877TIP3    H248047   2.347   3.684  16.189  0.5160  0.1148  0.8744
 8878TIP3   OH248048   4.485   4.237  15.104  0.2383 -0.1729 -0.1546
 8878TIP3    H148049   4.471   4.145  15.081 -2.9877 -0.5230  2.4853
 8878TIP3    H248050   4.428   4.285  15.044 -0.0814 -0.1614  0.1536
 8879TIP3   OH248051   0.082   1.391  15.481 -0.2217 -0.6787  0.4401
 8879TIP3    H148052   0.103   1.447  15.556  0.0981  0.7895 -0.6942
 8879TIP3    H248053   0.135   1.426  15.410 -0.9210 -1.6933 -0.6023
 8880TIP3   OH248054   3.569   1.705  16.326 -0.0427  0.3811 -0.1158
 8880TIP3    H148055   3.485   1.718  16.371 -0.6801  1.0338 -1.4538
 8880TIP3    H248056   3.587   1.789  16.284  1.4887  0.3638  0.4697
 8881TIP3   OH248057   4.479   1.127   4.883  0.2648  0.2031 -0.0241
 8881TIP3    H148058   4.540   1.125   4.808  0.3218  0.0193  0.0265
 8881TIP3    H248059   4.473   1.220   4.906 -0.1663  0.3201 -0.5930
 8882TIP3   OH248060   1.558   5.558  15.634 -0.2633 -0.0026 -0.5010
 8882TIP3    H148061   1.612   5.509  15.697 -1.6930 -0.0861  0.7060
 8882TIP3    H248062   1.596   5.646  15.634  0.9788 -0.5102 -1.0568
 8883TIP3   OH248063   6.262   1.632   1.499  0.0009 -0.2442  0.1213
 8883TIP3    H148064   6.350   1.620   1.464  0.2424  0.4225  0.4806
 8883TIP3    H248065   6.227   1.543   1.505  0.5557 -0.4978 -0.2547
 8884TIP3   OH248066   6.544   4.238   0.584  0.1218 -0.0040 -0.4574
 8884TIP3    H148067   6.606   4.286   0.638 -0.7484 -0.0459  0.6004
 8884TIP3    H248068   6.459   4.252   0.626 -0.3933 -1.0640 -1.1026
 8885TIP3   OH248069   4.525   2.268   0.441  0.0786 -0.1145  0.1219
 8885TIP3    H148070   4.583   2.312   0.502  0.2063 -2.1706  1.5871
 8885TIP3    H248071   4.583   2.222   0.381 -0.0539  0.4888 -0.4800
 8886TIP3   OH248072   5.811   0.048  17.313 -0.2400  0.3719 -0.0317
 8886TIP3    H148073   5.791   0.128  17.264  2.0640  1.0796  0.0444
 8886TIP3    H248074   5.858   0.078  17.390 -2.1894 -0.8719  1.7481
 8887TIP3   OH248075   0.080   1.719  11.420  0.3205 -0.4541  0.0342
 8887TIP3    H148076   0.023   1.650  11.453 -1.5968  0.9138 -0.2556
 8887TIP3    H248077   0.120   1.757  11.498 -0.0004 -0.7327  0.3343
 8888TIP3   OH248078   5.310   2.026  14.429  0.4123  0.1308  0.5994
 8888TIP3    H148079   5.337   1.943  14.389  1.9658  1.1125 -0.4869
 8888TIP3    H248080   5.221   2.041  14.395  0.7401 -0.2960 -0.5001
 8889TIP3   OH248081   2.426   3.882  11.192  0.3485 -0.0012 -0.1928
 8889TIP3    H148082   2.517   3.899  11.167  1.1109 -1.6263  1.2525
 8889TIP3    H248083   2.386   3.843  11.114  0.6169  1.4864 -1.1136
 8890TIP3   OH248084   1.190   5.575  16.153 -0.0761  0.6482  0.1727
 8890TIP3    H148085   1.248   5.509  16.116  0.1952  1.8629 -1.7308
 8890TIP3    H248086   1.105   5.555  16.113 -0.3226  0.5872  0.7269
 8891TIP3   OH248087   0.608   6.356   4.359 -0.6247  0.2882  0.2373
 8891TIP3    H148088   0.690   6.311   4.341 -0.0241  1.9291 -1.5313
 8891TIP3    H248089   0.540   6.294   4.333  0.1262 -0.2632 -0.4685
 8892TIP3   OH248090   0.914   2.148   1.600 -0.0380 -0.2548 -0.3833
 8892TIP3    H148091   0.891   2.117   1.512  0.1197  1.9007 -1.2372
 8892TIP3    H248092   0.869   2.232   1.608  1.9085  0.7365  0.6469
 8893TIP3   OH248093   1.214   0.581  15.809  0.6194 -0.3052 -0.2828
 8893TIP3    H148094   1.289   0.637  15.790 -0.4806  1.5575  0.5934
 8893TIP3    H248095   1.212   0.575  15.905 -0.2750 -0.4481 -0.3012
 8894TIP3   OH248096   1.161   1.716  14.878 -0.0635  0.0955  0.0971
 8894TIP3    H148097   1.152   1.685  14.968  0.7493  0.9230  0.4834
 8894TIP3    H248098   1.225   1.658  14.838  1.1086  0.9315  0.6810
 8895TIP3   OH248099   0.043   2.389   3.250 -0.0864  0.6979  0.2016
 8895TIP3    H148100  -0.019   2.447   3.206  0.8330  1.2237 -0.4394
 8895TIP3    H248101   0.060   2.432   3.334 -0.6490  0.5093  0.4132
 8896TIP3   OH248102   5.528   2.619  12.777 -0.6264  0.3298  0.1194
 8896TIP3    H148103   5.496   2.706  12.803  0.3566  1.8763 -3.2883
 8896TIP3    H248104   5.448   2.568  12.762 -1.2887  1.2890  0.2623
 8897TIP3   OH248105   2.349   2.552  13.793  0.1628 -0.5969 -1.1541
 8897TIP3    H148106   2.365   2.487  13.724 -0.1014 -0.2456 -1.5565
 8897TIP3    H248107   2.314   2.628  13.746 -1.2986 -0.8297 -0.4913
 8898TIP3   OH248108   0.686   3.818  10.189  0.0573 -0.4525 -0.0723
 8898TIP3    H148109   0.755   3.789  10.129 -0.9272 -0.1433 -1.4062
 8898TIP3    H248110   0.653   3.899  10.151 -2.0197 -1.3479 -0.2948
 8899TIP3   OH248111   1.896   3.435  13.924 -0.5894  0.3497 -0.0871
 8899TIP3    H148112   1.922   3.343  13.931 -0.5019  0.3908  0.1359
 8899TIP3    H248113   1.900   3.468  14.013  2.0324  1.2774 -0.4575
 8900TIP3   OH248114   2.526   3.615   3.806 -0.4222  0.2665  0.4145
 8900TIP3    H148115   2.575   3.539   3.774 -0.9164 -0.2152  0.7822
 8900TIP3    H248116   2.454   3.625   3.744 -0.8505 -0.1004  0.8459
 8901TIP3   OH248117   2.969   0.184   5.038 -0.1821  0.0445 -0.1069
 8901TIP3    H148118   2.954   0.277   5.050  1.7733  0.2135  1.4875
 8901TIP3    H248119   2.883   0.149   5.011 -1.1928  2.1019  0.2472
 8902TIP3   OH248120   1.529   1.196  11.152 -0.2318  0.4761  0.0865
 8902TIP3    H148121   1.532   1.213  11.246 -1.4082 -0.0700  0.2384
 8902TIP3    H248122   1.618   1.166  11.130 -0.0569  0.2219  1.0910
 8903TIP3   OH248123   4.554   6.697   3.922  0.2187 -0.1471  0.9571
 8903TIP3    H148124   4.567   6.631   3.990  0.6918 -0.8320  0.2202
 8903TIP3    H248125   4.637   6.698   3.873 -0.7727 -1.1501 -0.8691
 8904TIP3   OH248126   6.545   4.704  13.680 -0.1532  0.5365 -0.1621
 8904TIP3    H148127   6.470   4.665  13.726  0.6554 -2.1265 -0.8931
 8904TIP3    H248128   6.508   4.779  13.633 -2.1850 -0.1568  0.2310
 8905TIP3   OH248129   3.187   0.716   2.049 -0.1720 -0.0089  0.4798
 8905TIP3    H148130   3.251   0.714   1.978 -2.6889  0.5456 -1.9745
 8905TIP3    H248131   3.163   0.624   2.063 -2.1730  0.0384 -1.9706
 8906TIP3   OH248132   2.529   4.951   5.255 -0.0403 -0.7301 -0.3375
 8906TIP3    H148133   2.599   4.889   5.273 -0.8893 -1.7466 -0.4959
 8906TIP3    H248134   2.468   4.904   5.199 -0.3710  0.4670 -1.0251
 8907TIP3   OH248135   2.004   5.343   3.307 -0.4460 -0.3687 -0.2244
 8907TIP3    H148136   2.036   5.393   3.232 -2.1823  1.0805 -0.0591
 8907TIP3    H248137   1.973   5.261   3.268 -1.1398  0.2833 -1.0975
 8908TIP3   OH248138   3.221   4.860   3.961 -0.4431 -0.6398  0.6230
 8908TIP3    H148139   3.259   4.784   4.005 -0.5814 -0.7036  0.6336
 8908TIP3    H248140   3.295   4.902   3.917 -0.3940 -0.8841  0.4641
 8909TIP3   OH248141   0.085   1.922   4.719 -0.1094  0.3594 -0.3016
 8909TIP3    H148142   0.052   1.994   4.665  3.7461  1.5813 -1.3836
 8909TIP3    H248143   0.133   1.866   4.657  1.0974 -0.3977  1.2407
 8910TIP3   OH248144   5.063   0.142   5.786  0.0841 -0.2896 -0.3444
 8910TIP3    H148145   4.998   0.154   5.855 -0.5231 -0.6925 -0.8409
 8910TIP3    H248146   5.024   0.078   5.727  0.7910 -0.2850 -0.8263
 8911TIP3   OH248147   4.126   2.356   2.188  0.0962 -0.1642 -0.2672
 8911TIP3    H148148   4.170   2.291   2.134  0.9349 -0.7887  1.1051
 8911TIP3    H248149   4.108   2.311   2.271  1.7045  1.5963  1.1510
 8912TIP3   OH248150   3.174   0.945   1.784 -0.1663  0.0500 -0.4949
 8912TIP3    H148151   3.250   0.994   1.753 -0.6104 -0.0133 -1.7273
 8912TIP3    H248152   3.195   0.854   1.764  0.2624 -0.1929  0.9573
 8913TIP3   OH248153   0.543   5.295  11.162  0.1102  0.8483 -0.2942
 8913TIP3    H148154   0.537   5.334  11.250 -1.5116 -1.0916  0.5625
 8913TIP3    H248155   0.451   5.281  11.137  0.5987 -0.7721 -1.2787
 8914TIP3   OH248156   6.358   1.008  15.847  0.3696 -0.1916  0.2615
 8914TIP3    H148157   6.405   1.090  15.864  3.3974 -2.0127  1.3476
 8914TIP3    H248158   6.367   0.995  15.753  1.6809 -0.2298  0.3685
 8915TIP3   OH248159   5.232   5.844   1.392  0.3855  0.1829 -0.2407
 8915TIP3    H148160   5.193   5.800   1.317  1.1401  0.7264 -0.9674
 8915TIP3    H248161   5.326   5.826   1.385  0.7701  2.2061 -0.7853
 8916TIP3   OH248162   2.618   3.953  12.255 -0.1968  0.3900 -0.9966
 8916TIP3    H148163   2.579   3.963  12.169  0.7845  0.1756 -1.4819
 8916TIP3    H248164   2.644   4.041  12.281 -2.2899  0.7826 -0.0063
 8917TIP3   OH248165   3.211   3.986  12.931 -0.1471  0.4337 -0.0822
 8917TIP3    H148166   3.181   4.020  12.847  1.0254 -1.2601 -1.2602
 8917TIP3    H248167   3.131   3.976  12.983 -1.0108  0.6413 -1.3292
 8918TIP3   OH248168   3.624   5.955   6.404  0.0985  0.2063 -0.1523
 8918TIP3    H148169   3.619   5.860   6.412  2.0355  0.0549 -0.3665
 8918TIP3    H248170   3.657   5.984   6.489  0.0158  0.6510 -0.2711
 8919TIP3   OH248171   2.868   6.133  12.064  0.5903  0.2228  0.2450
 8919TIP3    H148172   2.799   6.175  12.012  0.5076  1.3397  1.2039
 8919TIP3    H248173   2.823   6.098  12.141  0.8356 -0.6281  0.0045
 8920TIP3   OH248174   3.310   6.333   6.366  0.4492  0.2504  1.6503
 8920TIP3    H148175   3.254   6.357   6.292 -0.0610  0.5455  2.1228
 8920TIP3    H248176   3.364   6.410   6.381  2.5772 -0.7685 -0.1928
 8921TIP3   OH248177   0.213   2.930   1.463 -0.1720 -0.0801 -0.2379
 8921TIP3    H148178   0.253   2.997   1.409 -0.1778  0.1116 -0.0039
 8921TIP3    H248179   0.122   2.957   1.472 -0.4524 -0.6956 -1.0585
 8922TIP3   OH248180   2.947   3.021  14.465  0.1800 -0.0902  0.5909
 8922TIP3    H148181   2.886   2.980  14.404  0.1447 -0.2593  0.7422
 8922TIP3    H248182   2.895   3.089  14.508  0.4202  0.6035 -0.1726
 8923TIP3   OH248183   6.556   2.069   4.998  0.2423  0.1295  0.2054
 8923TIP3    H148184   6.568   2.164   4.991  0.2666  0.2039  1.0943
 8923TIP3    H248185   6.628   2.040   5.053 -0.9744 -0.0865  1.7561
 8924TIP3   OH248186   2.733   5.902   2.894  0.1789  0.1078  0.2304
 8924TIP3    H148187   2.775   5.894   2.809  1.1019 -1.9261  0.8164
 8924TIP3    H248188   2.655   5.846   2.888 -0.4003  0.8759  0.3737
 8925TIP3   OH248189   2.872   4.908   2.227  0.1603 -0.3102 -0.1178
 8925TIP3    H148190   2.900   4.829   2.181  0.2197 -0.5687  0.3523
 8925TIP3    H248191   2.858   4.879   2.317 -1.1097 -0.0711 -0.2189
 8926TIP3   OH248192   0.451   5.585  12.176 -0.2323  0.3448  0.1210
 8926TIP3    H148193   0.476   5.620  12.091  0.0651  1.8178  0.7708
 8926TIP3    H248194   0.358   5.608  12.185 -0.2545  0.2257  0.2035
 8927TIP3   OH248195   3.973   0.509  16.282  0.3579 -0.1800  0.2128
 8927TIP3    H148196   3.889   0.495  16.238  0.6591  0.6240 -0.6528
 8927TIP3    H248197   3.961   0.471  16.369 -0.7308 -0.5303 -0.0719
 8928TIP3   OH248198   3.018   1.893   1.209  0.6941  0.3221 -0.1727
 8928TIP3    H148199   3.033   1.808   1.251  1.6267  0.7599  0.4098
 8928TIP3    H248200   3.063   1.956   1.265 -0.7187  1.3250 -0.1221
 8929TIP3   OH248201   0.374   5.330   4.168 -0.1704  0.1195  0.2292
 8929TIP3    H148202   0.351   5.315   4.076  1.8975  0.4578 -0.4068
 8929TIP3    H248203   0.294   5.366   4.207 -0.7546  1.1110 -1.7292
 8930TIP3   OH248204   5.563   6.707   5.246 -0.0096 -0.3720  0.2954
 8930TIP3    H148205   5.647   6.708   5.291  1.7650 -0.4337 -2.7433
 8930TIP3    H248206   5.534   6.615   5.250  1.3976 -0.9043 -0.7538
 8931TIP3   OH248207   4.216   0.356   6.241  0.3331  0.1602 -0.3467
 8931TIP3    H148208   4.268   0.404   6.306 -0.4124  3.0959 -1.7426
 8931TIP3    H248209   4.130   0.347   6.281  0.5825 -0.4197  0.0791
 8932TIP3   OH248210   2.476   1.430  11.739  0.1834 -0.1763  0.2886
 8932TIP3    H148211   2.453   1.356  11.795 -1.6237 -0.7980 -1.1463
 8932TIP3    H248212   2.404   1.492  11.749  0.8722  0.6535  0.2271
 8933TIP3   OH248213   4.701   4.226  12.527 -0.2239  0.7075  0.0885
 8933TIP3    H148214   4.740   4.167  12.592 -0.6688  0.7888  0.4306
 8933TIP3    H248215   4.639   4.279  12.577  1.7355  3.0497  0.2771
 8934TIP3   OH248216   1.059   2.407   3.634 -0.1632  0.3886  0.4636
 8934TIP3    H148217   1.139   2.355   3.635  0.4830  1.3465  1.0023
 8934TIP3    H248218   1.002   2.362   3.572  1.6140  0.8539 -1.6697
 8935TIP3   OH248219   6.308   0.438  13.721  0.4951  1.0069 -0.0748
 8935TIP3    H148220   6.312   0.367  13.656 -1.3185  0.4562  0.3450
 8935TIP3    H248221   6.226   0.483  13.702 -0.4147  0.4528  2.1457
 8936TIP3   OH248222   6.630   0.466  14.630  0.4900  0.1835  0.0124
 8936TIP3    H148223   6.713   0.466  14.679  0.2214 -2.4158  0.6619
 8936TIP3    H248224   6.632   0.384  14.580 -1.2451  0.5783 -0.7801
 8937TIP3   OH248225   2.892   5.151   0.853 -0.0882 -0.1013 -0.2715
 8937TIP3    H148226   2.915   5.070   0.809 -0.8454 -0.5320  0.0919
 8937TIP3    H248227   2.973   5.202   0.855  0.8427 -1.5599  1.0369
 8938TIP3   OH248228   2.990   0.814   5.334 -0.0578 -0.1838 -0.0115
 8938TIP3    H148229   2.899   0.819   5.365  0.4068 -1.1138  1.6025
 8938TIP3    H248230   3.035   0.761   5.399  1.5345 -0.2456 -1.1019
 8939TIP3   OH248231   4.607   5.162  15.523 -0.4019  0.0470  0.0115
 8939TIP3    H148232   4.596   5.101  15.595 -0.9486 -0.9420 -0.8855
 8939TIP3    H248233   4.700   5.185  15.525 -0.6011  0.8532  1.6473
 8940TIP3   OH248234   6.644   1.292   6.279 -0.6154  0.2100 -0.1568
 8940TIP3    H148235   6.737   1.283   6.299 -0.7342 -1.2340 -0.0888
 8940TIP3    H248236   6.603   1.313   6.362 -0.3213  1.1793 -0.2494
 8941TIP3   OH248237   4.490   3.908  12.759 -0.3891  0.1048 -0.0662
 8941TIP3    H148238   4.459   3.827  12.798 -0.2001  0.4866  0.9076
 8941TIP3    H248239   4.535   3.954  12.830 -0.6787  1.1596 -0.5349
 8942TIP3   OH248240   4.298   1.256   1.421 -0.1105  0.1602 -0.2122
 8942TIP3    H148241   4.216   1.269   1.373 -1.7611 -0.4552  2.2350
 8942TIP3    H248242   4.301   1.327   1.485  0.1065 -1.0345  1.1704
 8943TIP3   OH248243   1.923   5.130   3.180  0.4964 -0.1056 -0.1820
 8943TIP3    H148244   1.853   5.066   3.188 -0.5103  1.1782  2.5003
 8943TIP3    H248245   1.917   5.161   3.089 -2.1547 -0.3315 -0.1631
 8944TIP3   OH248246   5.192   2.061  12.090  0.2794  0.0255 -0.1509
 8944TIP3    H148247   5.122   2.010  12.132 -0.6358  0.7909 -0.7265
 8944TIP3    H248248   5.247   2.090  12.163  0.3686 -1.0940  0.2583
 8945TIP3   OH248249   4.744   6.656   1.872  0.1689  0.5484  0.1785
 8945TIP3    H148250   4.681   6.709   1.921 -0.1101  0.2147  0.1854
 8945TIP3    H248251   4.809   6.630   1.937 -0.4189 -0.2364  0.4836
 8946TIP3   OH248252   6.131   5.717  13.499  0.4191  0.6024  0.0778
 8946TIP3    H148253   6.074   5.762  13.436  1.5069  0.6086 -0.9545
 8946TIP3    H248254   6.104   5.625  13.495 -1.0881  0.9567  1.3885
 8947TIP3   OH248255   0.731   5.524   5.772 -0.1820  0.1110  0.0725
 8947TIP3    H148256   0.805   5.582   5.755  0.3089  0.1184  2.0901
 8947TIP3    H248257   0.675   5.572   5.833  0.5672 -1.7135  2.3301
 8948TIP3   OH248258   6.744   5.237   4.728 -0.4247  0.5024  0.1796
 8948TIP3    H148259   6.733   5.194   4.813  0.2306  2.3377  1.2588
 8948TIP3    H248260   6.703   5.323   4.739  0.9091  1.3187 -0.8749
 8949TIP3   OH248261   4.920   3.187  11.246  0.1602 -0.2146  0.0202
 8949TIP3    H148262   4.842   3.132  11.255  0.9284 -1.2963  0.2437
 8949TIP3    H248263   4.934   3.223  11.333  0.2455 -0.4793  0.1154
 8950TIP3   OH248264   0.264   1.772  12.213 -0.1715 -0.2334  0.0285
 8950TIP3    H148265   0.201   1.813  12.272  0.3178  1.5507 -0.6054
 8950TIP3    H248266   0.324   1.843  12.189  1.7269 -1.7130  0.1246
 8951TIP3   OH248267   5.148   0.883  16.531 -0.5378  0.0019  0.0128
 8951TIP3    H148268   5.180   0.925  16.611  2.0454 -0.2166 -0.8003
 8951TIP3    H248269   5.121   0.796  16.560  0.5551 -0.1466  0.6663
 8952TIP3   OH248270   6.294   4.488  12.000 -0.1932 -0.0709 -0.2043
 8952TIP3    H148271   6.249   4.406  12.022 -0.6956  0.3390  0.3213
 8952TIP3    H248272   6.367   4.461  11.945  0.3631 -1.0115  0.9446
 8953TIP3   OH248273   0.953   6.441  13.392  0.0645 -0.1858 -0.0261
 8953TIP3    H148274   0.868   6.401  13.372 -0.0194  1.1457 -2.8053
 8953TIP3    H248275   1.016   6.370  13.382 -0.6442 -1.1040  1.7110
 8954TIP3   OH248276   5.543   1.447  17.091 -0.3559 -0.0315  0.0078
 8954TIP3    H148277   5.537   1.441  17.186  0.7336 -0.7398  0.0441
 8954TIP3    H248278   5.455   1.428  17.060 -0.5639 -0.4567  0.8440
 8955TIP3   OH248279   2.976   3.491  13.963  0.6065 -0.3653 -0.3498
 8955TIP3    H148280   3.005   3.496  13.872  2.3596 -0.2300  0.1844
 8955TIP3    H248281   2.898   3.546  13.967 -0.1869 -1.3145 -2.0190
 8956TIP3   OH248282   4.142   5.560  12.704  0.3915  0.2240 -1.0131
 8956TIP3    H148283   4.179   5.632  12.755  1.5249 -0.6227 -0.5934
 8956TIP3    H248284   4.190   5.483  12.734 -2.6101 -1.1859  0.5268
 8957TIP3   OH248285   5.826   2.989   5.344 -0.0601  0.5966 -0.6241
 8957TIP3    H148286   5.829   3.073   5.297 -1.8129  0.3613 -1.2474
 8957TIP3    H248287   5.732   2.968   5.348  0.3771 -1.6076 -1.0013
 8958TIP3   OH248288   5.589   1.872  15.312  0.0601  0.3944  0.1441
 8958TIP3    H148289   5.625   1.804  15.370 -1.0221  0.6211  1.1203
 8958TIP3    H248290   5.555   1.823  15.237  1.8000  0.1288 -0.5100
 8959TIP3   OH248291   5.382   0.214  11.369 -0.3082 -0.0960  0.2058
 8959TIP3    H148292   5.383   0.299  11.326 -2.9174  0.1971  0.5664
 8959TIP3    H248293   5.421   0.230  11.455 -1.5281  0.9842  0.5917
 8960TIP3   OH248294   1.676   5.184  12.365 -0.0559  0.2181  0.4569
 8960TIP3    H148295   1.704   5.224  12.448  0.7804  0.4955  0.0601
 8960TIP3    H248296   1.748   5.126  12.341 -0.8272 -0.7941  0.5209
 8961TIP3   OH248297   2.551   4.148   4.815  0.0610  0.3048 -0.4689
 8961TIP3    H148298   2.458   4.136   4.793 -0.5758  1.7453  1.1837
 8961TIP3    H248299   2.582   4.212   4.751 -0.5572  1.0812 -0.0160
 8962TIP3   OH248300   3.581   6.010   0.408  0.7584  0.4352  0.9707
 8962TIP3    H148301   3.647   6.061   0.360 -0.7589  0.7598 -0.9036
 8962TIP3    H248302   3.523   6.075   0.447  0.7560  0.1579  1.4309
 8963TIP3   OH248303   2.956   1.854   5.557  0.5907  0.4508 -0.4461
 8963TIP3    H148304   2.886   1.847   5.622  0.9572 -2.3567 -0.2460
 8963TIP3    H248305   2.949   1.944   5.524 -1.1376  1.2016  1.7241
 8964TIP3   OH248306   5.829   3.790  14.777  0.6395  0.4944 -0.3639
 8964TIP3    H148307   5.859   3.720  14.719  0.1661  1.5348 -1.9190
 8964TIP3    H248308   5.734   3.783  14.776  0.6253 -0.5353  1.7045
 8965TIP3   OH248309   5.962   1.031   2.119  0.0547  0.3074  0.8820
 8965TIP3    H148310   5.988   1.080   2.041 -1.8714 -0.4122 -0.2813
 8965TIP3    H248311   5.932   0.947   2.086 -1.3393  0.1845  2.3491
 8966TIP3   OH248312   0.238   0.332   4.164 -0.4631  0.0451 -0.7147
 8966TIP3    H148313   0.305   0.400   4.157  1.6274 -2.0035 -2.4418
 8966TIP3    H248314   0.287   0.251   4.177 -2.7110 -1.4060 -0.6833
 8967TIP3   OH248315   1.509   5.854   6.328  1.0194 -0.1924  0.4135
 8967TIP3    H148316   1.445   5.801   6.280  1.4528 -1.1225  0.8313
 8967TIP3    H248317   1.455   5.913   6.382  0.5327  0.5991 -0.8928
 8968TIP3   OH248318   0.304   4.159   1.124  0.0153  0.1137  0.5057
 8968TIP3    H148319   0.244   4.113   1.183 -0.5223 -0.2474 -0.2956
 8968TIP3    H248320   0.302   4.250   1.153 -2.3348  0.5055 -0.5529
 8969TIP3   OH248321   3.834   2.735  15.291  0.4163 -0.3366  0.1049
 8969TIP3    H148322   3.888   2.814  15.297  1.3971 -1.0483  1.1366
 8969TIP3    H248323   3.781   2.747  15.213  0.9724  1.0814 -0.0711
 8970TIP3   OH248324   5.727   0.511   0.978 -0.1965  0.3631  0.2662
 8970TIP3    H148325   5.663   0.523   0.908  1.4659 -2.0588 -1.8698
 8970TIP3    H248326   5.678   0.469   1.049 -1.1281 -1.0411 -1.1469
 8971TIP3   OH248327   0.892   1.874  13.449  0.1851  0.8053 -0.2269
 8971TIP3    H148328   0.885   1.814  13.522 -0.5207  0.7109 -0.3722
 8971TIP3    H248329   0.897   1.818  13.372 -1.6405  0.9227 -0.4687
 8972TIP3   OH248330   3.962   2.517   4.294 -0.8516 -0.1495  0.0719
 8972TIP3    H148331   3.943   2.607   4.318 -2.6384 -0.8308  1.4568
 8972TIP3    H248332   4.058   2.510   4.299 -0.7127  1.5589  0.2751
 8973TIP3   OH248333   2.825   4.984  11.870 -0.2191 -0.2322  0.7437
 8973TIP3    H148334   2.874   5.066  11.862 -0.0919 -0.2801  1.0029
 8973TIP3    H248335   2.757   5.003  11.934  0.7776 -0.7676  2.0110
 8974TIP3   OH248336   3.378   4.594   6.108 -0.8290 -0.0068 -0.4709
 8974TIP3    H148337   3.420   4.560   6.029 -1.7743 -1.2019 -0.4976
 8974TIP3    H248338   3.291   4.620   6.080 -0.6980  0.8670 -0.0919
 8975TIP3   OH248339   6.704   0.536  13.824  0.2139 -0.3132 -0.0435
 8975TIP3    H148340   6.773   0.482  13.862  1.3379  0.6130 -0.7162
 8975TIP3    H248341   6.750   0.596  13.765 -1.1594  0.3776 -0.4485
 8976TIP3   OH248342   2.908   2.775   4.844  0.0054 -0.2515 -0.0020
 8976TIP3    H148343   2.964   2.783   4.767 -0.7127  0.8590 -0.4409
 8976TIP3    H248344   2.912   2.862   4.885 -1.3991 -0.1369 -0.0647
 8977TIP3   OH248345   0.904   1.509   0.341  0.4884 -0.4532  0.4007
 8977TIP3    H148346   0.948   1.425   0.333  2.7271  0.7107 -0.4358
 8977TIP3    H248347   0.900   1.526   0.436 -0.4236 -1.6674  0.6008
 8978TIP3   OH248348   4.331   6.570  11.638 -0.2925  0.0585  0.0038
 8978TIP3    H148349   4.288   6.515  11.704  1.2354 -1.2368 -0.0241
 8978TIP3    H248350   4.284   6.653  11.641  0.1245  0.2745  3.1803
 8979TIP3   OH248351   5.933   6.439   1.057 -0.1372  0.3687 -0.3551
 8979TIP3    H148352   5.878   6.479   0.990  0.2531  1.5111 -0.0069
 8979TIP3    H248353   5.871   6.395   1.115 -0.4308 -1.5378 -1.9790
 8980TIP3   OH248354   1.553   1.492   1.036  0.8092 -0.0521 -0.6003
 8980TIP3    H148355   1.489   1.514   0.968 -1.2746  0.9521  1.5607
 8980TIP3    H248356   1.506   1.433   1.095  3.1511 -2.4234 -0.9098
 8981TIP3   OH248357   6.114   2.624   1.323  0.2443  0.4591 -0.1514
 8981TIP3    H148358   6.175   2.645   1.253  0.6274 -2.1295 -0.7053
 8981TIP3    H248359   6.169   2.599   1.397 -0.1391  0.2985  0.0834
 8982TIP3   OH248360   3.143   2.286  13.023  0.2834 -0.5077 -0.2502
 8982TIP3    H148361   3.125   2.376  13.047  0.2878 -0.7007  0.4960
 8982TIP3    H248362   3.089   2.233  13.082 -0.9497 -0.9890 -1.7056
 8983TIP3   OH248363   0.593   1.969   0.666  0.8981  0.4919  0.0065
 8983TIP3    H148364   0.682   1.969   0.632  0.9486 -0.4219  0.1292
 8983TIP3    H248365   0.587   2.051   0.715  1.6533  0.5851 -0.0386
 8984TIP3   OH248366   4.552   5.698   5.205  0.2629 -0.4628 -0.3021
 8984TIP3    H148367   4.554   5.790   5.231 -2.0148 -0.5967  0.5772
 8984TIP3    H248368   4.602   5.652   5.273 -2.5973 -0.3643  2.0816
 8985TIP3   OH248369   1.354   4.624   1.370 -0.2048  0.1054  0.4026
 8985TIP3    H148370   1.410   4.555   1.335 -0.0461  1.1172 -1.4380
 8985TIP3    H248371   1.395   4.647   1.454  0.6380 -0.9263  0.3060
 8986TIP3   OH248372   3.171   4.512  16.810 -0.5321 -0.1522  0.0942
 8986TIP3    H148373   3.209   4.430  16.841 -0.9855 -0.4234 -0.0623
 8986TIP3    H248374   3.079   4.492  16.793 -0.0277 -0.4101 -2.8434
 8987TIP3   OH248375   5.020   2.285  11.646  0.4043  0.1164 -0.1847
 8987TIP3    H148376   5.064   2.241  11.573 -0.2316 -0.5918 -0.1537
 8987TIP3    H248377   5.052   2.238  11.724  2.3142  1.8789  0.1718
 8988TIP3   OH248378   0.515   6.669  12.457 -0.2258 -0.4595 -0.0067
 8988TIP3    H148379   0.538   6.728  12.385 -0.5267  1.9953  1.7498
 8988TIP3    H248380   0.430   6.632  12.433  0.2907 -0.7271 -1.4722
 8989TIP3   OH248381   1.329   5.413  15.636 -0.7917 -0.1016  0.2929
 8989TIP3    H148382   1.388   5.481  15.606 -1.2870  0.5070  0.6636
 8989TIP3    H248383   1.241   5.449  15.623 -1.0385 -0.0800  1.8051
 8990TIP3   OH248384   0.790   1.431  14.623  0.2296  0.2118 -0.5432
 8990TIP3    H148385   0.854   1.496  14.652  1.7054 -0.5967 -1.8325
 8990TIP3    H248386   0.835   1.347  14.634 -0.3330 -0.3362 -2.1664
 8991TIP3   OH248387   1.436   2.484  13.045  0.0928  0.1410 -0.4044
 8991TIP3    H148388   1.441   2.416  13.113  0.7253  0.7128  0.1345
 8991TIP3    H248389   1.525   2.487  13.008 -0.1238  0.1675 -0.9319
 8992TIP3   OH248390   5.907   6.168   3.768 -0.8285  0.2927  0.3350
 8992TIP3    H148391   5.862   6.117   3.835  1.2776  0.4302  1.9514
 8992TIP3    H248392   5.926   6.252   3.810 -0.2115  0.7215 -0.7441
 8993TIP3   OH248393   4.813   6.043   2.349 -0.3426  0.3051 -0.4510
 8993TIP3    H148394   4.907   6.044   2.329 -0.1868  0.2183  0.2613
 8993TIP3    H248395   4.777   5.980   2.287  0.5134 -1.8496  1.1308
 8994TIP3   OH248396   2.489   0.265   4.511  1.0097  0.4382 -0.0075
 8994TIP3    H148397   2.409   0.255   4.460  0.7740  0.4112  0.3622
 8994TIP3    H248398   2.554   0.213   4.464  1.6416  2.8004 -2.0155
 8995TIP3   OH248399   2.729   5.507   1.615  0.0454 -0.0418  0.0985
 8995TIP3    H148400   2.648   5.555   1.632 -0.3640 -0.6615 -0.0498
 8995TIP3    H248401   2.707   5.449   1.542  0.6471 -0.1638  0.0095
 8996TIP3   OH248402   0.119   2.952  16.920  0.4029  0.2767 -0.1204
 8996TIP3    H148403   0.116   2.889  16.992  0.9812  0.7830  0.3645
 8996TIP3    H248404   0.204   2.996  16.931  0.6378  0.1621 -1.2854
 8997TIP3   OH248405   0.736   3.230  17.090  0.3790 -0.1548 -0.3468
 8997TIP3    H148406   0.728   3.312  17.041  1.0928  0.0459 -0.1466
 8997TIP3    H248407   0.646   3.199  17.100  0.1457  0.3026 -0.9324
 8998TIP3   OH248408   4.222   4.013   6.529 -0.1959  0.6493  0.1699
 8998TIP3    H148409   4.128   4.004   6.547 -0.0446  0.2147  0.8089
 8998TIP3    H248410   4.259   4.042   6.613  0.0251  2.4959 -0.5255
 8999TIP3   OH248411   0.657   3.044  14.218 -0.6525  0.3517  0.1701
 8999TIP3    H148412   0.664   3.008  14.306  1.1745 -1.1050 -0.5111
 8999TIP3    H248413   0.597   2.984  14.173 -0.2917  0.1463 -0.0356
 9000TIP3   OH248414   1.510   4.768   2.536 -0.0938  0.6425  0.0781
 9000TIP3    H148415   1.554   4.762   2.451  0.3103 -1.2768  0.3802
 9000TIP3    H248416   1.444   4.699   2.534  0.7337 -0.2636  1.7474
 9001TIP3   OH248417   5.684   0.236   5.218  0.4802  0.6750  0.2186
 9001TIP3    H148418   5.740   0.314   5.215  0.9857  0.5720  3.4918
 9001TIP3    H248419   5.742   0.164   5.194  0.4214  1.0515 -1.1937
 9002TIP3   OH248420   2.448   4.636   0.140 -0.2112 -0.4113 -0.3242
 9002TIP3    H148421   2.401   4.686   0.206 -0.2985 -0.0010 -0.6942
 9002TIP3    H248422   2.493   4.702   0.087 -0.9716 -0.6532 -1.3074
 9003TIP3   OH248423   3.736   3.114  15.510  0.6563 -0.1905 -0.0487
 9003TIP3    H148424   3.666   3.049  15.512 -0.7411  1.2110 -1.1641
 9003TIP3    H248425   3.757   3.124  15.417 -1.1688  2.8997 -0.2674
 9004TIP3   OH248426   4.750   3.747   0.168  0.0213  0.0047  0.4062
 9004TIP3    H148427   4.709   3.662   0.155  0.6873 -0.1597 -0.7835
 9004TIP3    H248428   4.828   3.745   0.112  1.4675  0.4403  2.2821
 9005TIP3   OH248429   4.821   3.073   4.995 -0.2317  0.2287 -0.4675
 9005TIP3    H148430   4.889   3.066   5.063  0.3857  0.4002 -1.0471
 9005TIP3    H248431   4.866   3.047   4.914 -0.7866  0.6090 -0.9044
 9006TIP3   OH248432   6.229   4.642   6.245  0.2488  0.1826 -0.2885
 9006TIP3    H148433   6.142   4.647   6.205 -0.1973  2.0618  0.7720
 9006TIP3    H248434   6.246   4.731   6.275  1.0855 -0.8087  2.4957
 9007TIP3   OH248435   2.350   3.468   1.755 -0.2737 -0.6340 -0.4431
 9007TIP3    H148436   2.409   3.542   1.741 -0.1090 -1.1022 -2.4903
 9007TIP3    H248437   2.374   3.435   1.841  1.3237  0.1946 -0.5345
 9008TIP3   OH248438   3.755   0.506   4.394 -0.8490 -0.1613 -0.1016
 9008TIP3    H148439   3.811   0.445   4.441  1.1690  1.4187 -0.3054
 9008TIP3    H248440   3.693   0.450   4.346 -1.6888 -1.8707  2.7260
 9009TIP3   OH248441   4.378   1.254  14.191 -0.5075 -0.2140  0.1289
 9009TIP3    H148442   4.469   1.269  14.167 -0.2547  0.8771  1.6596
 9009TIP3    H248443   4.332   1.246  14.107  0.3472  3.2348 -0.7953
 9010TIP3   OH248444   3.740   0.210   4.080  0.2249  0.6332 -0.1723
 9010TIP3    H148445   3.739   0.152   4.004 -0.7480  1.6366 -0.9544
 9010TIP3    H248446   3.832   0.233   4.092  0.4902 -0.2263 -0.4834
 9011TIP3   OH248447   4.113   1.342  14.653 -0.1283 -0.6504 -0.3245
 9011TIP3    H148448   4.143   1.256  14.684  0.2340 -0.6065 -0.5516
 9011TIP3    H248449   4.190   1.381  14.612 -0.4320 -0.4335 -0.6942
 9012TIP3   OH248450   2.059   3.643  15.371 -0.6577  0.5966 -0.3281
 9012TIP3    H148451   1.966   3.621  15.378 -1.1424  2.6863  0.5165
 9012TIP3    H248452   2.081   3.683  15.455  1.1152 -0.1630 -0.3821
 9013TIP3   OH248453   4.270   5.021   3.343 -0.3473 -0.1468  0.5643
 9013TIP3    H148454   4.345   5.012   3.402 -0.1326 -0.8916  0.1965
 9013TIP3    H248455   4.209   4.952   3.371  0.0230 -0.9169 -0.4536
 9014TIP3   OH248456   1.109   6.010  16.674  0.3136 -0.1087  0.5028
 9014TIP3    H148457   1.201   6.012  16.651  0.4371 -0.6677  0.9383
 9014TIP3    H248458   1.065   5.979  16.594  0.7930 -2.5930  1.1065
 9015TIP3   OH248459   1.521   3.819   2.768 -0.5703 -0.3630 -0.0537
 9015TIP3    H148460   1.453   3.752   2.769 -0.9219  0.0019  1.0972
 9015TIP3    H248461   1.495   3.879   2.698 -1.2580 -0.3914  0.1739
 9016TIP3   OH248462   2.097   4.766  16.866  0.1681  0.2144 -0.0774
 9016TIP3    H148463   2.123   4.701  16.801  0.6642 -0.1156  0.4430
 9016TIP3    H248464   2.097   4.718  16.949 -0.9934  0.4932  0.1054
 9017TIP3   OH248465   5.849   6.674   5.722  0.4984  0.4776  0.1449
 9017TIP3    H148466   5.907   6.719   5.784  0.1953  0.9118  0.1179
 9017TIP3    H248467   5.779   6.637   5.777  0.2284  0.8642  0.0643
 9018TIP3   OH248468   5.596   2.496  13.440 -0.2334 -0.2125 -0.1228
 9018TIP3    H148469   5.596   2.583  13.482 -0.7790 -0.1519 -0.2339
 9018TIP3    H248470   5.576   2.436  13.512 -0.7772 -0.1476 -0.2121
 9019TIP3   OH248471   1.212   3.770  11.638 -0.4630  0.4367  0.1949
 9019TIP3    H148472   1.263   3.764  11.719  0.5739  0.0234 -0.4629
 9019TIP3    H248473   1.258   3.836  11.586  1.4582 -2.2100 -1.7590
 9020TIP3   OH248474   3.070   6.307   2.555 -0.6146 -0.5994 -0.3555
 9020TIP3    H148475   3.031   6.394   2.561  1.0775  0.1259  2.1097
 9020TIP3    H248476   3.103   6.301   2.466  1.8439  2.6173  0.1408
 9021TIP3   OH248477   0.488   0.394   5.769 -0.6885  0.4023 -0.7138
 9021TIP3    H148478   0.478   0.348   5.852 -0.0614  1.6373  0.0707
 9021TIP3    H248479   0.400   0.397   5.733 -0.8857 -0.6048 -0.3648
 9022TIP3   OH248480   0.031   2.818  13.855 -0.0792  0.1915 -0.4021
 9022TIP3    H148481   0.092   2.752  13.823  1.1150  0.5388  1.0171
 9022TIP3    H248482   0.085   2.896  13.867 -1.1124  0.9298 -0.4570
 9023TIP3   OH248483   2.717   4.213  10.875 -0.0389 -0.4215 -0.5086
 9023TIP3    H148484   2.724   4.251  10.963  0.0355  1.1052 -1.1481
 9023TIP3    H248485   2.801   4.232  10.834 -0.5225 -0.0230 -1.3236
 9024TIP3   OH248486   6.077   3.212   1.817  0.5169 -0.1648 -0.2542
 9024TIP3    H148487   6.056   3.189   1.908  1.8068 -0.2158  0.0490
 9024TIP3    H248488   6.129   3.138   1.785  0.1229 -0.1201 -1.0214
 9025TIP3   OH248489   2.675   1.405   1.407  0.0632  0.0951  0.4402
 9025TIP3    H148490   2.766   1.422   1.433 -0.4627  3.4066  0.6047
 9025TIP3    H248491   2.624   1.418   1.487 -0.8874  3.1707 -0.5043
 9026TIP3   OH248492   6.444   0.818   5.352 -0.2922 -0.5577  0.0791
 9026TIP3    H148493   6.480   0.768   5.425 -0.9139 -0.7302  0.2773
 9026TIP3    H248494   6.425   0.753   5.285  0.3210 -0.3930 -0.2548
 9027TIP3   OH248495   1.579   3.935   3.883 -0.6498 -0.0106  0.3445
 9027TIP3    H148496   1.596   3.955   3.791 -0.8835  0.7413  0.4543
 9027TIP3    H248497   1.484   3.929   3.889 -0.6434  0.1141  0.5702
 9028TIP3   OH248498   4.903   6.701  11.225 -0.2243 -0.8677  0.2657
 9028TIP3    H148499   4.989   6.737  11.202 -0.4026 -1.2851 -1.1571
 9028TIP3    H248500   4.854   6.776  11.258  0.8208 -0.7136  1.5922
 9029TIP3   OH248501   5.391   5.111  12.598  0.1096  0.1019 -0.2200
 9029TIP3    H148502   5.362   5.187  12.648 -0.1596 -0.3823  0.3756
 9029TIP3    H248503   5.486   5.121  12.592 -0.0780  1.4064 -1.6883
 9030TIP3   OH248504   5.965   3.448  15.745  0.0074  1.3064  0.1408
 9030TIP3    H148505   6.041   3.415  15.793 -0.2250  0.4941 -0.0405
 9030TIP3    H248506   5.984   3.541  15.732  1.0334  1.0879 -0.0107
 9031TIP3   OH248507   4.286   3.697  16.925 -0.5326 -0.1387 -0.3109
 9031TIP3    H148508   4.332   3.732  17.001 -0.3506 -0.4557 -0.2728
 9031TIP3    H248509   4.300   3.762  16.856  1.3433 -0.9625 -0.7854
 9032TIP3   OH248510   4.021   3.431  15.944  0.2039  0.1973 -0.1225
 9032TIP3    H148511   4.048   3.514  15.984  1.3137  0.1795 -0.7939
 9032TIP3    H248512   3.927   3.439  15.934  0.3769  1.6601 -0.7864
 9033TIP3   OH248513   0.681   0.942  11.395  0.1665 -0.0167 -0.3863
 9033TIP3    H148514   0.651   0.873  11.454 -0.0089 -0.3755 -0.8906
 9033TIP3    H248515   0.777   0.932  11.393  0.0239 -1.6023 -2.0654
 9034TIP3   OH248516   5.631   4.904  15.187 -0.2060 -0.0211  0.6432
 9034TIP3    H148517   5.714   4.893  15.234  0.8347  0.5633 -0.9849
 9034TIP3    H248518   5.626   4.827  15.130 -0.0579  0.6329 -0.2759
 9035TIP3   OH248519   5.745   1.495  13.834  0.2069 -0.0410  0.5268
 9035TIP3    H148520   5.662   1.541  13.846  0.4955  0.1722  1.9058
 9035TIP3    H248521   5.808   1.546  13.884  0.8100 -1.1637  0.9613
 9036TIP3   OH248522   2.133   0.436  12.605 -0.1453  0.0442  0.0822
 9036TIP3    H148523   2.084   0.360  12.576  0.7056 -0.4486 -0.0977
 9036TIP3    H248524   2.068   0.507  12.609 -1.2484 -0.9963  1.6200
 9037TIP3   OH248525   5.897   6.377   1.786 -0.2160  0.0236  0.0371
 9037TIP3    H148526   5.950   6.439   1.736  0.3648 -1.0515 -0.7124
 9037TIP3    H248527   5.961   6.325   1.834 -0.6316 -0.8417 -0.3412
 9038TIP3   OH248528   0.239   3.429   4.491  0.0909  0.0391 -0.2526
 9038TIP3    H148529   0.326   3.454   4.459 -0.2113  0.8546 -0.4483
 9038TIP3    H248530   0.178   3.480   4.438 -0.6005 -1.7236 -1.2332
 9039TIP3   OH248531   2.064   4.177   0.383  0.0316  0.2818 -0.4938
 9039TIP3    H148532   2.004   4.153   0.313 -3.4919  0.7294  2.0618
 9039TIP3    H248533   2.123   4.102   0.392 -1.0451 -0.8370 -2.2317
 9040TIP3   OH248534   3.995   4.233   2.850  0.9033  0.4717  0.2894
 9040TIP3    H148535   3.914   4.188   2.873  2.2491 -2.1833  0.3337
 9040TIP3    H248536   4.049   4.226   2.928  1.8508  0.4352 -0.3503
 9041TIP3   OH248537   2.632   6.728   4.117 -0.1067  0.5073  0.1709
 9041TIP3    H148538   2.714   6.769   4.089 -0.6138  2.2213  1.0084
 9041TIP3    H248539   2.658   6.649   4.162  0.9326 -0.2025 -1.5694
 9042TIP3   OH248540   4.296   5.960  13.051 -0.2541  0.0616 -0.9390
 9042TIP3    H148541   4.281   5.932  12.961 -2.9863 -1.6373 -0.0866
 9042TIP3    H248542   4.366   5.904  13.083  0.4757  0.4227 -1.8555
 9043TIP3   OH248543   1.470   2.852   5.099 -0.5216 -0.5489 -0.1388
 9043TIP3    H148544   1.393   2.868   5.044 -1.3557 -0.8128  0.9266
 9043TIP3    H248545   1.434   2.826   5.183  0.7274  0.3957  0.7155
 9044TIP3   OH248546   0.943   2.126   4.769  0.2322 -0.4279 -0.0937
 9044TIP3    H148547   0.852   2.120   4.799  0.3987 -1.4335  0.2750
 9044TIP3    H248548   0.953   2.217   4.740  0.1950  0.8289  3.4006
 9045TIP3   OH248549   5.346   0.702  17.044  0.5006 -0.1371  0.2677
 9045TIP3    H148550   5.419   0.653  17.083 -1.3505 -2.4516  1.0512
 9045TIP3    H248551   5.336   0.664  16.956  1.1127  1.1872 -0.3975
 9046TIP3   OH248552   4.719   3.787   0.542  0.3695 -0.1627  0.2467
 9046TIP3    H148553   4.650   3.734   0.501  0.4080  0.8288 -1.1697
 9046TIP3    H248554   4.675   3.830   0.616 -0.2924 -0.2547 -0.0847
 9047TIP3   OH248555   2.266   1.165  15.970  0.4263  0.5269  0.2939
 9047TIP3    H148556   2.184   1.117  15.963 -0.2783  1.3792  1.9452
 9047TIP3    H248557   2.325   1.123  15.907 -0.8401 -0.9973  0.0720
 9048TIP3   OH248558   1.847   5.503   1.276 -0.4429 -0.0010 -0.5779
 9048TIP3    H148559   1.829   5.567   1.344  1.0388 -0.4856  0.3156
 9048TIP3    H248560   1.762   5.465   1.256 -1.4144  2.4046 -1.3483
 9049TIP3   OH248561   5.283   3.222  14.906 -0.0199 -0.1755  0.1990
 9049TIP3    H148562   5.329   3.165  14.846 -1.2865 -1.1297  0.0944
 9049TIP3    H248563   5.324   3.206  14.991 -0.3731 -1.2677  0.1761
 9050TIP3   OH248564   4.284   4.823  12.352  0.0069 -0.0982 -0.3289
 9050TIP3    H148565   4.256   4.864  12.434 -2.4675 -1.3068 -0.4741
 9050TIP3    H248566   4.337   4.748  12.379  0.0198  0.0729  0.1288
 9051TIP3   OH248567   6.023   2.327  14.079 -0.1514 -0.2768 -0.0135
 9051TIP3    H148568   6.053   2.307  13.990 -2.0672 -1.9633 -0.3451
 9051TIP3    H248569   5.991   2.417  14.074  0.1771 -0.1996 -0.9102
 9052TIP3   OH248570   4.957   3.709  11.759  0.0397  0.0130 -0.2457
 9052TIP3    H148571   4.872   3.752  11.753 -1.6147 -2.7970  0.9159
 9052TIP3    H248572   4.938   3.625  11.802  3.5509 -0.3755  0.8665
 9053TIP3   OH248573   0.110   6.079  17.229  0.3498  0.0989 -0.0364
 9053TIP3    H148574   0.180   6.040  17.176  0.5169  1.0738 -0.5489
 9053TIP3    H248575   0.034   6.077  17.172  0.4062  0.6930 -0.1314
 9054TIP3   OH248576   0.976   4.094   2.081 -0.5573  0.1034 -0.1760
 9054TIP3    H148577   1.066   4.119   2.062 -0.7870  0.7919 -0.3904
 9054TIP3    H248578   0.982   4.006   2.116  0.1291 -0.1533 -0.9158
 9055TIP3   OH248579   4.555   6.060   5.899 -0.0494  0.2737  0.2660
 9055TIP3    H148580   4.620   6.121   5.865  0.8788  0.4250  2.1519
 9055TIP3    H248581   4.564   6.066   5.994 -1.4965 -1.1485  0.5433
 9056TIP3   OH248582   1.257   1.545   4.004  0.3043 -0.1340  0.5544
 9056TIP3    H148583   1.338   1.514   4.044  0.9371  1.0415  0.2096
 9056TIP3    H248584   1.282   1.573   3.916 -0.9173 -1.8851 -0.4208
 9057TIP3   OH248585   1.394   1.952  17.010  0.4838  0.2058  0.2154
 9057TIP3    H148586   1.317   1.897  17.000  0.1296  0.6272  0.5430
 9057TIP3    H248587   1.359   2.042  17.008  1.1166  0.4470 -0.9650
 9058TIP3   OH248588   5.612   5.106   0.899  0.5656 -0.3390 -0.1718
 9058TIP3    H148589   5.641   5.080   0.987 -1.0898 -0.2359  0.4480
 9058TIP3    H248590   5.651   5.041   0.841  1.3604 -0.6553  0.6781
 9059TIP3   OH248591   3.602   5.004  17.222  0.3989  0.1135  0.2002
 9059TIP3    H148592   3.688   5.034  17.251  0.1796 -0.4122  1.4732
 9059TIP3    H248593   3.592   5.039  17.133  1.5922  0.8268  0.3349
 9060TIP3   OH248594   0.848   5.407  15.532  0.1595  0.5245 -0.6369
 9060TIP3    H148595   0.754   5.425  15.521  0.3669  1.5329 -0.8458
 9060TIP3    H248596   0.880   5.388  15.444  0.4973  1.9833 -0.8513
 9061TIP3   OH248597   5.702   0.695  16.360  0.2693 -0.2773  0.7058
 9061TIP3    H148598   5.646   0.619  16.344  0.1242  0.2153 -1.5870
 9061TIP3    H248599   5.779   0.680  16.305 -0.0230  1.4469 -0.2578
 9062TIP3   OH248600   0.784   2.664  17.045 -0.5382  0.2777  0.2630
 9062TIP3    H148601   0.810   2.753  17.021 -0.7419 -0.0754 -1.3786
 9062TIP3    H248602   0.736   2.631  16.969 -1.8574 -0.6903  1.4404
 9063TIP3   OH248603   6.037   6.412  16.146  0.0840 -0.0793  0.1359
 9063TIP3    H148604   6.037   6.507  16.134 -1.5462 -0.1882 -1.0416
 9063TIP3    H248605   5.999   6.399  16.234 -1.6590  0.3381 -0.5109
 9064TIP3   OH248606   1.899   1.295  15.303 -0.5398 -0.0982  0.2257
 9064TIP3    H148607   1.984   1.253  15.313 -0.0605  0.6910 -0.3598
 9064TIP3    H248608   1.905   1.374  15.357 -1.4382 -0.7536  1.3426
 9065TIP3   OH248609   4.097   1.775   1.943 -0.1683  0.2703 -0.3321
 9065TIP3    H148610   4.043   1.759   2.021  0.3837  0.4694  0.1016
 9065TIP3    H248611   4.149   1.852   1.966  0.1913  0.1677 -0.7995
 9066TIP3   OH248612   3.015   3.177   1.143 -0.1872 -0.3041 -0.2110
 9066TIP3    H148613   3.110   3.162   1.142 -0.1045  0.2019 -0.3473
 9066TIP3    H248614   2.978   3.095   1.112  0.2676 -0.1398 -1.2402
 9067TIP3   OH248615   5.393   2.680  14.453 -0.5318  0.1335  0.4122
 9067TIP3    H148616   5.383   2.634  14.536 -1.0048  1.4376  1.1144
 9067TIP3    H248617   5.319   2.650  14.400 -1.4764  0.8765  1.2647
 9068TIP3   OH248618   1.184   2.830  14.739 -0.0077 -0.0851 -0.0368
 9068TIP3    H148619   1.236   2.790  14.808  0.0322 -0.9310 -0.5394
 9068TIP3    H248620   1.114   2.876  14.785 -0.1406 -0.8675  0.5620
 9069TIP3   OH248621   3.883   0.889   4.330  0.3051 -0.8044 -0.3444
 9069TIP3    H148622   3.958   0.833   4.307 -0.0278 -2.2679  1.8381
 9069TIP3    H248623   3.889   0.897   4.425 -1.3490  0.4944 -0.3303
 9070TIP3   OH248624   5.659   2.910  14.373  0.5220  0.0975 -0.0286
 9070TIP3    H148625   5.655   2.856  14.295 -1.3282  1.0130 -0.6252
 9070TIP3    H248626   5.617   2.992  14.348  0.1800  0.5455  1.8250
 9071TIP3   OH248627   4.460   6.290  12.048 -0.6826  0.2263 -0.3272
 9071TIP3    H148628   4.435   6.257  11.962 -1.3164  0.1583 -0.1198
 9071TIP3    H248629   4.490   6.380  12.031  1.3225 -0.5048 -0.9351
 9072TIP3   OH248630   6.431   2.251   6.347  0.1759  0.5530  0.1100
 9072TIP3    H148631   6.495   2.320   6.362  0.1510  1.0782 -1.9583
 9072TIP3    H248632   6.479   2.170   6.366  1.0378  1.0070 -0.0756
 9073TIP3   OH248633   3.971   5.091  17.024  0.2056  0.4436  0.5575
 9073TIP3    H148634   3.902   5.113  16.962  0.1374  1.2614  0.9184
 9073TIP3    H248635   4.047   5.072  16.969  0.1425  1.1495  0.2144
 9074TIP3   OH248636   1.358   4.380  11.130  0.2225 -0.1869 -0.7188
 9074TIP3    H148637   1.382   4.349  11.218 -1.1740 -2.4745 -1.0757
 9074TIP3    H248638   1.436   4.364  11.077 -0.4070 -3.2694 -0.8807
 9075TIP3   OH248639   2.521   3.312   3.450  0.2730  0.8140 -0.1326
 9075TIP3    H148640   2.596   3.270   3.408  0.6482  0.3822  0.9341
 9075TIP3    H248641   2.476   3.359   3.379  3.1229  3.4925 -0.3775
 9076TIP3   OH248642   2.243   6.700  14.392  0.1690 -0.3243 -0.0077
 9076TIP3    H148643   2.267   6.617  14.432  0.2405 -0.1999  0.2064
 9076TIP3    H248644   2.239   6.681  14.298 -0.9244 -0.8432  0.1231
 9077TIP3   OH248645   4.078   2.068   4.816 -0.0325 -0.1992  0.8434
 9077TIP3    H148646   4.054   2.160   4.802 -1.7968 -0.3769  2.2472
 9077TIP3    H248647   4.032   2.044   4.897  1.9607 -1.7707  1.5857
 9078TIP3   OH248648   0.502   3.510  10.942  0.2278 -0.2377  0.1292
 9078TIP3    H148649   0.446   3.448  10.988  0.4950  1.3172  2.7689
 9078TIP3    H248650   0.492   3.488  10.850 -3.2935 -1.1831  0.6052
 9079TIP3   OH248651   2.523   0.448   3.341 -0.3833 -0.2128 -0.2489
 9079TIP3    H148652   2.492   0.535   3.316 -0.3937 -1.0034 -3.5752
 9079TIP3    H248653   2.465   0.421   3.412 -2.8525  1.0784 -1.6226
 9080TIP3   OH248654   5.008   2.819  12.627 -0.4732  0.3982 -0.1413
 9080TIP3    H148655   5.019   2.737  12.676  0.7267  0.2853 -0.5543
 9080TIP3    H248656   5.058   2.805  12.546 -0.5506  1.4128 -0.3764
 9081TIP3   OH248657   5.703   6.370  14.983  0.7153  0.0877  0.1575
 9081TIP3    H148658   5.735   6.426  14.912 -0.1270 -0.0670 -0.3573
 9081TIP3    H248659   5.648   6.305  14.940  1.2110 -0.8003  0.8143
 9082TIP3   OH248660   4.982   6.745  11.606  0.0051  0.1634  0.4936
 9082TIP3    H148661   4.917   6.711  11.668 -0.0447  0.1902  0.4562
 9082TIP3    H248662   4.998   6.673  11.546 -0.1599  0.2309  0.3671
 9083TIP3   OH248663   0.458   1.188  11.931 -0.1140  0.4170 -0.3322
 9083TIP3    H148664   0.509   1.209  12.008  0.8361 -1.5120 -0.3585
 9083TIP3    H248665   0.367   1.189  11.960  0.2290 -0.1902  0.8146
 9084TIP3   OH248666   0.168   4.630  12.005 -0.2938  0.1920 -0.1629
 9084TIP3    H148667   0.100   4.697  12.010 -0.1612  0.3489 -0.4338
 9084TIP3    H248668   0.200   4.622  12.094 -2.2801 -1.5805  0.4765
 9085TIP3   OH248669   0.129   3.913  12.936  0.0956 -0.1777 -0.1428
 9085TIP3    H148670   0.117   3.941  12.845 -0.6594  1.2489  0.3642
 9085TIP3    H248671   0.103   3.988  12.988  0.0709 -1.1284  1.2838
 9086TIP3   OH248672   4.846   5.750  11.028  0.3150  0.2352  0.3765
 9086TIP3    H148673   4.885   5.663  11.023 -0.2695 -0.0965  1.1905
 9086TIP3    H248674   4.872   5.793  10.947  0.3832 -0.7980 -0.1763
 9087TIP3   OH248675   6.278   0.509  16.597  0.8840 -0.3169  0.0258
 9087TIP3    H148676   6.272   0.496  16.503  2.1435  0.0002 -0.1140
 9087TIP3    H248677   6.191   0.541  16.623  1.0707  1.4325 -1.3306
 9088TIP3   OH248678   1.226   2.313  17.223 -0.3996 -0.0132  0.5763
 9088TIP3    H148679   1.148   2.262  17.245 -0.5964 -0.2899 -0.6648
 9088TIP3    H248680   1.243   2.367  17.300 -0.3947 -1.6949  1.8009
 9089TIP3   OH248681   3.760   6.399  15.806 -0.5185 -0.1195  0.6195
 9089TIP3    H148682   3.839   6.434  15.764 -0.4149  0.1329  1.0217
 9089TIP3    H248683   3.756   6.444  15.890 -1.3750  0.2503  0.3880
 9090TIP3   OH248684   3.995   1.172   4.424  0.3984  0.5685 -0.5903
 9090TIP3    H148685   4.083   1.188   4.459  0.5646  1.5426 -1.4016
 9090TIP3    H248686   3.954   1.115   4.488  1.6235  0.1037 -0.1869
 9091TIP3   OH248687   4.169   4.285  16.520 -0.4450 -0.1030 -0.1591
 9091TIP3    H148688   4.081   4.291  16.482 -0.0596 -0.6982 -1.2081
 9091TIP3    H248689   4.157   4.302  16.613 -1.7252 -0.4861 -0.2362
 9092TIP3   OH248690   0.256   1.471  15.246 -0.1228 -0.2474  0.0848
 9092TIP3    H148691   0.180   1.481  15.189 -0.8885 -0.4070  1.0346
 9092TIP3    H248692   0.326   1.518  15.202 -0.5417 -0.8174 -1.2360
 9093TIP3   OH248693   0.205   0.045  14.348 -0.0115 -0.3370  0.6794
 9093TIP3    H148694   0.293   0.008  14.342 -0.1625 -0.5070 -1.1175
 9093TIP3    H248695   0.147  -0.025  14.317 -0.4715  0.7037 -1.0043
 9094TIP3   OH248696   5.653   3.512   5.900  0.3302 -0.0621  0.0400
 9094TIP3    H148697   5.589   3.502   5.830 -0.6986 -2.2674  1.2105
 9094TIP3    H248698   5.737   3.522   5.855 -0.2470 -1.7579 -1.5246
 9095TIP3   OH248699   5.113   1.855   0.724  0.2514  0.4003  0.2194
 9095TIP3    H148700   5.140   1.891   0.639 -0.1625 -2.1154 -1.0884
 9095TIP3    H248701   5.021   1.879   0.732  0.0402 -0.1018 -0.5352
 9096TIP3   OH248702   4.007   3.166  11.067  0.1878 -0.5373  0.4195
 9096TIP3    H148703   4.086   3.184  11.015  0.8358  0.2100  1.6326
 9096TIP3    H248704   3.941   3.143  11.002  1.3535 -1.0082 -0.6377
 9097TIP3   OH248705   2.958   4.332  12.555 -0.4173  0.6425 -0.3248
 9097TIP3    H148706   3.021   4.403  12.546 -1.5598  1.8144  0.4683
 9097TIP3    H248707   2.977   4.293  12.641  1.0253 -0.8947 -1.2868
 9098TIP3   OH248708   3.281   4.345   4.023  0.2726 -0.0862  0.3642
 9098TIP3    H148709   3.260   4.304   4.107 -1.5296 -1.5046 -0.6979
 9098TIP3    H248710   3.202   4.393   4.000  1.7420  2.7334  0.7557
 9099TIP3   OH248711   3.930   2.411   6.327 -0.4658 -0.2686  0.1084
 9099TIP3    H148712   3.911   2.342   6.390 -1.5873 -0.3482 -0.2813
 9099TIP3    H248713   3.938   2.365   6.243 -2.8776  0.1569 -0.4529
 9100TIP3   OH248714   0.808   2.796  14.760  0.0981 -0.3454 -0.3215
 9100TIP3    H148715   0.748   2.776  14.832  2.4246 -0.7110  1.6590
 9100TIP3    H248716   0.836   2.711  14.727  0.6967 -0.2096 -0.1736
 9101TIP3   OH248717   3.708   1.509   6.444 -0.2652 -0.3371  0.3510
 9101TIP3    H148718   3.624   1.517   6.400 -0.5658  1.0240  1.1143
 9101TIP3    H248719   3.696   1.441   6.509 -0.8887  0.0775  0.6755
 9102TIP3   OH248720   0.409   6.629  16.581  0.5598 -0.5847 -0.0889
 9102TIP3    H148721   0.347   6.607  16.651 -0.4414 -0.3613 -0.8920
 9102TIP3    H248722   0.492   6.591  16.610  0.6534  1.1060  2.1369
 9103TIP3   OH248723   0.972   5.398   0.438 -0.0424  0.6770 -0.0466
 9103TIP3    H148724   1.030   5.461   0.395  0.5518  1.4865  1.8392
 9103TIP3    H248725   1.023   5.317   0.442  0.3820  0.9544  0.2387
 9104TIP3   OH248726   0.074   0.046   0.359  0.4725  0.2455  0.8149
 9104TIP3    H148727   0.093  -0.022   0.423  0.7394  1.2043  1.8022
 9104TIP3    H248728   0.113   0.015   0.278 -0.8631 -1.5292  0.8120
 9105TIP3   OH248729   6.280   1.097  11.710 -0.5403 -0.1780 -0.1850
 9105TIP3    H148730   6.331   1.148  11.647  0.4143 -0.0216  0.7048
 9105TIP3    H248731   6.294   1.006  11.683  0.5143 -0.1574  0.2705
 9106TIP3   OH248732   4.101   4.773  12.014  0.3962  0.1751  0.2915
 9106TIP3    H148733   4.022   4.734  11.977 -1.3306  2.4921  1.2715
 9106TIP3    H248734   4.143   4.817  11.941  0.1367 -0.0582 -0.0016
 9107TIP3   OH248735   4.303   4.148  14.501 -0.4711  0.3473 -0.6075
 9107TIP3    H148736   4.231   4.197  14.541 -0.6939 -0.9630  0.6813
 9107TIP3    H248737   4.369   4.215  14.481 -0.8060  1.2192  0.9850
 9108TIP3   OH248738   5.460   4.452   5.220  0.0509 -0.1177  0.0439
 9108TIP3    H148739   5.518   4.446   5.144  0.6511 -0.0245  0.4856
 9108TIP3    H248740   5.376   4.419   5.188  0.4803 -0.7564 -0.4709
 9109TIP3   OH248741   2.854   6.737   0.176  0.2114 -0.1550  0.2620
 9109TIP3    H148742   2.906   6.813   0.203 -0.2405  0.2964 -0.1245
 9109TIP3    H248743   2.843   6.748   0.082 -0.5327 -0.2846  0.3330
 9110TIP3   OH248744   1.342   1.097  14.183 -0.0664 -0.1242 -0.6250
 9110TIP3    H148745   1.269   1.051  14.226 -0.9669 -0.1335 -2.1014
 9110TIP3    H248746   1.390   1.138  14.255 -0.9732 -0.9158  0.4648
 9111TIP3   OH248747   6.013   3.720   0.555  0.2588  0.1216  0.0672
 9111TIP3    H148748   5.967   3.749   0.477 -0.9393  0.4742  0.8653
 9111TIP3    H248749   6.061   3.642   0.527 -0.0735  0.2966 -1.0340
 9112TIP3   OH248750   2.559   6.637   3.712  0.2683  0.3457  0.3442
 9112TIP3    H148751   2.653   6.622   3.723  0.1842 -2.9055 -2.0867
 9112TIP3    H248752   2.517   6.559   3.749 -1.4718  1.2836  0.5024
 9113TIP3   OH248753   2.634   2.179  13.520 -0.8777  0.2677 -0.1441
 9113TIP3    H148754   2.625   2.193  13.426  0.3743  0.0546 -0.3111
 9113TIP3    H248755   2.598   2.258  13.560 -0.6041  0.7519 -0.8334
 9114TIP3   OH248756   5.808   3.594   2.117 -0.0259  0.0153  0.3974
 9114TIP3    H148757   5.850   3.680   2.123  0.1340  0.0184 -0.5851
 9114TIP3    H248758   5.841   3.546   2.194  1.4349  0.1681 -0.0979
 9115TIP3   OH248759   4.578   1.589  12.567  0.3673  0.1275 -0.0401
 9115TIP3    H148760   4.613   1.556  12.650  0.5291  0.6313  0.0942
 9115TIP3    H248761   4.509   1.526  12.544  0.7119 -0.3373  0.1777
 9116TIP3   OH248762   0.225   1.719  16.133  0.3545  0.1623 -0.2007
 9116TIP3    H148763   0.187   1.658  16.069  2.1520 -0.9256 -0.2676
 9116TIP3    H248764   0.206   1.680  16.218 -0.2877  0.5894 -0.1394
 9117TIP3   OH248765   5.766   0.377   0.020 -0.1926  0.3407  0.2893
 9117TIP3    H148766   5.813   0.368  -0.063 -0.5551 -0.0694  0.1297
 9117TIP3    H248767   5.833   0.407   0.081  1.0968 -3.1451  0.8164
 9118TIP3   OH248768   0.906   2.134  15.369 -0.2003 -0.1288  0.0308
 9118TIP3    H148769   0.942   2.073  15.433  0.2166 -0.0884 -0.1609
 9118TIP3    H248770   0.940   2.102  15.285  1.9232  1.6857  0.1261
 9119TIP3   OH248771   4.454   5.429  13.522 -0.2238 -0.1827 -0.2832
 9119TIP3    H148772   4.500   5.452  13.441  2.9702 -2.0257  0.8241
 9119TIP3    H248773   4.481   5.496  13.585  1.2082 -1.3674  0.4191
 9120TIP3   OH248774   6.699   3.919   4.681 -0.4349  0.0030  0.6224
 9120TIP3    H148775   6.778   3.904   4.629 -0.8888 -1.4516  0.3016
 9120TIP3    H248776   6.693   4.014   4.688  0.8684  0.1679 -0.0733
 9121TIP3   OH248777   2.720   6.198   2.985  0.2784 -0.5887  0.5731
 9121TIP3    H148778   2.813   6.213   3.002  0.3185 -0.2435  0.0881
 9121TIP3    H248779   2.716   6.113   2.942  0.3622 -0.6406  0.6692
 9122TIP3   OH248780   5.895   0.796   6.504 -0.6847  0.2231  0.2613
 9122TIP3    H148781   5.952   0.784   6.580 -2.2241 -0.5317  1.3379
 9122TIP3    H248782   5.818   0.841   6.539 -0.6313  1.5322 -1.2290
 9123TIP3   OH248783   0.709   5.561  14.265  0.2007  0.3182  0.6115
 9123TIP3    H148784   0.620   5.539  14.239  0.7382 -0.8474 -0.3406
 9123TIP3    H248785   0.701   5.600  14.352 -1.0823 -1.1680  1.1837
 9124TIP3   OH248786   0.548   5.199   0.339 -0.1939 -0.2734 -0.4787
 9124TIP3    H148787   0.558   5.225   0.247 -0.3627 -0.9278 -0.6878
 9124TIP3    H248788   0.462   5.233   0.364  0.5498  1.3863 -0.0401
 9125TIP3   OH248789   6.003   6.250   0.864 -0.0053  0.2829 -0.3312
 9125TIP3    H148790   6.031   6.297   0.942  2.0480  0.6775 -1.2337
 9125TIP3    H248791   5.907   6.250   0.868  0.0297 -0.6431  2.6984
 9126TIP3   OH248792   4.937   2.726   5.297 -0.3938 -0.5994 -0.1042
 9126TIP3    H148793   4.990   2.710   5.219 -1.0448 -2.1595 -0.2616
 9126TIP3    H248794   4.847   2.732   5.264 -0.4846  0.6531  0.3177
 9127TIP3   OH248795   0.247   0.529   1.846  0.3079 -0.1539 -0.0484
 9127TIP3    H148796   0.206   0.476   1.777  1.0127 -0.1118 -0.5077
 9127TIP3    H248797   0.334   0.490   1.857 -0.1162 -0.7384  1.4642
 9128TIP3   OH248798   0.250   2.947   0.327  0.5569  0.4464 -0.0224
 9128TIP3    H148799   0.345   2.963   0.327  0.3714  1.8020 -1.4364
 9128TIP3    H248800   0.231   2.918   0.238 -0.0825 -1.9196  0.8328
 9129TIP3   OH248801   1.279   4.342  16.854  0.4699  0.0153  0.4996
 9129TIP3    H148802   1.312   4.415  16.907  0.5552 -0.7182  1.4946
 9129TIP3    H248803   1.357   4.290  16.835  0.5795  0.7233 -1.1231
 9130TIP3   OH248804   0.018   3.294  14.855 -0.2225 -0.1738  0.7161
 9130TIP3    H148805  -0.041   3.369  14.842 -2.3570 -2.1247 -1.8434
 9130TIP3    H248806  -0.036   3.217  14.838  2.3896 -2.2585  1.1638
 9131TIP3   OH248807   5.313   2.675  15.072  0.0548 -0.0723 -0.0257
 9131TIP3    H148808   5.283   2.591  15.108  0.2803 -0.3794 -0.5451
 9131TIP3    H248809   5.237   2.710  15.025  0.6643 -1.1988 -1.9737
 9132TIP3   OH248810   5.625   3.511  11.817  0.0957  0.3707 -0.6151
 9132TIP3    H148811   5.660   3.444  11.758  0.3005 -0.3074  0.2470
 9132TIP3    H248812   5.632   3.471  11.904  1.0043  1.8336  0.0143
 9133TIP3   OH248813   2.959   5.701   4.230  0.0414 -0.0056  0.4953
 9133TIP3    H148814   2.879   5.656   4.258  0.6749 -0.5249  1.5505
 9133TIP3    H248815   3.029   5.638   4.248  0.8429  1.0197  1.0573
 9134TIP3   OH248816   4.871   0.720  15.095  0.1431 -0.4205 -0.3003
 9134TIP3    H148817   4.896   0.798  15.047  2.6493 -0.1001  1.3725
 9134TIP3    H248818   4.948   0.696  15.146 -1.3215 -2.5817  1.1118
 9135TIP3   OH248819   3.902   4.970   2.367 -0.0786 -0.2530  0.3438
 9135TIP3    H148820   3.918   4.922   2.286  0.3178 -1.1337  0.9248
 9135TIP3    H248821   3.982   4.957   2.418  0.0446  1.0480  0.5165
 9136TIP3   OH248822   0.135   1.484   1.209  0.1982 -0.2870 -1.1090
 9136TIP3    H148823   0.048   1.453   1.234 -0.7884  0.6562 -3.1038
 9136TIP3    H248824   0.122   1.577   1.190  2.2155  0.5011  0.9763
 9137TIP3   OH248825   1.490   5.581  11.914 -0.2058  0.5478  0.1168
 9137TIP3    H148826   1.483   5.600  12.008 -0.5257 -1.8922  0.6746
 9137TIP3    H248827   1.406   5.541  11.891 -0.0037  0.8034 -1.1405
 9138TIP3   OH248828   1.036   4.149  14.773  0.0874 -0.4117  0.7520
 9138TIP3    H148829   1.058   4.106  14.691  1.0495  3.1718 -1.0979
 9138TIP3    H248830   1.119   4.182  14.806 -0.6862  1.1273  1.2778
 9139TIP3   OH248831   4.915   3.565   4.740 -0.0355  0.1222  0.4194
 9139TIP3    H148832   4.835   3.561   4.792 -0.1115 -0.2323  0.2769
 9139TIP3    H248833   4.972   3.497   4.776  0.2282  0.4092  0.5574
 9140TIP3   OH248834   4.163   5.659   4.475  0.5888  0.1321  0.4747
 9140TIP3    H148835   4.233   5.594   4.468 -0.1912 -0.8576  1.4229
 9140TIP3    H248836   4.160   5.701   4.389  2.9870  0.9168  0.6996
 9141TIP3   OH248837   1.868   3.344   5.493  0.1422  0.3357 -0.6822
 9141TIP3    H148838   1.929   3.355   5.565  0.0502 -0.9110 -0.3933
 9141TIP3    H248839   1.889   3.415   5.432 -0.6654  2.2473  1.1349
 9142TIP3   OH248840   3.194   3.367  14.626  0.1185  0.4281  0.4906
 9142TIP3    H148841   3.258   3.378  14.555  1.8972  0.0240  1.9676
 9142TIP3    H248842   3.109   3.370  14.582  1.1545 -2.1721 -2.0460
 9143TIP3   OH248843   6.040   3.601   5.527 -0.2497 -0.1855  0.5278
 9143TIP3    H148844   6.118   3.557   5.562 -0.6294 -0.5840  0.8815
 9143TIP3    H248845   6.068   3.633   5.440  0.2307 -0.5356  0.5472
 9144TIP3   OH248846   6.563   2.597   6.624 -0.1399 -0.5532  0.0045
 9144TIP3    H148847   6.533   2.517   6.667  3.1880 -2.4447 -0.8508
 9144TIP3    H248848   6.653   2.608   6.655  0.9332  0.4318 -3.1162
 9145TIP3   OH248849   5.720   2.254   0.222  1.0449  0.0027 -0.0802
 9145TIP3    H148850   5.804   2.299   0.215  1.3424 -0.3312  1.1822
 9145TIP3    H248851   5.714   2.228   0.314 -0.6023  0.3511 -0.0521
 9146TIP3   OH248852   4.538   6.320  11.174 -0.4530  0.9898  0.4413
 9146TIP3    H148853   4.563   6.368  11.253 -1.1474  0.5460  0.9420
 9146TIP3    H248854   4.598   6.352  11.107 -0.6258  2.2434  0.8561
 9147TIP3   OH248855   5.254   1.691   1.492  0.1500 -0.2795 -0.3638
 9147TIP3    H148856   5.246   1.607   1.446 -0.9042 -0.9096  0.8966
 9147TIP3    H248857   5.283   1.667   1.580  2.9854  0.9653 -0.8675
 9148TIP3   OH248858   4.909   4.362   1.222  0.0665 -0.1686  0.1955
 9148TIP3    H148859   4.876   4.281   1.260 -2.8368 -0.1733 -1.9900
 9148TIP3    H248860   4.838   4.425   1.233 -0.1224  0.3743 -3.1593
 9149TIP3   OH248861   2.206   0.502  16.216 -0.4697 -0.7880  0.9398
 9149TIP3    H148862   2.117   0.494  16.249 -2.1686  2.4170 -2.2183
 9149TIP3    H248863   2.207   0.449  16.136  0.1548 -0.1208  0.4916
 9150TIP3   OH248864   4.666   6.697   4.261  0.7839  0.1526  0.2997
 9150TIP3    H148865   4.614   6.640   4.204  1.4992 -1.0514  0.8103
 9150TIP3    H248866   4.614   6.704   4.341 -0.1234  1.6747 -0.3842
 9151TIP3   OH248867   1.161   6.173   0.335  0.8745 -0.3477 -0.1683
 9151TIP3    H148868   1.222   6.203   0.403  0.7273  1.5374 -0.8137
 9151TIP3    H248869   1.105   6.109   0.379  1.4701  0.0365  1.1954
 9152TIP3   OH248870   0.234   4.967   1.009 -0.5594 -0.1508 -0.4141
 9152TIP3    H148871   0.195   5.003   0.929  0.1277 -0.2456 -0.7913
 9152TIP3    H248872   0.265   4.880   0.983  0.9574  0.3779 -0.4326
 9153TIP3   OH248873   1.249   2.170  12.930  0.7552  0.1884  0.0729
 9153TIP3    H148874   1.284   2.229  12.864  2.1516 -1.3897 -0.6980
 9153TIP3    H248875   1.304   2.184  13.007  2.2856 -1.2736 -0.6792
 9154TIP3   OH248876   2.639   1.113  12.239 -0.0777  0.4062 -0.3382
 9154TIP3    H148877   2.734   1.125  12.227 -0.0614  6.1051  2.3462
 9154TIP3    H248878   2.605   1.100  12.151  3.0603 -1.3664 -1.4434
 9155TIP3   OH248879   1.638   0.972  12.221 -0.4157 -0.4870  0.3687
 9155TIP3    H148880   1.707   0.908  12.204 -0.4226  0.2780 -3.2967
 9155TIP3    H248881   1.685   1.054  12.236 -0.4838 -0.8024  2.6072
 9156TIP3   OH248882   0.946   4.690  15.392  0.3652  0.4307  0.2067
 9156TIP3    H148883   0.906   4.746  15.326  1.2158 -1.1964 -1.8117
 9156TIP3    H248884   1.004   4.632  15.343  1.5048 -0.4998  2.4691
 9157TIP3   OH248885   1.659   4.089  12.184 -0.7371 -0.3139  0.3887
 9157TIP3    H148886   1.615   4.031  12.246 -1.0677  0.5563  0.9878
 9157TIP3    H248887   1.599   4.162  12.173  0.1695  0.4740  0.5406
 9158TIP3   OH248888   4.563   0.010  13.320 -0.2757  0.1760 -0.3335
 9158TIP3    H148889   4.644   0.038  13.363 -0.2470  0.4074 -0.5423
 9158TIP3    H248890   4.593  -0.042  13.245 -0.3127 -2.0343  1.0891
 9159TIP3   OH248891   6.456   1.213  12.815  0.4553 -0.2789 -0.2046
 9159TIP3    H148892   6.445   1.307  12.804 -0.5769 -0.4256 -0.5101
 9159TIP3    H248893   6.549   1.197  12.794  0.7304  0.7057  0.2128
 9160TIP3   OH248894   3.370   1.155   1.277  0.4765 -0.4450 -0.3582
 9160TIP3    H148895   3.416   1.081   1.316 -2.0338 -2.3453 -0.7968
 9160TIP3    H248896   3.380   1.142   1.182  0.7482  0.2853 -0.4349
 9161TIP3   OH248897   6.542   2.512  16.890 -0.8188 -0.7056  0.0150
 9161TIP3    H148898   6.450   2.488  16.876 -0.7100 -1.5383  0.6305
 9161TIP3    H248899   6.573   2.450  16.957  0.4639 -1.0842 -0.8940
 9162TIP3   OH248900   5.908   3.939   1.396  0.1156  0.0446  0.1873
 9162TIP3    H148901   5.937   3.968   1.309 -2.1502  0.0545 -0.6344
 9162TIP3    H248902   5.874   3.850   1.381 -0.0816 -0.0403  1.1050
 9163TIP3   OH248903   0.396   2.569  12.234  0.1729  0.9631 -0.6445
 9163TIP3    H148904   0.305   2.587  12.210  0.3972  0.5631 -1.8854
 9163TIP3    H248905   0.440   2.653  12.225  0.0957  0.9782 -0.8883
 9164TIP3   OH248906   5.215   1.104  16.348 -1.4367  0.4359 -0.0046
 9164TIP3    H148907   5.210   1.016  16.386 -0.6044  0.6054  0.5278
 9164TIP3    H248908   5.309   1.125  16.350 -1.7224  1.7196  0.7812
 9165TIP3   OH248909   3.170   2.739   3.141  0.1874 -0.2756 -0.1171
 9165TIP3    H148910   3.200   2.684   3.068 -1.8777 -1.0585 -0.4707
 9165TIP3    H248911   3.133   2.817   3.099  0.2838 -0.0736  0.1744
 9166TIP3   OH248912   0.301   2.609  16.576 -0.2990  0.6674  0.2301
 9166TIP3    H148913   0.258   2.691  16.552  0.3659  0.3725 -2.2118
 9166TIP3    H248914   0.310   2.614  16.672 -0.9126  3.1001  0.2309
 9167TIP3   OH248915   3.397   0.903  17.108  0.5644  0.0901  0.1959
 9167TIP3    H148916   3.402   0.851  17.028 -0.1497  0.6001 -0.1904
 9167TIP3    H248917   3.315   0.877  17.149  1.4810 -1.0423  1.3988
 9168TIP3   OH248918   6.226   2.216   4.173 -0.2397  0.3412  0.1898
 9168TIP3    H148919   6.317   2.215   4.144 -0.0861  2.3689  0.4518
 9168TIP3    H248920   6.219   2.294   4.228 -1.0802 -2.1176  3.9063
 9169TIP3   OH248921   5.458   3.447   2.529  0.1794 -0.1363  0.6724
 9169TIP3    H148922   5.403   3.413   2.599 -0.3691 -2.1951 -0.6463
 9169TIP3    H248923   5.441   3.388   2.455 -0.0987  2.5545 -1.5687
 9170TIP3   OH248924   4.632   3.625  13.883  0.2133  0.4003  0.0958
 9170TIP3    H148925   4.556   3.585  13.841  1.0591 -1.9309  0.6272
 9170TIP3    H248926   4.597   3.664  13.963 -0.8373  1.8242 -1.0279
 9171TIP3   OH248927   2.037   1.504  15.976  0.2788  0.0694 -0.1057
 9171TIP3    H148928   2.079   1.475  15.895  0.9957  0.1781  0.2251
 9171TIP3    H248929   2.036   1.426  16.032  0.9593  0.3192  0.2652
 9172TIP3   OH248930   6.341   3.985  12.612  0.1335  0.3101  0.5559
 9172TIP3    H148931   6.284   4.057  12.640  1.6274  0.7173  2.8573
 9172TIP3    H248932   6.310   3.909  12.663 -0.7090 -0.4593 -1.0221
 9173TIP3   OH248933   0.251   2.230  13.922 -0.7627  0.1714  0.7429
 9173TIP3    H148934   0.248   2.171  13.846 -1.2054 -0.0529  0.9281
 9173TIP3    H248935   0.228   2.316  13.886  1.1370  0.5054  0.2382
 9174TIP3   OH248936   5.441   3.308   4.949  0.2324 -0.0960  0.0793
 9174TIP3    H148937   5.525   3.354   4.949  0.5441 -0.5929 -1.3279
 9174TIP3    H248938   5.408   3.319   4.859 -0.1074 -1.8225 -0.0474
 9175TIP3   OH248939   5.861   3.157   6.804  0.6102 -0.1727 -0.5261
 9175TIP3    H148940   5.944   3.135   6.761  0.6408 -1.1988  0.0233
 9175TIP3    H248941   5.805   3.081   6.789 -0.0507  0.2839 -0.4256
 9176TIP3   OH248942   4.692   0.612  13.638  0.2220  0.0556  0.1209
 9176TIP3    H148943   4.781   0.645  13.653  0.0892 -0.6828  3.0375
 9176TIP3    H248944   4.699   0.517  13.651 -0.6669 -0.3210 -1.7053
 9177TIP3   OH248945   1.895   6.059   4.470  0.3837 -0.0168  0.2887
 9177TIP3    H148946   1.882   5.985   4.411  0.7856 -0.5713  0.8815
 9177TIP3    H248947   1.949   6.121   4.420  0.4598 -0.3446 -0.0341
 9178TIP3   OH248948   0.153   3.803  11.402  0.7319 -0.2737 -0.6904
 9178TIP3    H148949   0.216   3.814  11.331  1.9005 -1.9888 -0.0035
 9178TIP3    H248950   0.197   3.836  11.480  0.3079 -0.3604 -0.4065
 9179TIP3   OH248951   5.749   6.751  10.703 -0.0916  0.2986 -0.8091
 9179TIP3    H148952   5.660   6.772  10.675 -0.1823 -0.4860 -1.1571
 9179TIP3    H248953   5.739   6.717  10.792  0.0185  1.3816 -0.3679
 9180TIP3   OH248954   4.720   5.882   6.174 -0.3023 -0.2887  0.0134
 9180TIP3    H148955   4.756   5.865   6.261  0.1423 -1.3618 -0.3692
 9180TIP3    H248956   4.664   5.959   6.186 -2.0323 -1.7103  1.7218
 9181TIP3   OH248957   4.683   2.533   6.431  0.2247  0.2900 -0.1994
 9181TIP3    H148958   4.771   2.502   6.451 -0.1985 -0.1073  1.1824
 9181TIP3    H248959   4.641   2.543   6.516 -0.8921  1.0189 -0.8054
 9182TIP3   OH248960   5.678   3.963  12.161 -0.2068 -0.2619  0.4536
 9182TIP3    H148961   5.670   4.025  12.088 -0.0615 -1.2813 -0.4381
 9182TIP3    H248962   5.670   4.018  12.239  0.6894  1.0035 -0.3042
 9183TIP3   OH248963   2.453   1.457   5.184  0.7883  0.0945 -0.7244
 9183TIP3    H148964   2.494   1.443   5.098 -1.5123  1.6123 -2.1833
 9183TIP3    H248965   2.394   1.382   5.194  2.3175 -1.0077  0.4136
 9184TIP3   OH248966   5.063   4.945  13.338 -0.4418  0.1275  0.0743
 9184TIP3    H148967   4.996   5.011  13.353  0.6875  1.0041  1.5025
 9184TIP3    H248968   5.016   4.873  13.294 -1.7884  1.6367 -1.0685
 9185TIP3   OH248969   6.580   6.002   5.880 -0.2802 -0.2750 -0.1011
 9185TIP3    H148970   6.507   6.064   5.884  0.1622  0.1934  1.0524
 9185TIP3    H248971   6.572   5.950   5.960  0.7196 -0.1248  0.1095
 9186TIP3   OH248972   6.615   2.555  14.209  0.0738  0.3196  0.5914
 9186TIP3    H148973   6.616   2.479  14.150 -0.0297 -0.1063  1.1298
 9186TIP3    H248974   6.705   2.561  14.241 -0.4617 -1.2591  2.6398
 9187TIP3   OH248975   1.371   4.090   3.161  0.5156  0.1130 -0.1742
 9187TIP3    H148976   1.460   4.070   3.190  0.5448 -1.1161 -1.0242
 9187TIP3    H248977   1.365   4.050   3.074 -0.7900  0.3779 -0.2237
 9188TIP3   OH248978   4.845   6.513   0.014 -0.9939 -0.2724  0.2457
 9188TIP3    H148979   4.804   6.513  -0.073  1.6377  1.1771 -1.1366
 9188TIP3    H248980   4.888   6.428   0.020 -1.9866 -0.7655  0.5935
 9189TIP3   OH248981   2.510   1.033  17.219  0.1205  0.1227 -0.1958
 9189TIP3    H148982   2.575   1.046  17.289  0.9945 -0.3510 -0.9001
 9189TIP3    H248983   2.426   1.039  17.264  0.6148 -3.0214  1.5089
 9190TIP3   OH248984   4.241   0.408  13.170 -0.0490 -0.5530  0.1804
 9190TIP3    H148985   4.154   0.379  13.143 -0.3377 -0.1166  0.6246
 9190TIP3    H248986   4.226   0.489  13.218  0.8796  1.4703 -2.6560
 9191TIP3   OH248987   3.037   1.026   1.566 -0.6184  0.4304  0.7377
 9191TIP3    H148988   3.103   0.998   1.630  1.6817  3.0142 -0.2735
 9191TIP3    H248989   2.969   1.067   1.619 -0.8493 -1.1848  1.7438
 9192TIP3   OH248990   3.553   5.438  16.671 -0.8333  0.0654 -0.4179
 9192TIP3    H148991   3.609   5.382  16.619  1.5408  1.8482  0.0618
 9192TIP3    H248992   3.543   5.391  16.754 -1.7275 -1.1485 -1.1727
 9193TIP3   OH248993   0.957   3.925  15.330 -0.3154  0.2332  0.9663
 9193TIP3    H148994   0.874   3.947  15.288 -0.8374 -0.5438  1.5735
 9193TIP3    H248995   1.022   3.974  15.279 -1.1118  0.7134  0.3696
 9194TIP3   OH248996   3.052   6.436   0.922 -0.1539 -0.6021  1.0716
 9194TIP3    H148997   3.077   6.524   0.947 -0.2431 -0.3380  0.2574
 9194TIP3    H248998   3.099   6.379   0.983  2.6084 -0.1575 -0.4790
 9195TIP3   OH248999   2.748   5.511   5.198  0.2468 -0.0491  0.1391
 9195TIP3    H149000   2.692   5.517   5.276  0.4163 -2.1043  0.4777
 9195TIP3    H249001   2.728   5.426   5.160  2.3498 -0.4005 -0.3333
 9196TIP3   OH249002   3.920   2.164  13.371 -0.7216 -0.0079  0.3142
 9196TIP3    H149003   3.852   2.183  13.436 -0.5721 -0.2173  0.5328
 9196TIP3    H249004   4.002   2.185  13.415 -0.6022 -0.4373  0.2952
 9197TIP3   OH249005   0.556   3.022  16.524  0.2376  0.0774 -0.0380
 9197TIP3    H149006   0.550   2.951  16.589  0.6125 -1.3073 -1.4547
 9197TIP3    H249007   0.647   3.019  16.494  0.2594  1.1961 -0.0990
 9198TIP3   OH249008   6.268   3.458  11.334 -0.7115  0.4954 -0.2298
 9198TIP3    H149009   6.352   3.428  11.299 -0.7975  1.5352 -1.4007
 9198TIP3    H249010   6.252   3.542  11.290 -1.4782  1.2204  1.3640
 9199TIP3   OH249011   0.585   2.923   3.819 -0.1418 -0.5625 -0.2981
 9199TIP3    H149012   0.675   2.901   3.797 -0.1608 -1.0652  0.1047
 9199TIP3    H249013   0.591   2.967   3.905  0.1963  3.5136 -2.1557
 9200TIP3   OH249014   6.303   4.253  14.945  0.3650  1.3947  0.3728
 9200TIP3    H149015   6.295   4.346  14.925 -0.3211  1.4600  0.8915
 9200TIP3    H249016   6.313   4.250  15.040  2.6339  1.0438  0.1632
 9201TIP3   OH249017   5.660   5.355  15.712 -0.1076  0.3348  0.4609
 9201TIP3    H149018   5.658   5.332  15.619 -0.9711  0.5850  0.4144
 9201TIP3    H249019   5.573   5.388  15.731  0.2481  0.8718  1.2193
 9202TIP3   OH249020   6.727   5.818  10.735  0.2963 -0.5037  0.0854
 9202TIP3    H149021   6.684   5.833  10.820 -0.2573  1.1982 -0.4542
 9202TIP3    H249022   6.675   5.749  10.694  0.6356 -1.4347  1.1577
 9203TIP3   OH249023   0.521   4.688   3.818 -0.0983 -0.0485  0.3854
 9203TIP3    H149024   0.448   4.744   3.794  0.2732  0.2090 -0.1671
 9203TIP3    H249025   0.584   4.746   3.861  0.7810  0.2143 -1.1823
 9204TIP3   OH249026   1.325   4.835  12.493  0.0907 -0.1472  0.1067
 9204TIP3    H149027   1.383   4.852  12.567 -0.1236  0.0443  0.2350
 9204TIP3    H249028   1.367   4.877  12.418 -0.8387  1.7318  0.5761
 9205TIP3   OH249029   2.195   3.350  11.486 -0.0410  0.1106  0.1021
 9205TIP3    H149030   2.124   3.413  11.494  0.6574  0.9966 -0.4280
 9205TIP3    H249031   2.152   3.266  11.473 -0.9809  0.6541 -0.3663
 9206TIP3   OH249032   2.187   3.278  16.648  0.1677  0.3317  0.2070
 9206TIP3    H149033   2.123   3.272  16.577  3.2018 -0.1302 -2.7577
 9206TIP3    H249034   2.208   3.371  16.654 -0.0236  0.3602  0.4339
 9207TIP3   OH249035   2.008   0.976   0.886  0.0835 -0.1181 -0.8385
 9207TIP3    H149036   2.073   0.906   0.888  2.3097  1.8433 -0.3212
 9207TIP3    H249037   1.929   0.937   0.922  1.3482 -2.2292 -0.1949
 9208TIP3   OH249038   1.952   1.881   4.019  0.0973 -0.1642 -0.3580
 9208TIP3    H149039   1.963   1.803   3.964  1.3199 -1.4336  1.5636
 9208TIP3    H249040   2.037   1.925   4.014 -0.2449  0.4841 -0.5688
 9209TIP3   OH249041   5.910   2.217   3.706  0.4675  0.6648 -0.2682
 9209TIP3    H149042   5.962   2.183   3.633 -0.6180 -0.9763 -0.3286
 9209TIP3    H249043   5.975   2.250   3.768  1.8886 -3.4433  0.7789
 9210TIP3   OH249044   1.808   5.693  14.695  0.0619  0.6468 -0.5871
 9210TIP3    H149045   1.842   5.768  14.742  0.7804 -0.1540  0.2184
 9210TIP3    H249046   1.801   5.722  14.604  1.1735  1.4017 -0.4474
 9211TIP3   OH249047   3.413   2.235  12.398  0.2670  0.2435  0.2015
 9211TIP3    H149048   3.425   2.141  12.407  0.5082  0.3266  0.7855
 9211TIP3    H249049   3.342   2.256  12.459  0.7991  0.5706  0.7130
 9212TIP3   OH249050   4.095   0.079  13.438 -0.1045  0.0473  0.3805
 9212TIP3    H149051   4.095   0.090  13.533  0.1652 -2.1654  0.6891
 9212TIP3    H249052   4.188   0.080  13.414 -0.1610  0.3136  0.1701
 9213TIP3   OH249053   6.251   3.784   3.619 -0.3669 -0.0597 -0.0467
 9213TIP3    H149054   6.239   3.877   3.599  2.3449  0.2080 -0.7228
 9213TIP3    H249055   6.256   3.742   3.533 -1.5864 -0.8690  0.2560
 9214TIP3   OH249056   5.680   0.097   1.231  0.0492 -0.1767 -0.4109
 9214TIP3    H149057   5.746   0.091   1.300  0.0950 -0.5391 -0.4817
 9214TIP3    H249058   5.671   0.007   1.199 -0.3110 -0.0901 -0.5586
 9215TIP3   OH249059   0.079   0.542   5.793 -0.4656  0.1319 -0.4944
 9215TIP3    H149060   0.143   0.508   5.731  1.6464 -1.1470  2.1709
 9215TIP3    H249061  -0.004   0.504   5.765  0.5294 -0.9997 -2.0558
 9216TIP3   OH249062   5.320   0.009   4.638  0.3300  0.8234 -0.0878
 9216TIP3    H149063   5.300   0.036   4.728  1.1011 -0.3191  0.4564
 9216TIP3    H249064   5.397  -0.047   4.647 -0.8494 -1.0686 -1.1938
 9217TIP3   OH249065   4.500   5.537  12.883  0.1743 -0.5738 -0.0468
 9217TIP3    H149066   4.532   5.500  12.801  0.9810 -1.5176  0.6635
 9217TIP3    H249067   4.482   5.461  12.938 -0.4659  0.0403  0.6175
 9218TIP3   OH249068   3.708   3.074   1.525  0.2883  0.1827 -0.3764
 9218TIP3    H149069   3.772   3.089   1.595 -0.4175 -0.1970  0.3775
 9218TIP3    H249070   3.664   3.158   1.514  2.4909  1.1560 -2.5920
 9219TIP3   OH249071   2.366   2.917   2.098 -0.4069  0.8089  0.0316
 9219TIP3    H149072   2.439   2.855   2.094 -1.4218 -0.3459 -1.3568
 9219TIP3    H249073   2.407   3.003   2.093  0.8592  0.1772 -0.6860
 9220TIP3   OH249074   2.714   5.440   0.243 -0.3728  0.4103 -0.1774
 9220TIP3    H149075   2.731   5.460   0.335 -1.3393  2.4879 -0.3815
 9220TIP3    H249076   2.620   5.428   0.238 -0.1617 -1.1968 -0.6702
 9221TIP3   OH249077   4.207   4.607   3.983  0.6065  0.4030  0.0001
 9221TIP3    H149078   4.267   4.539   3.952  0.8648  0.3579  0.5747
 9221TIP3    H249079   4.231   4.685   3.933  1.9163  0.6805  0.9895
 9222TIP3   OH249080   5.726   2.728   3.140 -0.2757 -0.0454  0.0246
 9222TIP3    H149081   5.822   2.726   3.143 -0.2543 -1.9220 -0.6184
 9222TIP3    H249082   5.704   2.821   3.134  1.4127  0.5920  2.1916
 9223TIP3   OH249083   4.972   2.204   5.341  0.2482 -0.3331 -0.3679
 9223TIP3    H149084   4.903   2.176   5.281  0.5162 -0.3501 -0.6740
 9223TIP3    H249085   4.943   2.290   5.372  0.4247 -0.0122 -1.0527
 9224TIP3   OH249086   6.664   2.613  13.630 -0.3495  0.0808  0.0295
 9224TIP3    H149087   6.706   2.698  13.621  1.2798 -0.6279  0.5899
 9224TIP3    H249088   6.578   2.633  13.668 -0.2415  1.5022 -0.4136
 9225TIP3   OH249089   6.615   0.793  14.568 -0.7356  0.3236 -0.5853
 9225TIP3    H149090   6.536   0.749  14.538 -0.5560  0.9008 -1.9936
 9225TIP3    H249091   6.634   0.857  14.500  2.2694 -1.4067 -1.5713
 9226TIP3   OH249092   2.666   0.455   1.881 -0.1927  0.0648 -0.2079
 9226TIP3    H149093   2.602   0.452   1.810 -0.2984  0.3804 -0.1307
 9226TIP3    H249094   2.694   0.547   1.884 -0.2517  0.0712  0.2094
 9227TIP3   OH249095   1.387   3.008  14.954  0.4157  0.1412 -0.1686
 9227TIP3    H149096   1.470   2.962  14.967  0.2237 -0.1864 -0.0895
 9227TIP3    H249097   1.341   2.997  15.037  0.4040  0.5502 -0.1216
 9228TIP3   OH249098   2.481   2.216  11.991  0.1993  0.2409  0.2861
 9228TIP3    H149099   2.547   2.151  12.012  0.0342 -0.4667 -1.2262
 9228TIP3    H249100   2.422   2.217  12.066  1.1149 -0.1696  1.0156
 9229TIP3   OH249101   5.066   2.092  14.266  0.2461  0.0949  0.1615
 9229TIP3    H149102   4.978   2.056  14.278 -0.8142  2.2239 -0.6922
 9229TIP3    H249103   5.102   2.041  14.193 -1.0708  0.4800 -0.8087
 9230TIP3   OH249104   2.316   4.805   3.701 -0.5263 -0.0502  0.9896
 9230TIP3    H149105   2.392   4.805   3.760  0.5172 -0.5800 -0.2998
 9230TIP3    H249106   2.313   4.894   3.666 -0.8547  0.1295  1.4661
 9231TIP3   OH249107   1.999   3.137  12.727  0.1071  0.2207  0.7171
 9231TIP3    H149108   1.922   3.195  12.722  1.2828  1.9274  1.3109
 9231TIP3    H249109   2.027   3.127  12.637 -0.1509  0.5374  0.5958
 9232TIP3   OH249110   2.953   5.389   5.478  0.3215  0.0309  0.2905
 9232TIP3    H149111   3.025   5.447   5.503  0.3935  1.9715 -3.6848
 9232TIP3    H249112   2.994   5.323   5.422 -0.6890 -0.0102 -0.4224
 9233TIP3   OH249113   0.712   1.468   4.770 -0.4369 -0.2965  0.4100
 9233TIP3    H149114   0.680   1.507   4.851 -2.1785  1.6417 -1.1142
 9233TIP3    H249115   0.740   1.380   4.795 -0.9403  0.2290  3.0798
 9234TIP3   OH249116   6.008   0.014  12.681 -0.1936 -0.1138 -0.1986
 9234TIP3    H149117   6.070   0.086  12.682 -0.1826 -0.0630 -1.7635
 9234TIP3    H249118   5.950   0.031  12.755 -1.0263  2.2825 -1.2888
 9235TIP3   OH249119   3.609   3.781  13.017 -0.0347 -0.0720 -0.1089
 9235TIP3    H149120   3.684   3.811  12.966 -0.4256  1.0794 -0.0232
 9235TIP3    H249121   3.624   3.815  13.105 -0.3989 -0.2749  0.0357
 9236TIP3   OH249122   0.773   3.289   3.280 -0.0828  0.1140  0.1544
 9236TIP3    H149123   0.719   3.332   3.213 -1.2887  0.4470  1.2952
 9236TIP3    H249124   0.822   3.361   3.320 -0.3022  0.0919  0.4627
 9237TIP3   OH249125   3.964   2.427  11.683 -0.4279 -0.3743 -0.5203
 9237TIP3    H149126   3.942   2.404  11.773 -1.1391 -1.9577 -1.0632
 9237TIP3    H249127   3.885   2.469  11.648 -0.4427 -0.5150 -0.6563
 9238TIP3   OH249128   3.019   0.411   5.600 -0.5606  0.4746 -0.3747
 9238TIP3    H149129   3.080   0.368   5.540  1.0990  0.5246  1.1775
 9238TIP3    H249130   3.040   0.504   5.594  1.9137  0.2637  2.4815
 9239TIP3   OH249131   3.633   1.667   1.240  0.2595 -0.1739 -0.8418
 9239TIP3    H149132   3.670   1.755   1.249 -0.2631 -0.0849  0.8169
 9239TIP3    H249133   3.677   1.617   1.309 -1.1089 -0.6123 -0.2673
 9240TIP3   OH249134   1.088   6.226   3.565  0.4071  0.0632  0.4010
 9240TIP3    H149135   1.122   6.191   3.647 -2.2266  0.1028  1.6146
 9240TIP3    H249136   1.135   6.179   3.497  1.9600 -0.6829  1.9321
 9241TIP3   OH249137   6.517   4.125   1.548  0.5282 -0.0890  0.2210
 9241TIP3    H149138   6.437   4.156   1.505 -1.0559 -0.2881  2.8267
 9241TIP3    H249139   6.499   4.033   1.568  1.6271 -0.2723  0.4142
 9242TIP3   OH249140   5.426   5.217  15.968 -0.3180 -0.6878  0.2970
 9242TIP3    H149141   5.499   5.169  16.007  1.7780  1.4097 -0.7697
 9242TIP3    H249142   5.404   5.284  16.032 -1.1308 -1.1224  0.4834
 9243TIP3   OH249143   3.181   1.034  12.067 -0.5500  0.2736 -0.2856
 9243TIP3    H149144   3.226   1.113  12.037 -0.7050 -0.1260 -1.6656
 9243TIP3    H249145   3.247   0.986  12.116  0.7960 -0.6021 -2.7809
 9244TIP3   OH249146   0.445   2.441  15.059 -0.0294 -0.1377 -0.5118
 9244TIP3    H149147   0.363   2.415  15.101  0.6086 -0.1727  0.7567
 9244TIP3    H249148   0.501   2.470  15.131  1.6256 -1.5795 -1.1468
 9245TIP3   OH249149   4.208   0.996   3.298 -0.1423 -0.5789 -0.2172
 9245TIP3    H149150   4.244   1.046   3.224  1.1210 -0.8568  0.1721
 9245TIP3    H249151   4.233   1.047   3.375  0.4774 -1.3886  0.1354
 9246TIP3   OH249152   0.389   3.073  12.921 -0.5691 -0.0536  0.1215
 9246TIP3    H149153   0.410   2.985  12.888  2.6267 -0.3717  2.5575
 9246TIP3    H249154   0.450   3.131  12.875 -0.4356  0.4024  0.8627
 9247TIP3   OH249155   6.299   0.445  14.434 -0.0523  0.2079  0.3069
 9247TIP3    H149156   6.299   0.502  14.356  0.0346  1.7496  1.3949
 9247TIP3    H249157   6.315   0.357  14.399  2.0436  1.1226 -1.2545
 9248TIP3   OH249158   2.898   1.250   2.140 -0.2036  0.2018 -1.4092
 9248TIP3    H149159   2.983   1.207   2.151 -0.3447  0.1619 -0.3779
 9248TIP3    H249160   2.895   1.315   2.210 -0.2802  1.4431 -2.5334
 9249TIP3   OH249161   2.959   0.933  11.604  0.7505  0.7939  0.4384
 9249TIP3    H149162   2.945   0.992  11.678  0.7208  0.4475  0.7152
 9249TIP3    H249163   3.013   0.982  11.543  1.0564  0.9614  0.8459
 9250TIP3   OH249164   4.363   3.609  16.271 -0.0755 -0.6407  0.0247
 9250TIP3    H149165   4.374   3.593  16.177  1.7131  0.4261  0.0202
 9250TIP3    H249166   4.352   3.703  16.278  2.1980 -0.3985  1.0382
 9251TIP3   OH249167   6.542   3.354   3.118 -0.3756 -0.5485 -0.3512
 9251TIP3    H149168   6.587   3.276   3.086  0.9418 -0.2330  0.6336
 9251TIP3    H249169   6.578   3.426   3.065  0.0155 -0.3469  0.1778
 9252TIP3   OH249170   2.108   6.058   5.158 -0.4223 -0.4095  0.2737
 9252TIP3    H149171   2.067   5.977   5.187  1.4632 -1.5207 -0.0131
 9252TIP3    H249172   2.116   6.049   5.063  1.6220 -0.8338  0.4414
 9253TIP3   OH249173   0.213   5.940   2.884  0.0430  0.0874  0.1094
 9253TIP3    H149174   0.155   5.949   2.959  0.9014 -0.8191  0.8978
 9253TIP3    H249175   0.196   5.852   2.851 -1.1748  0.8756 -1.5125
 9254TIP3   OH249176   4.805   5.686  14.213  0.0176  0.6839 -0.4442
 9254TIP3    H149177   4.752   5.696  14.292 -0.3266  1.3183 -0.7522
 9254TIP3    H249178   4.868   5.758  14.217  0.2453  0.4963 -0.5639
 9255TIP3   OH249179   2.418   3.933  16.797 -0.0476 -0.2619 -0.1553
 9255TIP3    H149180   2.472   4.004  16.763 -1.3307 -0.0501 -1.8514
 9255TIP3    H249181   2.400   3.958  16.887 -2.9663  3.2098 -1.4895
 9256TIP3   OH249182   2.491   5.246  13.320  0.1094 -0.4720 -0.8997
 9256TIP3    H149183   2.529   5.333  13.328  1.4676 -0.8410 -2.8565
 9256TIP3    H249184   2.396   5.261  13.320  0.2430  0.7383  1.0302
 9257TIP3   OH249185   6.236   5.570  15.249 -0.3202 -0.5170  0.2919
 9257TIP3    H149186   6.222   5.598  15.339  1.2048 -0.2735  0.4799
 9257TIP3    H249187   6.318   5.520  15.251  1.0353  1.4271 -1.2806
 9258TIP3   OH249188   1.017   3.072  13.843  0.0604  0.0008 -0.1322
 9258TIP3    H149189   0.927   3.087  13.812 -0.0455  0.7739  0.5038
 9258TIP3    H249190   1.059   3.158  13.836  0.1815  0.0937  1.3289
 9259TIP3   OH249191   5.895   6.376   3.116  0.2773  0.1936 -0.0993
 9259TIP3    H149192   5.897   6.365   3.021  0.6918  0.7629 -0.1596
 9259TIP3    H249193   5.805   6.353   3.141  0.9023 -2.7940 -0.2562
 9260TIP3   OH249194   3.712   6.528  13.034  0.1661 -0.1490 -0.3130
 9260TIP3    H149195   3.643   6.463  13.021  0.2089  0.0174 -1.4348
 9260TIP3    H249196   3.789   6.490  12.991 -0.0365  1.0178 -1.7577
 9261TIP3   OH249197   6.043   3.936   0.733  0.7446  0.5938  0.2965
 9261TIP3    H149198   5.951   3.942   0.761  0.8556 -1.7524  1.4445
 9261TIP3    H249199   6.051   3.847   0.698  2.5550  0.8111  0.0919
 9262TIP3   OH249200   4.217   2.280   3.011  0.0088 -0.2950 -0.2683
 9262TIP3    H149201   4.285   2.250   3.071 -0.3853  0.6614  0.7143
 9262TIP3    H249202   4.139   2.231   3.037  0.2158 -1.1171 -1.1456
 9263TIP3   OH249203   0.903   5.629   3.323 -0.0495  0.5613 -0.5348
 9263TIP3    H149204   0.897   5.706   3.379 -0.7363  1.2860 -1.5784
 9263TIP3    H249205   0.845   5.648   3.249 -2.0240 -1.9077  0.2613
 9264TIP3   OH249206   2.096   6.508  12.619 -0.4235  0.2164 -0.7375
 9264TIP3    H149207   2.177   6.532  12.575  0.5293 -1.2550  0.1177
 9264TIP3    H249208   2.103   6.413  12.632 -1.2669  0.3670  1.3026
 9265TIP3   OH249209   2.789   5.611   4.948  0.0721 -0.2337 -0.3506
 9265TIP3    H149210   2.734   5.588   5.022 -0.7978  2.4846 -0.0386
 9265TIP3    H249211   2.749   5.567   4.873 -2.5897  1.5160 -0.1142
 9266TIP3   OH249212   5.264   2.937  16.635  0.2923 -0.4308  0.5853
 9266TIP3    H149213   5.259   2.880  16.559 -0.2982 -0.4253  0.6186
 9266TIP3    H249214   5.202   2.900  16.698  0.2978 -0.0630  0.8138
 9267TIP3   OH249215   3.245   0.269  13.457  0.0749  0.2891  0.2075
 9267TIP3    H149216   3.220   0.228  13.539 -2.0812 -0.4387 -0.7109
 9267TIP3    H249217   3.303   0.206  13.414  0.3261  0.1848  0.7056
 9268TIP3   OH249218   2.079   5.378  15.231 -0.0455  0.2335  0.1173
 9268TIP3    H149219   2.055   5.287  15.251 -1.1271  0.7588  1.3521
 9268TIP3    H249220   1.997   5.420  15.206  0.2679  1.1115  0.5395
 9269TIP3   OH249221   5.585   2.495  16.692 -0.4855 -0.7407 -0.1144
 9269TIP3    H149222   5.668   2.480  16.647 -0.4298 -0.8025  0.0069
 9269TIP3    H249223   5.584   2.430  16.763 -0.6515 -0.7613 -0.1347
 9270TIP3   OH249224   2.962   3.817   4.886  0.1873  0.3565 -0.3412
 9270TIP3    H149225   2.945   3.754   4.816 -0.0741 -1.2318  1.0722
 9270TIP3    H249226   3.043   3.860   4.860 -0.9474  1.2976 -2.5908
 9271TIP3   OH249227   2.240   0.469   1.361  0.1842 -0.3338 -0.1289
 9271TIP3    H149228   2.268   0.378   1.350  2.2406 -0.0735  2.1656
 9271TIP3    H249229   2.239   0.482   1.456 -0.5641  1.9145 -0.3976
 9272TIP3   OH249230   2.116   4.982  16.455  0.3184 -0.4986  0.1410
 9272TIP3    H149231   2.059   4.986  16.378  3.2383  1.0665 -2.1859
 9272TIP3    H249232   2.204   4.973  16.419  1.8481  0.1220  3.3370
 9273TIP3   OH249233   3.906   5.125   1.273  0.3310  0.1554  0.3688
 9273TIP3    H149234   3.833   5.089   1.322  0.6020  0.5824  1.1060
 9273TIP3    H249235   3.866   5.190   1.215 -0.4697 -2.7627 -2.5976
 9274TIP3   OH249236   1.286   3.560   1.950  0.3565 -0.0509 -0.1384
 9274TIP3    H149237   1.288   3.471   1.916  1.6341 -0.5702  1.1938
 9274TIP3    H249238   1.239   3.552   2.033  0.0767  0.6014 -0.2332
 9275TIP3   OH249239   2.765   0.787   4.481  0.1326  0.1027 -0.0956
 9275TIP3    H149240   2.723   0.846   4.418 -0.6269 -0.7541 -0.4137
 9275TIP3    H249241   2.858   0.790   4.459  0.0580  0.8981 -0.3340
 9276TIP3   OH249242   1.002   3.850   2.185  0.0860  0.1112 -0.2095
 9276TIP3    H149243   1.070   3.783   2.194  0.0334  0.1996  0.9537
 9276TIP3    H249244   0.953   3.846   2.267  0.5578  2.0782  0.2421
 9277TIP3   OH249245   5.165   5.838   4.802  0.5208  0.1651  0.1035
 9277TIP3    H149246   5.105   5.826   4.728 -0.3974 -0.1991  0.8846
 9277TIP3    H249247   5.249   5.805   4.769 -0.4249 -2.4072 -0.0076
 9278TIP3   OH249248   6.297   4.792  14.033 -0.3891 -0.1501 -0.4535
 9278TIP3    H149249   6.318   4.785  14.126 -0.5904 -0.8467 -0.4555
 9278TIP3    H249250   6.238   4.867  14.027  1.8948  1.7306 -0.4234
 9279TIP3   OH249251   1.749   3.426   1.247  0.2699  0.4715 -0.4854
 9279TIP3    H149252   1.706   3.385   1.172  0.8835  0.4415 -0.8271
 9279TIP3    H249253   1.743   3.361   1.317 -2.3662  1.3559  0.2534
 9280TIP3   OH249254   4.127   2.555  12.821  0.0804 -0.2757  0.5194
 9280TIP3    H149255   4.038   2.524  12.806  0.3392 -0.7488 -0.0816
 9280TIP3    H249256   4.131   2.573  12.915 -1.3735  2.0360  0.2402
 9281TIP3   OH249257   4.055   4.358   5.155 -0.7156 -0.3433 -0.2656
 9281TIP3    H149258   4.135   4.361   5.103 -0.9328  0.1708 -0.5828
 9281TIP3    H249259   4.006   4.436   5.128  0.2062  1.2733  2.3506
 9282TIP3   OH249260   4.327   3.587   6.082  0.1522  0.1344 -0.3989
 9282TIP3    H149261   4.353   3.602   6.173 -0.7771  0.0163 -0.1024
 9282TIP3    H249262   4.323   3.674   6.043 -2.3451  0.5103  0.5102
 9283TIP3   OH249263   5.057   2.308   3.947  0.2750  0.7935  0.2376
 9283TIP3    H149264   5.093   2.349   4.026  2.4527 -0.2272 -0.1525
 9283TIP3    H249265   5.052   2.215   3.968 -4.6810  0.9615  1.1321
 9284TIP3   OH249266   3.217   5.538   2.603  0.2003 -0.2097  0.5263
 9284TIP3    H149267   3.128   5.505   2.597  0.2400  0.0268 -2.3300
 9284TIP3    H249268   3.270   5.459   2.617 -0.3273 -0.4336  1.4031
 9285TIP3   OH249269   3.159   6.269   5.974 -0.2715  0.7482 -0.1074
 9285TIP3    H149270   3.165   6.338   6.040 -0.6821 -1.0280  1.8700
 9285TIP3    H249271   3.150   6.188   6.024 -0.4896 -0.6981 -2.3547
 9286TIP3   OH249272   0.445   6.679  14.374  0.0273 -0.3568 -0.0304
 9286TIP3    H149273   0.517   6.650  14.318  0.0047 -0.4002 -0.0371
 9286TIP3    H249274   0.370   6.626  14.346  0.5188 -1.9263  1.4821
 9287TIP3   OH249275   4.154   6.334   0.996 -0.0558 -0.0368  0.4714
 9287TIP3    H149276   4.158   6.250   0.951 -1.2798 -0.4154  1.0243
 9287TIP3    H249277   4.156   6.311   1.089  1.5589  0.6783  0.6499
 9288TIP3   OH249278   0.891   1.584  13.543  0.3829  0.7539 -0.5604
 9288TIP3    H149279   0.906   1.638  13.620 -0.5956 -1.4823  1.3231
 9288TIP3    H249280   0.796   1.575  13.538  0.5107 -1.4199 -0.2391
 9289TIP3   OH249281   4.248   0.568   0.902 -0.0221 -0.2723  0.3119
 9289TIP3    H149282   4.335   0.532   0.916 -0.1831 -0.1234  2.0188
 9289TIP3    H249283   4.205   0.508   0.841  2.0543  0.9935 -2.6399
 9290TIP3   OH249284   3.885   3.295  15.029  0.0285  0.3941  0.2448
 9290TIP3    H149285   3.796   3.261  15.022 -0.0466  0.3401  1.3398
 9290TIP3    H249286   3.878   3.387  15.004 -0.6118  0.7686  1.7361
 9291TIP3   OH249287   2.697   3.929  17.058  0.2187  0.3197  0.1787
 9291TIP3    H149288   2.790   3.951  17.060  0.7214 -1.6635  0.3372
 9291TIP3    H249289   2.692   3.850  17.005 -1.3325  0.1992  0.4690
 9292TIP3   OH249290   2.801   6.577   5.073 -0.4381  0.4045  0.2260
 9292TIP3    H149291   2.780   6.670   5.062 -0.6570  0.6310  2.1778
 9292TIP3    H249292   2.727   6.531   5.034  0.1284  0.9764 -1.6687
 9293TIP3   OH249293   2.190   4.341  17.198 -0.0322  0.0279 -0.2833
 9293TIP3    H149294   2.158   4.323  17.109  1.3467  0.3971 -0.8729
 9293TIP3    H249295   2.134   4.287  17.254 -1.5767  0.5362 -1.2677
 9294TIP3   OH249296   6.508   4.957   4.421  0.2816  0.0187 -0.5623
 9294TIP3    H149297   6.434   4.900   4.443 -0.6184  2.0224  2.2398
 9294TIP3    H249298   6.471   5.025   4.366 -0.1245  1.1480  1.0235
 9295TIP3   OH249299   1.945   4.345  12.313 -0.1424 -0.0176 -0.0154
 9295TIP3    H149300   1.982   4.396  12.241  0.8446 -2.3329 -1.2421
 9295TIP3    H249301   1.851   4.361  12.308  0.1383  1.6497 -0.3364
 9296TIP3   OH249302   6.256   5.558  13.857  0.6099  0.2834  0.2688
 9296TIP3    H149303   6.275   5.633  13.800  0.5994  0.3311  0.3274
 9296TIP3    H249304   6.304   5.485  13.817  2.3396  0.7698  1.3445
 9297TIP3   OH249305   6.378   4.150   1.116  0.3813  0.6677 -0.2143
 9297TIP3    H149306   6.309   4.093   1.083 -0.6801  1.9486 -0.3155
 9297TIP3    H249307   6.384   4.129   1.209  0.1739  0.2321 -0.2986
 9298TIP3   OH249308   3.380   4.652  16.899  0.2406  0.1005 -0.2765
 9298TIP3    H149309   3.435   4.601  16.840  0.7538 -0.5902  0.7680
 9298TIP3    H249310   3.292   4.616  16.890  0.1380  0.5580 -1.2235
 9299TIP3   OH249311   4.340   3.931  15.604 -0.0957  0.5852  0.1574
 9299TIP3    H149312   4.379   4.018  15.596 -0.7022  0.7960 -0.6330
 9299TIP3    H249313   4.378   3.881  15.531  0.6444  0.0213  0.9114
 9300TIP3   OH249314   0.531   6.733   0.644  0.2650  0.1449  0.2310
 9300TIP3    H149315   0.539   6.649   0.598  0.1725 -0.6523  1.6134
 9300TIP3    H249316   0.452   6.773   0.608 -0.3260 -0.8820  0.3542
 9301TIP3   OH249317   6.256   3.984  16.968  0.2603  0.3054  0.3422
 9301TIP3    H149318   6.284   3.967  17.058 -0.5445  1.0267  0.7325
 9301TIP3    H249319   6.224   3.899  16.937 -0.3788  0.2709  1.0665
 9302TIP3   OH249320   5.858   5.155  14.441 -0.2669 -0.1563  0.0822
 9302TIP3    H149321   5.795   5.103  14.490  0.0956 -1.2719 -0.5981
 9302TIP3    H249322   5.823   5.245  14.445 -1.8964 -0.7415 -0.2829
 9303TIP3   OH249323   3.971   1.044  15.224  0.0424 -0.5189 -0.0314
 9303TIP3    H149324   3.905   0.980  15.198  0.7370 -0.7558 -1.2798
 9303TIP3    H249325   4.052   1.013  15.182  1.5744 -1.6162  3.3436
 9304TIP3   OH249326   1.833   5.549  13.554  0.1380 -0.2579  0.3705
 9304TIP3    H149327   1.859   5.517  13.640  1.5831  0.4879  0.2387
 9304TIP3    H249328   1.900   5.613  13.530 -1.4980  1.3277 -0.2775
 9305TIP3   OH249329   5.462   4.140   3.508 -0.1148  0.2161  0.1560
 9305TIP3    H149330   5.552   4.110   3.498  0.0170  1.1905 -2.1879
 9305TIP3    H249331   5.468   4.218   3.564  0.3585 -0.2607  0.7788
 9306TIP3   OH249332   4.793   4.342  16.661 -0.3689  0.5462 -0.3407
 9306TIP3    H149333   4.807   4.267  16.604 -0.0282  0.8547 -0.6687
 9306TIP3    H249334   4.838   4.414  16.618 -0.3970  0.8624  0.1441
 9307TIP3   OH249335   2.613   0.732  14.185 -0.5088 -1.0125 -0.4643
 9307TIP3    H149336   2.634   0.805  14.243  1.9733 -0.1478 -2.3093
 9307TIP3    H249337   2.618   0.655  14.243 -0.8565  0.0395  1.0294
 9308TIP3   OH249338   3.621   4.706   3.497  0.3062 -0.5729  0.5091
 9308TIP3    H149339   3.657   4.674   3.580  0.1878 -2.2597 -0.0474
 9308TIP3    H249340   3.614   4.801   3.509  0.8553 -0.7045  2.1983
 9309TIP3   OH249341   5.330   4.920   6.037 -0.0408 -0.0759 -0.1556
 9309TIP3    H149342   5.382   4.863   6.092 -1.3752 -0.8363  0.3756
 9309TIP3    H249343   5.379   4.927   5.955  0.2608 -1.8353 -0.1618
 9310TIP3   OH249344   4.221   4.704   1.014 -0.8570  0.1731 -0.3985
 9310TIP3    H149345   4.210   4.676   0.923  1.7386  2.0946 -1.4373
 9310TIP3    H249346   4.209   4.624   1.065 -2.4400 -0.9629 -2.3850
 9311TIP3   OH249347   4.615   4.568  11.928  0.2359  0.4864 -0.5982
 9311TIP3    H149348   4.620   4.659  11.899  1.4443  0.6555  0.0591
 9311TIP3    H249349   4.647   4.570  12.018 -1.6666 -0.3016  0.1514
 9312TIP3   OH249350   3.174   4.956  11.806  0.1447  0.2739  0.0817
 9312TIP3    H149351   3.134   5.013  11.871  0.8734 -0.5790  1.3222
 9312TIP3    H249352   3.177   5.009  11.726 -4.0381  0.1876 -0.3599
 9313TIP3   OH249353   0.919   1.907   2.114  0.0568  0.2684  0.4307
 9313TIP3    H149354   0.916   1.968   2.189  1.1514  1.0657 -0.1491
 9313TIP3    H249355   0.849   1.938   2.056  0.2141  0.6145  0.4195
 9314TIP3   OH249356   2.711   2.260   0.949  1.0905 -0.2494  0.3728
 9314TIP3    H149357   2.703   2.181   1.002  0.3818 -0.6141 -0.2565
 9314TIP3    H249358   2.733   2.228   0.862 -1.6067  0.0295 -0.5020
 9315TIP3   OH249359   0.974   4.215   2.894 -0.4397  0.3169  0.3237
 9315TIP3    H149360   0.984   4.281   2.963  3.2907  0.4300 -0.1333
 9315TIP3    H249361   0.886   4.230   2.860 -0.4494  3.8295  1.4658
 9316TIP3   OH249362   2.338   6.388  13.348  0.0477 -0.4109  0.2194
 9316TIP3    H149363   2.380   6.463  13.390  1.3678  0.1562 -1.9608
 9316TIP3    H249364   2.248   6.417  13.330  0.0387  0.0052  0.9138
 9317TIP3   OH249365   4.799   0.914   2.225 -0.2432 -0.2036 -0.1354
 9317TIP3    H149366   4.738   0.879   2.160  0.8292 -1.7787 -0.3437
 9317TIP3    H249367   4.743   0.962   2.286 -1.1741  2.3184 -2.7616
 9318TIP3   OH249368   2.203   3.926   5.113 -0.3501 -0.6984 -0.6704
 9318TIP3    H149369   2.281   3.977   5.091 -0.7297 -0.6425 -2.0111
 9318TIP3    H249370   2.172   3.964   5.196 -0.9138  1.6905 -1.8544
 9319TIP3   OH249371   3.931   3.543   4.602 -0.5740  0.3611 -0.3606
 9319TIP3    H149372   3.985   3.621   4.588  1.0135 -0.5883  0.2500
 9319TIP3    H249373   3.889   3.558   4.687  2.0057 -0.6400  1.1971
 9320TIP3   OH249374   0.513   4.236  17.027 -0.7848 -0.5471  0.2678
 9320TIP3    H149375   0.601   4.271  17.016 -1.1099  0.0920 -0.4053
 9320TIP3    H249376   0.520   4.175  17.101 -0.0173  0.3032  0.9174
 9321TIP3   OH249377   2.870   2.935   0.826  0.3502 -0.3415 -0.3056
 9321TIP3    H149378   2.886   2.844   0.798 -1.2720 -0.6677 -0.2566
 9321TIP3    H249379   2.905   2.938   0.915 -1.7547 -1.6668  0.6367
 9322TIP3   OH249380   2.900   4.811  16.163 -0.0247 -0.2146  0.0539
 9322TIP3    H149381   2.906   4.844  16.253  0.4582  1.3323 -0.5261
 9322TIP3    H249382   2.880   4.718  16.174 -1.0344  0.1543  1.7459
 9323TIP3   OH249383   1.907   6.141  11.449  0.1841  0.3027  0.1047
 9323TIP3    H149384   1.833   6.165  11.393 -0.3049 -0.1922  0.5221
 9323TIP3    H249385   1.943   6.224  11.479  3.6990  1.0585 -4.8719
 9324TIP3   OH249386   5.520   0.977   0.220  0.3193 -0.4247  0.1745
 9324TIP3    H149387   5.455   0.960   0.288  0.3316 -1.4862 -0.0602
 9324TIP3    H249388   5.537   1.071   0.226  0.0883 -0.4441  1.4154
 9325TIP3   OH249389   2.053   5.029  11.448 -0.0350 -0.2639 -0.3788
 9325TIP3    H149390   2.073   5.012  11.356  0.3892 -2.0531  0.0023
 9325TIP3    H249391   2.126   5.085  11.478  0.6264 -0.8956 -0.7729
 9326TIP3   OH249392   4.851   5.757  15.793 -0.3767  0.2897 -0.3657
 9326TIP3    H149393   4.862   5.677  15.845  1.2951  1.0749  0.5805
 9326TIP3    H249394   4.781   5.805  15.836 -0.4875 -0.0679 -0.1450
 9327TIP3   OH249395   1.563   5.601  13.532  0.0609 -0.6949 -0.1991
 9327TIP3    H149396   1.645   5.552  13.539 -0.2105 -1.0025  1.2256
 9327TIP3    H249397   1.583   5.674  13.474  1.7913  0.1140  1.3354
 9328TIP3   OH249398   6.621   6.182   3.445 -0.1713  0.1891 -0.1851
 9328TIP3    H149399   6.677   6.260   3.445  1.6999 -1.0677  0.3243
 9328TIP3    H249400   6.543   6.209   3.493  1.0327  1.3809  1.2371
 9329TIP3   OH249401   6.413   4.489  14.476 -0.4512 -0.3460  0.8844
 9329TIP3    H149402   6.351   4.417  14.465 -2.7684  1.5077  1.1033
 9329TIP3    H249403   6.421   4.527  14.388 -1.1141  0.5314  1.1845
 9330TIP3   OH249404   4.293   2.117  12.106  0.2202 -0.1784 -0.1324
 9330TIP3    H149405   4.349   2.039  12.112 -0.2984 -0.7422 -1.9633
 9330TIP3    H249406   4.343   2.178  12.052  1.1104  1.2709  2.1875
 9331TIP3   OH249407   5.069   1.473  14.992  0.2703  0.2286 -0.3949
 9331TIP3    H149408   5.080   1.448  14.900  0.4769 -0.6148 -0.1465
 9331TIP3    H249409   5.150   1.445  15.034 -1.0855 -2.4462  0.6818
 9332TIP3   OH249410   1.964   1.368  11.282 -0.1078 -0.4337 -0.4883
 9332TIP3    H149411   1.930   1.452  11.250  0.5111  0.3895  0.9071
 9332TIP3    H249412   2.057   1.369  11.256  0.1546 -0.2015  0.4185
 9333TIP3   OH249413   1.344   4.384  15.986  0.3342 -0.0651  0.2370
 9333TIP3    H149414   1.385   4.319  15.928  1.7365  0.1665  0.9037
 9333TIP3    H249415   1.350   4.344  16.073  0.1380  0.4534  0.4873
 9334TIP3   OH249416   5.661   5.583  12.947  0.2032 -0.7505  0.2995
 9334TIP3    H149417   5.740   5.568  12.896  1.4802  0.2944  1.8680
 9334TIP3    H249418   5.605   5.508  12.926  0.8334 -0.6080 -2.2058
 9335TIP3   OH249419   5.372   5.071  14.320  0.0330  0.4699 -0.3037
 9335TIP3    H149420   5.322   5.003  14.274 -2.0623  1.0148  0.9890
 9335TIP3    H249421   5.460   5.067  14.283  0.2926 -3.5627  0.3352
 9336TIP3   OH249422   1.943   6.231  16.383 -0.2577  0.4830 -0.2488
 9336TIP3    H149423   2.004   6.220  16.310  1.0916  1.6530  0.6487
 9336TIP3    H249424   1.999   6.230  16.461 -1.5734  0.0551  0.7247
 9337TIP3   OH249425   2.237   1.645  11.737 -0.0664 -0.5833  0.6705
 9337TIP3    H149426   2.214   1.713  11.800 -1.6890 -0.7144  0.2475
 9337TIP3    H249427   2.310   1.682  11.687  0.4254  0.0031  1.7923
 9338TIP3   OH249428   1.507   6.404   0.131  0.7899  0.6082  0.8494
 9338TIP3    H149429   1.533   6.314   0.154  1.4701  0.6067  0.0925
 9338TIP3    H249430   1.411   6.400   0.126  0.6647  0.3899  2.7250
 9339TIP3   OH249431   2.450   3.981  16.064 -0.3577 -0.0308 -0.2217
 9339TIP3    H149432   2.538   4.018  16.052 -0.2564 -0.1339  0.1871
 9339TIP3    H249433   2.431   3.994  16.157  0.0974 -1.9025  0.1841
 9340TIP3   OH249434   0.871   5.111  12.348  0.1151 -0.1970 -0.0810
 9340TIP3    H149435   0.952   5.089  12.395  1.0786  0.7498 -1.2212
 9340TIP3    H249436   0.886   5.079  12.259 -1.7179 -2.0580  0.2067
 9341TIP3   OH249437   1.945   4.548   5.574 -0.3984 -0.2285 -0.0161
 9341TIP3    H149438   1.925   4.460   5.544 -0.4680  0.0332 -0.7755
 9341TIP3    H249439   2.000   4.536   5.651 -0.9325 -0.9337  0.2605
 9342TIP3   OH249440   5.345   3.978  16.111 -1.1679  0.3392  0.3333
 9342TIP3    H149441   5.275   4.039  16.133 -0.0938  1.2344  1.3988
 9342TIP3    H249442   5.301   3.894  16.098 -2.4470  0.9296  0.7360
 9343TIP3   OH249443   1.236   3.343   1.802  0.7960  0.3996  0.3142
 9343TIP3    H149444   1.225   3.256   1.763  2.1836 -0.3817  1.5736
 9343TIP3    H249445   1.225   3.404   1.729 -1.3161 -0.7441 -0.3885
 9344TIP3   OH249446   1.133   6.613   2.137 -0.0205 -0.4848 -0.6697
 9344TIP3    H149447   1.212   6.662   2.113  0.4417 -0.7676  0.2554
 9344TIP3    H249448   1.139   6.533   2.085  1.4651 -1.5250  0.9787
 9345TIP3   OH249449   6.470   1.270   0.745 -0.3994 -0.3913 -0.8410
 9345TIP3    H149450   6.396   1.230   0.791 -1.4685  1.9609 -0.3731
 9345TIP3    H249451   6.516   1.321   0.812  0.0611  0.3326 -1.6860
 9346TIP3   OH249452   1.734   4.298   1.181 -0.8632  0.6217  0.3863
 9346TIP3    H149453   1.730   4.210   1.145  0.4536  1.1034 -1.0628
 9346TIP3    H249454   1.806   4.340   1.133 -0.7263  2.1324  1.8211
 9347TIP3   OH249455   3.934   4.817   3.344 -0.0650 -0.6906  0.7235
 9347TIP3    H149456   3.860   4.834   3.402 -0.9526  3.4065 -1.1945
 9347TIP3    H249457   3.893   4.796   3.260  0.9100  0.1717  0.0023
 9348TIP3   OH249458   3.017   0.049  14.046 -0.0079  0.2902 -0.0739
 9348TIP3    H149459   3.021   0.139  14.013 -3.6009  0.3577 -0.7130
 9348TIP3    H249460   2.923   0.029  14.051  0.6013 -2.7352  2.0377
 9349TIP3   OH249461   1.146   4.995  13.354 -0.2000  0.4224  0.2432
 9349TIP3    H149462   1.218   5.059  13.358 -0.9305  1.3176 -0.3424
 9349TIP3    H249463   1.159   4.938  13.430  0.6154  1.1198  0.6407
 9350TIP3   OH249464   5.568   3.124  11.071  0.2602 -0.4187 -0.5769
 9350TIP3    H149465   5.488   3.105  11.021 -2.1328  1.1499  2.3169
 9350TIP3    H249466   5.600   3.206  11.033 -1.6473  0.8774  0.4347
 9351TIP3   OH249467   5.984   2.870   2.330  0.2327  0.3050  0.2600
 9351TIP3    H149468   6.069   2.913   2.331 -0.2517  1.2841  0.6322
 9351TIP3    H249469   5.921   2.939   2.352 -0.6575 -0.4035  0.0322
 9352TIP3   OH249470   4.653   1.072   0.530 -0.3940 -1.0154  0.0678
 9352TIP3    H149471   4.592   1.026   0.587 -1.5363  0.1253 -0.1765
 9352TIP3    H249472   4.733   1.081   0.582 -1.4180  0.0302  1.5334
 9353TIP3   OH249473   6.551   0.263   3.773  0.2820 -0.5643 -0.1042
 9353TIP3    H149474   6.605   0.342   3.762  0.0094 -0.2640  0.5982
 9353TIP3    H249475   6.464   0.290   3.743  0.6405 -1.2286 -1.8028
 9354TIP3   OH249476   2.244   1.120   1.718 -0.9588 -0.0284  0.5147
 9354TIP3    H149477   2.253   1.189   1.783 -4.0325  0.7280  0.2706
 9354TIP3    H249478   2.260   1.163   1.634  0.4333 -0.4284  0.5464
 9355TIP3   OH249479   5.967   1.490   5.089 -0.6253 -0.4288 -0.2239
 9355TIP3    H149480   5.897   1.458   5.033  0.0635 -1.0806 -0.7241
 9355TIP3    H249481   6.047   1.453   5.052  0.0483  0.7119  0.0365
 9356TIP3   OH249482   5.987   6.325  16.756 -0.0743 -0.2125  0.7244
 9356TIP3    H149483   5.934   6.247  16.774 -1.4180  0.5039  0.0276
 9356TIP3    H249484   5.970   6.384  16.829 -0.5651  0.1732  0.3081
 9357TIP3   OH249485   2.773   0.580   5.600 -0.1793  0.5187  0.5493
 9357TIP3    H149486   2.798   0.493   5.568  0.0110  0.5661  0.5644
 9357TIP3    H249487   2.710   0.612   5.536  0.7528  0.9201 -0.1972
 9358TIP3   OH249488   6.239   3.589   4.591  0.1268 -0.4027  0.5036
 9358TIP3    H149489   6.158   3.545   4.566 -0.0928 -0.0897  0.6609
 9358TIP3    H249490   6.304   3.558   4.528 -0.6095  1.0569 -1.0424
 9359TIP3   OH249491   0.292   6.407  13.203  0.4465  0.4031 -0.4194
 9359TIP3    H149492   0.231   6.386  13.274 -2.0592  1.5101 -2.1127
 9359TIP3    H249493   0.244   6.386  13.123  2.4300  1.0346 -1.8435
 9360TIP3   OH249494   2.408   4.201   5.476  0.0146 -0.5882 -0.1169
 9360TIP3    H149495   2.424   4.217   5.569 -0.7038 -0.0905 -0.0716
 9360TIP3    H249496   2.496   4.192   5.438  0.5765  2.9225 -0.0356
 9361TIP3   OH249497   1.794   1.163  15.535 -0.1165  0.0530 -0.1502
 9361TIP3    H149498   1.814   1.171  15.442 -0.6672  0.2890 -0.2494
 9361TIP3    H249499   1.808   1.070  15.555 -0.2851 -0.0552 -0.5310
 9362TIP3   OH249500   5.372   1.744  13.008  0.2806  0.8632  0.0488
 9362TIP3    H149501   5.398   1.656  13.036 -0.0738  1.0615  1.0290
 9362TIP3    H249502   5.340   1.786  13.087 -0.1389  1.6704 -0.5344
 9363TIP3   OH249503   0.661   1.749   1.872 -0.3670  0.2863  0.4695
 9363TIP3    H149504   0.741   1.705   1.902 -0.8122 -1.0199 -0.1900
 9363TIP3    H249505   0.623   1.688   1.809 -0.6329  1.9518 -1.0531
 9364TIP3   OH249506   0.438   3.160   0.444  0.1899 -0.3159  0.2097
 9364TIP3    H149507   0.382   3.188   0.371  0.9243 -1.0564 -0.6620
 9364TIP3    H249508   0.457   3.240   0.492 -0.2041  0.2002 -0.4837
 9365TIP3   OH249509   1.426   5.404  14.454  0.2023  0.2223  0.2144
 9365TIP3    H149510   1.457   5.323  14.493  0.9662  0.4953  0.1962
 9365TIP3    H249511   1.450   5.398  14.361  2.5400  1.4860  0.6496
 9366TIP3   OH249512   0.683   0.088  12.082  0.0452 -0.4604 -0.3979
 9366TIP3    H149513   0.738   0.072  12.006 -0.2424  1.5580 -1.0920
 9366TIP3    H249514   0.731   0.151  12.135 -0.1710 -1.1418  0.6407
 9367TIP3   OH249515   4.086   2.931   2.418  0.3220 -0.4830 -0.0837
 9367TIP3    H149516   4.118   2.973   2.498  0.9971 -0.3074 -0.4322
 9367TIP3    H249517   4.164   2.924   2.362 -0.4441  0.9523 -1.4134
 9368TIP3   OH249518   5.826   1.908   3.776 -0.7619 -0.1881 -0.0810
 9368TIP3    H149519   5.811   1.891   3.869 -3.1447 -1.4590 -0.6161
 9368TIP3    H249520   5.908   1.957   3.773  0.1916 -1.4448  2.5593
 9369TIP3   OH249521   6.289   3.782   5.097 -0.2468 -0.0118  0.6190
 9369TIP3    H149522   6.255   3.776   5.186  1.6105 -1.9140  1.2962
 9369TIP3    H249523   6.344   3.704   5.087  2.0553  1.6890 -1.1234
 9370TIP3   OH249524   3.886   1.156  14.138  0.0396 -0.2970 -0.2933
 9370TIP3    H149525   3.885   1.063  14.115 -0.7441  0.0820 -1.9288
 9370TIP3    H249526   3.795   1.175  14.162  0.3472 -0.1001  0.7667
 9371TIP3   OH249527   6.750   6.608  12.599  0.5104  0.4573 -0.3163
 9371TIP3    H149528   6.765   6.688  12.651  0.9375  1.7944 -2.3489
 9371TIP3    H249529   6.836   6.565  12.598  0.6253  0.6786 -0.2690
 9372TIP3   OH249530   3.182   1.787   5.171 -0.5752  0.0160  0.2809
 9372TIP3    H149531   3.265   1.811   5.130 -0.7469 -0.0180 -0.0871
 9372TIP3    H249532   3.148   1.716   5.117 -2.2728  1.9509 -1.3319
 9373TIP3   OH249533   2.755   5.341   5.912 -0.3510  0.5103  0.0618
 9373TIP3    H149534   2.814   5.360   5.839 -0.1301  0.0960  0.1262
 9373TIP3    H249535   2.799   5.270   5.960 -0.2140  1.1564  0.9163
 9374TIP3   OH249536   1.358   3.767   0.355 -0.1694 -0.5375 -0.4154
 9374TIP3    H149537   1.432   3.740   0.300  1.3033 -1.1427  1.7241
 9374TIP3    H249538   1.387   3.749   0.444 -3.0138 -1.0010  0.5136
 9375TIP3   OH249539   3.671   4.427   4.071 -0.4230 -0.1194  0.5162
 9375TIP3    H149540   3.669   4.348   4.016 -0.1817 -0.9362  1.6571
 9375TIP3    H249541   3.634   4.496   4.015 -2.2442 -1.3945  0.0763
 9376TIP3   OH249542   2.290   5.113  15.913  0.0865 -0.2092 -0.3596
 9376TIP3    H149543   2.248   5.117  15.998 -1.5148 -1.8282 -1.0095
 9376TIP3    H249544   2.368   5.059  15.927  0.6172  0.6994  0.3241
 9377TIP3   OH249545   3.779   3.494  15.591 -0.1187  0.4649 -0.2047
 9377TIP3    H149546   3.857   3.446  15.563  1.2473  1.8953  0.9614
 9377TIP3    H249547   3.766   3.469  15.682 -1.2761 -0.0427 -0.4922
 9378TIP3   OH249548   1.247   6.701   5.465  0.0757 -0.5791  0.0597
 9378TIP3    H149549   1.206   6.733   5.545 -1.2584 -1.4884 -0.2346
 9378TIP3    H249550   1.280   6.779   5.422 -1.3117  0.1860  0.3350
 9379TIP3   OH249551   5.462   2.438   6.690  0.3062 -0.4275 -0.0545
 9379TIP3    H149552   5.438   2.362   6.636 -0.4336  0.4756 -1.0289
 9379TIP3    H249553   5.556   2.429   6.703 -0.1465 -3.1599  2.4456
 9380TIP3   OH249554   0.181   5.322  17.117  0.2569 -0.3309 -0.2515
 9380TIP3    H149555   0.087   5.321  17.099 -0.3104 -0.7338  2.2830
 9380TIP3    H249556   0.199   5.238  17.159  1.1573  0.7654  1.7193
 9381TIP3   OH249557   0.255   3.867   3.760  0.3642 -0.0300 -0.4154
 9381TIP3    H149558   0.339   3.830   3.735  0.3904 -1.7377  1.9112
 9381TIP3    H249559   0.193   3.795   3.753 -0.9723  1.1626 -1.9650
 9382TIP3   OH249560   1.636   1.332  17.273 -0.3267 -0.8116  0.2805
 9382TIP3    H149561   1.616   1.425  17.278  1.9738 -0.3344  1.8228
 9382TIP3    H249562   1.556   1.289  17.304  0.0566  0.8851  4.1949
 9383TIP3   OH249563   1.114   5.416  11.423 -0.2276 -0.1009 -0.5062
 9383TIP3    H149564   1.160   5.443  11.502 -0.2343  2.3016 -1.2316
 9383TIP3    H249565   1.148   5.475  11.355 -2.1337 -0.3103 -1.7129
 9384TIP3   OH249566   4.761   5.792   4.764 -0.2526 -0.5613 -0.4320
 9384TIP3    H149567   4.730   5.869   4.811  1.5157  0.8564 -1.4473
 9384TIP3    H249568   4.682   5.740   4.748 -1.3303  0.4674  1.2381
 9385TIP3   OH249569   0.949   0.048   2.690 -0.3629 -0.0544 -0.2840
 9385TIP3    H149570   0.938   0.138   2.720 -2.2266 -0.6044  0.8202
 9385TIP3    H249571   0.878   0.035   2.626 -1.8890 -1.5282  1.5938
 9386TIP3   OH249572   5.390   5.871  12.515  0.8780  0.5808 -0.0635
 9386TIP3    H149573   5.479   5.841  12.529  1.6743  3.8371  3.4944
 9386TIP3    H249574   5.399   5.958  12.477 -0.5897  1.8223  2.2038
 9387TIP3   OH249575   0.843   5.592  12.327  0.6300  0.5339 -0.3779
 9387TIP3    H149576   0.926   5.605  12.374  1.8218  0.2994 -2.3081
 9387TIP3    H249577   0.804   5.514  12.367  1.0322  0.9962  0.9546
 9388TIP3   OH249578   2.616   3.605  13.038 -0.5079  0.6462  0.5951
 9388TIP3    H149579   2.548   3.539  13.050 -0.0267  0.1427  0.5906
 9388TIP3    H249580   2.606   3.663  13.114 -1.0111  0.6410  0.5363
 9389TIP3   OH249581   3.077   0.724   5.812 -0.6714 -0.1524 -0.2795
 9389TIP3    H149582   3.043   0.795   5.868 -0.1184  0.3204 -0.5295
 9389TIP3    H249583   3.036   0.645   5.847 -1.7392  0.3449 -0.3354
 9390TIP3   OH249584   0.585   5.697  13.996  0.1830  0.1118 -0.5125
 9390TIP3    H149585   0.654   5.646  13.953 -0.5448 -1.0415 -0.3505
 9390TIP3    H249586   0.547   5.638  14.060  0.6153  1.5064  1.1072
 9391TIP3   OH249587   2.210   5.729  12.461 -0.4525  0.1108  0.1031
 9391TIP3    H149588   2.213   5.653  12.519  1.0824  0.2141  0.2170
 9391TIP3    H249589   2.120   5.733  12.429 -0.8748 -0.9702  1.1245
 9392TIP3   OH249590   1.106   6.713   5.716 -0.6727  0.3724 -0.3671
 9392TIP3    H149591   1.111   6.774   5.789 -0.9440 -0.4618  0.3600
 9392TIP3    H249592   1.015   6.716   5.688 -0.4428  1.1366 -1.0751
 9393TIP3   OH249593   3.546   4.032  14.441 -0.3616  0.0006 -0.6666
 9393TIP3    H149594   3.490   3.999  14.371 -0.8408  1.6365 -1.0785
 9393TIP3    H249595   3.488   4.085  14.496  0.0418 -1.0947  0.9005
 9394TIP3   OH249596   3.842   3.158  15.931 -0.1613 -0.8746 -0.3450
 9394TIP3    H149597   3.826   3.064  15.938 -1.4506 -0.5790  1.7385
 9394TIP3    H249598   3.921   3.173  15.982  0.3524 -0.8830 -1.1283
 9395TIP3   OH249599   2.659   5.031  12.083  0.2364  0.3295 -0.1780
 9395TIP3    H149600   2.580   5.070  12.045 -0.6451 -0.3148  0.9550
 9395TIP3    H249601   2.682   5.089  12.155 -0.6483 -0.7883  1.0440
 9396TIP3   OH249602   3.140   4.862   5.760 -0.1689 -0.3016  0.3296
 9396TIP3    H149603   3.187   4.784   5.731 -1.0912 -1.9461  2.8821
 9396TIP3    H249604   3.206   4.932   5.761  0.5679 -0.8169 -2.4930
 9397TIP3   OH249605   0.987   5.444  17.312  0.7947  0.1512 -0.3392
 9397TIP3    H149606   0.922   5.389  17.269  2.3477  0.9911 -4.1574
 9397TIP3    H249607   0.966   5.533  17.284  2.8511  0.5594 -0.7561
 9398TIP3   OH249608   3.822   5.595   4.682  0.1692  0.0007 -0.1913
 9398TIP3    H149609   3.885   5.663   4.657 -0.6212  0.6913 -0.3725
 9398TIP3    H249610   3.856   5.559   4.764  0.8083  0.3390 -0.2993
 9399TIP3   OH249611   5.654   3.707   2.962  0.0346 -0.5583 -0.3135
 9399TIP3    H149612   5.610   3.641   2.907 -0.2671  0.4625 -1.3227
 9399TIP3    H249613   5.703   3.760   2.900  2.2101 -1.2499  0.7213
 9400TIP3   OH249614   0.390   4.889  11.150  0.2488 -1.1069  0.0381
 9400TIP3    H149615   0.413   4.902  11.058  2.9262 -2.3394  0.4504
 9400TIP3    H249616   0.463   4.927  11.199 -0.5292 -1.5862  1.6363
 9401TIP3   OH249617   1.371   1.749   4.811  0.1494 -0.1014 -0.1840
 9401TIP3    H149618   1.351   1.677   4.752  0.1782  1.2975 -1.9929
 9401TIP3    H249619   1.310   1.818   4.787  0.1592  0.5306  1.4550
 9402TIP3   OH249620   4.148   5.417  16.167  0.4029  0.2197  0.1087
 9402TIP3    H149621   4.162   5.401  16.074 -4.0397 -1.1150 -0.5293
 9402TIP3    H249622   4.057   5.447  16.173  0.8382  1.2810  3.9744
 9403TIP3   OH249623   2.083   4.941   3.348  0.2342 -0.3548  0.0063
 9403TIP3    H149624   2.020   4.945   3.276 -1.3339 -0.2411  1.3378
 9403TIP3    H249625   2.150   5.005   3.323 -0.2052 -0.4041 -1.4066
 9404TIP3   OH249626   5.894   5.137  11.096  0.4266  0.8846 -0.2749
 9404TIP3    H149627   5.935   5.106  11.177 -0.2340  0.3886 -0.1282
 9404TIP3    H249628   5.803   5.111  11.103  0.3999  0.6728 -1.2654
 9405TIP3   OH249629   0.470   2.510  14.729  0.7712 -0.1201  0.2255
 9405TIP3    H149630   0.401   2.575  14.716  0.9929 -0.1513 -1.2819
 9405TIP3    H249631   0.519   2.543  14.804 -0.6598  0.0840  1.1127
 9406TIP3   OH249632   1.138   5.690  13.964 -0.1890  0.2102  0.0787
 9406TIP3    H149633   1.152   5.660  14.053 -0.2099 -2.2285 -0.6768
 9406TIP3    H249634   1.226   5.692  13.926 -0.2748  0.3392 -0.1160
 9407TIP3   OH249635   4.696   0.095   0.403 -0.6715 -0.2568  0.4010
 9407TIP3    H149636   4.632   0.024   0.398 -1.9965  0.8950  0.4493
 9407TIP3    H249637   4.759   0.066   0.468 -2.4426 -0.4513  2.1136
 9408TIP3   OH249638   2.996   2.387   0.961 -0.1442 -0.2060  0.1740
 9408TIP3    H149639   3.029   2.388   0.871  0.3549  3.0698  0.2764
 9408TIP3    H249640   2.901   2.387   0.951 -0.2171 -3.4776 -0.1985
 9409TIP3   OH249641   1.993   5.555   0.705 -0.2222  0.2478  0.0350
 9409TIP3    H149642   1.930   5.561   0.776  0.0933  0.5165  0.2976
 9409TIP3    H249643   1.953   5.496   0.641 -0.4387 -0.1140  0.5052
 9410TIP3   OH249644   3.919   3.498  13.116  0.2009 -0.0718  0.2552
 9410TIP3    H149645   3.936   3.406  13.135  0.7290 -0.2613 -1.0023
 9410TIP3    H249646   3.826   3.502  13.095  0.2398 -0.3846  0.0084
 9411TIP3   OH249647   0.624   2.228  13.835 -0.3795  0.5219 -0.5772
 9411TIP3    H149648   0.680   2.238  13.912  0.3542 -2.0284 -0.6858
 9411TIP3    H249649   0.540   2.197  13.870  0.0902 -1.0595 -0.7843
 9412TIP3   OH249650   4.163   5.112  11.314 -0.5601  0.3376  0.2713
 9412TIP3    H149651   4.109   5.187  11.290 -0.1868  0.7263  0.6333
 9412TIP3    H249652   4.123   5.038  11.269 -0.3053  0.9296 -0.9608
 9413TIP3   OH249653   5.388   3.816  16.476 -0.1641 -0.0214 -0.2273
 9413TIP3    H149654   5.351   3.774  16.398  0.0119 -0.3471 -0.1383
 9413TIP3    H249655   5.320   3.876  16.505  0.3373  1.2081 -1.4809
 9414TIP3   OH249656   4.874   0.072   5.981 -0.0554  0.0390 -0.1613
 9414TIP3    H149657   4.808   0.120   6.031  1.0395  0.9534  0.4552
 9414TIP3    H249658   4.909   0.007   6.042 -0.8846 -0.9492 -0.7138
 9415TIP3   OH249659   3.580   5.428   1.481  0.0722 -0.3070  0.2364
 9415TIP3    H149660   3.524   5.506   1.483 -1.1417 -1.1395 -0.2381
 9415TIP3    H249661   3.607   5.421   1.389  1.4335  0.4067  0.5693
 9416TIP3   OH249662   4.538   6.045   1.117 -0.2715 -0.2463 -0.0224
 9416TIP3    H149663   4.608   6.083   1.170 -0.0955  0.3433 -0.6650
 9416TIP3    H249664   4.538   6.096   1.036 -0.4199 -1.2310 -0.6710
 9417TIP3   OH249665   4.933   0.404  16.562  0.3357  0.5285 -0.3295
 9417TIP3    H149666   4.951   0.363  16.478 -0.3528 -0.3036 -0.0879
 9417TIP3    H249667   4.849   0.448  16.550  0.0702  0.1228  0.0173
 9418TIP3   OH249668   4.844   0.494  16.125 -0.0575 -0.0853 -0.1982
 9418TIP3    H149669   4.801   0.420  16.082  0.3447 -0.0490 -0.6718
 9418TIP3    H249670   4.778   0.563  16.126  0.0400  0.0309 -1.0815
 9419TIP3   OH249671   1.138   5.612   5.928  0.0137 -0.2926  0.4359
 9419TIP3    H149672   1.087   5.637   6.005 -1.0888  0.3850 -0.4860
 9419TIP3    H249673   1.134   5.688   5.870  0.8355 -0.7800 -0.2906
 9420TIP3   OH249674   4.683   2.159  16.061  0.4193  0.2758 -0.5776
 9420TIP3    H149675   4.747   2.208  16.009  0.3455  0.5378 -0.4231
 9420TIP3    H249676   4.719   2.161  16.150 -0.0765  0.8979 -0.3814
 9421TIP3   OH249677   4.031   0.662   0.279 -0.0117  0.2569  0.7496
 9421TIP3    H149678   4.115   0.687   0.316  0.6625 -1.8681  0.7715
 9421TIP3    H249679   4.052   0.592   0.217 -1.7514 -0.2691  0.7020
 9422TIP3   OH249680   2.604   1.997  11.631  0.1903  0.1265  0.3806
 9422TIP3    H149681   2.531   2.032  11.683  0.1021  0.6091 -0.0567
 9422TIP3    H249682   2.677   2.057  11.650  0.1085  0.4123 -0.1806
 9423TIP3   OH249683   2.892   2.413   1.930 -0.2300  0.3923 -0.1862
 9423TIP3    H149684   2.828   2.447   1.993 -0.7610 -0.0189 -0.4973
 9423TIP3    H249685   2.977   2.431   1.970 -0.5220  1.2673  0.0761
 9424TIP3   OH249686   1.770   1.775  15.397  0.6374  0.1836  0.2548
 9424TIP3    H149687   1.862   1.756  15.381  0.8315  0.6963  0.7325
 9424TIP3    H249688   1.763   1.870  15.393  0.8141  0.4697  3.5481
 9425TIP3   OH249689   1.119   5.895  14.852 -0.1827  0.3234 -0.4625
 9425TIP3    H149690   1.161   5.823  14.805 -1.4113  0.4335 -1.7992
 9425TIP3    H249691   1.053   5.853  14.907  0.8582  0.2464  0.7796
 9426TIP3   OH249692   0.821   4.165  14.949  0.1280  0.7820  0.2877
 9426TIP3    H149693   0.820   4.258  14.926 -0.2211  0.7210  0.0596
 9426TIP3    H249694   0.897   4.130  14.904  0.0882  0.8948  0.1320
 9427TIP3   OH249695   1.996   2.162   0.506 -0.4773 -0.2916 -0.4317
 9427TIP3    H149696   1.902   2.153   0.520 -0.4862 -1.0329 -0.9046
 9427TIP3    H249697   2.004   2.182   0.413 -0.1916  0.3917 -0.2692
 9428TIP3   OH249698   3.542   4.868  15.483  0.2441  0.7403  0.5102
 9428TIP3    H149699   3.485   4.942  15.466 -0.0547  1.0856  2.7482
 9428TIP3    H249700   3.513   4.800  15.422  0.1454  2.2208 -1.1683
 9429TIP3   OH249701   2.909   1.503  16.653 -0.0554 -0.2403  0.1360
 9429TIP3    H149702   2.883   1.513  16.562  0.1778 -1.7122 -0.1193
 9429TIP3    H249703   2.901   1.409  16.670 -0.8492  0.1054  1.8635
 9430TIP3   OH249704   1.572   1.005   5.962 -0.0752  0.0446 -0.0576
 9430TIP3    H149705   1.519   1.064   6.015  0.1142 -0.0398  0.2275
 9430TIP3    H249706   1.649   0.986   6.015 -1.0450 -2.0366  0.7474
 9431TIP3   OH249707   1.523   5.865  11.103 -0.6848  0.1691  0.4545
 9431TIP3    H149708   1.452   5.802  11.097  0.6008 -1.6029  2.4425
 9431TIP3    H249709   1.541   5.890  11.013 -2.4643 -0.8824 -0.2377
 9432TIP3   OH249710   5.311   2.782  15.760  0.3554  0.6952  0.4142
 9432TIP3    H149711   5.351   2.753  15.842  1.3568  1.0315  0.0666
 9432TIP3    H249712   5.218   2.761  15.769  0.8022 -1.2536  0.7533
 9433TIP3   OH249713   1.654   0.948  14.542 -0.2089 -0.0255 -0.0970
 9433TIP3    H149714   1.658   0.952  14.446  2.6410 -0.2645 -0.0488
 9433TIP3    H249715   1.654   0.855  14.563 -0.5584  0.0285  0.1534
 9434TIP3   OH249716   5.445   1.534  15.477 -0.1200 -0.0671 -0.0544
 9434TIP3    H149717   5.518   1.555  15.536  0.1125 -0.1766 -0.3001
 9434TIP3    H249718   5.395   1.616  15.470  0.1896  0.1151 -0.1759
 9435TIP3   OH249719   4.837   6.555   3.548 -0.7415  0.2977  0.3946
 9435TIP3    H149720   4.849   6.464   3.521 -1.4173  0.3046  0.0713
 9435TIP3    H249721   4.750   6.579   3.517 -0.3698  1.2139  0.0299
 9436TIP3   OH249722   5.781   3.377   0.304 -0.5509 -0.1406  0.2375
 9436TIP3    H149723   5.722   3.372   0.229 -1.5921 -2.3424  1.1015
 9436TIP3    H249724   5.834   3.297   0.298  0.1355  0.2258  1.2090
 9437TIP3   OH249725   3.220   5.529   0.561  0.3070 -0.2232 -0.5698
 9437TIP3    H149726   3.204   5.448   0.512  1.5908 -1.1168  0.4221
 9437TIP3    H249727   3.180   5.513   0.647 -0.2838  0.5964 -0.6800
 9438TIP3   OH249728   6.297   1.765   6.261  0.5481 -0.1589  0.3860
 9438TIP3    H149729   6.390   1.778   6.276  0.5889 -0.0984  0.0920
 9438TIP3    H249730   6.255   1.812   6.334  0.6946  1.8716 -0.7515
 9439TIP3   OH249731   4.854   6.515   4.377 -0.5929  0.4495 -0.3482
 9439TIP3    H149732   4.859   6.516   4.472 -0.0176 -1.0808 -0.3296
 9439TIP3    H249733   4.760   6.521   4.357 -0.9288 -1.4752  0.4214
 9440TIP3   OH249734   1.784   1.325   4.880 -0.1724  0.3190 -0.3980
 9440TIP3    H149735   1.837   1.285   4.949 -0.9150  0.6318  0.3713
 9440TIP3    H249736   1.813   1.283   4.799 -0.4228 -1.2505  0.3028
 9441TIP3   OH249737   1.605   6.679  12.819  0.0482  0.1274  0.0641
 9441TIP3    H149738   1.684   6.660  12.768 -0.5726 -1.2498 -0.4301
 9441TIP3    H249739   1.592   6.601  12.873 -2.8150 -1.2593 -2.3038
 9442TIP3   OH249740   4.401   0.052   6.305  0.1142  0.1881  0.1772
 9442TIP3    H149741   4.443   0.131   6.339  1.6621 -0.0040 -1.1679
 9442TIP3    H249742   4.435   0.042   6.216 -0.4525 -1.7117  0.1133
 9443TIP3   OH249743   6.004   0.147   0.088  0.0233  0.5446 -0.2782
 9443TIP3    H149744   6.064   0.079   0.120  0.5520  0.1649 -1.9662
 9443TIP3    H249745   5.995   0.208   0.162 -0.1528 -1.1235  1.1426
 9444TIP3   OH249746   5.242   1.256   5.180  0.3543  0.0633 -0.1657
 9444TIP3    H149747   5.198   1.176   5.207 -1.5789  0.9335 -0.5543
 9444TIP3    H249748   5.302   1.276   5.252  0.9527 -1.7468 -0.1132
 9445TIP3   OH249749   4.850   0.901  16.537  0.8961  0.1556  0.3204
 9445TIP3    H149750   4.897   0.843  16.596 -0.0129 -0.4513  0.4655
 9445TIP3    H249751   4.889   0.886  16.451  0.8171 -0.5036  0.3991
 9446TIP3   OH249752   4.098   2.587  11.441 -0.5454  0.4395 -0.6381
 9446TIP3    H149753   4.051   2.520  11.491 -0.8619  0.2675 -1.1655
 9446TIP3    H249754   4.034   2.621  11.379 -0.5463  1.6199 -0.0214
 9447TIP3   OH249755   4.155   5.821  13.923  0.1407  0.1872  0.5848
 9447TIP3    H149756   4.111   5.770  13.991  0.1823  0.7716  1.0584
 9447TIP3    H249757   4.090   5.885  13.895  0.3449  0.3744  0.5384
 9448TIP3   OH249758   2.041   0.665  14.520  0.4433  0.3524  0.3918
 9448TIP3    H149759   2.089   0.589  14.488  0.5225 -0.1902  1.7492
 9448TIP3    H249760   2.101   0.738  14.508  0.9176 -0.0328  0.4029
 9449TIP3   OH249761   0.471   5.229  14.192  0.3966  0.0236 -0.5363
 9449TIP3    H149762   0.487   5.234  14.286  0.5962  1.3741 -0.6258
 9449TIP3    H249763   0.376   5.225  14.183  0.3823 -0.1958 -0.2806
 9450TIP3   OH249764   2.620   5.061  16.673  0.0838  0.6873  0.6374
 9450TIP3    H149765   2.686   5.128  16.687  1.3023 -0.2043 -0.6094
 9450TIP3    H249766   2.539   5.110  16.657  1.0239  1.8906 -0.6746
 9451TIP3   OH249767   3.236   6.056   4.085  0.1366 -0.0012 -0.1037
 9451TIP3    H149768   3.163   6.008   4.046  0.2356 -1.9397  1.8367
 9451TIP3    H249769   3.198   6.099   4.162  0.4709  1.4352 -0.7245
 9452TIP3   OH249770   4.352   5.522   1.990 -0.2954 -0.0158  0.2600
 9452TIP3    H149771   4.267   5.508   1.949 -0.7242  0.0199  1.1108
 9452TIP3    H249772   4.352   5.614   2.014  0.8929  0.5463 -1.7139
 9453TIP3   OH249773   0.692   5.052  11.149 -0.3677 -0.5260  0.1763
 9453TIP3    H149774   0.630   5.125  11.153  0.6741  0.3702  0.9092
 9453TIP3    H249775   0.686   5.010  11.235  1.2562  0.6680  0.9257
 9454TIP3   OH249776   5.663   2.389  12.750 -0.3128 -0.6623  0.0124
 9454TIP3    H149777   5.599   2.329  12.711 -1.3229  0.3436  0.0893
 9454TIP3    H249778   5.618   2.473  12.755 -1.0315 -1.0295  5.1263
 9455TIP3   OH249779   2.734   5.619  11.442 -0.0795 -0.6213  0.0469
 9455TIP3    H149780   2.822   5.651  11.463 -0.6964 -0.3702  2.6590
 9455TIP3    H249781   2.744   5.524  11.437  0.7281 -0.4643 -2.0570
 9456TIP3   OH249782   5.679   3.415  12.159 -0.1205  0.0313  0.4239
 9456TIP3    H149783   5.743   3.367  12.106  0.0254  1.2321 -0.5506
 9456TIP3    H249784   5.595   3.377  12.136  0.1244 -0.7760  0.8282
 9457TIP3   OH249785   4.103   5.029   2.980  0.0974  0.1703 -0.2849
 9457TIP3    H149786   4.090   5.025   2.885  2.4318  0.0439 -0.6569
 9457TIP3    H249787   4.117   4.938   3.006  2.4387  0.4303 -0.3793
 9458TIP3   OH249788   4.899   6.714   3.006  0.1754 -0.3209 -1.1280
 9458TIP3    H149789   4.851   6.637   2.976  0.1803 -1.0028  0.5000
 9458TIP3    H249790   4.979   6.715   2.953 -0.1804 -0.9785 -1.6984
 9459TIP3   OH249791   6.536   0.542   2.828  0.0522 -0.3746  0.1444
 9459TIP3    H149792   6.527   0.531   2.733 -0.1312  3.0716 -0.3690
 9459TIP3    H249793   6.519   0.455   2.864 -1.1527 -1.5292 -2.8865
 9460TIP3   OH249794   1.548   5.197   2.880  0.3434 -0.3218  0.5152
 9460TIP3    H149795   1.600   5.167   2.954  0.5095 -2.2780 -0.3251
 9460TIP3    H249796   1.474   5.136   2.875  0.2680 -0.1699 -0.8254
 9461TIP3   OH249797   2.011   3.403  12.462 -0.5124 -0.1396 -0.0704
 9461TIP3    H149798   2.036   3.495  12.463  1.7296 -0.5976 -2.4307
 9461TIP3    H249799   1.997   3.383  12.369  0.1092 -2.4268  0.2581
 9462TIP3   OH249800   0.532   2.533   2.650 -0.2476 -0.1240  0.1076
 9462TIP3    H149801   0.618   2.494   2.633 -0.7439 -1.6439  0.9691
 9462TIP3    H249802   0.469   2.470   2.615 -1.0519  0.4140  0.5491
 9463TIP3   OH249803   2.187   0.222  11.312 -0.3677  0.0349 -0.4384
 9463TIP3    H149804   2.205   0.257  11.225 -2.8419  1.7217 -0.3517
 9463TIP3    H249805   2.159   0.132  11.295  1.9052 -0.6339 -1.0476
 9464TIP3   OH249806   6.598   3.404  16.574 -0.3075 -0.1020  0.2756
 9464TIP3    H149807   6.523   3.459  16.552 -0.3066  0.3598  1.3858
 9464TIP3    H249808   6.625   3.433  16.661  1.3649 -0.0359 -0.2223
 9465TIP3   OH249809   1.159   6.248   1.171  0.0839 -0.1830  0.0484
 9465TIP3    H149810   1.139   6.209   1.086 -0.5501 -1.3918  0.7140
 9465TIP3    H249811   1.164   6.342   1.155 -0.4813 -0.3605 -1.2390
 9466TIP3   OH249812   5.908   5.361   0.355 -0.0472  0.2826  0.1883
 9466TIP3    H149813   5.850   5.391   0.425  1.1965 -0.6348  1.6899
 9466TIP3    H249814   5.990   5.408   0.369  0.4144 -0.3520 -0.2729
 9467TIP3   OH249815   2.536   1.054   4.506  0.1909  0.3117  0.5884
 9467TIP3    H149816   2.627   1.081   4.499 -0.2680  1.5924 -0.9159
 9467TIP3    H249817   2.499   1.111   4.574  0.5286 -0.3562  1.3567
 9468TIP3   OH249818   5.710   3.816  14.159 -0.3670  0.7642  0.1414
 9468TIP3    H149819   5.712   3.881  14.089  0.3685  3.4238  2.4138
 9468TIP3    H249820   5.767   3.745  14.129  1.0838  2.4683 -1.3811
 9469TIP3   OH249821   4.134   5.717   0.407  0.0538  0.0278  0.1211
 9469TIP3    H149822   4.202   5.728   0.341 -0.3827  1.2988 -0.1477
 9469TIP3    H249823   4.052   5.731   0.360 -0.4918 -2.4182  0.2375
 9470TIP3   OH249824   2.396   5.634   5.696 -0.1268 -0.3364 -0.7023
 9470TIP3    H149825   2.404   5.716   5.648  0.9777  0.9609  1.5090
 9470TIP3    H249826   2.475   5.585   5.673  0.2725  0.1641 -0.4230
 9471TIP3   OH249827   5.269   6.192   3.148  0.0896 -0.0769 -0.1962
 9471TIP3    H149828   5.340   6.247   3.115  0.2977 -0.6213 -0.6881
 9471TIP3    H249829   5.312   6.109   3.170 -0.1299  0.1201  1.0133
 9472TIP3   OH249830   3.450   2.476   3.965 -0.2159  0.1557 -0.0622
 9472TIP3    H149831   3.377   2.450   4.021 -1.1735 -0.6350 -1.6015
 9472TIP3    H249832   3.490   2.393   3.938  1.3099  0.5873  0.8131
 9473TIP3   OH249833   6.429   4.315   4.134  0.2135  0.4723  0.3880
 9473TIP3    H149834   6.398   4.234   4.175  0.0605  0.2605 -0.1362
 9473TIP3    H249835   6.401   4.308   4.042  0.4738  0.9758  0.2652
 9474TIP3   OH249836   3.450   5.296   3.658 -0.0233 -0.2598  0.3868
 9474TIP3    H149837   3.429   5.346   3.579  0.1463  0.5827  0.8572
 9474TIP3    H249838   3.545   5.308   3.669  0.3678 -2.1442 -0.4517
 9475TIP3   OH249839   1.821   3.692   6.426 -0.3040 -0.0759 -0.3746
 9475TIP3    H149840   1.853   3.602   6.437  0.6095  0.4260  1.6794
 9475TIP3    H249841   1.878   3.729   6.359 -1.5316 -1.3528 -2.2174
 9476TIP3   OH249842   6.217   2.461  16.822  0.5185  0.5026 -0.1200
 9476TIP3    H149843   6.163   2.393  16.861 -2.2313  3.1624  1.1334
 9476TIP3    H249844   6.228   2.434  16.731 -0.4057 -1.5826  0.3319
 9477TIP3   OH249845   5.344   4.490   6.242 -0.5132 -0.6659 -0.4951
 9477TIP3    H149846   5.391   4.568   6.214 -1.1072 -0.1347 -0.0517
 9477TIP3    H249847   5.412   4.427   6.265 -0.0290 -0.2094 -0.6708
 9478TIP3   OH249848   4.656   5.839  16.911 -0.0116  0.5941  0.5511
 9478TIP3    H149849   4.604   5.915  16.886 -1.9636 -0.7946  0.1830
 9478TIP3    H249850   4.609   5.801  16.985 -0.7887 -1.8811 -1.0995
 9479TIP3   OH249851   0.183   3.307  13.977 -0.9717 -0.3432 -0.1252
 9479TIP3    H149852   0.158   3.313  13.885 -2.1463 -0.2028  0.1866
 9479TIP3    H249853   0.104   3.279  14.022 -1.0498  1.6841  1.1399
 9480TIP3   OH249854   1.520   4.492  13.826  0.1360  0.2203 -0.5469
 9480TIP3    H149855   1.582   4.453  13.765  1.1351  1.7310 -0.5677
 9480TIP3    H249856   1.575   4.543  13.886 -0.8904 -0.4494  1.0276
 9481TIP3   OH249857   0.154   0.945   0.466 -0.4661  0.0089  0.0679
 9481TIP3    H149858   0.243   0.918   0.442  0.3064  1.8212  0.7260
 9481TIP3    H249859   0.126   1.001   0.394 -1.0909 -0.5520 -0.1322
 9482TIP3   OH249860   0.184   0.836  12.677 -0.3021 -0.1375 -0.1736
 9482TIP3    H149861   0.243   0.801  12.611  0.7639  0.3937  0.4612
 9482TIP3    H249862   0.240   0.891  12.732 -1.3629  0.2512  0.5522
 9483TIP3   OH249863   3.138   5.037  14.007  0.4425 -0.2576  0.5136
 9483TIP3    H149864   3.202   4.992  14.063 -1.8766 -1.8996  2.0689
 9483TIP3    H249865   3.146   5.129  14.030  2.9107 -0.2504 -0.1217
 9484TIP3   OH249866   0.065   4.781  16.216 -0.0316 -0.2270  0.1832
 9484TIP3    H149867   0.131   4.712  16.227 -1.1109 -1.1490  1.1233
 9484TIP3    H249868   0.040   4.805  16.305 -3.3633 -2.3054 -0.0181
 9485TIP3   OH249869   3.245   4.233  12.362 -0.2506 -0.6198 -0.2603
 9485TIP3    H149870   3.337   4.221  12.338  0.6078 -0.7412  2.6500
 9485TIP3    H249871   3.227   4.162  12.424 -1.8296  0.2648  0.3500
 9486TIP3   OH249872   1.376   1.378   5.409 -0.2137 -0.3710 -0.2559
 9486TIP3    H149873   1.399   1.318   5.480  0.1438 -0.3775 -0.3770
 9486TIP3    H249874   1.458   1.393   5.362 -0.4113 -0.2193 -0.5566
 9487TIP3   OH249875   6.417   2.671  13.798  0.2385 -0.0902  0.2042
 9487TIP3    H149876   6.343   2.624  13.837 -0.8994  1.0558 -0.4969
 9487TIP3    H249877   6.464   2.708  13.873 -0.4092 -0.0979  0.6206
 9488TIP3   OH249878   4.849   5.407   5.995 -0.0340  0.4521  0.2481
 9488TIP3    H149879   4.887   5.341   6.054  0.0038 -0.8229 -1.1574
 9488TIP3    H249880   4.925   5.442   5.948 -0.3251 -0.4527 -0.9250
 9489TIP3   OH249881   5.046   6.248   3.349  0.2543 -0.5567 -0.2407
 9489TIP3    H149882   5.117   6.247   3.413 -0.7120  2.9826  1.1075
 9489TIP3    H249883   5.089   6.271   3.266  0.9280 -0.3536  0.1582
 9490TIP3   OH249884   3.689   3.983   1.323 -0.6460 -0.5933  0.0984
 9490TIP3    H149885   3.776   3.963   1.358 -1.7261 -2.8624  1.7739
 9490TIP3    H249886   3.661   3.902   1.280 -1.6503  0.3452 -1.1016
 9491TIP3   OH249887   1.241   1.039   5.575  0.2955 -0.1880 -0.1901
 9491TIP3    H149888   1.318   0.991   5.544  0.3334 -0.1567 -0.1455
 9491TIP3    H249889   1.271   1.130   5.582 -0.2780  0.1546 -1.9697
 9492TIP3   OH249890   0.810   0.724  14.270  0.2956 -0.6621 -0.6011
 9492TIP3    H149891   0.841   0.634  14.259 -0.4969 -0.6820 -3.2274
 9492TIP3    H249892   0.715   0.716  14.280  0.4801 -0.2613  2.6648
 9493TIP3   OH249893   1.977   1.079  17.207  0.3688 -0.2563 -0.2565
 9493TIP3    H149894   1.901   1.065  17.149  1.8779  0.1283 -2.4445
 9493TIP3    H249895   2.025   1.151  17.166  2.8062 -1.5756  0.0772
 9494TIP3   OH249896   4.011   5.999   3.518  0.4507  0.8586  0.4340
 9494TIP3    H149897   4.002   6.024   3.426 -0.8844 -0.1910  0.2467
 9494TIP3    H249898   3.960   6.065   3.566  0.7203  1.1097  0.3759
 9495TIP3   OH249899   2.708   3.381  14.112 -0.4427  0.1253  0.0003
 9495TIP3    H149900   2.667   3.439  14.177 -1.9445 -0.6667 -0.1958
 9495TIP3    H249901   2.721   3.436  14.035  0.7591  0.9057  0.7290
 9496TIP3   OH249902   5.362   1.179   4.594  0.0699 -0.1094  0.0000
 9496TIP3    H149903   5.357   1.101   4.538  0.0831 -0.1659  0.0774
 9496TIP3    H249904   5.279   1.179   4.642 -0.0639  0.1008 -0.2353
 9497TIP3   OH249905   2.001   0.108  14.494  0.1603 -0.3381 -0.5708
 9497TIP3    H149906   2.069   0.041  14.478 -0.3953 -0.6233 -1.9231
 9497TIP3    H249907   1.952   0.075  14.569  0.3762 -1.0589 -0.7350
 9498TIP3   OH249908   2.584   3.985   5.258 -0.1544 -0.5884 -0.0548
 9498TIP3    H149909   2.635   4.042   5.316 -1.0291  1.4418 -1.1751
 9498TIP3    H249910   2.638   3.975   5.180  0.0526 -1.4841  0.1805
 9499TIP3   OH249911   6.630   1.639  14.146  0.1665  0.3028  0.4240
 9499TIP3    H149912   6.552   1.687  14.174  0.3157  0.5297  0.4545
 9499TIP3    H249913   6.692   1.708  14.120  0.5299  0.1391  0.8577
 9500TIP3   OH249914   2.495   6.547  12.991  0.0444  0.6021  0.2772
 9500TIP3    H149915   2.588   6.551  12.965  0.1423  0.2761  0.5698
 9500TIP3    H249916   2.496   6.569  13.084 -0.0744 -0.2061  0.4807
 9501TIP3   OH249917   2.531   4.462   5.744  0.1382  0.0460  0.1646
 9501TIP3    H149918   2.464   4.516   5.704 -0.8344  0.1425  1.8193
 9501TIP3    H249919   2.548   4.503   5.829  1.5004 -0.6002  0.2428
 9502TIP3   OH249920   1.101   4.365  12.803 -0.2449  0.6012 -0.1322
 9502TIP3    H149921   1.121   4.291  12.860 -2.6190  0.2489  0.3439
 9502TIP3    H249922   1.034   4.332  12.743  0.7780  1.5478 -1.8901
 9503TIP3   OH249923   5.872   3.071  14.150  0.0904  0.3209 -0.0423
 9503TIP3    H149924   5.832   3.134  14.210  0.1579  1.1515 -0.8375
 9503TIP3    H249925   5.798   3.024  14.112  0.0173  0.1876  0.2620
 9504TIP3   OH249926   3.167   5.111  14.738 -0.7409  0.0173  0.4341
 9504TIP3    H149927   3.252   5.122  14.696 -1.3018  0.8720 -0.5003
 9504TIP3    H249928   3.104   5.103  14.666 -1.2894 -2.3972  1.0668
 9505TIP3   OH249929   0.308   1.830   3.818  0.4793  0.5301  0.1420
 9505TIP3    H149930   0.292   1.775   3.742  0.1528  1.2319 -0.3042
 9505TIP3    H249931   0.387   1.794   3.858  1.2091  0.7331 -1.0641
 9506TIP3   OH249932   6.660   2.610   5.363  0.3413 -0.0632  0.4537
 9506TIP3    H149933   6.640   2.636   5.453  2.8108  0.6823  0.8628
 9506TIP3    H249934   6.741   2.559   5.371  0.2620 -0.4995 -1.2837
 9507TIP3   OH249935   0.813   5.428   4.362 -0.1489 -0.2528  0.3216
 9507TIP3    H149936   0.748   5.431   4.292  1.1251 -0.3580 -0.9205
 9507TIP3    H249937   0.848   5.517   4.366  0.2460 -0.4083  0.3559
 9508TIP3   OH249938   4.253   6.039  12.482  0.0180  0.2763 -0.2261
 9508TIP3    H149939   4.349   6.043  12.487  0.1084 -0.9341 -0.5753
 9508TIP3    H249940   4.236   6.010  12.392 -0.5516 -2.0894  0.5791
 9509TIP3   OH249941   6.242   5.617  14.749  0.2247 -0.6040 -0.3200
 9509TIP3    H149942   6.198   5.533  14.758  0.6950 -0.9557 -1.1078
 9509TIP3    H249943   6.172   5.679  14.727 -0.2628 -0.5811  1.2063
 9510TIP3   OH249944   5.751   3.048  16.352 -0.2179  0.8375 -0.4752
 9510TIP3    H149945   5.702   2.966  16.359 -0.1488  0.7092 -1.3199
 9510TIP3    H249946   5.801   3.038  16.271  1.9571  0.5549  0.8205
 9511TIP3   OH249947   3.582   0.516  13.497  0.3984 -0.1512 -0.3321
 9511TIP3    H149948   3.542   0.597  13.530 -0.5721 -0.9524  0.4888
 9511TIP3    H249949   3.512   0.473  13.448  0.5973 -0.9885  0.1002
 9512TIP3   OH249950   3.288   0.414   5.047  0.2672  0.3567  0.3497
 9512TIP3    H149951   3.247   0.423   4.961  0.7260 -1.3198 -0.0919
 9512TIP3    H249952   3.316   0.502   5.071 -1.7134  1.2049 -0.2672
 9513TIP3   OH249953   5.235   5.993   2.668  0.6622 -0.3879  0.6242
 9513TIP3    H149954   5.303   6.053   2.640  0.2748  0.6063  1.7248
 9513TIP3    H249955   5.207   6.026   2.754 -0.3758 -1.4545  0.7318
 9514TIP3   OH249956   3.751   2.491  17.113  0.5816  0.4291 -0.9232
 9514TIP3    H149957   3.765   2.413  17.167  2.8937  1.0624 -0.5065
 9514TIP3    H249958   3.754   2.458  17.023  1.1746 -0.0331 -0.7421
 9515TIP3   OH249959   6.037   3.550  13.516  0.7334  0.3987 -0.4195
 9515TIP3    H149960   6.063   3.608  13.588  2.3423  0.1240 -0.7546
 9515TIP3    H249961   6.026   3.464  13.557 -0.2722  0.6310 -0.1747
 9516TIP3   OH249962   1.385   0.184  11.166 -0.4738 -0.5346 -0.6221
 9516TIP3    H149963   1.379   0.105  11.112  0.8684  0.4264 -2.2562
 9516TIP3    H249964   1.364   0.255  11.106 -1.7069  0.3839  0.8428
 9517TIP3   OH249965   2.425   1.594   3.218 -0.3850  0.7078 -0.1258
 9517TIP3    H149966   2.386   1.648   3.286  0.9534  0.7802  0.6291
 9517TIP3    H249967   2.376   1.616   3.139 -1.1636  1.5490  0.5658
 9518TIP3   OH249968   5.499   3.674   6.160  0.1950  0.1700 -0.2519
 9518TIP3    H149969   5.488   3.719   6.244 -0.7690 -1.2751  0.4322
 9518TIP3    H249970   5.482   3.742   6.094  0.0485  1.1052  0.7311
 9519TIP3   OH249971   0.739   0.190   1.231  0.1822  0.1019 -0.0332
 9519TIP3    H149972   0.658   0.156   1.192  0.6428 -2.4186  1.0616
 9519TIP3    H249973   0.710   0.264   1.285 -1.3222 -0.4320 -0.0562
 9520TIP3   OH249974   3.666   0.024  13.143 -0.0476 -0.3566  0.1945
 9520TIP3    H149975   3.690  -0.069  13.142 -1.9133 -0.9405  2.3331
 9520TIP3    H249976   3.736   0.066  13.194 -1.1584 -1.3290  2.6750
 9521TIP3   OH249977   2.138   5.781   0.801 -0.1752  0.1030 -0.0264
 9521TIP3    H149978   2.200   5.750   0.735 -0.9505  1.9982 -1.7397
 9521TIP3    H249979   2.068   5.716   0.801 -0.3705  0.2898 -1.3991
 9522TIP3   OH249980   2.852   5.929  15.103 -0.0457  0.1546 -0.5741
 9522TIP3    H149981   2.809   6.015  15.099 -0.5734 -0.0313  0.6883
 9522TIP3    H249982   2.782   5.866  15.089  0.0166 -0.1185  0.2955
 9523TIP3   OH249983   6.489   4.633   3.901  0.4104  0.4663 -0.3191
 9523TIP3    H149984   6.558   4.699   3.909  0.4135  0.3798  0.4272
 9523TIP3    H249985   6.407   4.683   3.906  0.3993  0.3650  0.9980
 9524TIP3   OH249986   3.228   0.094  10.922  0.4234  0.1895 -0.1914
 9524TIP3    H149987   3.180   0.099  11.005  0.2539  0.8401 -0.3262
 9524TIP3    H249988   3.193   0.017  10.878 -1.5255  1.4299 -0.9234
 9525TIP3   OH249989   1.240   4.161   3.543  0.7230  0.4338  0.5485
 9525TIP3    H149990   1.320   4.211   3.560  0.2552  0.6437  2.2550
 9525TIP3    H249991   1.208   4.136   3.629 -1.8295  1.5401 -0.0067
 9526TIP3   OH249992   6.031   6.644  17.217  0.0175 -0.3082 -0.2492
 9526TIP3    H149993   5.956   6.692  17.252  0.0563 -0.6046  0.2464
 9526TIP3    H249994   6.105   6.703  17.230  0.3445 -1.0819  1.8127
 9527TIP3   OH249995   2.806   4.278  17.063  0.3814 -0.2630  0.6646
 9527TIP3    H149996   2.713   4.257  17.069  0.1973  0.6802  1.3559
 9527TIP3    H249997   2.842   4.251  17.148  0.9181 -1.3858  0.1066
 9528TIP3   OH249998   1.816   3.491   0.025 -0.1424 -0.1566 -0.3087
 9528TIP3    H149999   1.782   3.439  -0.048  0.0719 -0.2869 -0.3177
 9528TIP3    H250000   1.899   3.526  -0.007  1.6520 -2.8806  0.9379
 9529TIP3   OH250001   6.015   4.330   3.829  0.3366 -0.6075 -0.4285
 9529TIP3    H150002   6.068   4.407   3.848  0.0272 -0.5714  0.3037
 9529TIP3    H250003   5.965   4.314   3.909 -0.2136 -1.0780 -0.8533
 9530TIP3   OH250004   0.485   0.150  14.006 -0.3635 -0.6738  0.4983
 9530TIP3    H150005   0.580   0.152  14.013 -0.2841  2.0426 -0.5617
 9530TIP3    H250006   0.468   0.097  13.928  0.2649 -0.9404  0.5347
 9531TIP3   OH250007   5.862   5.876   5.231 -0.4794  0.5452  0.9750
 9531TIP3    H150008   5.801   5.802   5.228 -0.1707  0.2487  1.7634
 9531TIP3    H250009   5.825   5.936   5.295  0.5389 -0.0877  2.1875
 9532TIP3   OH250010   2.986   3.345   1.383  0.7460 -0.0870  0.3545
 9532TIP3    H150011   3.010   3.295   1.305  0.1953  0.1416  0.0323
 9532TIP3    H250012   3.061   3.335   1.442  0.9967 -0.5971 -0.0390
 9533TIP3   OH250013   6.568   4.921  12.679  0.1210 -0.3789 -0.1093
 9533TIP3    H150014   6.659   4.919  12.707 -0.1049  1.6607  0.9531
 9533TIP3    H250015   6.572   4.950  12.588  0.5289 -0.2381 -0.0489
 9534TIP3   OH250016   2.828   3.376   4.328 -0.2905  0.4984 -0.5369
 9534TIP3    H150017   2.742   3.416   4.316 -1.1242 -1.2791 -0.9373
 9534TIP3    H250018   2.812   3.304   4.389  0.5030 -1.0254 -2.0289
 9535TIP3   OH250019   1.363   5.735   3.488  0.2258  0.2162  0.2710
 9535TIP3    H150020   1.274   5.722   3.520  0.2142 -2.5632 -0.6046
 9535TIP3    H250021   1.361   5.701   3.399  2.3536 -0.7977  0.5525
 9536TIP3   OH250022   3.953   0.604  12.252 -0.5988  0.5764 -0.3473
 9536TIP3    H150023   3.928   0.686  12.210 -2.3203  0.4463  0.3470
 9536TIP3    H250024   3.879   0.545  12.235 -0.2966 -0.1825  0.8858
 9537TIP3   OH250025   1.179   5.335  13.879 -0.2271 -0.1134 -0.2552
 9537TIP3    H150026   1.182   5.413  13.823  1.0192 -0.5353 -0.8174
 9537TIP3    H250027   1.239   5.274  13.837 -0.6086 -1.0984  0.6009
 9538TIP3   OH250028   4.857   1.084  13.124 -0.6383  0.1527 -0.2106
 9538TIP3    H150029   4.765   1.064  13.138 -0.2501 -1.2225  0.5261
 9538TIP3    H250030   4.898   1.078  13.210  0.2210  0.3349 -0.5848
 9539TIP3   OH250031   1.507   6.021   3.167  0.2913  0.0381  0.2637
 9539TIP3    H150032   1.553   6.099   3.136  0.9061 -0.9238 -1.4016
 9539TIP3    H250033   1.420   6.027   3.127  0.5116 -0.3566 -0.2945
 9540TIP3   OH250034   3.301   5.264  17.369  0.1856  0.1752 -0.3006
 9540TIP3    H150035   3.269   5.182  17.407  3.0299 -0.4217  1.0814
 9540TIP3    H250036   3.272   5.332  17.430 -0.5938  0.0209 -0.4777
 9541TIP3   OH250037   0.560   6.239  13.792 -0.1831  0.6208 -0.0388
 9541TIP3    H150038   0.484   6.193  13.829  0.4305 -0.1539  0.3014
 9541TIP3    H250039   0.603   6.278  13.868  1.2775 -1.2637  0.1936
 9542TIP3   OH250040   6.324   6.234  15.274 -0.6190  0.4600 -0.4647
 9542TIP3    H150041   6.398   6.273  15.229  0.0469 -0.0048  0.2149
 9542TIP3    H250042   6.309   6.290  15.350  1.6221 -1.6006  1.6564
 9543TIP3   OH250043   0.450   0.552   3.861 -0.4994 -0.2443 -0.0729
 9543TIP3    H150044   0.513   0.560   3.789 -0.3333 -0.5325  0.0377
 9543TIP3    H250045   0.486   0.483   3.917  0.1629  1.0189  1.1154
 9544TIP3   OH250046   6.668   3.633  13.585 -0.1110 -0.2403  0.4554
 9544TIP3    H150047   6.660   3.679  13.501  0.1863 -0.2528  0.4191
 9544TIP3    H250048   6.654   3.541  13.563  1.8758 -0.4973  0.0835
 9545TIP3   OH250049   0.738   4.791   0.528 -0.9279 -0.5193  0.3292
 9545TIP3    H150050   0.773   4.868   0.483 -1.2324 -0.2383  0.5651
 9545TIP3    H250051   0.721   4.728   0.458 -0.0772 -0.6158  0.2004
 9546TIP3   OH250052   2.486   1.647   3.799  0.3101  0.0608  0.4231
 9546TIP3    H150053   2.491   1.730   3.751 -2.6406  0.2494  0.2177
 9546TIP3    H250054   2.445   1.671   3.883 -0.6193 -1.1409  0.3420
 9547TIP3   OH250055   3.902   3.754  12.103  0.1137  0.2423 -0.4452
 9547TIP3    H150056   3.859   3.678  12.142 -0.0247  0.2514 -0.5759
 9547TIP3    H250057   3.847   3.776  12.028  0.6213 -0.0529 -0.9122
 9548TIP3   OH250058   1.033   3.804  16.227 -0.2908  0.4067  0.0565
 9548TIP3    H150059   1.114   3.840  16.263 -0.4302  1.4887 -0.6614
 9548TIP3    H250060   0.970   3.877  16.232 -0.7459  0.0908 -0.9250
 9549TIP3   OH250061   2.868   1.441   3.460 -0.6072 -0.6099 -0.0433
 9549TIP3    H150062   2.818   1.462   3.382 -0.2811 -2.0382 -0.6768
 9549TIP3    H250063   2.808   1.457   3.533 -1.9645 -2.1254 -0.7682
 9550TIP3   OH250064   3.057   4.529   0.421  0.1635  0.0985  0.3580
 9550TIP3    H150065   3.135   4.531   0.367  0.0955  1.1161  0.2831
 9550TIP3    H250066   3.005   4.456   0.386 -0.9218  2.0453 -2.4265
 9551TIP3   OH250067   2.778   2.216  16.887 -1.0506 -0.1797  0.2403
 9551TIP3    H150068   2.816   2.149  16.944 -3.6102 -2.6776 -0.7231
 9551TIP3    H250069   2.729   2.272  16.947  0.4661  0.4036  0.9826
 9552TIP3   OH250070   3.762   1.502   3.639  0.9736 -0.4026  0.0901
 9552TIP3    H150071   3.827   1.572   3.645  0.0688  0.5704 -0.8558
 9552TIP3    H250072   3.699   1.534   3.574 -0.5042 -1.2450  1.0492
 9553TIP3   OH250073   4.458   0.855  10.619 -1.5184 -0.3601 -0.5076
 9553TIP3    H150074   4.392   0.792  10.648  1.0152 -1.9809  2.2197
 9553TIP3    H250075   4.527   0.801  10.579  0.9206  0.4056  2.2926
 9554TIP3   OH250076   4.838   3.752  15.856 -0.3064  0.0764  0.0829
 9554TIP3    H150077   4.772   3.691  15.824 -0.1147 -0.2926  0.3724
 9554TIP3    H250078   4.830   3.829  15.800 -1.0916  0.1014  0.2228
 9555TIP3   OH250079   0.527   3.966  16.285 -0.6759  0.1176 -0.1490
 9555TIP3    H150080   0.460   4.033  16.299 -0.3291  0.7206 -1.2389
 9555TIP3    H250081   0.585   4.004  16.219  0.8265 -0.3297  0.8706
 9556TIP3   OH250082   2.251   3.359  15.043 -0.2626  0.2635 -0.4776
 9556TIP3    H150083   2.270   3.389  14.954  0.0964  0.4570 -0.3389
 9556TIP3    H250084   2.323   3.393  15.096 -0.7394  0.5791 -0.0222
 9557TIP3   OH250085   1.833   2.039   1.929 -0.1785 -0.1570  0.7382
 9557TIP3    H150086   1.877   2.066   1.849  0.8606 -0.1863  1.2742
 9557TIP3    H250087   1.899   1.986   1.976 -1.2394 -1.3373  0.9557
 9558TIP3   OH250088   1.230   3.054  15.631 -0.6294 -0.4412 -0.6100
 9558TIP3    H150089   1.162   3.025  15.692  0.2099 -2.1737 -0.4395
 9558TIP3    H250090   1.216   3.003  15.552  1.8273 -2.6840  0.2393
 9559TIP3   OH250091   1.694   2.558  15.789  0.0435 -0.3882  0.2229
 9559TIP3    H150092   1.656   2.533  15.705 -0.6830  0.0231  0.4247
 9559TIP3    H250093   1.622   2.551  15.852  0.6916 -1.1583  0.9150
 9560TIP3   OH250094   1.427   3.107   1.902  0.2156  0.4915 -0.2154
 9560TIP3    H150095   1.440   3.190   1.857 -0.1891  0.2859 -0.7256
 9560TIP3    H250096   1.494   3.049   1.867 -2.8413 -1.1115 -4.1843
 9561TIP3   OH250097   5.193   5.721   0.493  0.3609  0.1105 -0.3985
 9561TIP3    H150098   5.256   5.771   0.440  0.7267  0.5217  0.4112
 9561TIP3    H250099   5.230   5.723   0.581  0.0191 -0.9986 -0.2190
 9562TIP3   OH250100   5.345   0.779  14.270 -0.6113  0.2737 -0.3606
 9562TIP3    H150101   5.337   0.866  14.310 -1.2318 -0.1024  0.3753
 9562TIP3    H250102   5.306   0.789  14.183 -1.2006  0.6075 -0.0723
 9563TIP3   OH250103   3.897   6.153   6.542 -0.2183  0.6832  0.1874
 9563TIP3    H150104   3.865   6.160   6.451 -1.8167  1.2691  0.7549
 9563TIP3    H250105   3.936   6.238   6.560 -0.1258  0.6522  0.1356
 9564TIP3   OH250106   3.304   4.291  17.304 -0.2179  0.2369 -0.5398
 9564TIP3    H150107   3.226   4.235  17.304 -1.5213  1.8417  1.7738
 9564TIP3    H250108   3.315   4.317  17.213 -1.9895 -0.5970 -1.0358
 9565TIP3   OH250109   5.721   4.047   3.475  0.5677  0.3951  0.2437
 9565TIP3    H150110   5.783   4.106   3.517 -0.4715  1.3872  0.4207
 9565TIP3    H250111   5.739   4.056   3.381  1.1216  0.1803  0.3280
 9566TIP3   OH250112   4.569   0.847   0.975  0.5638  0.3266 -0.2566
 9566TIP3    H150113   4.615   0.768   1.002  1.2930  0.7482 -0.2423
 9566TIP3    H250114   4.488   0.847   1.026  0.8053 -0.1341  0.1283
 9567TIP3   OH250115   2.015   3.122   2.591  0.0581  0.6121 -0.2572
 9567TIP3    H150116   1.960   3.168   2.528  0.3550 -0.9875 -1.7494
 9567TIP3    H250117   2.093   3.177   2.600 -0.5529  1.4958 -0.2729
 9568TIP3   OH250118   0.730   3.508  16.923  0.4036  0.3974 -0.1306
 9568TIP3    H150119   0.731   3.507  16.828 -1.8350  0.3399 -0.2037
 9568TIP3    H250120   0.803   3.565  16.947  1.6808 -0.4560 -1.8207
 9569TIP3   OH250121   3.020   5.962  12.784 -0.3461  0.0471  0.1327
 9569TIP3    H150122   3.056   5.950  12.696  0.1364 -1.5672  0.5325
 9569TIP3    H250123   2.926   5.975  12.769 -0.2686 -0.2100 -0.6147
 9570TIP3   OH250124   6.224   6.096  16.065  0.1472  0.5717 -0.2567
 9570TIP3    H150125   6.261   6.075  15.979  0.5083  0.9181 -0.1918
 9570TIP3    H250126   6.131   6.110  16.049 -0.0266 -0.6240 -0.3699
 9571TIP3   OH250127   1.700   4.452  12.255  0.1667 -0.1883  0.3005
 9571TIP3    H150128   1.646   4.490  12.186  0.4267  0.0662  0.2362
 9571TIP3    H250129   1.665   4.489  12.336  0.0686 -0.2381  0.2809
 9572TIP3   OH250130   1.137   6.322  14.666 -0.0153 -0.2330 -0.2441
 9572TIP3    H150131   1.072   6.386  14.636 -0.7051 -0.9625 -0.3399
 9572TIP3    H250132   1.087   6.261  14.721  0.9236  0.1410  1.0525
 9573TIP3   OH250133   1.805   5.805   1.352  0.2185 -0.4875 -0.2106
 9573TIP3    H150134   1.879   5.866   1.359 -2.3423  3.1880 -1.8648
 9573TIP3    H250135   1.779   5.789   1.443 -0.1941  2.6368  0.3334
 9574TIP3   OH250136   0.210   5.574   1.318  0.4105 -0.0063 -0.5816
 9574TIP3    H150137   0.148   5.590   1.247  0.0949 -1.4558 -0.6537
 9574TIP3    H250138   0.169   5.614   1.395  0.2828  0.6827 -0.9926
 9575TIP3   OH250139   6.228   3.895  12.348  0.3311 -0.0976 -0.1791
 9575TIP3    H150140   6.286   3.919  12.420 -1.3739  1.8666  0.6196
 9575TIP3    H250141   6.153   3.954  12.356 -0.7837 -1.0765 -2.4695
 9576TIP3   OH250142   6.004   5.646   2.086  0.7944  0.6927  0.4368
 9576TIP3    H150143   6.042   5.569   2.127 -0.4577  0.7087  1.6900
 9576TIP3    H250144   5.985   5.705   2.158 -0.9757  0.9469 -0.1866
 9577TIP3   OH250145   6.236   4.977  12.359 -0.5981 -0.0743  0.0500
 9577TIP3    H150146   6.310   5.035  12.340 -0.3557 -0.1988  0.5921
 9577TIP3    H250147   6.168   5.005  12.299  0.2604 -0.6999 -1.2536
 9578TIP3   OH250148   3.214   2.421   4.721  0.4046  0.3279 -0.2768
 9578TIP3    H150149   3.135   2.374   4.693  0.0278 -0.6492  2.2139
 9578TIP3    H250150   3.279   2.400   4.653 -1.1996  0.4715 -1.9254
 9579TIP3   OH250151   0.137   3.559  16.455  0.2658  0.0282  0.0637
 9579TIP3    H150152   0.111   3.596  16.540 -1.3129  0.5588 -0.5909
 9579TIP3    H250153   0.064   3.502  16.431  0.8994 -0.4611 -0.7324
 9580TIP3   OH250154   6.272   4.142   1.389 -0.5792 -0.1001  0.7034
 9580TIP3    H150155   6.236   4.076   1.447 -0.4608  0.4192  1.3841
 9580TIP3    H250156   6.200   4.204   1.374  0.0631  1.1028  2.3103
 9581TIP3   OH250157   0.457   3.461   3.570  0.3462  0.5785 -0.3415
 9581TIP3    H150158   0.539   3.413   3.561  0.1762 -0.1947  1.7097
 9581TIP3    H250159   0.409   3.441   3.490  1.9675  0.7276 -1.4060
 9582TIP3   OH250160   6.278   1.508  11.794 -0.3135  0.2911  0.5849
 9582TIP3    H150161   6.292   1.603  11.799 -2.9338  0.7183  0.9003
 9582TIP3    H250162   6.236   1.485  11.876 -3.3564 -0.3736 -0.9944
 9583TIP3   OH250163   5.826   4.420  15.409  0.0186 -0.1859  0.1018
 9583TIP3    H150164   5.794   4.334  15.384 -0.0823 -0.0067 -0.3896
 9583TIP3    H250165   5.752   4.460  15.456 -0.9748  0.6967 -2.0793
 9584TIP3   OH250166   0.979   4.302   4.180 -0.5215  0.0154  0.0085
 9584TIP3    H150167   1.032   4.255   4.244 -0.6716  0.9479  0.8303
 9584TIP3    H250168   0.890   4.300   4.217 -0.6252  0.4876 -0.2147
 9585TIP3   OH250169   3.611   0.964   0.912 -0.0683 -0.1363 -0.1435
 9585TIP3    H150170   3.606   1.030   0.844 -1.0067  1.4587  1.3970
 9585TIP3    H250171   3.680   0.995   0.971 -1.0602 -0.0745  1.0275
 9586TIP3   OH250172   6.696   3.946  10.846 -0.3639 -0.1917 -0.1826
 9586TIP3    H150173   6.713   3.870  10.791  0.7046  0.5841 -0.9550
 9586TIP3    H250174   6.665   4.013  10.785  0.9798  0.7314  0.1108
 9587TIP3   OH250175   4.595   2.501   1.543  0.1721 -0.2915 -0.7496
 9587TIP3    H150176   4.627   2.518   1.454  0.4761  1.6955 -0.3013
 9587TIP3    H250177   4.583   2.588   1.582  0.7979 -1.0921  1.4133
 9588TIP3   OH250178   0.686   6.287  17.255  0.1325 -0.0594 -0.5203
 9588TIP3    H150179   0.713   6.376  17.231  0.4013  0.5107  1.6210
 9588TIP3    H250180   0.591   6.287  17.245  0.3145 -0.2557 -2.6059
 9589TIP3   OH250181   6.004   3.141   1.446 -0.2006  0.4420 -0.1941
 9589TIP3    H150182   6.023   3.090   1.367 -1.0024 -0.5464  0.2321
 9589TIP3    H250183   6.086   3.139   1.496 -1.0350 -3.3421  1.3805
 9590TIP3   OH250184   5.728   4.747   5.937 -0.4088 -0.1095  0.1438
 9590TIP3    H150185   5.746   4.835   5.971 -1.3125  0.1210  0.0439
 9590TIP3    H250186   5.702   4.761   5.846 -0.3676 -0.5027  0.0710
 9591TIP3   OH250187   1.261   3.384  11.736 -0.3254 -0.4836 -0.1338
 9591TIP3    H150188   1.226   3.373  11.648 -1.3783  0.1930  0.1667
 9591TIP3    H250189   1.266   3.296  11.771 -0.1023 -0.7401 -0.7987
 9592TIP3   OH250190   2.141   4.871  14.138 -0.2346 -0.4901  0.8307
 9592TIP3    H150191   2.154   4.899  14.048 -1.5552  0.0642  0.7800
 9592TIP3    H250192   2.224   4.832  14.164  0.4963  0.2700 -0.2868
 9593TIP3   OH250193   3.057   3.137   4.292 -0.7353 -0.4090  0.1811
 9593TIP3    H150194   2.970   3.099   4.281 -2.0483  1.7680  2.0524
 9593TIP3    H250195   3.067   3.148   4.387  0.3929  1.8896 -0.1370
 9594TIP3   OH250196   6.134   0.656   0.832 -0.0988 -0.7150 -0.1250
 9594TIP3    H150197   6.227   0.646   0.808 -0.2203  0.5693 -1.2271
 9594TIP3    H250198   6.087   0.608   0.764 -0.2935 -0.3990 -0.2128
 9595TIP3   OH250199   2.775   0.596  12.299  0.1121  0.5157  0.2965
 9595TIP3    H150200   2.697   0.546  12.278 -0.1248  1.6269 -1.6642
 9595TIP3    H250201   2.839   0.530  12.328 -0.2818 -0.9341 -1.8990
 9596TIP3   OH250202   0.453   6.646   2.021 -0.8245  0.3103  0.1212
 9596TIP3    H150203   0.389   6.576   2.036  0.3894 -0.8581  0.0475
 9596TIP3    H250204   0.413   6.701   1.953 -0.8026 -1.6959 -1.6231
 9597TIP3   OH250205   3.418   3.034   2.367  0.1028  0.3546  0.3213
 9597TIP3    H150206   3.488   3.088   2.403  1.1264 -1.6829  1.5623
 9597TIP3    H250207   3.337   3.076   2.396  0.7711  2.2095 -0.3233
 9598TIP3   OH250208   3.346   5.775   3.054  0.2328 -0.2100 -0.7549
 9598TIP3    H150209   3.401   5.843   3.093  2.1221 -0.4161 -2.8688
 9598TIP3    H250210   3.310   5.816   2.975 -1.1053 -0.7300 -0.4478
 9599TIP3   OH250211   3.105   0.153   3.892 -0.0822  0.2441  0.0505
 9599TIP3    H150212   3.141   0.186   3.810  0.1684  1.1240  0.5014
 9599TIP3    H250213   3.182   0.131   3.945 -0.2364  0.0165  0.1833
 9600TIP3   OH250214   4.726   1.126  12.297 -0.1227 -0.5667  0.3732
 9600TIP3    H150215   4.690   1.105  12.383 -1.6310 -1.3659 -0.3959
 9600TIP3    H250216   4.774   1.048  12.271  1.2022  0.0504  0.8851
 9601TIP3   OH250217   3.603   4.138   5.295  0.3551  0.5359 -0.0878
 9601TIP3    H150218   3.543   4.147   5.369 -1.9193  0.4784 -1.7997
 9601TIP3    H250219   3.683   4.103   5.333 -0.4086  1.3084  2.4453
 9602TIP3   OH250220   4.936   5.764  13.832 -0.4601 -0.0550 -0.8691
 9602TIP3    H150221   4.990   5.749  13.754 -0.0018  0.5288 -0.6750
 9602TIP3    H250222   4.985   5.723  13.904  0.1666  1.1819 -0.5533
 9603TIP3   OH250223   1.368   3.850   3.563 -0.2936  0.1102  0.7806
 9603TIP3    H150224   1.374   3.786   3.633 -1.2308  0.1184  0.8790
 9603TIP3    H250225   1.313   3.920   3.599 -1.7025 -0.3793 -0.2962
 9604TIP3   OH250226   2.610   0.866  16.911 -0.1590  0.2892  0.5208
 9604TIP3    H150227   2.525   0.849  16.869 -0.3410 -0.1527  1.0618
 9604TIP3    H250228   2.601   0.954  16.947  0.1708  0.8797 -0.7696
 9605TIP3   OH250229   6.557   5.992  12.013  0.1786  0.5187 -0.3843
 9605TIP3    H150230   6.508   6.051  12.070 -0.1188 -0.5230  0.4766
 9605TIP3    H250231   6.509   5.994  11.930 -0.9449  0.0426  0.2325
 9606TIP3   OH250232   2.415   1.575  11.341 -0.1003 -0.5137 -0.2629
 9606TIP3    H150233   2.393   1.665  11.318 -1.6465 -0.7045  0.3312
 9606TIP3    H250234   2.425   1.576  11.436  0.9486 -0.7752 -0.3576
 9607TIP3   OH250235   2.122   3.573  11.826  0.3090 -0.0279 -0.3772
 9607TIP3    H150236   2.092   3.654  11.868 -1.2937  0.2840 -1.9636
 9607TIP3    H250237   2.076   3.503  11.873  0.7174  0.0650  0.1752
 9608TIP3   OH250238   0.968   4.822  13.203  0.4213 -0.5957 -0.1524
 9608TIP3    H150239   0.970   4.846  13.110 -0.3757  0.4257  0.0882
 9608TIP3    H250240   1.020   4.889  13.246  0.1365 -0.6240  0.2376
 9609TIP3   OH250241   1.416   1.864   1.988  0.1273 -0.2768 -0.0906
 9609TIP3    H150242   1.453   1.932   2.044 -0.0594 -0.2197 -0.0363
 9609TIP3    H250243   1.444   1.782   2.030  0.6372 -0.2358 -0.3466
 9610TIP3   OH250244   2.917   0.061   2.820 -0.2966  0.2223  0.2205
 9610TIP3    H150245   3.012   0.074   2.824 -0.2903  0.2184  0.1084
 9610TIP3    H250246   2.892   0.095   2.734 -0.0167 -2.1508 -0.8800
 9611TIP3   OH250247   1.763   2.514   0.547 -0.0001  0.1864  0.5129
 9611TIP3    H150248   1.849   2.535   0.584  0.8154  1.1100 -1.7299
 9611TIP3    H250249   1.763   2.419   0.536  1.0606  0.2547 -0.1674
 9612TIP3   OH250250   1.345   0.335   0.611 -0.4654  0.3868 -0.1377
 9612TIP3    H150251   1.383   0.254   0.578 -0.1715  1.7245 -3.4996
 9612TIP3    H250252   1.251   0.324   0.599 -0.6228 -0.1860  1.3949
 9613TIP3   OH250253   4.971   0.318   6.159  0.0340 -0.6038  0.2552
 9613TIP3    H150254   4.918   0.269   6.221  0.9440  0.3765  1.8961
 9613TIP3    H250255   5.053   0.270   6.153 -0.0507 -0.6991 -0.2233
 9614TIP3   OH250256   3.833   2.747   2.255 -0.4306 -0.1788 -0.3792
 9614TIP3    H150257   3.870   2.664   2.225  0.3132  0.1651 -0.4281
 9614TIP3    H250258   3.889   2.773   2.328 -0.6267  0.3126 -0.4018
 9615TIP3   OH250259   1.858   0.322  15.268  0.4999 -0.7864  0.4268
 9615TIP3    H150260   1.922   0.281  15.210  0.7771 -0.0333  0.1859
 9615TIP3    H250261   1.908   0.343  15.347 -0.1451 -2.9069  1.4648
 9616TIP3   OH250262   6.527   4.308  17.269  0.1718 -0.0049  0.2895
 9616TIP3    H150263   6.464   4.343  17.332 -0.2942 -0.6837  0.2072
 9616TIP3    H250264   6.552   4.223  17.304  0.2853 -0.1728 -0.1924
 9617TIP3   OH250265   2.299   0.635  13.819  0.5838 -0.1773  0.4757
 9617TIP3    H150266   2.329   0.662  13.906  0.8864  0.9644  0.0297
 9617TIP3    H250267   2.350   0.555  13.800  0.7275 -0.2689  1.2127
 9618TIP3   OH250268   3.469   6.302   0.273 -0.3677  0.1098 -0.1966
 9618TIP3    H150269   3.450   6.388   0.310 -0.5735  0.3548 -0.8639
 9618TIP3    H250270   3.384   6.264   0.253 -0.2508  0.5798 -1.7533
 9619TIP3   OH250271   5.173   3.989   0.925  0.0938 -0.0494 -0.4438
 9619TIP3    H150272   5.208   4.069   0.886 -1.6991  1.3439  0.6589
 9619TIP3    H250273   5.184   4.001   1.019  1.6226 -2.0321 -0.2954
 9620TIP3   OH250274   6.737   2.157   3.116  0.9397 -0.8162 -0.3674
 9620TIP3    H150275   6.677   2.219   3.074 -0.4692 -0.8522  1.4348
 9620TIP3    H250276   6.788   2.212   3.176 -0.2745 -1.2983  1.1954
 9621TIP3   OH250277   3.632   2.006  13.362  0.7547  0.0271 -0.1745
 9621TIP3    H150278   3.674   1.957  13.433 -0.9213 -1.6016 -0.2449
 9621TIP3    H250279   3.680   1.980  13.283 -0.7997 -2.5077 -0.3825
 9622TIP3   OH250280   3.762   6.069   1.850  0.4445  0.1663  0.2194
 9622TIP3    H150281   3.734   6.161   1.856  2.5083  0.8463  0.0917
 9622TIP3    H250282   3.854   6.070   1.876 -0.1393 -2.2957  2.9171
 9623TIP3   OH250283   0.988   2.915   3.418  0.6090 -0.3771 -0.5341
 9623TIP3    H150284   0.987   2.821   3.438 -0.0119 -0.1849  0.4579
 9623TIP3    H250285   0.916   2.927   3.356 -1.6758 -0.0929  1.9749
 9624TIP3   OH250286   3.700   2.093   4.839  0.8255  0.3088 -0.4105
 9624TIP3    H150287   3.649   2.054   4.769  0.6002 -0.1510  0.0025
 9624TIP3    H250288   3.647   2.166   4.869  0.8165  0.3678 -0.5697
 9625TIP3   OH250289   4.492   4.241   3.260 -0.0205  0.4806 -0.2589
 9625TIP3    H150290   4.423   4.289   3.305 -0.4640  1.7774 -2.1918
 9625TIP3    H250291   4.449   4.203   3.183  0.9453 -0.6070 -0.2833
 9626TIP3   OH250292   1.876   0.132   4.090  0.1386 -0.1166 -0.3159
 9626TIP3    H150293   1.934   0.177   4.029 -1.3623  1.4511 -0.6817
 9626TIP3    H250294   1.880   0.040   4.065  4.1373 -0.4883  1.1119
 9627TIP3   OH250295   3.157   5.572  11.875  0.4661  0.2928  0.5154
 9627TIP3    H150296   3.249   5.599  11.876  0.7445 -0.5807  0.1544
 9627TIP3    H250297   3.155   5.497  11.815 -0.4365  0.1338  0.7237
 9628TIP3   OH250298   4.147   5.925   2.804 -0.1153  0.2103 -0.4736
 9628TIP3    H150299   4.116   5.966   2.885  2.1125 -0.5943  0.8737
 9628TIP3    H250300   4.141   5.831   2.820  0.7776  0.0370 -1.0540
 9629TIP3   OH250301   5.629   5.206  14.212  0.8595 -0.0885 -0.4194
 9629TIP3    H150302   5.633   5.110  14.211  1.2941 -0.1105  1.1979
 9629TIP3    H250303   5.698   5.234  14.152  3.1265 -0.8038  1.6930
 9630TIP3   OH250304   4.714   3.606   2.463 -0.2715  0.2528  0.0824
 9630TIP3    H150305   4.750   3.680   2.414  0.9220  1.0274  2.0156
 9630TIP3    H250306   4.619   3.615   2.453 -0.0921  0.5879 -1.7110
 9631TIP3   OH250307   6.498   6.528  15.774  0.7663  0.1136 -0.7713
 9631TIP3    H150308   6.463   6.563  15.855 -0.4748  0.0639 -1.2703
 9631TIP3    H250309   6.498   6.433  15.786 -0.2018  0.0613 -1.1281
 9632TIP3   OH250310   2.374   3.747   0.537 -0.1137 -0.0022 -0.2515
 9632TIP3    H150311   2.433   3.681   0.572 -1.2808 -0.4771  0.8972
 9632TIP3    H250312   2.313   3.697   0.482  1.0736  0.6010 -2.2128
 9633TIP3   OH250313   5.450   6.102  12.396  0.3735  0.0116  0.5461
 9633TIP3    H150314   5.400   6.075  12.319  1.8503 -0.4831 -0.2828
 9633TIP3    H250315   5.426   6.194  12.410  1.8797  0.8837 -2.0328
 9634TIP3   OH250316   5.255   6.144   4.051  0.3138 -0.0672  0.0456
 9634TIP3    H150317   5.234   6.134   3.958  0.0606 -2.4824  0.3150
 9634TIP3    H250318   5.170   6.154   4.094  0.4803  2.6181 -0.0476
 9635TIP3   OH250319   4.208   4.938  16.517 -0.1437 -0.4841 -0.1615
 9635TIP3    H150320   4.170   4.897  16.439 -1.3850 -1.3274  0.8452
 9635TIP3    H250321   4.174   4.886  16.590  0.8910  0.3649  0.9582
 9636TIP3   OH250322   5.242   3.587  12.242 -0.1175 -0.4439 -0.3278
 9636TIP3    H150323   5.324   3.632  12.259 -0.4152 -0.2319  0.5920
 9636TIP3    H250324   5.216   3.616  12.154  0.4665 -0.0267 -0.3666
 9637TIP3   OH250325   4.286   5.778   2.074  0.6359  0.0163 -0.1693
 9637TIP3    H150326   4.251   5.847   2.018  1.6086  0.3099 -0.4377
 9637TIP3    H250327   4.264   5.806   2.163 -0.4687 -0.1978 -0.3636
 9638TIP3   OH250328   0.684   2.576   5.418 -0.2007 -0.1745  0.3656
 9638TIP3    H150329   0.718   2.650   5.368  1.1436 -0.7954  0.3251
 9638TIP3    H250330   0.684   2.606   5.509  1.7996 -0.5836  0.5569
 9639TIP3   OH250331   0.731   2.583   2.367 -0.4488 -0.3867  0.4069
 9639TIP3    H150332   0.768   2.498   2.343  1.8323  0.7124 -0.2679
 9639TIP3    H250333   0.735   2.585   2.463  2.1452 -0.0286  0.3669
 9640TIP3   OH250334   3.448   0.350  16.525 -0.0425 -0.8019  0.3753
 9640TIP3    H150335   3.395   0.335  16.604 -1.1388  1.3131  0.1010
 9640TIP3    H250336   3.522   0.403  16.555 -0.4194 -0.0591  0.0081
 9641TIP3   OH250337   5.932   3.817   3.682  0.2924 -0.7689  0.5877
 9641TIP3    H150338   5.894   3.875   3.748  1.3838  1.5000 -0.6554
 9641TIP3    H250339   5.982   3.753   3.732 -1.1922 -0.8748  2.0304
 9642TIP3   OH250340   2.656   5.917  14.497  0.0691 -0.3933  0.2432
 9642TIP3    H150341   2.586   5.919  14.563  1.0972  0.2547  1.3709
 9642TIP3    H250342   2.650   5.831  14.457 -1.0599 -0.5234  0.6783
 9643TIP3   OH250343   0.782   4.320   1.554  0.6852  0.3015  0.5464
 9643TIP3    H150344   0.687   4.332   1.566  0.0821 -2.3748 -0.7126
 9643TIP3    H250345   0.791   4.301   1.461  2.0799 -1.9993  1.0737
 9644TIP3   OH250346   0.729   0.433  16.632 -0.0200 -0.3903 -0.1010
 9644TIP3    H150347   0.746   0.493  16.705  0.4839  0.0063 -0.5325
 9644TIP3    H250348   0.651   0.468  16.590  0.2618 -0.0402 -0.3393
 9645TIP3   OH250349   3.326   6.111  14.681 -0.7124  0.3070 -0.4839
 9645TIP3    H150350   3.289   6.196  14.707  0.8197  1.0695 -0.6765
 9645TIP3    H250351   3.269   6.081  14.611 -0.7249  1.6601 -1.0870
 9646TIP3   OH250352   6.698   0.930  13.758 -0.4149 -0.2137  0.3233
 9646TIP3    H150353   6.753   0.868  13.807 -0.4966  0.2394  1.0087
 9646TIP3    H250354   6.625   0.949  13.817 -1.6375 -1.2331 -0.7868
 9647TIP3   OH250355   5.754   3.452  12.534  0.0375  0.2949 -0.3153
 9647TIP3    H150356   5.704   3.524  12.496 -1.2829  0.7523  2.0696
 9647TIP3    H250357   5.844   3.465  12.503 -0.4426  2.1439 -1.0340
 9648TIP3   OH250358   3.469   5.702   4.064  0.4275  0.2662 -0.1412
 9648TIP3    H150359   3.475   5.666   4.153 -0.2643 -0.2108 -0.2748
 9648TIP3    H250360   3.525   5.646   4.012  1.2551  0.8729  0.0860
 9649TIP3   OH250361   2.058   6.607   1.076  0.3150  0.3276  0.5344
 9649TIP3    H150362   2.001   6.529   1.079 -0.0698  0.5396  4.4074
 9649TIP3    H250363   2.002   6.675   1.039 -0.3851 -0.5370 -0.0551
 9650TIP3   OH250364   4.288   5.909  13.710 -0.3929  0.8538 -0.0645
 9650TIP3    H150365   4.269   5.878  13.799 -0.7304  1.1516 -0.0316
 9650TIP3    H250366   4.207   5.950  13.681 -1.1803 -1.5559 -1.5313
 9651TIP3   OH250367   4.803   1.040  15.235 -0.4692 -0.0226  0.2633
 9651TIP3    H150368   4.733   1.104  15.250 -0.8464 -0.1552 -0.8064
 9651TIP3    H250369   4.842   1.067  15.151  1.7834  0.9535  1.5310
 9652TIP3   OH250370   5.988   1.005   3.121 -0.5703 -0.0368  0.2889
 9652TIP3    H150371   5.899   0.976   3.143 -0.8623  0.7885  0.2249
 9652TIP3    H250372   5.993   0.995   3.026 -0.3397 -0.7706  0.3743
 9653TIP3   OH250373   0.867   4.128  14.462  0.3036 -0.0564  0.8848
 9653TIP3    H150374   0.881   4.218  14.492  2.1714 -0.9281  3.0073
 9653TIP3    H250375   0.929   4.117  14.390  0.0297  0.3506  0.5803
 9654TIP3   OH250376   2.928   5.189  17.102  0.1997 -0.0047  0.2902
 9654TIP3    H150377   2.974   5.267  17.135 -0.0368 -0.1547  1.0090
 9654TIP3    H250378   2.986   5.154  17.035  1.5378 -0.6204  1.6833
 9655TIP3   OH250379   1.562   1.304  11.682  0.1922  0.3183 -0.0346
 9655TIP3    H150380   1.654   1.327  11.671  0.3775  0.0183  0.7780
 9655TIP3    H250381   1.560   1.248  11.760 -0.5677 -0.3841 -0.5330
 9656TIP3   OH250382   5.377   2.169   5.160  0.6188  0.4832  0.6212
 9656TIP3    H150383   5.315   2.099   5.138  0.1680  1.0018  0.1953
 9656TIP3    H250384   5.357   2.190   5.252  0.7567  0.0563  0.7510
 9657TIP3   OH250385   6.514   5.317   5.114 -0.6090  0.0542 -0.0004
 9657TIP3    H150386   6.497   5.320   5.209 -0.2919 -1.3454  0.1265
 9657TIP3    H250387   6.433   5.282   5.076 -0.4895 -0.0496 -0.1618
 9658TIP3   OH250388   2.928   5.227   1.151 -0.5618 -0.2245  0.3305
 9658TIP3    H150389   2.885   5.201   1.070 -1.4847 -1.1666  1.0883
 9658TIP3    H250390   3.021   5.234   1.128 -0.8354 -0.2662 -0.8443
 9659TIP3   OH250391   3.081   2.192  15.459 -0.7572 -0.1069 -0.2627
 9659TIP3    H150392   3.109   2.214  15.370 -1.7998  0.1691 -0.5357
 9659TIP3    H250393   3.023   2.117  15.448  1.5399 -2.1709  0.5104
 9660TIP3   OH250394   6.440   2.364   6.700  0.0797 -0.5964 -0.5417
 9660TIP3    H150395   6.437   2.272   6.676  0.7378 -1.0796  1.1073
 9660TIP3    H250396   6.384   2.370   6.777  0.5620  0.2562 -0.2479
 9661TIP3   OH250397   0.156   1.843   4.370 -0.0626 -0.3331 -0.0709
 9661TIP3    H150398   0.190   1.875   4.286 -1.8384  0.3896 -0.5505
 9661TIP3    H250399   0.226   1.862   4.432  0.6127  0.6907 -1.0868
 9662TIP3   OH250400   6.153   2.313   1.540  0.2260  0.2369  0.0760
 9662TIP3    H150401   6.094   2.328   1.614 -0.1425  0.3646 -0.2450
 9662TIP3    H250402   6.157   2.398   1.495 -2.2985 -0.6378 -2.0747
 9663TIP3   OH250403   4.602   6.086  13.978  0.2413  0.7100 -0.0976
 9663TIP3    H150404   4.614   6.068  13.885  0.5217  0.5018 -0.0215
 9663TIP3    H250405   4.521   6.137  13.982 -1.1476 -1.3484 -0.2437
 9664TIP3   OH250406   0.986   3.645   5.897 -0.0087  0.0717  0.0950
 9664TIP3    H150407   0.953   3.685   5.978  1.8886  1.1083  0.4162
 9664TIP3    H250408   1.029   3.717   5.850 -1.3623 -0.4202 -2.0507
 9665TIP3   OH250409   5.955   6.341  15.774  0.0269  0.2349 -0.3534
 9665TIP3    H150410   5.860   6.348  15.786 -0.3893 -1.5561 -2.0367
 9665TIP3    H250411   5.980   6.266  15.828  0.2332 -0.1442 -0.9661
 9666TIP3   OH250412   3.309   3.601  13.966 -0.2897 -0.1076  0.0929
 9666TIP3    H150413   3.247   3.605  14.039 -0.0982  1.2266  0.1969
 9666TIP3    H250414   3.325   3.692  13.942  2.7363 -0.2742  1.0078
 9667TIP3   OH250415   3.240   3.201  11.988 -0.4079 -0.0886 -0.2321
 9667TIP3    H150416   3.192   3.147  11.926  2.1126 -1.8002 -0.8293
 9667TIP3    H250417   3.268   3.140  12.057  0.3727  0.9511  0.4036
 9668TIP3   OH250418   4.498   6.534  13.837  0.2164 -0.1938 -0.4402
 9668TIP3    H150419   4.459   6.606  13.788  1.5626 -0.0934 -1.4102
 9668TIP3    H250420   4.541   6.480  13.771 -0.1367 -1.5052  0.3491
 9669TIP3   OH250421   3.658   1.120  13.711  0.3045 -0.2235 -0.1025
 9669TIP3    H150422   3.691   1.039  13.750  3.0508  0.6281 -0.4125
 9669TIP3    H250423   3.572   1.132  13.750  0.5936 -2.3156  1.3748
 9670TIP3   OH250424   5.039   0.760   6.130  0.4543  0.6027  0.0443
 9670TIP3    H150425   4.976   0.715   6.186 -0.4060  1.1841 -0.4355
 9670TIP3    H250426   5.084   0.689   6.084 -0.8545  0.2084 -0.6783
 9671TIP3   OH250427   3.254   3.811  15.878  0.6077  0.4325 -0.2981
 9671TIP3    H150428   3.283   3.737  15.930  1.8463 -0.7774 -2.5456
 9671TIP3    H250429   3.309   3.809  15.800  0.5043  3.5958 -0.5912
 9672TIP3   OH250430   3.500   3.656   2.701 -0.1226 -0.3594 -0.3699
 9672TIP3    H150431   3.531   3.659   2.611 -0.2687  0.8531 -0.3968
 9672TIP3    H250432   3.417   3.609   2.696 -0.3081  0.0204 -0.9273
 9673TIP3   OH250433   5.691   2.635  12.360  0.1110  0.2806  0.4517
 9673TIP3    H150434   5.766   2.692  12.380  1.3550 -1.3251  0.6223
 9673TIP3    H250435   5.639   2.684  12.297  0.6215  1.9799  1.2935
 9674TIP3   OH250436   4.817   2.355  15.483 -0.4749  0.4585  0.5117
 9674TIP3    H150437   4.817   2.355  15.387 -1.9054 -1.5866  0.4496
 9674TIP3    H250438   4.732   2.390  15.507 -0.8441 -0.6957  0.9545
 9675TIP3   OH250439   0.503   3.592   5.928 -0.3641  0.2142 -0.5387
 9675TIP3    H150440   0.449   3.521   5.964 -0.8036 -0.1753 -1.9217
 9675TIP3    H250441   0.583   3.549   5.898  0.7468  0.7792  1.4274
 9676TIP3   OH250442   3.126   2.409  14.522  0.1216 -0.5687  0.2729
 9676TIP3    H150443   3.138   2.360  14.604  2.2248 -0.8269 -0.1292
 9676TIP3    H250444   3.032   2.430  14.520  0.0376 -0.3916  2.8233
 9677TIP3   OH250445   1.316   1.636   2.545 -0.3216 -0.2231  0.0426
 9677TIP3    H150446   1.385   1.598   2.490  1.5908  0.2891  1.9767
 9677TIP3    H250447   1.295   1.568   2.608  0.5553  0.6102  1.2785
 9678TIP3   OH250448   4.748   3.042   3.028  0.0790  0.2717 -0.4582
 9678TIP3    H150449   4.691   3.115   3.054  0.2505 -0.3235  1.8663
 9678TIP3    H250450   4.689   2.972   3.003 -0.1484  0.4417 -0.3962
 9679TIP3   OH250451   3.153   5.250  16.858  0.2439 -0.4793 -0.3036
 9679TIP3    H150452   3.150   5.344  16.876  1.5523  0.0133 -2.3756
 9679TIP3    H250453   3.207   5.214  16.928 -1.8609 -0.0805  1.6678
 9680TIP3   OH250454   6.726   3.854  11.134  0.0245  0.6746  0.1230
 9680TIP3    H150455   6.773   3.932  11.164 -0.3287  0.7607  0.4504
 9680TIP3    H250456   6.712   3.869  11.041  1.1552  0.3939 -0.1150
 9681TIP3   OH250457   2.030   0.726  16.045 -0.1196  0.5517  0.0739
 9681TIP3    H150458   2.024   0.696  16.136 -0.5170 -0.6016 -0.3062
 9681TIP3    H250459   2.087   0.662  16.003 -0.3257  0.8048 -0.5964
 9682TIP3   OH250460   2.253   0.222   5.482 -0.9747  0.5169 -0.1350
 9682TIP3    H150461   2.197   0.178   5.546 -0.4373  0.3671  0.2452
 9682TIP3    H250462   2.222   0.191   5.397 -2.0188  1.0969  0.0161
 9683TIP3   OH250463   1.896   3.033  16.241  0.3105 -0.3328 -0.6596
 9683TIP3    H150464   1.808   2.997  16.254  0.0484  0.4551 -0.1652
 9683TIP3    H250465   1.892   3.121  16.279  1.3964 -0.3993 -0.3412
 9684TIP3   OH250466   5.343   0.871   0.448 -0.1597  0.0283  0.6598
 9684TIP3    H150467   5.420   0.830   0.487 -1.3742 -2.1350  0.9391
 9684TIP3    H250468   5.281   0.880   0.520 -1.6204 -2.0169 -0.2387
 9685TIP3   OH250469   5.919   5.122  16.829  0.1104 -0.4083 -0.4051
 9685TIP3    H150470   5.873   5.078  16.757 -0.3453 -0.8580  0.1516
 9685TIP3    H250471   5.985   5.177  16.785 -0.5907 -0.1723 -1.1917
 9686TIP3   OH250472   5.695   3.219   0.980 -0.4810 -0.1780 -0.1496
 9686TIP3    H150473   5.662   3.290   1.035 -1.0625 -1.8183  1.7415
 9686TIP3    H250474   5.619   3.191   0.928 -1.2070 -1.5218  1.5228
 9687TIP3   OH250475   4.007   4.870   3.657 -0.3721  0.8931 -0.3024
 9687TIP3    H150476   3.989   4.964   3.651 -0.9438  0.9021  1.1273
 9687TIP3    H250477   3.921   4.829   3.665 -0.1504  0.1952 -1.2151
 9688TIP3   OH250478   3.124   1.599  17.225  0.9034 -0.0077  0.2445
 9688TIP3    H150479   3.130   1.576  17.318 -1.5937 -1.5238  0.1198
 9688TIP3    H250480   3.185   1.540  17.181  1.0306 -0.2731  0.7717
 9689TIP3   OH250481   0.063   2.481  16.250  0.9510 -0.1167  0.4506
 9689TIP3    H150482   0.093   2.414  16.312  2.0701 -0.1492 -0.1123
 9689TIP3    H250483   0.075   2.564  16.296 -1.3380 -0.2892  1.5269
 9690TIP3   OH250484   1.258   2.228   4.951  0.1188 -0.7225  0.4473
 9690TIP3    H150485   1.309   2.198   4.875  0.9114 -1.0484  1.0888
 9690TIP3    H250486   1.223   2.147   4.989  0.0084 -0.5870  0.6292
 9691TIP3   OH250487   5.512   3.758   1.174 -0.3239 -0.6761 -0.1432
 9691TIP3    H150488   5.584   3.769   1.237  1.8584  0.0708 -2.5711
 9691TIP3    H250489   5.524   3.669   1.140 -1.4329 -1.0411  0.3760
 9692TIP3   OH250490   0.871   0.952  15.009 -0.5884 -0.0241 -0.0992
 9692TIP3    H150491   0.835   1.021  15.065 -1.5873  1.2875 -2.2366
 9692TIP3    H250492   0.844   0.870  15.050 -2.1405  0.8999  0.7990
 9693TIP3   OH250493   0.396   1.498   1.331  0.0639 -0.1749 -0.6470
 9693TIP3    H150494   0.422   1.568   1.270 -1.3515  0.2696 -0.7853
 9693TIP3    H250495   0.302   1.487   1.315 -0.2256 -0.4339  1.0761
 9694TIP3   OH250496   3.187   3.283   3.791 -0.2174 -0.5311 -0.0593
 9694TIP3    H150497   3.156   3.237   3.868  0.3845 -0.8654 -0.0087
 9694TIP3    H250498   3.210   3.370   3.822 -0.2289 -0.5796  0.0830
 9695TIP3   OH250499   2.004   4.191   3.533  0.6620 -0.1525 -0.1667
 9695TIP3    H150500   2.074   4.236   3.581  0.0909  1.0181 -0.3932
 9695TIP3    H250501   1.926   4.207   3.585  0.8413 -3.2729  1.2527
 9696TIP3   OH250502   5.543   2.192   3.991 -0.0335 -1.0717  0.1183
 9696TIP3    H150503   5.522   2.120   4.051 -0.3947 -0.2069  1.0531
 9696TIP3    H250504   5.637   2.207   4.003  0.1403 -1.6816 -0.4229
 9697TIP3   OH250505   2.367   0.844   4.439  0.3227 -0.6250 -0.5108
 9697TIP3    H150506   2.385   0.804   4.354  3.1390 -1.4564  0.3630
 9697TIP3    H250507   2.442   0.902   4.454  1.1202 -2.2301  2.3453
 9698TIP3   OH250508   0.967   1.092  13.516 -0.5500 -0.0060 -0.0744
 9698TIP3    H150509   0.933   1.145  13.589  0.3273 -0.2420  0.5168
 9698TIP3    H250510   0.897   1.030  13.497 -0.6537 -0.1743  0.8050
 9699TIP3   OH250511   4.866   3.817  13.830  0.0206  0.2619 -0.2331
 9699TIP3    H150512   4.806   3.755  13.789 -0.7963  0.2328  0.9377
 9699TIP3    H250513   4.881   3.883  13.763  0.4718 -0.8991 -1.3121
 9700TIP3   OH250514   4.849   1.340  13.989  0.0601 -0.0061  0.3150
 9700TIP3    H150515   4.890   1.264  13.947  0.1232  1.2899 -2.1651
 9700TIP3    H250516   4.913   1.410  13.977 -1.2276  1.1188 -0.1290
 9701TIP3   OH250517   4.512   6.231  11.674 -0.1430  0.1390 -0.4169
 9701TIP3    H150518   4.570   6.240  11.749 -0.6162 -2.7516  0.4116
 9701TIP3    H250519   4.425   6.247  11.709 -0.1724  1.6604 -1.0631
 9702TIP3   OH250520   1.934   5.889  16.905  0.1572  0.9951  0.0624
 9702TIP3    H150521   1.892   5.847  16.830  0.7156 -1.2101  0.9162
 9702TIP3    H250522   2.004   5.942  16.866  0.6025 -0.3092 -1.0023
 9703TIP3   OH250523   3.025   5.215   5.036  0.1360  0.5024 -0.2904
 9703TIP3    H150524   3.020   5.249   4.947  1.7423  0.9186 -0.2602
 9703TIP3    H250525   2.935   5.218   5.068 -0.3187  1.2617 -1.5549
 9704TIP3   OH250526   1.305   5.617   1.643 -0.1220  0.1714  0.0446
 9704TIP3    H150527   1.302   5.599   1.549 -2.4309 -0.6615  0.2182
 9704TIP3    H250528   1.390   5.660   1.657  1.7890 -2.6148 -1.8866
 9705TIP3   OH250529   5.340   5.601   0.151  0.4594  0.1193  0.4509
 9705TIP3    H150530   5.348   5.673   0.214  1.6317  0.0660  0.3792
 9705TIP3    H250531   5.370   5.638   0.068  0.5516 -0.2940  0.2981
 9706TIP3   OH250532   4.876   4.039   1.854 -0.4072  0.1971  0.2187
 9706TIP3    H150533   4.847   3.957   1.812 -1.9568  0.4701  0.6833
 9706TIP3    H250534   4.930   4.010   1.928  0.2499 -0.3507 -0.4561
 9707TIP3   OH250535   5.652   5.032  11.152  0.0682  0.1022 -0.1448
 9707TIP3    H150536   5.662   4.952  11.101 -1.8032 -0.2321 -0.0766
 9707TIP3    H250537   5.566   5.023  11.193  0.8158  1.0940  1.7670
 9708TIP3   OH250538   5.298   3.084   0.695  0.4219  0.3151  0.5236
 9708TIP3    H150539   5.366   3.057   0.633 -0.0198  1.4271 -0.4804
 9708TIP3    H250540   5.230   3.124   0.641  0.0493  1.3788  1.7184
 9709TIP3   OH250541   1.158   5.493  14.984 -0.4687 -0.2743  0.4250
 9709TIP3    H150542   1.213   5.490  15.061 -1.0368  0.0461  0.8512
 9709TIP3    H250543   1.219   5.485  14.910  0.5158  2.9624  0.7347
 9710TIP3   OH250544   6.265   6.317   4.232  0.4644 -0.2096 -0.5142
 9710TIP3    H150545   6.190   6.298   4.177  0.1815 -2.0604  0.4347
 9710TIP3    H250546   6.336   6.338   4.171 -0.6805  1.2232 -1.4283
 9711TIP3   OH250547   4.127   1.984  15.663 -0.7776  0.0864 -0.0827
 9711TIP3    H150548   4.135   2.036  15.584 -1.5967  0.1837 -0.1061
 9711TIP3    H250549   4.156   2.042  15.733  0.1315 -0.0629 -0.3218
 9712TIP3   OH250550   1.244   5.829  11.737  0.1325 -0.0521  0.0171
 9712TIP3    H150551   1.318   5.780  11.700 -0.5833 -0.4622 -0.9329
 9712TIP3    H250552   1.276   5.860  11.821  2.0470  1.3802 -1.1487
 9713TIP3   OH250553   4.585   4.847  13.108  0.0731 -0.0735  0.5432
 9713TIP3    H150554   4.671   4.808  13.094 -0.2242 -1.6812  2.6086
 9713TIP3    H250555   4.533   4.820  13.032  1.0814  0.0545 -0.2142
 9714TIP3   OH250556   3.392   5.246  13.507  0.4905  0.5950  0.2546
 9714TIP3    H150557   3.337   5.214  13.435 -2.5337  3.4371  1.0708
 9714TIP3    H250558   3.372   5.187  13.580  0.8959 -0.1843 -0.2426
 9715TIP3   OH250559   1.794   1.373  14.080  0.1249 -0.1932 -0.0165
 9715TIP3    H150560   1.785   1.394  14.173  0.5847  0.5366 -0.1201
 9715TIP3    H250561   1.733   1.302  14.064 -1.7057  1.2250  0.3435
 9716TIP3   OH250562   3.577   3.432  17.182 -0.3411  0.5348 -0.5737
 9716TIP3    H150563   3.526   3.397  17.109  1.0146 -1.1122 -0.8009
 9716TIP3    H250564   3.657   3.466  17.141  1.3704 -2.2377  0.2099
 9717TIP3   OH250565   6.501   4.943   5.748 -0.2336  0.6306 -0.0684
 9717TIP3    H150566   6.473   4.910   5.834  1.3352 -0.5627  0.0303
 9717TIP3    H250567   6.453   4.889   5.685 -1.8734  1.9211 -0.0235
 9718TIP3   OH250568   3.395   1.098   1.012  0.3250  0.0365 -0.4018
 9718TIP3    H150569   3.330   1.033   0.985  1.2869  0.0600 -3.0944
 9718TIP3    H250570   3.477   1.067   0.974  0.9464  2.4187 -1.1509
 9719TIP3   OH250571   5.324   5.884  12.842 -0.0944 -0.4362 -0.0624
 9719TIP3    H150572   5.241   5.928  12.823  0.1102 -0.1873 -0.3953
 9719TIP3    H250573   5.312   5.845  12.928 -0.9546 -1.3496 -0.5832
 9720TIP3   OH250574   0.438   3.476  14.899  0.3201  0.1357  0.1570
 9720TIP3    H150575   0.489   3.550  14.865 -1.2717  0.6758 -1.1580
 9720TIP3    H250576   0.373   3.458  14.831  0.6489 -2.4943  0.4397
 9721TIP3   OH250577   2.808   2.592  12.686 -0.3153 -0.3127  0.2587
 9721TIP3    H150578   2.782   2.663  12.627  2.4821 -1.6205 -2.9436
 9721TIP3    H250579   2.747   2.521  12.666 -0.4664 -0.1843  0.2578
 9722TIP3   OH250580   4.324   0.215  14.525 -0.6964 -0.1254  0.4113
 9722TIP3    H150581   4.383   0.140  14.533  0.5685  0.8302  0.3214
 9722TIP3    H250582   4.373   0.289  14.560 -1.5124  0.8682 -0.4541
 9723TIP3   OH250583   2.849   2.645   5.889 -0.5516  0.0487 -0.2132
 9723TIP3    H150584   2.879   2.684   5.971 -3.7963 -0.2940  1.2771
 9723TIP3    H250585   2.822   2.720   5.835 -2.7202  0.1810  0.9431
 9724TIP3   OH250586   5.804   2.473  13.826  0.0959  0.2511 -0.0390
 9724TIP3    H150587   5.854   2.395  13.802  0.0340 -0.2248  1.2835
 9724TIP3    H250588   5.867   2.545  13.819  0.3492 -0.0181 -0.5568
 9725TIP3   OH250589   1.828   1.076  13.420 -0.4273 -0.1416  0.4443
 9725TIP3    H150590   1.825   1.162  13.461 -0.3571 -0.2661  0.7112
 9725TIP3    H250591   1.909   1.037  13.451 -0.5546 -0.3805  0.4808
 9726TIP3   OH250592   3.797   6.038  14.615  0.1119 -0.3184  0.2257
 9726TIP3    H150593   3.716   6.081  14.588 -0.6678 -1.0372  1.3364
 9726TIP3    H250594   3.849   6.033  14.535 -0.1903  1.7280 -0.1441
 9727TIP3   OH250595   6.123   5.923  11.226 -0.6332  0.4002 -0.3274
 9727TIP3    H150596   6.033   5.911  11.257 -0.1794 -0.2685  0.7739
 9727TIP3    H250597   6.129   6.017  11.209 -1.4445  0.5023 -0.1133
 9728TIP3   OH250598   0.663   1.284  16.616  0.1766  0.2367  0.3193
 9728TIP3    H150599   0.736   1.286  16.553 -0.4362  0.0094 -0.4113
 9728TIP3    H250600   0.646   1.190  16.629 -0.9407  0.2890 -0.6529
 9729TIP3   OH250601   6.018   1.780  15.428  0.2154  0.4465  0.3955
 9729TIP3    H150602   6.104   1.746  15.451 -0.5340 -1.4962  0.4814
 9729TIP3    H250603   6.028   1.814  15.339  1.3920  1.5733  0.9304
 9730TIP3   OH250604   2.236   3.060   1.865  1.0832 -0.4985  0.4382
 9730TIP3    H150605   2.203   2.977   1.902 -1.7097  0.0304 -0.6000
 9730TIP3    H250606   2.239   3.120   1.939  1.6836 -1.1272  0.9288
 9731TIP3   OH250607   6.126   4.862   0.740 -0.1885 -0.0052 -0.5975
 9731TIP3    H150608   6.087   4.858   0.827 -2.4563 -1.0944 -1.5986
 9731TIP3    H250609   6.208   4.910   0.753 -1.1746  1.1679  1.8530
 9732TIP3   OH250610   2.217   3.151   1.211 -0.3631 -0.7593 -0.6978
 9732TIP3    H150611   2.256   3.222   1.262  0.3392 -1.7471  0.2001
 9732TIP3    H250612   2.135   3.130   1.256 -0.1295 -1.1118 -0.4359
 9733TIP3   OH250613   4.428   3.314  15.692 -0.0623 -0.2063 -0.2950
 9733TIP3    H150614   4.410   3.398  15.733 -0.7678 -2.1313  3.8472
 9733TIP3    H250615   4.515   3.324  15.652  0.1231  2.2514  0.5865
 9734TIP3   OH250616   4.248   4.333  13.590  0.4943 -0.2637 -0.5641
 9734TIP3    H150617   4.326   4.295  13.632  0.0271 -0.4975  0.1065
 9734TIP3    H250618   4.273   4.424  13.572  0.8045 -0.2334 -0.0190
 9735TIP3   OH250619   2.691   3.419  14.730 -0.2563  0.1237  0.1709
 9735TIP3    H150620   2.615   3.381  14.775 -0.5923 -0.2505 -0.7027
 9735TIP3    H250621   2.728   3.479  14.794 -0.5366 -0.6387  1.0787
 9736TIP3   OH250622   0.848   4.019  15.730  0.2820 -0.5838  0.3129
 9736TIP3    H150623   0.944   4.016  15.722  0.3520  0.8507  0.3459
 9736TIP3    H250624   0.828   4.111  15.746 -1.3111 -0.3041 -2.5671
 9737TIP3   OH250625   1.659   2.404   6.569  0.5614  0.3190  0.1987
 9737TIP3    H150626   1.710   2.425   6.490  1.4064 -0.3430  0.5540
 9737TIP3    H250627   1.599   2.335   6.541  0.6932  0.2529  0.0753
 9738TIP3   OH250628   2.851   3.555  13.197  0.1549  0.0269  0.0847
 9738TIP3    H150629   2.787   3.583  13.131  1.0731  1.6863 -0.1608
 9738TIP3    H250630   2.830   3.607  13.274 -0.0063 -0.8567  0.6450
 9739TIP3   OH250631   5.942   3.005  15.036  0.1900  0.0873  0.2431
 9739TIP3    H150632   5.962   3.065  15.108  0.4310  0.1035  0.1642
 9739TIP3    H250633   5.853   2.974  15.054  0.3971 -0.2044  0.7499
 9740TIP3   OH250634   0.327   1.694  13.114  0.7001  0.3863 -0.1626
 9740TIP3    H150635   0.339   1.776  13.163  1.2967 -0.2945  0.8766
 9740TIP3    H250636   0.233   1.675  13.123  0.4736  1.1469 -0.7596
 9741TIP3   OH250637   4.719   5.453   2.021 -0.5157  0.0025 -0.4689
 9741TIP3    H150638   4.688   5.543   2.009  1.8042  0.6971 -1.9940
 9741TIP3    H250639   4.807   5.453   1.983  0.1410 -2.5681  0.8268
 9742TIP3   OH250640   3.196   3.161   1.654  1.1844 -0.6293  0.0887
 9742TIP3    H150641   3.233   3.079   1.686  0.1734 -0.5833  1.4639
 9742TIP3    H250642   3.124   3.179   1.714  0.8841  0.8499 -0.6881
 9743TIP3   OH250643   0.116   3.534   4.035  0.0739 -0.2621  0.0638
 9743TIP3    H150644   0.070   3.538   3.951 -0.3072  1.0101  0.3195
 9743TIP3    H250645   0.151   3.445   4.038 -2.8731 -1.5140  0.1588
 9744TIP3   OH250646   6.573   1.191  12.352 -0.5478 -0.2582 -0.4127
 9744TIP3    H150647   6.588   1.160  12.262 -0.6529 -0.5622 -0.3241
 9744TIP3    H250648   6.533   1.278  12.340 -1.1320 -0.5524 -0.6694
 9745TIP3   OH250649   2.407   4.494  13.034  0.0863  0.0879 -0.0431
 9745TIP3    H150650   2.416   4.544  13.115 -0.0945  0.1455 -0.0574
 9745TIP3    H250651   2.467   4.537  12.972  1.3638 -0.8710  0.4821
 9746TIP3   OH250652   4.641   5.097   5.129 -0.1643  0.2088 -0.8462
 9746TIP3    H150653   4.547   5.086   5.144 -0.0803 -0.7572 -0.9552
 9746TIP3    H250654   4.651   5.085   5.034  0.2495 -1.3359 -0.6493
 9747TIP3   OH250655   2.778   3.046   5.121 -0.6393  0.0628 -0.2188
 9747TIP3    H150656   2.793   3.139   5.139 -0.0990 -0.1850  0.7329
 9747TIP3    H250657   2.844   3.024   5.056 -0.2093  0.1605  0.1752
 9748TIP3   OH250658   0.679   4.552  12.684 -0.9980 -0.2257  0.1510
 9748TIP3    H150659   0.631   4.635  12.682 -1.0763 -0.1939  1.6542
 9748TIP3    H250660   0.610   4.485  12.688 -0.9481 -0.2346  1.1694
 9749TIP3   OH250661   3.497   2.999  15.268  0.4206  0.5524 -0.3393
 9749TIP3    H150662   3.406   2.973  15.284  0.8893  0.7308  3.5305
 9749TIP3    H250663   3.499   3.093  15.287  1.4675  0.4441  0.1923
 9750TIP3   OH250664   4.757   5.925  12.054 -0.7694 -0.4437 -0.1778
 9750TIP3    H150665   4.683   5.906  11.997  1.2508 -1.2767 -2.7182
 9750TIP3    H250666   4.833   5.921  11.996  1.1979  1.3679  2.0774
 9751TIP3   OH250667   1.651   5.361   3.092  0.5773 -0.3412  0.1148
 9751TIP3    H150668   1.592   5.392   3.024  2.0214  2.2928 -0.0562
 9751TIP3    H250669   1.737   5.358   3.050  1.1553 -0.7233  1.2700
 9752TIP3   OH250670   2.765   6.355   0.943 -0.3910  0.2292 -0.4384
 9752TIP3    H150671   2.823   6.408   0.888  0.2974  1.3855  1.3232
 9752TIP3    H250672   2.806   6.268   0.944  0.7393  0.7412 -0.1197
 9753TIP3   OH250673   4.373   3.238   4.387  0.5508 -0.3332  0.2108
 9753TIP3    H150674   4.284   3.252   4.419  0.0804 -0.6270 -0.9093
 9753TIP3    H250675   4.416   3.323   4.396 -0.5170  0.3948 -1.2189
 9754TIP3   OH250676   5.291   6.390   6.106  0.1800 -0.1429 -0.1851
 9754TIP3    H150677   5.336   6.475   6.105 -0.5054  0.2267 -1.2865
 9754TIP3    H250678   5.338   6.339   6.172  0.9501  0.9032  0.1048
 9755TIP3   OH250679   6.098   2.402  14.354 -0.1505  0.7283 -0.3825
 9755TIP3    H150680   6.113   2.364  14.267 -2.1968 -1.2858  0.0394
 9755TIP3    H250681   6.051   2.484  14.336  1.0159  1.2436 -1.1994
 9756TIP3   OH250682   6.602   0.183   6.346  0.5837  0.1637 -0.7355
 9756TIP3    H150683   6.530   0.149   6.399  1.3056  0.5932  0.5789
 9756TIP3    H250684   6.602   0.277   6.363  1.1437  0.2388 -1.1095
 9757TIP3   OH250685   5.615   3.080  13.679  0.7077  0.2003  0.1400
 9757TIP3    H150686   5.588   3.075  13.587 -1.0904 -1.7559  0.6810
 9757TIP3    H250687   5.667   3.001  13.693 -0.9327 -0.7522  1.2800
 9758TIP3   OH250688   0.544   6.728  14.641 -0.5211 -0.3004 -0.2275
 9758TIP3    H150689   0.548   6.737  14.545 -1.5241  0.7294 -0.2006
 9758TIP3    H250690   0.599   6.800  14.673 -1.5819  0.4593 -0.0441
 9759TIP3   OH250691   4.271   3.238  11.536  0.0870  0.9495 -0.1524
 9759TIP3    H150692   4.275   3.311  11.597 -0.8114 -0.4291  1.6599
 9759TIP3    H250693   4.185   3.197  11.552  0.4199 -0.3122 -1.3288
 9760TIP3   OH250694   6.505   2.582  15.967  0.1584  0.2189  0.5348
 9760TIP3    H150695   6.443   2.650  15.940 -0.2701 -0.3504  0.0477
 9760TIP3    H250696   6.579   2.630  16.003 -1.0395  0.9139  2.2488
 9761TIP3   OH250697   5.340   3.913   3.419  0.2443 -0.2672  0.2888
 9761TIP3    H150698   5.396   3.851   3.373  0.2216  1.5697 -2.4350
 9761TIP3    H250699   5.401   3.977   3.457  0.1594 -0.1635  0.2523
 9762TIP3   OH250700   1.079   2.545   1.816 -0.3545 -0.2083 -0.0913
 9762TIP3    H150701   1.113   2.587   1.896  0.9578 -0.3420 -0.5566
 9762TIP3    H250702   1.052   2.458   1.844 -3.0405  0.8301  0.8745
 9763TIP3   OH250703   3.240   2.673  10.699 -0.0517  0.1116  0.0919
 9763TIP3    H150704   3.273   2.698  10.785 -0.1757  0.7683 -0.0483
 9763TIP3    H250705   3.316   2.634  10.655  0.5409  1.5415 -0.2037
 9764TIP3   OH250706   1.573   3.220  16.896  0.2817  0.2165  0.2278
 9764TIP3    H150707   1.535   3.186  16.815  0.1578  0.4555  0.1859
 9764TIP3    H250708   1.515   3.188  16.965 -0.5887  1.4206  0.0881
 9765TIP3   OH250709   2.008   0.259  15.018 -0.3488 -0.5249  0.5201
 9765TIP3    H150710   1.994   0.347  14.982 -1.1256 -0.2311  1.4967
 9765TIP3    H250711   2.037   0.207  14.943 -0.5868  0.3877 -0.2268
 9766TIP3   OH250712   4.218   2.554   4.929  0.9975 -0.1262  0.3106
 9766TIP3    H150713   4.211   2.499   5.007  0.8087  0.0008  0.3858
 9766TIP3    H250714   4.139   2.608   4.931  0.1640 -1.2366 -0.8485
 9767TIP3   OH250715   3.495   2.782   0.958 -0.2353  0.1991 -0.6589
 9767TIP3    H150716   3.415   2.831   0.973  0.1386  0.5919  0.0521
 9767TIP3    H250717   3.565   2.845   0.968  0.3134 -0.6589  1.2748
 9768TIP3   OH250718   5.194   1.974  17.190  0.5319  0.5562  0.2203
 9768TIP3    H150719   5.164   1.885  17.208  2.0871 -0.0115  0.1033
 9768TIP3    H250720   5.254   1.994  17.261  0.5280  1.3488  0.0062
 9769TIP3   OH250721   3.155   0.431   1.622  0.1551 -0.6169  0.2237
 9769TIP3    H150722   3.201   0.347   1.626  0.2171 -0.5308  1.7616
 9769TIP3    H250723   3.153   0.453   1.529 -0.1177 -2.4567 -0.2234
 9770TIP3   OH250724   0.326   0.829  13.067  0.3190  0.2176 -0.1412
 9770TIP3    H150725   0.394   0.893  13.048  0.7389 -0.1952 -0.0467
 9770TIP3    H250726   0.312   0.836  13.161  0.7628 -0.2106 -0.0369
 9771TIP3   OH250727   0.336   2.209  16.583 -0.8503 -0.2205  0.4049
 9771TIP3    H150728   0.388   2.164  16.517  0.3866  1.7643 -0.0632
 9771TIP3    H250729   0.274   2.263  16.533  1.3624  2.7905  0.6520
 9772TIP3   OH250730   5.197   2.145  12.981  0.7541  0.0095  0.2252
 9772TIP3    H150731   5.172   2.083  13.050  0.3060 -0.6644 -0.5159
 9772TIP3    H250732   5.213   2.227  13.027 -0.5330 -0.1589  1.0266
 9773TIP3   OH250733   4.635   1.278   3.311  0.3102  0.1364 -0.2401
 9773TIP3    H150734   4.697   1.350   3.324  2.5796 -1.7383 -0.0072
 9773TIP3    H250735   4.616   1.280   3.217 -0.4205  1.5830 -0.0848
 9774TIP3   OH250736   4.604   0.288   4.418 -0.4318 -0.0494  0.1984
 9774TIP3    H150737   4.533   0.328   4.467  0.7603  0.1173  1.8589
 9774TIP3    H250738   4.680   0.344   4.434  0.2018 -0.4549 -1.1897
 9775TIP3   OH250739   6.167   5.589  11.231 -0.2050  0.0020  0.0129
 9775TIP3    H150740   6.170   5.632  11.146 -2.2353 -0.3077 -0.2738
 9775TIP3    H250741   6.245   5.619  11.276  0.4903  0.8228 -1.6533
 9776TIP3   OH250742   5.707   2.166  14.354  0.4087  0.3013  0.5409
 9776TIP3    H150743   5.711   2.224  14.279  0.8697  1.8369  1.6930
 9776TIP3    H250744   5.617   2.171  14.384 -0.4000 -2.1138 -1.1907
 9777TIP3   OH250745   6.484   2.633   0.171  0.0284  0.2788  0.4043
 9777TIP3    H150746   6.474   2.539   0.187  2.1122  0.1949  1.6453
 9777TIP3    H250747   6.519   2.639   0.082  0.5492 -0.2048  0.5639
 9778TIP3   OH250748   3.988   4.534  15.213  0.2447 -0.9337  0.3303
 9778TIP3    H150749   4.023   4.591  15.144  0.3493 -0.7965  0.4959
 9778TIP3    H250750   4.065   4.498  15.256  0.4400  2.4197  3.3102
 9779TIP3   OH250751   3.258   1.059   5.909 -0.2321 -0.1530  0.0804
 9779TIP3    H150752   3.192   1.117   5.870 -2.3108 -2.3584  0.0465
 9779TIP3    H250753   3.262   0.984   5.849  1.5085 -0.5912  0.6881
 9780TIP3   OH250754   6.354   2.569   3.202  0.7687 -0.4717 -0.3233
 9780TIP3    H150755   6.329   2.519   3.125  1.8877 -0.8698 -0.4551
 9780TIP3    H250756   6.325   2.515   3.276 -0.2692 -0.1069 -0.4548
 9781TIP3   OH250757   2.938   6.146   0.999  0.0415 -0.1927  0.0766
 9781TIP3    H150758   3.022   6.119   0.961  0.2068 -1.4662  1.2772
 9781TIP3    H250759   2.956   6.156   1.093 -1.2629 -1.0658  0.4532
 9782TIP3   OH250760   0.470   5.937   1.034  0.0314  0.1321 -0.4580
 9782TIP3    H150761   0.507   6.008   0.981  0.2952  0.0940 -0.3314
 9782TIP3    H250762   0.496   5.857   0.989 -0.6845  0.1243 -0.8667
 9783TIP3   OH250763   3.974   5.019  14.926 -0.4952  0.0001  0.0948
 9783TIP3    H150764   3.965   4.990  15.017  1.5795  0.5355  0.5087
 9783TIP3    H250765   3.958   5.113  14.929  0.7235  0.2188  0.1255
 9784TIP3   OH250766   3.181   0.339  15.480 -0.5344  0.5095 -0.1172
 9784TIP3    H150767   3.139   0.267  15.431 -0.0103 -1.0685  1.6498
 9784TIP3    H250768   3.173   0.313  15.572 -2.3100  3.8161  0.7968
 9785TIP3   OH250769   6.645   0.104  13.840  0.6639  0.0744 -0.1594
 9785TIP3    H150770   6.679   0.019  13.868  0.4553 -0.3418 -1.1363
 9785TIP3    H250771   6.708   0.134  13.774 -0.0143  0.0139 -0.8510
 9786TIP3   OH250772   2.859   2.048  13.876 -0.4802  0.6639 -1.0606
 9786TIP3    H150773   2.782   1.996  13.897 -1.0712  1.5988 -0.8673
 9786TIP3    H250774   2.930   1.984  13.868 -0.2346  0.1183  3.3064
 9787TIP3   OH250775   2.462   5.936  11.542  0.1482  0.0633 -0.7630
 9787TIP3    H150776   2.482   5.916  11.451  3.5979  1.9281 -0.5940
 9787TIP3    H250777   2.491   5.859  11.591 -1.9042 -1.0300 -1.1263
 9788TIP3   OH250778   0.123   5.745   1.705 -0.1987 -0.0996 -0.1668
 9788TIP3    H150779   0.061   5.696   1.651  0.5886 -0.5282 -0.7068
 9788TIP3    H250780   0.176   5.795   1.642 -0.2476  0.5646  0.3098
 9789TIP3   OH250781   6.057   1.181   1.884  0.0112 -0.1471  0.1154
 9789TIP3    H150782   6.028   1.272   1.889  0.7159  0.1809 -1.2279
 9789TIP3    H250783   6.029   1.152   1.797  3.7718  0.2750 -1.4345
 9790TIP3   OH250784   4.596   2.361  14.338  0.2289  0.4682 -0.0759
 9790TIP3    H150785   4.634   2.389  14.421 -0.2036  1.7048 -0.2619
 9790TIP3    H250786   4.524   2.423  14.323 -0.8705 -0.8554 -0.4816
 9791TIP3   OH250787   0.599   5.782   5.817 -0.2553 -0.3057  0.0829
 9791TIP3    H150788   0.514   5.744   5.792 -0.4092 -2.2048  3.0344
 9791TIP3    H250789   0.578   5.845   5.886  0.5774  0.9266 -0.7500
 9792TIP3   OH250790   1.664   2.776  14.582 -0.3095 -0.5616  0.3054
 9792TIP3    H150791   1.633   2.689  14.558  0.3875 -0.3177 -1.6522
 9792TIP3    H250792   1.584   2.828  14.593 -0.7021 -0.6595 -1.7825
 9793TIP3   OH250793   6.125   0.789  12.183  0.5617  0.3455  0.1927
 9793TIP3    H150794   6.202   0.811  12.131 -0.3519  0.2093 -1.2759
 9793TIP3    H250795   6.160   0.748  12.262  1.9693 -0.7202 -0.9315
 9794TIP3   OH250796   3.338   4.861   1.727 -0.0229 -0.6019  0.0241
 9794TIP3    H150797   3.334   4.795   1.658  0.1839  1.5660 -2.2050
 9794TIP3    H250798   3.430   4.886   1.730  0.0239 -0.8852  1.3468
 9795TIP3   OH250799   1.731   6.704  12.268  0.3170  0.4892 -0.8140
 9795TIP3    H150800   1.670   6.777  12.274  0.8771  1.0210 -1.4925
 9795TIP3    H250801   1.816   6.745  12.253  0.4457 -0.3441 -2.5534
 9796TIP3   OH250802   6.096   5.495  11.666 -0.3110 -0.2152 -0.4299
 9796TIP3    H150803   6.015   5.451  11.641 -0.3307 -0.2136 -0.3675
 9796TIP3    H250804   6.099   5.572  11.609 -0.8031  0.2664  0.1774
 9797TIP3   OH250805   6.703   0.806   2.116  0.1474 -0.0463 -0.2724
 9797TIP3    H150806   6.680   0.775   2.028  1.7420  0.2781 -0.8291
 9797TIP3    H250807   6.645   0.882   2.130 -0.6567 -0.5600 -0.7099
 9798TIP3   OH250808   3.750   2.286  16.900  0.3877  0.4253  0.1339
 9798TIP3    H150809   3.742   2.269  16.806 -1.9938  1.8381 -0.0151
 9798TIP3    H250810   3.668   2.252  16.936  0.4266  1.6292  1.4029
 9799TIP3   OH250811   4.346   1.748  13.166 -0.0775 -0.4368 -0.0430
 9799TIP3    H150812   4.289   1.688  13.118  0.6293 -0.8056 -0.4522
 9799TIP3    H250813   4.400   1.691  13.221  0.7127 -0.2117 -0.5526
 9800TIP3   OH250814   0.810   0.482   3.260 -0.0735 -0.1145 -0.3906
 9800TIP3    H150815   0.852   0.540   3.324  1.3810  0.5496 -1.8779
 9800TIP3    H250816   0.718   0.506   3.264  0.2187  0.9721  0.3901
 9801TIP3   OH250817   1.801   5.526   3.393  0.5189  0.0489  0.4376
 9801TIP3    H150818   1.837   5.583   3.325 -1.2069 -0.5665 -1.0517
 9801TIP3    H250819   1.851   5.445   3.384  0.0817 -0.1416 -0.3216
 9802TIP3   OH250820   4.628   4.639  16.953 -0.2285  0.2679  0.4828
 9802TIP3    H150821   4.679   4.558  16.963 -0.6825 -0.3737 -1.8419
 9802TIP3    H250822   4.541   4.609  16.926 -1.7544  1.3730  3.5959
 9803TIP3   OH250823   2.555   0.758  13.150 -0.2115 -0.2125 -0.3184
 9803TIP3    H150824   2.524   0.726  13.065  1.5867  0.1434 -1.1488
 9803TIP3    H250825   2.650   0.763  13.140 -0.0071  0.2585  1.5864
 9804TIP3   OH250826   0.248   0.965  15.128  0.3591  0.1959  0.2039
 9804TIP3    H150827   0.330   0.971  15.176 -0.2123 -2.1926  1.6589
 9804TIP3    H250828   0.188   0.922  15.189 -1.4063  0.1432 -1.4856
 9805TIP3   OH250829   0.562   0.767  15.193 -0.3794  0.0612 -0.7617
 9805TIP3    H150830   0.645   0.721  15.191 -0.0797  0.4034  1.3350
 9805TIP3    H250831   0.503   0.710  15.242 -1.0638  0.3392 -1.2281
 9806TIP3   OH250832   5.322   1.957  12.504  0.4597  0.1355 -0.2546
 9806TIP3    H150833   5.310   1.900  12.580 -0.3946  0.2403 -0.3024
 9806TIP3    H250834   5.375   1.905  12.443 -2.2774 -1.6019 -1.3152
 9807TIP3   OH250835   1.386   1.344  13.073  0.1644  0.2579  0.7666
 9807TIP3    H150836   1.370   1.278  13.142  1.0421 -0.2019  0.5430
 9807TIP3    H250837   1.299   1.379  13.054 -0.8806 -2.9379 -1.1953
 9808TIP3   OH250838   2.239   3.933  13.252 -0.0627 -0.0701 -0.6072
 9808TIP3    H150839   2.270   4.015  13.291 -0.9437  0.0512 -0.1104
 9808TIP3    H250840   2.198   3.886  13.325  1.7432 -1.6640 -0.5286
 9809TIP3   OH250841   3.079   5.156   3.838 -0.3062  0.3585 -0.3598
 9809TIP3    H150842   3.154   5.180   3.893 -0.6761 -1.3241  0.9588
 9809TIP3    H250843   3.118   5.132   3.754  0.3127  2.5805 -0.7724
 9810TIP3   OH250844   1.948   2.900   1.518 -0.1384  0.0485 -0.0169
 9810TIP3    H150845   2.022   2.943   1.559 -1.3199  0.9530  1.2475
 9810TIP3    H250846   1.965   2.807   1.529  1.2487  0.2010 -0.6126
 9811TIP3   OH250847   0.546   5.264   3.026  0.4054  0.8065  0.3641
 9811TIP3    H150848   0.505   5.248   3.111 -0.8376  2.4751  0.1166
 9811TIP3    H250849   0.516   5.192   2.971  1.3156 -0.3554  1.3240
 9812TIP3   OH250850   5.977   5.613   0.673 -0.2832  0.1707  0.0616
 9812TIP3    H150851   6.028   5.559   0.733  1.8476  3.0829  1.0799
 9812TIP3    H250852   6.042   5.670   0.631 -2.3909  2.1681 -0.6782
 9813TIP3   OH250853   4.429   3.618   2.421  0.1318 -0.0201  0.2747
 9813TIP3    H150854   4.439   3.679   2.348 -0.5686 -1.4067 -1.0456
 9813TIP3    H250855   4.405   3.535   2.379 -0.8706 -0.7208  2.1263
 9814TIP3   OH250856   1.236   0.737  13.790 -0.0360  0.2306 -0.5409
 9814TIP3    H150857   1.226   0.770  13.700 -0.0428  1.7132 -0.0302
 9814TIP3    H250858   1.264   0.814  13.840  0.6665 -0.7371  0.5972
 9815TIP3   OH250859   0.586   3.654   2.867 -0.3420 -0.3504  0.1637
 9815TIP3    H150860   0.595   3.590   2.796 -0.8650 -0.5280  0.2541
 9815TIP3    H250861   0.648   3.723   2.844 -0.0633 -0.6971 -0.1461
 9816TIP3   OH250862   0.104   3.128  15.334 -0.1240  0.0929  0.3849
 9816TIP3    H150863   0.129   3.217  15.359 -1.0734  0.4263  0.2194
 9816TIP3    H250864   0.090   3.083  15.417 -0.8678  0.4795  0.4835
 9817TIP3   OH250865   1.481   0.135  12.933  0.1237 -0.2782 -0.4852
 9817TIP3    H150866   1.509   0.055  12.888 -0.9943 -0.5219 -0.7801
 9817TIP3    H250867   1.395   0.154  12.896 -0.8800 -0.5076  1.5708
 9818TIP3   OH250868   1.900   4.413   0.486  0.4835  0.0462 -0.0857
 9818TIP3    H150869   1.935   4.392   0.573  0.8913  0.0477 -0.2460
 9818TIP3    H250870   1.922   4.336   0.433  0.0812 -0.0296 -0.1483
 9819TIP3   OH250871   3.060   2.617   0.330 -0.3593  0.0262 -0.2076
 9819TIP3    H150872   3.075   2.628   0.236 -0.8158  0.8099 -0.1981
 9819TIP3    H250873   3.143   2.640   0.371 -0.6566  1.4302 -0.3280
 9820TIP3   OH250874   2.413   0.819  16.681 -0.9480  0.6549 -0.1000
 9820TIP3    H150875   2.354   0.745  16.673  0.9748 -0.9794 -0.0612
 9820TIP3    H250876   2.465   0.817  16.601  0.9840  0.1809  1.0820
 9821TIP3   OH250877   1.494   1.047   0.035  0.5380 -0.0955 -0.1948
 9821TIP3    H150878   1.443   0.988   0.090  0.8634 -0.7850 -0.6253
 9821TIP3    H250879   1.465   1.135   0.060 -0.9898 -0.4780 -0.5655
 9822TIP3   OH250880   0.602   2.301  12.575 -0.5815  0.3697  0.1515
 9822TIP3    H150881   0.598   2.288  12.480 -2.0430  1.7894 -0.0137
 9822TIP3    H250882   0.528   2.251  12.609  0.2747 -0.6137  0.6456
 9823TIP3   OH250883   5.551   3.769   0.463  0.3144  0.3020  0.0071
 9823TIP3    H150884   5.566   3.864   0.465  0.0805  0.3386 -0.0523
 9823TIP3    H250885   5.539   3.745   0.555  0.7573  0.2683  0.0608
 9824TIP3   OH250886   4.127   0.333  13.621 -0.1726  0.4296 -0.5272
 9824TIP3    H150887   4.169   0.419  13.618 -0.5683  0.6846  0.6366
 9824TIP3    H250888   4.045   0.344  13.573  0.4595  0.2947 -1.6509
 9825TIP3   OH250889   6.709   2.228  13.063  0.0486 -0.1308  0.0236
 9825TIP3    H150890   6.689   2.143  13.024 -0.4636 -0.9547  2.0061
 9825TIP3    H250891   6.624   2.271  13.072  0.2717  0.4835 -0.6535
 9826TIP3   OH250892   5.798   3.400  10.464  0.0038  0.2427 -0.3668
 9826TIP3    H150893   5.800   3.310  10.430  2.4560 -0.0671  0.3716
 9826TIP3    H250894   5.762   3.393  10.552  2.9301 -0.5921  0.8778
 9827TIP3   OH250895   6.173   4.964  11.870 -0.2886 -0.5692  0.2012
 9827TIP3    H150896   6.084   4.990  11.848 -0.3006 -1.5941 -1.0601
 9827TIP3    H250897   6.164   4.911  11.950 -1.0465 -2.0848 -0.8401
 9828TIP3   OH250898   2.158   5.484  13.855 -0.0354  0.0221  0.0349
 9828TIP3    H150899   2.086   5.465  13.795  0.2916 -0.1148 -0.3228
 9828TIP3    H250900   2.116   5.520  13.933 -0.7082 -2.1462  0.7528
 9829TIP3   OH250901   4.941   6.718  15.080  0.3082 -0.0837 -0.3806
 9829TIP3    H150902   4.951   6.806  15.117 -2.0750  0.0659  0.0630
 9829TIP3    H250903   4.935   6.733  14.986 -0.3732  0.2916 -0.2889
 9830TIP3   OH250904   6.203   1.712  17.087 -0.6554 -0.3017 -0.2973
 9830TIP3    H150905   6.205   1.671  17.173 -1.5493 -0.8129 -0.5101
 9830TIP3    H250906   6.121   1.761  17.086  0.8998  2.5278  0.4003
 9831TIP3   OH250907   1.143   5.547  12.604 -0.2412  0.3420 -0.1001
 9831TIP3    H150908   1.176   5.575  12.689 -0.8352 -0.2651  0.3399
 9831TIP3    H250909   1.195   5.469  12.582  0.6449  1.1054 -0.8032
 9832TIP3   OH250910   1.631   0.440   3.937  0.0798 -0.8157  0.1686
 9832TIP3    H150911   1.704   0.439   3.875 -0.6108  0.0574 -0.6788
 9832TIP3    H250912   1.613   0.348   3.953  2.1206 -1.0911  1.3357
 9833TIP3   OH250913   1.686   5.029  17.232 -0.2893 -0.1694  0.6841
 9833TIP3    H150914   1.624   4.984  17.175 -1.6512 -0.3505  2.2560
 9833TIP3    H250915   1.767   4.978  17.225 -1.3760 -2.0882  1.3492
 9834TIP3   OH250916   4.420   3.145  14.944  0.3550  0.2492 -0.1816
 9834TIP3    H150917   4.446   3.129  14.854  0.4617 -1.8670  0.1686
 9834TIP3    H250918   4.330   3.175  14.938  0.3143 -0.0122 -0.9925
 9835TIP3   OH250919   1.478   4.883  17.128 -0.3022 -0.5534 -0.8846
 9835TIP3    H150920   1.450   4.806  17.178 -0.6796  0.0143 -0.1954
 9835TIP3    H250921   1.406   4.944  17.136  1.8892  1.9416  3.0113
 9836TIP3   OH250922   1.632   1.526  13.785 -0.2435  0.0858 -0.3004
 9836TIP3    H150923   1.587   1.470  13.722 -0.6857  0.5795 -0.4396
 9836TIP3    H250924   1.570   1.535  13.858 -0.7701  1.4580 -0.8620
 9837TIP3   OH250925   1.949   3.508  12.827 -0.2090  0.1186 -0.3920
 9837TIP3    H150926   1.902   3.464  12.755 -0.9503  0.3776 -0.0756
 9837TIP3    H250927   1.918   3.598  12.824 -0.5046  0.0560  0.4578
 9838TIP3   OH250928   3.414   4.710   4.816  0.1274 -0.0285 -0.0497
 9838TIP3    H150929   3.470   4.661   4.877  0.4038  0.8370  0.4153
 9838TIP3    H250930   3.353   4.758   4.873 -2.2594 -2.2412 -0.5702
 9839TIP3   OH250931   6.233   3.343  14.641  0.2652 -0.4079 -0.2770
 9839TIP3    H150932   6.151   3.294  14.631  0.0869 -0.6749  1.9258
 9839TIP3    H250933   6.251   3.378  14.554 -2.5402  0.1974 -0.7290
 9840TIP3   OH250934   2.997   4.065  15.606 -0.3650  0.1096  0.2905
 9840TIP3    H150935   3.057   4.127  15.646  0.0504  0.6728 -1.1351
 9840TIP3    H250936   2.910   4.094  15.634 -0.0955  0.5100  0.7277
 9841TIP3   OH250937   4.833   2.752  13.883  0.1690 -0.1451 -0.5988
 9841TIP3    H150938   4.866   2.791  13.801 -0.4287 -0.3690 -0.9501
 9841TIP3    H250939   4.738   2.752  13.873  0.1420 -1.8969 -0.7286
 9842TIP3   OH250940   5.588   0.442  14.063  0.0548  0.3899  0.2507
 9842TIP3    H150941   5.618   0.525  14.100 -1.5011  0.6469  1.0082
 9842TIP3    H250942   5.560   0.390  14.138 -1.3244  0.1567 -0.3881
 9843TIP3   OH250943   2.169   5.081   1.052  0.4984 -0.8529  0.3888
 9843TIP3    H150944   2.231   5.086   0.978  0.7794 -1.3658  0.5851
 9843TIP3    H250945   2.087   5.117   1.017  0.9616  0.0492  0.1902
 9844TIP3   OH250946   0.270   5.091   1.733  0.4424  0.5506 -0.2389
 9844TIP3    H150947   0.273   5.099   1.638 -0.2236  2.3397 -0.1427
 9844TIP3    H250948   0.332   5.157   1.765 -0.0364  0.6119  0.5858
 9845TIP3   OH250949   4.789   2.620   5.051  0.8469 -0.1917  0.0607
 9845TIP3    H150950   4.715   2.575   5.012  1.4457  0.1280 -1.5043
 9845TIP3    H250951   4.754   2.706   5.076  0.7906  0.1356 -1.1045
 9846TIP3   OH250952   3.484   6.646  14.866 -0.1234  0.0453  0.1569
 9846TIP3    H150953   3.423   6.612  14.932  0.9888 -0.6817  0.8443
 9846TIP3    H250954   3.467   6.740  14.865 -0.7680 -0.0490  0.8413
 9847TIP3   OH250955   5.973   3.494   4.513 -0.3099 -0.0009  0.7200
 9847TIP3    H150956   5.968   3.574   4.461  1.9437 -0.3237 -0.1195
 9847TIP3    H250957   6.023   3.433   4.458  0.9287 -0.8467  2.6735
 9848TIP3   OH250958   0.827   3.725  12.787 -0.3326  0.1314  0.3402
 9848TIP3    H150959   0.870   3.641  12.804  0.0465  0.3945  0.7229
 9848TIP3    H250960   0.834   3.773  12.870 -1.8523 -0.0193  0.5787
 9849TIP3   OH250961   6.038   0.515  13.335  0.5924  0.4260 -0.2531
 9849TIP3    H150962   5.956   0.465  13.345 -0.0200  1.0553 -1.8108
 9849TIP3    H250963   6.106   0.448  13.331  0.3792 -0.0603  2.5789
 9850TIP3   OH250964   4.440   3.257  12.476 -0.0168  0.0629  0.4560
 9850TIP3    H150965   4.423   3.290  12.388 -0.2332  0.7114  0.7353
 9850TIP3    H250966   4.520   3.205  12.468 -0.9709 -1.3257 -0.4633
 9851TIP3   OH250967   1.151   6.237  13.423  0.4116 -0.2548 -0.3681
 9851TIP3    H150968   1.127   6.159  13.473 -0.3874 -1.5475 -2.6300
 9851TIP3    H250969   1.186   6.204  13.340 -1.9148  1.7305 -2.3142
 9852TIP3   OH250970   6.361   4.677   4.447 -0.4327  0.1499 -0.2744
 9852TIP3    H150971   6.365   4.680   4.352 -1.5750  0.5214 -0.3284
 9852TIP3    H250972   6.269   4.693   4.468 -0.3989 -0.9331  0.8553
 9853TIP3   OH250973   1.746   5.754  11.257  0.3429 -0.0463 -0.4643
 9853TIP3    H150974   1.688   5.779  11.185  1.3883  1.5498 -0.8160
 9853TIP3    H250975   1.801   5.685  11.221 -0.2809 -0.4732 -0.6235
 9854TIP3   OH250976   6.723   2.039   1.250 -0.5271 -0.1736  0.0527
 9854TIP3    H150977   6.745   2.009   1.339 -0.2666 -2.3069 -0.6609
 9854TIP3    H250978   6.644   2.091   1.261 -1.2074 -1.4010  1.4384
 9855TIP3   OH250979   2.026   1.405   3.867  0.3828 -0.3274 -0.1544
 9855TIP3    H150980   2.037   1.324   3.818 -1.2124  1.1323 -3.1800
 9855TIP3    H250981   2.084   1.468   3.824 -1.0854  1.0203 -0.2605
 9856TIP3   OH250982   6.086   2.250  16.971 -0.4740 -0.0428  0.2013
 9856TIP3    H150983   6.027   2.192  16.922  0.6885 -0.5582 -0.6488
 9856TIP3    H250984   6.174   2.220  16.946  0.1462  1.2958  0.7187
 9857TIP3   OH250985   4.101   5.648  10.818  0.8622 -0.1879 -0.4406
 9857TIP3    H150986   4.133   5.654  10.908 -0.7499  1.4536  0.0863
 9857TIP3    H250987   4.172   5.684  10.765  0.6055  1.8960  0.5373
 9858TIP3   OH250988   0.228   2.606   2.628 -0.5820  0.4504  0.2173
 9858TIP3    H150989   0.205   2.665   2.700 -1.4978 -0.5264  0.7426
 9858TIP3    H250990   0.157   2.543   2.624  0.6033 -0.9187 -0.0266
 9859TIP3   OH250991   0.310   4.157   1.901 -0.6331  0.5912  0.2712
 9859TIP3    H150992   0.301   4.242   1.944  0.6270  0.6858  0.3933
 9859TIP3    H250993   0.267   4.170   1.816  0.8117  1.8427 -0.3198
 9860TIP3   OH250994   0.775   5.039   0.392 -0.0096  0.3700  0.4440
 9860TIP3    H150995   0.728   5.123   0.392 -2.0815 -0.7123 -0.7427
 9860TIP3    H250996   0.821   5.038   0.307  0.7890  0.6636  0.8564
 9861TIP3   OH250997   3.817   5.842   2.862 -0.0538  0.1797 -0.6597
 9861TIP3    H150998   3.728   5.878   2.856 -0.8769 -1.7023 -0.5903
 9861TIP3    H250999   3.831   5.800   2.778  1.7574  2.4461 -1.5733
 9862TIP3   OH251000   5.117   4.409  15.743  0.0650 -0.4182 -0.8085
 9862TIP3    H151001   5.035   4.455  15.758  0.9723  1.1313 -0.2848
 9862TIP3    H251002   5.164   4.463  15.679  0.8375 -1.0456 -0.7955
 9863TIP3   OH251003   3.372   4.369  13.284 -0.0432  0.0914 -0.0581
 9863TIP3    H151004   3.400   4.300  13.343  0.3414 -0.7037 -1.1543
 9863TIP3    H251005   3.315   4.326  13.220 -0.4652  0.9361 -0.2807
 9864TIP3   OH251006   5.426   0.936  17.321  0.4596 -0.1224  0.0153
 9864TIP3    H151007   5.429   0.844  17.296 -0.2726  0.1147 -0.9596
 9864TIP3    H251008   5.419   0.934  17.417 -2.4473 -1.1748 -0.1064
 9865TIP3   OH251009   1.422   1.516  17.143 -0.3914 -0.1275  0.0734
 9865TIP3    H151010   1.350   1.462  17.176 -2.2169  2.3317  0.4342
 9865TIP3    H251011   1.439   1.484  17.055 -1.2541 -1.3779  0.3406
 9866TIP3   OH251012   3.726   5.829  15.263  0.0879 -0.4388 -0.0191
 9866TIP3    H151013   3.808   5.833  15.313 -0.6816 -0.9087  1.3285
 9866TIP3    H251014   3.685   5.914  15.279  1.0924  0.5567 -2.1918
 9867TIP3   OH251015   4.105   0.945  11.415 -0.5068  0.2760 -0.4960
 9867TIP3    H151016   4.177   0.991  11.371 -1.3069  0.0390 -2.1480
 9867TIP3    H251017   4.026   0.987  11.382 -1.1671 -0.3192  0.2884
 9868TIP3   OH251018   2.086   1.787  16.036  0.0556  0.0365  0.1492
 9868TIP3    H151019   2.022   1.809  16.104 -0.6580  0.1096 -0.5329
 9868TIP3    H251020   2.089   1.692  16.036 -1.5810 -0.0710 -1.1557
 9869TIP3   OH251021   4.123   5.265  15.510 -0.0462 -0.0785 -0.2713
 9869TIP3    H151022   4.163   5.181  15.488 -0.5963 -1.2486  2.7692
 9869TIP3    H251023   4.037   5.262  15.468 -0.1301 -1.1367 -0.0616
 9870TIP3   OH251024   4.169   5.222  16.744  0.3505 -0.7565  0.4238
 9870TIP3    H151025   4.112   5.297  16.758  0.3478 -0.6595 -0.0808
 9870TIP3    H251026   4.182   5.219  16.649  0.3524 -1.3862  0.4368
 9871TIP3   OH251027   2.998   0.337   3.612 -0.1931  0.2292 -0.0615
 9871TIP3    H151028   3.015   0.431   3.601  0.0389  0.1123 -0.7240
 9871TIP3    H251029   2.979   0.305   3.524  2.4440 -0.8878 -0.3179
 9872TIP3   OH251030   4.932   5.449  14.137 -0.4066  0.0756  0.0825
 9872TIP3    H151031   4.910   5.422  14.048 -0.6943  0.0587  0.1560
 9872TIP3    H251032   4.889   5.534  14.147  1.2122  0.9956 -0.4460
 9873TIP3   OH251033   4.126   5.594  15.623  0.6594  0.3159  0.5455
 9873TIP3    H151034   4.073   5.515  15.627  1.8978 -0.5897 -0.2885
 9873TIP3    H251035   4.079   5.657  15.678 -2.8512  0.5523 -2.3224
 9874TIP3   OH251036   0.594   1.518   0.631  0.0348 -0.0085 -0.0126
 9874TIP3    H151037   0.543   1.585   0.584 -0.1672  0.0554  0.2982
 9874TIP3    H251038   0.685   1.538   0.609  0.0107  0.6765  0.4732
 9875TIP3   OH251039   3.051   1.148  17.114 -0.6335  0.8322 -0.1814
 9875TIP3    H151040   3.068   1.208  17.041 -2.4035  0.9479 -0.5386
 9875TIP3    H251041   3.005   1.074  17.074 -1.4349  0.7988  0.7707
 9876TIP3   OH251042   0.004   3.491   0.763  0.0641 -0.2843  0.2830
 9876TIP3    H151043   0.098   3.480   0.745  0.1601  1.1876 -0.2378
 9876TIP3    H251044   0.001   3.559   0.830 -0.6398  0.0478 -0.0765
 9877TIP3   OH251045   5.991   0.608   1.063  0.2354  0.2372 -0.4831
 9877TIP3    H151046   6.056   0.615   0.993  0.4683 -1.3042 -0.4406
 9877TIP3    H251047   5.908   0.589   1.017  0.2432 -0.0069 -0.3975
 9878TIP3   OH251048   1.496   1.965   2.257  0.1257  0.3581 -0.0929
 9878TIP3    H151049   1.551   1.890   2.280  0.1040  0.1515 -0.6978
 9878TIP3    H251050   1.550   2.042   2.278  0.7868  0.1581 -0.9834
 9879TIP3   OH251051   6.206   4.480  13.237  0.8149  0.0184 -0.0644
 9879TIP3    H151052   6.186   4.389  13.218  0.9681 -0.1357  0.4937
 9879TIP3    H251053   6.238   4.516  13.153 -1.4966  0.2271 -0.9353
 9880TIP3   OH251054   1.292   6.489   3.451  0.1310  0.3405 -0.3747
 9880TIP3    H151055   1.352   6.520   3.384  1.0605 -1.0720 -0.2504
 9880TIP3    H251056   1.327   6.403   3.476 -1.5904 -0.2419  0.1613
 9881TIP3   OH251057   0.966   6.550   4.357  0.1184  0.9594 -0.2592
 9881TIP3    H151058   0.938   6.613   4.291  3.0647  2.1296 -0.5199
 9881TIP3    H251059   1.033   6.498   4.313  0.5661  0.2823  1.1620
 9882TIP3   OH251060   0.128   5.264   6.476 -0.0939 -0.7480 -0.1968
 9882TIP3    H151061   0.073   5.259   6.554 -0.6186 -1.8492 -0.6158
 9882TIP3    H251062   0.176   5.181   6.475  1.1672 -0.0492 -0.1564
 9883TIP3   OH251063   6.451   3.093  15.976 -0.0767 -0.2064 -0.2278
 9883TIP3    H151064   6.511   3.164  15.954  0.3818 -0.3573  0.5069
 9883TIP3    H251065   6.413   3.067  15.892  0.4935  0.2407 -0.6305
 9884TIP3   OH251066   0.705   2.700   4.526 -0.1758  0.6220  0.0804
 9884TIP3    H151067   0.651   2.720   4.603 -0.1938 -4.2067  1.6386
 9884TIP3    H251068   0.795   2.702   4.559 -0.1719 -1.2684  0.2972
 9885TIP3   OH251069   1.860   4.536   4.380 -0.1834 -0.4848 -0.0538
 9885TIP3    H151070   1.783   4.545   4.437 -0.5166 -0.2083 -0.5430
 9885TIP3    H251071   1.913   4.468   4.422 -0.1349  0.1198  0.9111
 9886TIP3   OH251072   2.841   5.363   0.026  0.7863 -0.0454 -0.1374
 9886TIP3    H151073   2.799   5.407   0.100  0.2235  1.3158 -1.2166
 9886TIP3    H251074   2.770   5.314  -0.015  1.3553 -1.8616  0.9031
 9887TIP3   OH251075   1.057   3.923   1.353 -0.0064  0.4677 -0.1436
 9887TIP3    H151076   0.987   3.862   1.329 -0.3327  1.8347 -3.2338
 9887TIP3    H251077   1.111   3.874   1.415 -1.2390 -2.2762 -1.0399
 9888TIP3   OH251078   6.584   3.313   4.034 -0.1275 -0.0402 -0.0549
 9888TIP3    H151079   6.674   3.286   4.055 -0.3549 -0.2699  0.6468
 9888TIP3    H251080   6.530   3.267   4.098 -0.8531 -0.7287 -1.1369
 9889TIP3   OH251081   4.171   0.335  10.629 -0.6729 -0.3660 -0.7863
 9889TIP3    H151082   4.114   0.398  10.671 -0.4199  0.0568 -1.0649
 9889TIP3    H251083   4.163   0.256  10.681 -1.8352 -0.4477 -1.0628
 9890TIP3   OH251084   1.384   3.209  17.369 -0.5455 -0.0962  0.3106
 9890TIP3    H151085   1.382   3.247  17.456  0.5388  0.1450  0.2395
 9890TIP3    H251086   1.319   3.139  17.372  0.0259 -0.5990  1.5458
 9891TIP3   OH251087   0.879   1.999   1.334  0.3890 -0.3649  0.5375
 9891TIP3    H151088   0.792   1.959   1.343 -0.1645  1.1967  3.1843
 9891TIP3    H251089   0.938   1.939   1.379 -0.0933  0.6013  2.5759
 9892TIP3   OH251090   5.428   6.394  11.811  0.0856 -0.1153  0.3024
 9892TIP3    H151091   5.358   6.458  11.826  1.0426  1.2570 -0.8163
 9892TIP3    H251092   5.486   6.402  11.887  1.0994  1.6251 -0.5983
 9893TIP3   OH251093   2.781   4.427  15.094 -0.0259 -0.1083 -0.2936
 9893TIP3    H151094   2.847   4.460  15.033 -0.2860  0.6784 -0.1689
 9893TIP3    H251095   2.728   4.504  15.115 -0.7001 -0.6363 -0.0385
 9894TIP3   OH251096   1.537   1.529   6.375 -0.2458 -0.3004 -0.9716
 9894TIP3    H151097   1.596   1.542   6.449 -2.4530 -1.0454  1.0271
 9894TIP3    H251098   1.523   1.617   6.339  0.5214  0.1286 -0.2320
 9895TIP3   OH251099   6.245   4.315   2.575  0.1585 -0.0660 -0.1492
 9895TIP3    H151100   6.188   4.311   2.498 -0.8802 -0.9341  0.6389
 9895TIP3    H251101   6.250   4.408   2.596  0.3829  0.1752 -1.2026
 9896TIP3   OH251102   2.014   5.166   2.674  0.2301  0.4707  0.4695
 9896TIP3    H151103   2.045   5.240   2.622  0.5828  1.3309  1.8447
 9896TIP3    H251104   2.060   5.175   2.758 -1.3583 -0.0512  1.4391
 9897TIP3   OH251105   0.823   3.688   4.273 -0.2487 -0.0122  1.0979
 9897TIP3    H151106   0.831   3.717   4.364  0.5554 -0.4398  1.1694
 9897TIP3    H251107   0.734   3.714   4.248  0.2247  1.9605  1.3264
 9898TIP3   OH251108   4.511   5.495  14.055  0.2840 -0.2040  0.4513
 9898TIP3    H151109   4.446   5.440  14.013  0.4897 -0.9585  1.0955
 9898TIP3    H251110   4.511   5.466  14.146  0.6049  0.6675  0.7351
 9899TIP3   OH251111   1.474   6.288  12.352 -0.0066  0.0431 -0.2799
 9899TIP3    H151112   1.427   6.323  12.428 -0.4750 -0.1432 -0.4812
 9899TIP3    H251113   1.554   6.251  12.389  0.2395  0.8396  0.0005
 9900TIP3   OH251114   3.846   5.797   1.823  0.3959  0.3562  0.1681
 9900TIP3    H151115   3.839   5.772   1.915  1.9325 -3.3339 -0.5249
 9900TIP3    H251116   3.789   5.873   1.814 -0.4046  0.4041  3.9675
 9901TIP3   OH251117   5.952   5.105  15.542 -0.5411 -0.0212  0.1602
 9901TIP3    H151118   5.858   5.099  15.557 -0.9650  0.7455 -1.8467
 9901TIP3    H251119   5.981   5.181  15.592 -1.1369  0.1908  0.1846
 9902TIP3   OH251120   1.470   2.031   3.909 -0.1289  0.1331 -0.4171
 9902TIP3    H151121   1.412   1.955   3.902  3.6072 -3.0798  0.4401
 9902TIP3    H251122   1.494   2.050   3.818 -0.3567 -0.3201 -0.5790
 9903TIP3   OH251123   3.361   2.363  12.165 -0.1328 -0.1169 -0.6496
 9903TIP3    H151124   3.358   2.308  12.244 -0.0054 -1.3534 -1.4737
 9903TIP3    H251125   3.339   2.451  12.196  0.9140 -0.3783  0.9314
 9904TIP3   OH251126   5.540   3.463  16.340 -0.2896  0.6304  0.0798
 9904TIP3    H151127   5.481   3.388  16.344 -0.2579  0.6503  1.7205
 9904TIP3    H251128   5.627   3.427  16.357 -0.2206  0.9627  0.4807
 9905TIP3   OH251129   5.732   3.404   0.686  0.1110  0.2629  0.1627
 9905TIP3    H151130   5.761   3.486   0.645 -0.1158  0.4531  0.3745
 9905TIP3    H251131   5.810   3.348   0.685  0.6033  0.9008  1.0594
 9906TIP3   OH251132   0.749   0.125  14.009 -0.0518  0.0634  0.2027
 9906TIP3    H151133   0.771   0.101  13.919 -1.8106  0.3466 -0.3431
 9906TIP3    H251134   0.829   0.162  14.044  0.1684  1.8466 -1.9342
 9907TIP3   OH251135   3.057   6.550   1.286  0.2439 -0.0595  0.3482
 9907TIP3    H151136   3.103   6.561   1.202  0.2434  1.5018  0.5222
 9907TIP3    H251137   2.978   6.500   1.263 -0.3344  1.3169 -0.8099
 9908TIP3   OH251138   0.900   1.022   5.087  0.5831 -0.5999 -0.6416
 9908TIP3    H151139   0.939   1.082   5.150 -0.5359 -1.8347  1.3434
 9908TIP3    H251140   0.974   0.985   5.040  1.4604  0.3765 -0.0746
 9909TIP3   OH251141   4.255   3.600   1.460 -0.1358 -0.2935  0.0136
 9909TIP3    H151142   4.202   3.624   1.536  0.3207 -0.3584  0.3577
 9909TIP3    H251143   4.201   3.625   1.384 -0.0430  0.9959  0.3496
 9910TIP3   OH251144   2.710   4.593  16.726  0.0022  0.4381  0.3270
 9910TIP3    H151145   2.786   4.650  16.716 -0.6764  1.0809 -1.5664
 9910TIP3    H251146   2.700   4.551  16.640 -0.5795 -1.1940  1.1531
 9911TIP3   OH251147   1.649   5.279   4.630 -0.1992  0.3794  0.2019
 9911TIP3    H151148   1.566   5.266   4.675  0.2451 -0.9053  0.7041
 9911TIP3    H251149   1.666   5.373   4.637 -2.1728  0.8634 -0.9872
 9912TIP3   OH251150   3.759   5.346   1.185 -0.3219 -0.4674  0.1636
 9912TIP3    H151151   3.737   5.392   1.104  0.7274 -0.2099  0.0108
 9912TIP3    H251152   3.773   5.415   1.250 -1.0213 -0.6658  0.5380
 9913TIP3   OH251153   3.339   3.294   4.447  0.0224  0.4345  0.4940
 9913TIP3    H151154   3.296   3.375   4.474  1.2656  1.0736  0.6252
 9913TIP3    H251155   3.349   3.302   4.352 -1.2428 -0.2795  0.2750
 9914TIP3   OH251156   4.675   4.652   1.889  0.1069  1.2005  0.6409
 9914TIP3    H151157   4.664   4.744   1.868  0.9013  1.0891 -0.3325
 9914TIP3    H251158   4.689   4.650   1.984  0.1344  2.0773  0.6597
 9915TIP3   OH251159   6.304   0.960  16.789  0.7186  0.1022  0.2845
 9915TIP3    H151160   6.300   1.049  16.753 -0.4011 -0.3866 -0.8647
 9915TIP3    H251161   6.349   0.909  16.722 -2.3653 -1.0596 -1.0942
 9916TIP3   OH251162   1.426   0.683   3.960  0.7175  0.1586  0.4572
 9916TIP3    H151163   1.485   0.756   3.938  0.1605  0.0466 -1.6053
 9916TIP3    H251164   1.484   0.606   3.965  0.8706  0.1707 -0.8453
 9917TIP3   OH251165   6.179   0.241  17.243  0.0003  0.3553 -0.0494
 9917TIP3    H151166   6.123   0.248  17.321  0.6352 -0.5880  0.5112
 9917TIP3    H251167   6.265   0.217  17.278 -0.0694 -1.7003 -1.1328
 9918TIP3   OH251168   6.076   2.891   0.289  0.0144 -0.4256  0.8881
 9918TIP3    H151169   6.155   2.927   0.247 -1.5125  1.6655 -0.4091
 9918TIP3    H251170   6.097   2.799   0.305  2.8596  0.1574  1.0258
 9919TIP3   OH251171   3.472   1.821   6.548  0.5151  0.1295  0.1377
 9919TIP3    H151172   3.415   1.750   6.520  2.4309 -1.4801  0.0333
 9919TIP3    H251173   3.501   1.795   6.636  2.3762 -0.0289 -0.4689
 9920TIP3   OH251174   2.760   1.809  11.911  0.2929 -0.2459 -0.3190
 9920TIP3    H151175   2.787   1.767  11.829 -0.4603 -1.1524 -0.1295
 9920TIP3    H251176   2.805   1.759  11.979  0.3627  0.0515 -0.1448
 9921TIP3   OH251177   1.935   4.689  12.846 -0.0064  0.2016 -0.3606
 9921TIP3    H151178   1.859   4.638  12.870 -0.5487  0.8506 -0.6617
 9921TIP3    H251179   2.004   4.660  12.905 -0.8692  0.6319  0.8940
 9922TIP3   OH251180   3.568   4.220   5.743  0.4265  0.6405  0.8025
 9922TIP3    H151181   3.597   4.292   5.687  0.0747  0.1015 -0.1073
 9922TIP3    H251182   3.475   4.208   5.721 -0.1668  1.4607  2.6885
 9923TIP3   OH251183   1.524   5.981  12.984 -0.9766 -0.6791  0.3407
 9923TIP3    H151184   1.558   6.050  13.042 -2.0493  0.3984 -0.2790
 9923TIP3    H251185   1.577   5.904  13.006  3.2715  1.2415 -1.8315
 9924TIP3   OH251186   3.073   1.246  11.729  0.6092 -0.0877  0.1201
 9924TIP3    H151187   3.015   1.305  11.776 -0.1647 -0.6571 -0.0984
 9924TIP3    H251188   3.060   1.268  11.637 -0.0771 -0.9365  0.0047
 9925TIP3   OH251189   1.719   4.141   5.721 -0.1017  0.2930 -0.6888
 9925TIP3    H151190   1.627   4.117   5.726  0.0788 -0.5707 -1.3794
 9925TIP3    H251191   1.732   4.202   5.794 -0.9507 -0.4655  0.1196
 9926TIP3   OH251192   5.796   4.453   0.856 -0.2670 -0.2360  0.5796
 9926TIP3    H151193   5.851   4.497   0.791 -0.9629  0.5881  0.5362
 9926TIP3    H251194   5.707   4.473   0.830 -0.6658 -2.5312 -0.0318
 9927TIP3   OH251195   0.555   1.394   4.387  0.4985 -0.7908 -0.4087
 9927TIP3    H151196   0.637   1.354   4.359  1.9729  2.6225 -1.4969
 9927TIP3    H251197   0.579   1.446   4.463 -0.6693  0.1359 -0.6496
 9928TIP3   OH251198   2.371   5.777  12.757  0.1448  0.2216  0.2255
 9928TIP3    H151199   2.447   5.812  12.711 -1.6336  0.7563 -2.5208
 9928TIP3    H251200   2.349   5.696  12.711 -2.0739  1.0814 -0.3875
 9929TIP3   OH251201   2.966   2.294  13.256 -0.8739  0.9085  0.3976
 9929TIP3    H151202   2.960   2.373  13.203 -0.7972  0.7698  0.1794
 9929TIP3    H251203   2.875   2.274  13.280 -0.8187  1.5139  1.1334
 9930TIP3   OH251204   2.854   4.286  12.841  0.3458  0.2349  0.2574
 9930TIP3    H151205   2.805   4.258  12.918  1.9825 -0.1218  1.2335
 9930TIP3    H251206   2.890   4.205  12.805  0.6255  0.5245 -0.1273
 9931TIP3   OH251207   6.734   5.094   0.504 -0.3211 -0.0560  0.3203
 9931TIP3    H151208   6.639   5.093   0.506 -0.3563 -2.0247 -0.2871
 9931TIP3    H251209   6.759   5.008   0.469  1.7153 -0.2704  2.0615
 9932TIP3   OH251210   1.570   3.406  16.061  0.4661  0.0998  0.0120
 9932TIP3    H151211   1.486   3.436  16.026 -0.1440 -1.3466  0.1613
 9932TIP3    H251212   1.589   3.466  16.133 -1.0161 -0.2182  0.7017
 9933TIP3   OH251213   1.524   3.333  11.887  0.5830 -0.3998  0.2185
 9933TIP3    H151214   1.615   3.307  11.893  1.3015  1.3569 -1.8385
 9933TIP3    H251215   1.506   3.376  11.971  1.8199 -0.2497  0.4183
 9934TIP3   OH251216   3.644   6.277   0.003  0.6092  0.2669  0.0699
 9934TIP3    H151217   3.646   6.358  -0.048  0.2727 -1.4250 -2.8654
 9934TIP3    H251218   3.736   6.255   0.017  0.8168 -0.4158 -1.9912
 9935TIP3   OH251219   2.508   1.206  16.997 -0.0259  0.5304 -0.2511
 9935TIP3    H151220   2.530   1.163  17.079 -1.3432  1.8456  0.8373
 9935TIP3    H251221   2.562   1.285  16.995 -1.0483  1.2610  0.0973
 9936TIP3   OH251222   0.754   3.589   0.857  0.4349 -0.0297 -0.0908
 9936TIP3    H151223   0.734   3.661   0.796  0.1811  0.6644  0.7864
 9936TIP3    H251224   0.835   3.617   0.901 -0.6454  0.6301  1.5785
 9937TIP3   OH251225   1.591   2.215  14.302  0.0926 -0.4682  0.4514
 9937TIP3    H151226   1.630   2.169  14.377  0.8903 -0.4673  0.0520
 9937TIP3    H251227   1.663   2.224  14.240 -0.5988 -0.6091 -0.3862
 9938TIP3   OH251228   1.478   0.395  14.501 -0.1333  0.3303  0.5026
 9938TIP3    H151229   1.417   0.347  14.556 -0.5037 -0.2490 -0.4005
 9938TIP3    H251230   1.497   0.475  14.551  0.4186 -0.6709  1.9708
 9939TIP3   OH251231   6.534   1.453   0.959  0.2109 -0.4861  0.6731
 9939TIP3    H151232   6.527   1.530   1.015 -0.8766  0.9621 -1.3330
 9939TIP3    H251233   6.627   1.449   0.935  0.3381 -0.0060  1.0677
 9940TIP3   OH251234   1.409   0.944  14.905  0.0929 -0.2744 -0.4302
 9940TIP3    H151235   1.314   0.951  14.915  0.2476 -0.0208  1.2740
 9940TIP3    H251236   1.429   0.999  14.829 -0.8135  2.5623  1.2151
 9941TIP3   OH251237   3.282   0.610   3.868  0.1377  0.2665  0.1524
 9941TIP3    H151238   3.267   0.647   3.781 -1.5180  0.3021  0.4278
 9941TIP3    H251239   3.368   0.568   3.862  0.1782  0.5373 -1.4046
 9942TIP3   OH251240   3.144   5.270   0.864  0.0723 -0.3300 -0.2242
 9942TIP3    H151241   3.225   5.241   0.822  2.0272  1.7650  1.8334
 9942TIP3    H251242   3.139   5.364   0.846 -2.0176 -0.4198 -0.4013
 9943TIP3   OH251243   2.076   2.173  15.488  0.0952 -0.2107 -0.6559
 9943TIP3    H151244   2.143   2.142  15.549 -0.0486  0.4907 -0.1132
 9943TIP3    H251245   2.106   2.260  15.463 -0.3626 -0.0898 -0.7891
 9944TIP3   OH251246   2.761   1.738  13.120 -0.2617 -0.0353 -0.2263
 9944TIP3    H151247   2.738   1.707  13.032  0.0989  1.3961 -0.8400
 9944TIP3    H251248   2.744   1.832  13.118  0.1735  0.0899  1.1042
 9945TIP3   OH251249   3.169   2.592   5.875  0.2136  0.1855 -0.4311
 9945TIP3    H151250   3.236   2.617   5.939  1.8021 -0.1444 -1.8862
 9945TIP3    H251251   3.146   2.673   5.831  0.0608  0.2106 -0.3058
 9946TIP3   OH251252   0.747   0.902  16.727 -0.4734  0.3819 -0.8829
 9946TIP3    H151253   0.732   0.982  16.677  0.1154  0.0566 -1.5931
 9946TIP3    H251254   0.767   0.835  16.662  3.5375  0.6160 -0.2067
 9947TIP3   OH251255   5.142   0.756   4.685 -0.2360  0.0216 -0.6162
 9947TIP3    H151256   5.091   0.777   4.763 -0.3683 -0.4828 -0.5659
 9947TIP3    H251257   5.230   0.737   4.718 -0.5273 -1.1570 -0.4746
 9948TIP3   OH251258   4.311   6.079  12.764 -0.2037  0.1567  0.1148
 9948TIP3    H151259   4.407   6.076  12.769 -0.1860 -1.4496 -0.4929
 9948TIP3    H251260   4.291   6.051  12.674 -1.2364  1.1924 -0.0095
 9949TIP3   OH251261   6.426   5.503  13.453 -0.2426  0.1221 -0.3252
 9949TIP3    H151262   6.490   5.458  13.398 -0.7029  0.0765 -0.8396
 9949TIP3    H251263   6.351   5.518  13.395 -1.9774 -2.6003  0.9917
 9950TIP3   OH251264   3.676   0.970   6.285  0.0709  0.1967  0.2237
 9950TIP3    H151265   3.724   1.045   6.251 -0.8717  1.2655  1.1559
 9950TIP3    H251266   3.593   0.970   6.237  0.8634 -1.5398 -1.2669
 9951TIP3   OH251267   3.280   0.044  11.349  0.3530  0.4070 -0.3591
 9951TIP3    H151268   3.345   0.104  11.386  2.0194 -0.8102 -1.2072
 9951TIP3    H251269   3.323   0.006  11.273 -2.2329  1.3529 -2.4692
 9952TIP3   OH251270   2.518   1.578   4.158  0.2963 -0.5257  0.0951
 9952TIP3    H151271   2.465   1.529   4.221  1.4586  0.0804  1.5903
 9952TIP3    H251272   2.454   1.629   4.108 -0.7616 -2.0495 -0.1752
 9953TIP3   OH251273   0.886   3.667  12.500  0.1359 -0.0184  0.5991
 9953TIP3    H151274   0.859   3.664  12.592  0.9079 -0.4649  0.8237
 9953TIP3    H251275   0.824   3.612  12.454 -0.0104 -0.1241  0.9236
 9954TIP3   OH251276   0.265   6.217  11.083  0.0412 -0.8309  0.5136
 9954TIP3    H151277   0.202   6.175  11.024 -0.4638 -0.6979  0.9603
 9954TIP3    H251278   0.308   6.144  11.128  2.6119 -1.1666 -2.1467
 9955TIP3   OH251279   3.755   1.440  14.142 -0.0742  0.4588 -0.2981
 9955TIP3    H151280   3.794   1.437  14.055  2.4018 -4.0705  0.6562
 9955TIP3    H251281   3.808   1.504  14.190  0.5276  0.7318 -1.2906
 9956TIP3   OH251282   4.428   2.233   3.167 -0.1041  0.2678 -1.0972
 9956TIP3    H151283   4.491   2.163   3.148  0.7865  0.9826 -0.8371
 9956TIP3    H251284   4.482   2.306   3.197 -1.1901  0.3370  0.8008
 9957TIP3   OH251285   2.064   5.853  14.840  0.7851  0.2705 -0.4619
 9957TIP3    H151286   2.027   5.802  14.912  2.1420 -0.2623 -0.1108
 9957TIP3    H251287   2.008   5.930  14.835 -1.0654 -1.0207 -0.7381
 9958TIP3   OH251288   5.932   4.079   5.876 -0.0397 -0.1165 -0.4708
 9958TIP3    H151289   5.987   4.102   5.951 -2.1372  0.2163  1.0395
 9958TIP3    H251290   5.970   4.129   5.803  2.3330 -0.7984  0.1998
 9959TIP3   OH251291   2.341   3.585  12.588 -0.2172  0.1375  0.1617
 9959TIP3    H151292   2.380   3.500  12.608  0.7903  0.5087 -0.1949
 9959TIP3    H251293   2.248   3.573  12.607  0.2610 -0.3269  2.4532
 9960TIP3   OH251294   4.924   2.540  15.745  0.2152  0.0222 -0.1911
 9960TIP3    H151295   4.923   2.455  15.790 -2.2301  0.0320 -0.1015
 9960TIP3    H251296   4.899   2.520  15.655 -1.5251  0.7474  0.1054
 9961TIP3   OH251297   5.725   1.643  12.637  0.4976  0.0741 -0.1386
 9961TIP3    H151298   5.705   1.707  12.706  0.5677  1.9305 -1.7447
 9961TIP3    H251299   5.818   1.657  12.618  0.6549 -0.9144 -0.1475
 9962TIP3   OH251300   2.385   0.467  12.472  0.0889 -0.5934  0.2780
 9962TIP3    H151301   2.370   0.559  12.494  0.7765 -0.3686 -0.1455
 9962TIP3    H251302   2.319   0.419  12.521  0.3822  0.0461  1.3239
 9963TIP3   OH251303   2.365   0.777  13.596 -0.0787  0.1108 -0.4952
 9963TIP3    H151304   2.335   0.707  13.655 -1.3260  0.8458 -0.2024
 9963TIP3    H251305   2.358   0.739  13.509 -0.4304 -0.2528 -0.3168
 9964TIP3   OH251306   2.791   1.933   2.475  0.0046 -0.2265  0.1211
 9964TIP3    H151307   2.716   1.984   2.443 -0.1309 -1.1251 -1.0745
 9964TIP3    H251308   2.834   1.902   2.396  1.0845 -0.5424  0.8136
 9965TIP3   OH251309   4.518   5.211   3.944  0.3408 -0.0220  0.3048
 9965TIP3    H151310   4.543   5.120   3.928 -2.4098 -1.1034  1.4701
 9965TIP3    H251311   4.508   5.248   3.856  0.0301 -1.3191 -0.2314
 9966TIP3   OH251312   6.345   4.643  11.678  0.0904  0.1403  0.4882
 9966TIP3    H151313   6.349   4.732  11.642  0.5030 -1.0204 -2.6114
 9966TIP3    H251314   6.252   4.625  11.689 -0.1468  0.0881 -1.3603
 9967TIP3   OH251315   0.040   5.137   0.796 -0.1962  0.5585  0.2111
 9967TIP3    H151316   0.004   5.141   0.708  0.3226  0.2932 -0.0124
 9967TIP3    H251317   0.048   5.044   0.815  0.1062  0.6151  0.3696
 9968TIP3   OH251318   3.083   1.126  11.451  0.1879  0.0314  0.4423
 9968TIP3    H151319   3.106   1.217  11.431 -0.7329  0.2236  0.2113
 9968TIP3    H251320   3.167   1.084  11.470  0.8131  0.5426 -1.0094
 9969TIP3   OH251321   6.704   0.827   3.819 -0.2112  0.7149 -0.4983
 9969TIP3    H151322   6.648   0.869   3.884  0.0641 -0.6342  0.6365
 9969TIP3    H251323   6.673   0.737   3.815  1.0626  0.2782 -0.8021
 9970TIP3   OH251324   6.138   4.174  12.665 -0.0778  0.8578  0.0110
 9970TIP3    H151325   6.068   4.208  12.721 -1.7896  0.7350 -1.9053
 9970TIP3    H251326   6.127   4.222  12.582  0.8008 -0.6519 -1.0179
 9971TIP3   OH251327   6.097   1.096   4.839  0.3043  0.0275  0.3211
 9971TIP3    H151328   6.065   1.185   4.854  0.2514  0.0106  0.3083
 9971TIP3    H251329   6.164   1.105   4.771 -0.9069 -0.1698 -0.9358
 9972TIP3   OH251330   5.106   4.153   4.839  0.2862 -0.2973  0.1334
 9972TIP3    H151331   5.106   4.132   4.745  0.4598 -2.2758  0.5194
 9972TIP3    H251332   5.199   4.167   4.860  0.3097 -0.4048  0.1046
 9973TIP3   OH251333   0.485   3.000   5.172 -0.7106  0.1333  0.0931
 9973TIP3    H151334   0.507   2.914   5.137  0.9296 -0.0234  1.3965
 9973TIP3    H251335   0.401   2.988   5.215  0.3199 -1.3232  1.8264
 9974TIP3   OH251336   4.029   0.622   1.474 -0.3356  0.1558 -0.5495
 9974TIP3    H151337   3.964   0.672   1.424 -0.6575  0.1684 -0.1298
 9974TIP3    H251338   4.112   0.641   1.431 -0.7932 -1.2303 -2.2019
 9975TIP3   OH251339   4.929   1.423   6.300  0.2471 -0.7585  0.9967
 9975TIP3    H151340   5.007   1.368   6.290  0.1881 -0.6413 -0.2839
 9975TIP3    H251341   4.855   1.362   6.294  0.0831 -0.4131 -2.6631
 9976TIP3   OH251342   2.991   6.293   2.961  0.2275  0.1310 -0.3455
 9976TIP3    H151343   2.972   6.383   2.933 -0.0256  0.3863  0.5808
 9976TIP3    H251344   3.039   6.304   3.043  0.2397 -0.5822 -0.2534
 9977TIP3   OH251345   5.140   3.768   2.461 -0.1165  0.7101 -0.1843
 9977TIP3    H151346   5.108   3.703   2.399 -0.8037  1.6023 -0.7866
 9977TIP3    H251347   5.213   3.811   2.416 -0.1247  0.8402 -0.0748
 9978TIP3   OH251348   4.353   5.411   0.368  0.6511 -0.5318 -0.0858
 9978TIP3    H151349   4.324   5.325   0.398  1.2653 -1.1488 -1.1850
 9978TIP3    H251350   4.316   5.420   0.281 -1.6240  1.4968  0.9614
 9979TIP3   OH251351   5.762   1.325  13.437 -0.3922 -0.6385  0.1021
 9979TIP3    H151352   5.834   1.388  13.440 -0.3483 -0.7159  0.8368
 9979TIP3    H251353   5.741   1.309  13.529 -0.3949 -1.7054 -0.0760
 9980TIP3   OH251354   6.284   2.245   2.430  0.3772  0.2423  0.4167
 9980TIP3    H151355   6.324   2.160   2.408 -2.1158 -0.8817 -0.0981
 9980TIP3    H251356   6.317   2.305   2.363  0.3397 -0.8973 -0.6494
 9981TIP3   OH251357   0.119   0.066   5.348 -0.3320 -0.1657 -0.0852
 9981TIP3    H151358   0.053   0.055   5.279 -0.0500 -0.6999 -0.2734
 9981TIP3    H251359   0.128  -0.021   5.386  2.2665 -0.7952 -1.8877
 9982TIP3   OH251360   4.166   2.918  16.419  0.1310  0.1967  0.6183
 9982TIP3    H151361   4.071   2.919  16.407  0.2083 -0.7323 -0.1696
 9982TIP3    H251362   4.201   2.945  16.333  0.5810  1.0292  1.0439
 9983TIP3   OH251363   6.144   2.989  12.751  0.2479  0.5932  0.1535
 9983TIP3    H151364   6.079   2.920  12.737  1.3580 -0.7956  1.4825
 9983TIP3    H251365   6.111   3.037  12.827  0.4893  0.2093  0.5083
 9984TIP3   OH251366   3.075   2.695   6.147 -0.0544 -0.1932  0.0401
 9984TIP3    H151367   3.170   2.706   6.151  0.1108 -1.7299  2.6175
 9984TIP3    H251368   3.061   2.602   6.166 -2.0855 -0.1197 -0.7972
 9985TIP3   OH251369   0.706   1.494   5.713 -0.0503 -0.3330  0.2082
 9985TIP3    H151370   0.672   1.583   5.723  0.2366 -0.3529  1.4365
 9985TIP3    H251371   0.742   1.492   5.624 -0.0314  0.7893  0.1835
 9986TIP3   OH251372   1.836   6.655  12.664 -0.6907  0.0258 -0.0512
 9986TIP3    H151373   1.927   6.663  12.691 -0.7151  1.5660 -0.3262
 9986TIP3    H251374   1.838   6.599  12.587 -0.0709 -0.5713  0.3993
 9987TIP3   OH251375   1.319   2.258   3.550  0.1727 -0.0121 -0.0916
 9987TIP3    H151376   1.366   2.298   3.624 -0.6117  0.4113  0.1806
 9987TIP3    H251377   1.359   2.171   3.541 -0.3430 -0.4258  1.4171
 9988TIP3   OH251378   5.623   1.169  14.702 -0.2490 -0.9021 -0.8717
 9988TIP3    H151379   5.583   1.092  14.743 -0.6792 -0.3308 -0.2253
 9988TIP3    H251380   5.553   1.233  14.696 -0.1435 -0.8752 -2.2868
 9989TIP3   OH251381   0.384   0.389  12.188  0.8790  0.0250 -0.1935
 9989TIP3    H151382   0.373   0.360  12.279 -0.8976 -1.3891 -0.8082
 9989TIP3    H251383   0.319   0.458  12.177  1.1684  0.2730 -0.3820
 9990TIP3   OH251384   1.756   5.635  17.311  0.2106  0.3569  0.0390
 9990TIP3    H151385   1.708   5.706  17.270 -0.6468 -0.9130 -1.2482
 9990TIP3    H251386   1.689   5.569  17.331  0.6422  0.6917  3.0940
 9991TIP3   OH251387   4.789   4.295  16.333  0.2515 -0.1800 -0.8529
 9991TIP3    H151388   4.705   4.329  16.363  0.7515  0.7905 -0.5057
 9991TIP3    H251389   4.795   4.208  16.372 -0.0374  0.2405  0.1649
 9992TIP3   OH251390   1.229   6.624   2.396 -0.0349 -0.8282 -0.4912
 9992TIP3    H151391   1.201   6.543   2.438 -2.2160  0.6665  1.1902
 9992TIP3    H251392   1.192   6.620   2.308 -2.4542 -0.6008  0.4367
 9993TIP3   OH251393   0.460   1.440   2.526 -0.5085 -0.5166 -0.0084
 9993TIP3    H151394   0.424   1.480   2.605  2.3724 -1.4996  1.9603
 9993TIP3    H251395   0.432   1.349   2.529 -1.1895 -0.3419 -0.6837
 9994TIP3   OH251396   3.505   0.109  10.967 -0.1522  0.4815 -0.5393
 9994TIP3    H151397   3.416   0.082  10.941 -0.0242  0.0459 -0.5374
 9994TIP3    H251398   3.541   0.149  10.888 -0.2003  0.2651 -0.6746
 9995TIP3   OH251399   6.485   5.576   1.693  0.6294  0.3944  0.0088
 9995TIP3    H151400   6.472   5.554   1.785  2.3337  1.4306  0.5372
 9995TIP3    H251401   6.430   5.514   1.646 -0.4451 -0.0281  1.7154
 9996TIP3   OH251402   1.913   6.187   4.732 -0.6052 -0.7265 -0.3432
 9996TIP3    H151403   1.913   6.161   4.640 -2.0676 -0.3486 -0.4738
 9996TIP3    H251404   1.832   6.237   4.743  0.0997  0.1904  0.8908
 9997TIP3   OH251405   1.323   5.332  17.173 -0.2270 -0.2119  0.3424
 9997TIP3    H151406   1.309   5.242  17.143  1.7316 -0.4186 -0.1003
 9997TIP3    H251407   1.416   5.336  17.196 -0.1814  1.7782  0.0517
 9998TIP3   OH251408   0.797   3.057   4.497 -0.0481 -0.1219  0.0790
 9998TIP3    H151409   0.870   3.114   4.522  0.2356 -0.3305 -0.2655
 9998TIP3    H251410   0.728   3.117   4.470  0.2147  0.0648 -0.1863
 9999TIP3   OH251411   6.723   3.395  15.456 -0.8331 -0.1531  0.4410
 9999TIP3    H151412   6.706   3.417  15.364  0.3836  0.0752  0.2516
 9999TIP3    H251413   6.712   3.478  15.503 -1.4168 -0.2617  0.4937
10000TIP3   OH251414   0.250   4.553  16.713  0.3722 -0.2933 -0.1492
10000TIP3    H151415   0.182   4.526  16.775  0.6244  1.3950  0.9413
10000TIP3    H251416   0.296   4.624  16.758  3.1282 -1.5907 -0.7049
10001TIP3   OH251417   5.626   3.381  15.053 -0.3801 -0.0171  0.1304
10001TIP3    H151418   5.564   3.310  15.070 -1.4234  0.4759 -1.3522
10001TIP3    H251419   5.606   3.447  15.120 -0.7362 -0.3171  0.3218
10002TIP3   OH251420   1.263   2.913  13.155  0.4207 -0.5036 -0.3562
10002TIP3    H151421   1.225   2.841  13.106 -0.5837 -0.0902 -0.2026
10002TIP3    H251422   1.348   2.880  13.184 -1.0317 -2.5870  1.8990
10003TIP3   OH251423   3.676   1.094  12.045 -0.8596  0.4965 -0.0128
10003TIP3    H151424   3.679   1.101  12.141  1.0555 -1.4223  0.1364
10003TIP3    H251425   3.768   1.090  12.018 -1.3051  2.2718 -2.0938
10004TIP3   OH251426   4.089   2.169   1.190  0.3398  0.1548 -0.6841
10004TIP3    H151427   4.122   2.104   1.128 -0.4268 -0.3478 -0.5807
10004TIP3    H251428   4.122   2.253   1.158 -0.0601 -0.0987 -1.7888
10005TIP3   OH251429   4.976   2.299  16.726  0.5127 -0.0229 -0.0036
10005TIP3    H151430   5.011   2.243  16.796 -0.3141 -2.3158 -1.3270
10005TIP3    H251431   4.923   2.365  16.772  0.4083 -1.1473  1.5597
10006TIP3   OH251432   5.658   3.641  10.424 -0.5302  0.1799 -0.1912
10006TIP3    H151433   5.710   3.709  10.381 -0.3188 -0.2648 -0.6569
10006TIP3    H251434   5.716   3.565  10.425 -0.7688  0.0038  0.3131
10007TIP3   OH251435   5.634   6.425   5.719  0.4281  0.1760 -0.4712
10007TIP3    H151436   5.603   6.496   5.663 -0.1666  0.1339 -0.1951
10007TIP3    H251437   5.653   6.467   5.803 -0.6144 -0.1065 -0.0817
10008TIP3   OH251438   2.665   4.731   4.085  0.2632 -0.0426 -0.0562
10008TIP3    H151439   2.607   4.763   4.155  1.0824 -0.1809  0.7069
10008TIP3    H251440   2.751   4.769   4.106  0.7234 -0.8345 -0.4689
10009TIP3   OH251441   5.918   6.585  15.215 -0.0438  0.4509  0.1719
10009TIP3    H151442   5.826   6.559  15.215  0.0993 -0.1400 -0.8632
10009TIP3    H251443   5.965   6.503  15.199  0.8246  0.3515  2.7009
10010TIP3   OH251444   3.552   6.656   4.545  0.6091  0.1367  0.0784
10010TIP3    H151445   3.520   6.742   4.572 -1.8491 -1.1690  1.6738
10010TIP3    H251446   3.573   6.667   4.452  1.0260  2.5905  0.3823
10011TIP3   OH251447   5.791   0.686   0.718 -0.2010  0.1204 -0.1498
10011TIP3    H151448   5.863   0.647   0.668 -0.0926  0.7222 -0.4761
10011TIP3    H251449   5.723   0.619   0.721  0.1317 -0.2266 -0.3701
10012TIP3   OH251450   3.714   1.955  11.403 -0.1071  0.0549 -0.3653
10012TIP3    H151451   3.767   1.979  11.326 -0.3828 -0.8801 -0.8590
10012TIP3    H251452   3.630   1.998  11.388  0.6862  2.0881  0.7402
10013TIP3   OH251453   1.373   4.635   4.956  0.0038 -0.3552  0.1473
10013TIP3    H151454   1.282   4.610   4.943  0.6394 -2.5798 -0.4547
10013TIP3    H251455   1.423   4.566   4.913  1.9853  1.3406 -0.4502
10014TIP3   OH251456   2.146   2.918   2.784 -0.0042  0.6212  0.1856
10014TIP3    H151457   2.102   2.993   2.823 -1.2168  0.4902 -0.8632
10014TIP3    H251458   2.087   2.889   2.715  0.5364 -1.1978  0.4483
10015TIP3   OH251459   0.141   0.802  15.692 -0.2622 -0.3080  0.1604
10015TIP3    H151460   0.173   0.713  15.676 -0.0270 -0.4172  1.2070
10015TIP3    H251461   0.176   0.825  15.778 -0.2502  0.8329 -0.1361
10016TIP3   OH251462   0.718   0.626  11.800  0.4535  0.6360 -0.3506
10016TIP3    H151463   0.659   0.558  11.834  1.9659 -1.6632 -1.9759
10016TIP3    H251464   0.781   0.577  11.747  1.6118  3.3779 -1.6604
10017TIP3   OH251465   2.439   3.406  12.990 -0.2720 -0.2557  0.3993
10017TIP3    H151466   2.382   3.483  12.982  0.6701  0.4452  0.2270
10017TIP3    H251467   2.406   3.361  13.068 -1.7429 -0.4739 -0.3055
10018TIP3   OH251468   1.024   0.710   6.085  0.1507  0.1417 -0.5692
10018TIP3    H151469   0.966   0.636   6.106  1.2820  0.0656  2.9022
10018TIP3    H251470   0.964   0.778   6.055 -1.7576 -0.2288  2.0118
10019TIP3   OH251471   1.336   4.285  14.412 -0.7009 -0.1754 -0.5622
10019TIP3    H151472   1.385   4.263  14.333 -2.0330 -0.9959 -1.2069
10019TIP3    H251473   1.371   4.226  14.479  0.5700  0.6617 -0.4740
10020TIP3   OH251474   5.805   5.454  10.970  0.0552 -0.1601 -0.0813
10020TIP3    H151475   5.753   5.452  11.050  0.5296 -1.4085  0.2247
10020TIP3    H251476   5.741   5.465  10.900 -0.3932  0.6095  0.4428
10021TIP3   OH251477   5.741   4.567   4.939 -0.2901 -0.0992 -0.6423
10021TIP3    H151478   5.767   4.520   4.859 -1.1606 -2.0015  0.1251
10021TIP3    H251479   5.772   4.511   5.010 -1.3886  0.4776  0.3226
10022TIP3   OH251480   1.161   6.426   1.952 -0.2645 -0.5346  0.1057
10022TIP3    H151481   1.093   6.370   1.914 -1.5957  1.4873 -0.6602
10022TIP3    H251482   1.213   6.454   1.878 -2.0384  2.3248 -0.2203
10023TIP3   OH251483   0.870   1.542  15.984 -0.4117 -0.0599 -0.0607
10023TIP3    H151484   0.878   1.497  15.900  1.7528  3.0821 -1.7838
10023TIP3    H251485   0.942   1.506  16.037  0.7134  0.6227 -1.0640
10024TIP3   OH251486   1.468   5.328  15.887  0.4350  0.1659  0.3099
10024TIP3    H151487   1.409   5.371  15.825  2.4818  0.2184 -1.7276
10024TIP3    H251488   1.548   5.380  15.885  1.2771 -0.9998  1.4702
10025TIP3   OH251489   2.216   5.313   2.868  0.6279  0.2041  0.0778
10025TIP3    H151490   2.226   5.310   2.773 -0.7767  1.7266 -0.1631
10025TIP3    H251491   2.298   5.350   2.900  1.1289 -0.3649 -0.5282
10026TIP3   OH251492   3.865   5.471  14.358  0.3452  0.0700  0.3999
10026TIP3    H151493   3.900   5.538  14.416  1.0612 -0.2472  0.3419
10026TIP3    H251494   3.913   5.391  14.382  1.3764  0.1403 -1.2980
10027TIP3   OH251495   2.576   5.770  16.477  0.6832  0.4194 -0.0142
10027TIP3    H151496   2.635   5.770  16.401 -0.6737 -0.2844 -1.1127
10027TIP3    H251497   2.575   5.861  16.506  0.2192  0.9764 -1.6761
10028TIP3   OH251498   4.472   0.940   0.162 -0.4260 -0.0865 -0.0218
10028TIP3    H151499   4.406   0.872   0.169  0.1203 -0.4819  1.6554
10028TIP3    H251500   4.544   0.911   0.218  0.0921  1.5576  0.2425
10029TIP3   OH251501   6.021   5.684   0.116 -0.4493  0.4109  0.1041
10029TIP3    H151502   6.085   5.705   0.184  0.4677  2.9832 -1.4093
10029TIP3    H251503   5.937   5.712   0.152  0.0143  1.6522  0.2950
10030TIP3   OH251504   3.849   5.609  13.535  0.0800  0.2388 -0.1904
10030TIP3    H151505   3.893   5.682  13.492 -0.3857  0.4071 -0.3898
10030TIP3    H251506   3.860   5.624  13.628  0.6777  0.1340 -0.2420
10031TIP3   OH251507   4.046   1.287  12.953  0.8588 -0.2104  0.1910
10031TIP3    H151508   4.050   1.199  12.991  2.4469 -1.0242 -1.7147
10031TIP3    H251509   3.968   1.285  12.897  1.5959 -0.8530 -0.8349
10032TIP3   OH251510   6.456   0.173  12.444 -0.1455  0.3613  0.2883
10032TIP3    H151511   6.378   0.229  12.441  0.3316  1.0447  0.5180
10032TIP3    H251512   6.519   0.222  12.497  1.5219  1.1990 -2.3162
10033TIP3   OH251513   1.051   0.502  15.591  0.4078 -0.4273 -0.3037
10033TIP3    H151514   1.117   0.478  15.656 -0.6951  0.3815  1.1411
10033TIP3    H251515   1.077   0.589  15.561  0.8627 -0.7611 -0.9101
10034TIP3   OH251516   1.184   3.462   3.156 -0.1941 -0.1041 -0.2313
10034TIP3    H151517   1.157   3.550   3.132 -0.5495  0.2042  1.1648
10034TIP3    H251518   1.277   3.458   3.133 -0.6039 -0.0481 -2.0501
10035TIP3   OH251519   4.562   5.456   2.418 -0.4515  0.4016 -0.0393
10035TIP3    H151520   4.549   5.417   2.504  0.6224  0.3109  0.1011
10035TIP3    H251521   4.634   5.405   2.380 -1.6014 -0.2592 -1.4244
10036TIP3   OH251522   1.017   1.992  14.044  0.1090 -0.5515  0.6790
10036TIP3    H151523   1.053   2.026  14.126  0.4685  0.1110  0.2614
10036TIP3    H251524   0.940   1.942  14.070 -1.3568  1.8316  1.2507
10037TIP3   OH251525   1.600   3.298  14.052  1.0439 -0.2737  0.0670
10037TIP3    H151526   1.586   3.221  14.107  1.2478  0.6786  1.4897
10037TIP3    H251527   1.618   3.369  14.114 -2.2823  1.6682 -0.9513
10038TIP3   OH251528   4.338   6.413   0.030  0.0325  0.1760 -0.0741
10038TIP3    H151529   4.284   6.351  -0.018  1.5327  0.0032 -1.6525
10038TIP3    H251530   4.424   6.370   0.036  0.7088  1.4733  0.0754
10039TIP3   OH251531   3.748   4.153  16.131 -0.0608  0.4142 -0.6646
10039TIP3    H151532   3.686   4.081  16.122  0.7061 -0.0166 -3.8583
10039TIP3    H251533   3.819   4.131  16.071  2.5762  1.5727  1.8129
10040TIP3   OH251534   5.041   0.417   0.695  0.3283  0.2553 -0.8241
10040TIP3    H151535   5.077   0.335   0.659  1.2168 -0.5087  1.6211
10040TIP3    H251536   4.958   0.391   0.735  0.2748  0.7014 -0.6466
10041TIP3   OH251537   5.343   1.291   2.020 -0.0751 -0.0506 -0.5628
10041TIP3    H151538   5.270   1.230   2.010 -2.0637  2.0762  0.0952
10041TIP3    H251539   5.414   1.237   2.055 -1.2513 -2.2323 -1.3240
10042TIP3   OH251540   5.322   1.269  17.064 -0.4687  0.4921 -0.5689
10042TIP3    H151541   5.374   1.189  17.067 -0.1109  0.7631  0.8899
10042TIP3    H251542   5.269   1.259  16.985  1.9373  0.3129 -2.2993
10043TIP3   OH251543   0.912   0.107  11.468  0.6128 -0.2007 -0.5350
10043TIP3    H151544   0.884   0.198  11.474 -0.1504 -0.4940  0.8565
10043TIP3    H251545   0.995   0.110  11.420  0.9578  1.3040  0.0886
10044TIP3   OH251546   3.079   2.247   5.341 -0.2404 -0.5581 -0.1849
10044TIP3    H151547   3.165   2.248   5.298 -1.2826  0.3117 -2.3554
10044TIP3    H251548   3.048   2.337   5.332 -1.3272 -0.8231  0.7560
10045TIP3   OH251549   1.279   1.732  15.743  0.1004  0.1278  0.4248
10045TIP3    H151550   1.355   1.679  15.768 -0.7862 -0.8015  1.2192
10045TIP3    H251551   1.225   1.736  15.821 -0.6339  0.8587 -0.1047
10046TIP3   OH251552   2.105   1.163   3.752 -0.6054  0.2463  0.0710
10046TIP3    H151553   2.164   1.088   3.761 -1.1697 -0.0679  1.3115
10046TIP3    H251554   2.158   1.230   3.708  0.2280 -0.5162 -0.1144
10047TIP3   OH251555   6.697   0.487  12.647 -0.7115 -0.4810 -0.3639
10047TIP3    H151556   6.646   0.432  12.707 -0.5857  1.0005  1.1976
10047TIP3    H251557   6.764   0.526  12.703 -1.7012  2.3898 -1.0255
10048TIP3   OH251558   2.096   0.964   5.299 -0.0109 -0.3157 -0.3183
10048TIP3    H151559   2.094   0.889   5.240 -0.3526 -1.9201  1.6135
10048TIP3    H251560   2.018   1.014   5.278  0.6451 -0.0048 -2.1891
10049TIP3   OH251561   4.288   1.422  12.858 -0.5414  0.0327  0.1212
10049TIP3    H151562   4.324   1.422  12.769  0.0318 -0.5342  0.3491
10049TIP3    H251563   4.208   1.371  12.851 -0.8951  0.6303 -0.2259
10050TIP3   OH251564   4.836   4.450   5.198  0.0536  0.7363  0.4699
10050TIP3    H151565   4.765   4.509   5.172  1.7771  2.3654 -0.7899
10050TIP3    H251566   4.846   4.391   5.123 -0.4040  0.0463  0.9399
10051TIP3   OH251567   0.263   2.842  17.159 -0.3052  0.0076 -0.0048
10051TIP3    H151568   0.358   2.841  17.150 -0.4131  0.4939 -1.6611
10051TIP3    H251569   0.247   2.886  17.243  0.9215  0.6823 -0.0982
10052TIP3   OH251570   3.589   2.814  16.585  0.1347  0.4787 -0.2461
10052TIP3    H151571   3.523   2.748  16.562 -0.2628  1.1573 -1.1254
10052TIP3    H251572   3.673   2.770  16.572 -0.1167  0.2923 -1.3519
10053TIP3   OH251573   2.228   3.751   4.166 -0.4286  0.1457 -0.1347
10053TIP3    H151574   2.258   3.680   4.109 -1.5011 -0.3119 -0.1600
10053TIP3    H251575   2.230   3.829   4.110 -0.6090 -0.1303 -0.5326
10054TIP3   OH251576   2.656   3.882  12.520  0.4009  0.5161 -0.1317
10054TIP3    H151577   2.618   3.891  12.433 -2.1270 -0.5802  0.7800
10054TIP3    H251578   2.582   3.865  12.578  2.2442 -1.8587  1.7721
10055TIP3   OH251579   0.166   4.569   4.777  0.0516 -0.5484 -0.0709
10055TIP3    H151580   0.132   4.533   4.695  1.8987 -0.3138 -1.0033
10055TIP3    H251581   0.197   4.656   4.753 -0.4808 -0.0040  1.1737
10056TIP3   OH251582   4.712   0.096  15.508  0.0875 -0.5923  0.0981
10056TIP3    H151583   4.735   0.007  15.536 -1.8340 -1.0235  0.4148
10056TIP3    H251584   4.651   0.084  15.436 -1.4539  0.4094  1.1673
10057TIP3   OH251585   2.587   3.629   2.470 -0.1103  0.2102  0.5765
10057TIP3    H151586   2.565   3.712   2.429  0.5787  0.3599  0.4928
10057TIP3    H251587   2.539   3.563   2.420  0.4103  0.4281 -0.2143
10058TIP3   OH251588   2.500   3.310   1.208  0.7498 -0.1162 -0.5324
10058TIP3    H151589   2.587   3.288   1.175  1.2543 -0.3204  0.8881
10058TIP3    H251590   2.479   3.240   1.269 -0.0905  0.3296 -0.2922
10059TIP3   OH251591   5.873   5.610  12.104  0.0123 -0.4081  0.1193
10059TIP3    H151592   5.785   5.647  12.107  0.4854  0.7899  3.4456
10059TIP3    H251593   5.927   5.672  12.153  2.4010 -1.9002 -0.4405
10060TIP3   OH251594   3.117   2.484   2.387  0.4479 -0.6264  0.2960
10060TIP3    H151595   3.029   2.511   2.362  0.2760 -1.5761 -0.1857
10060TIP3    H251596   3.133   2.405   2.336  1.4058 -0.7248  0.7230
10061TIP3   OH251597   5.662   2.213   0.835 -0.4238 -0.1653  0.3908
10061TIP3    H151598   5.749   2.250   0.853 -0.8609  0.9248  0.3560
10061TIP3    H251599   5.679   2.124   0.805  0.6847  0.0304  0.4081
10062TIP3   OH251600   1.383   2.907   0.774 -0.1848  0.5398 -0.0272
10062TIP3    H151601   1.455   2.844   0.765  0.4443  1.4340 -1.8857
10062TIP3    H251602   1.304   2.853   0.774  0.3818 -0.3296 -0.6902
10063TIP3   OH251603   6.393   3.204  11.225  0.0089  0.1814  0.3194
10063TIP3    H151604   6.451   3.262  11.176  0.9732 -1.1043 -0.1026
10063TIP3    H251605   6.325   3.180  11.163 -0.1801  0.5389  0.3832
10064TIP3   OH251606   6.062   4.104   2.928  0.1570 -0.0824 -0.1963
10064TIP3    H151607   6.140   4.159   2.917 -0.0120 -0.0358 -1.2372
10064TIP3    H251608   6.086   4.020   2.888  0.7208 -1.1169  2.1358
10065TIP3   OH251609   2.203   2.937   6.611 -0.3538 -0.3812 -0.1526
10065TIP3    H151610   2.185   2.885   6.532 -1.4324  1.4340 -1.1741
10065TIP3    H251611   2.118   2.970   6.637  0.3729  1.4790 -0.0030
10066TIP3   OH251612   4.417   2.636   5.154  0.5833 -0.1307 -0.1692
10066TIP3    H151613   4.396   2.707   5.093  2.1195  0.0467 -0.5364
10066TIP3    H251614   4.337   2.623   5.205 -0.7488 -0.2651 -2.1962
10067TIP3   OH251615   4.244   2.072  16.633 -0.0884  0.0556 -0.1484
10067TIP3    H151616   4.189   2.150  16.634 -0.1327  0.0278 -0.3311
10067TIP3    H251617   4.182   2.000  16.620  0.0824  0.1069 -1.4072
10068TIP3   OH251618   2.270   1.227  10.609 -0.3606  0.3405  0.0676
10068TIP3    H151619   2.259   1.322  10.603  0.6138  0.6636  2.4867
10068TIP3    H251620   2.198   1.198  10.665 -1.2099 -0.5420 -1.4027
10069TIP3   OH251621   0.244   1.579  16.374  0.8426  0.1523  0.4402
10069TIP3    H151622   0.272   1.490  16.397 -0.7563 -1.3436 -2.7502
10069TIP3    H251623   0.319   1.634  16.396  2.6932 -2.2914  0.6704
10070TIP3   OH251624   1.230   4.637   1.727  0.1265 -0.8963  0.5067
10070TIP3    H151625   1.158   4.581   1.698  0.1696 -0.9359  0.4773
10070TIP3    H251626   1.307   4.603   1.682  0.2598 -1.1861  0.9528
10071TIP3   OH251627   4.256   1.184   4.495 -0.0274  0.6061  0.3988
10071TIP3    H151628   4.281   1.093   4.483 -0.4886  0.6839 -1.4033
10071TIP3    H251629   4.333   1.235   4.468 -0.9852  0.7758 -2.3780
10072TIP3   OH251630   6.348   3.467  15.373 -0.0192  0.4794  0.1390
10072TIP3    H151631   6.275   3.464  15.311 -0.6751 -1.6709  0.9119
10072TIP3    H251632   6.351   3.379  15.410  1.6584  1.1167  1.6664
10073TIP3   OH251633   0.963   0.606  16.506 -0.0724 -0.4451  0.5873
10073TIP3    H151634   0.996   0.695  16.517  2.4889 -0.9524 -1.7534
10073TIP3    H251635   0.870   0.611  16.527  0.0641  2.7112  0.7789
10074TIP3   OH251636   4.535   3.429   0.733 -0.2373 -0.1374  0.1183
10074TIP3    H151637   4.513   3.522   0.734 -1.0327 -0.3228  0.9029
10074TIP3    H251638   4.608   3.420   0.795 -0.2391 -0.0607  0.1312
10075TIP3   OH251639   1.454   3.142  12.981 -0.2152 -0.0809 -0.0335
10075TIP3    H151640   1.403   3.161  13.060  0.6455  0.0442  0.5059
10075TIP3    H251641   1.398   3.084  12.929 -0.1133 -1.5843  1.4559
10076TIP3   OH251642   4.489   5.313   2.086  0.0934 -0.6686 -0.3603
10076TIP3    H151643   4.580   5.338   2.074 -0.2578  0.7196 -0.3823
10076TIP3    H251644   4.439   5.389   2.054 -1.0635 -1.3483 -0.2402
10077TIP3   OH251645   0.036   5.364   0.488 -0.6214 -1.0736  0.2284
10077TIP3    H151646   0.028   5.268   0.491 -1.6987 -1.0318 -0.5585
10077TIP3    H251647  -0.034   5.392   0.430 -0.0025  0.1724  0.0454
10078TIP3   OH251648   4.180   6.686  15.544 -0.1703 -0.1032  0.0919
10078TIP3    H151649   4.137   6.771  15.558  3.4688  1.8583  0.3895
10078TIP3    H251650   4.241   6.677  15.616  0.1300 -2.6754 -0.3845
10079TIP3   OH251651   3.027   6.267  14.651 -0.1851  0.3220  0.5427
10079TIP3    H151652   2.955   6.321  14.683  1.7484  1.5845  3.0354
10079TIP3    H251653   2.988   6.180  14.640 -2.2922  1.1620  0.9024
10080TIP3   OH251654   3.321   4.539   5.396  0.5708  0.2354 -0.2115
10080TIP3    H151655   3.392   4.491   5.353  0.0826 -0.7594  0.0504
10080TIP3    H251656   3.284   4.593   5.327 -1.1311 -2.3875 -1.5429
10081TIP3   OH251657   3.682   0.030  16.053  0.1107  0.3607  0.1437
10081TIP3    H151658   3.618   0.057  15.987  0.4183  1.3517  0.2326
10081TIP3    H251659   3.764   0.071  16.025  0.4445  0.0490  0.6494
10082TIP3   OH251660   1.224   6.443  11.863 -0.4310 -0.2544 -0.5069
10082TIP3    H151661   1.289   6.488  11.917  1.0524 -3.0931  0.2765
10082TIP3    H251662   1.140   6.464  11.903  0.4422 -0.3126  1.4250
10083TIP3   OH251663   1.619   2.227  17.096 -0.4643  0.2816 -0.5172
10083TIP3    H151664   1.663   2.312  17.112  0.0298 -0.1979  0.8618
10083TIP3    H251665   1.662   2.167  17.157 -1.8483 -0.6261 -0.4115
10084TIP3   OH251666   5.359   2.224   6.560  0.6180  0.5313 -0.1087
10084TIP3    H151667   5.276   2.257   6.525  0.8702  0.3039 -0.9451
10084TIP3    H251668   5.344   2.130   6.570  0.3068  0.6969  1.1064
10085TIP3   OH251669   4.472   2.869   3.296 -0.1071 -0.6897  0.1297
10085TIP3    H151670   4.514   2.947   3.333 -1.0533 -1.3813  2.8810
10085TIP3    H251671   4.544   2.814   3.267  0.7022  0.0054  0.7584
10086TIP3   OH251672   3.363   6.468   3.897  0.1215 -0.2497 -0.0162
10086TIP3    H151673   3.388   6.376   3.907  0.8190 -0.1621 -0.8631
10086TIP3    H251674   3.446   6.515   3.889 -0.2015  0.5623  1.1951
10087TIP3   OH251675   4.988   0.461  12.925 -0.0975 -0.5277 -0.0151
10087TIP3    H151676   5.062   0.420  12.879  0.9433  0.7492  0.4666
10087TIP3    H251677   4.958   0.530  12.867  0.0585 -0.0852  0.4166
10088TIP3   OH251678   3.970   2.780   4.331  0.0249  0.2310  0.2698
10088TIP3    H151679   3.911   2.854   4.348 -1.4803 -0.7995 -0.2275
10088TIP3    H251680   4.057   2.814   4.349 -0.7340  1.7492  1.2987
10089TIP3   OH251681   3.790   4.190  14.160  0.2599 -0.1669 -0.4981
10089TIP3    H151682   3.816   4.163  14.249 -0.6817  0.8886  0.1310
10089TIP3    H251683   3.703   4.229  14.171  0.3930  0.5536 -1.7832
10090TIP3   OH251684   1.638   3.185  14.869  0.2766  0.4221  0.3080
10090TIP3    H151685   1.568   3.172  14.934  1.2052 -0.5511  1.1624
10090TIP3    H251686   1.685   3.101  14.868  2.4892  1.5810  1.0557
10091TIP3   OH251687   0.244   2.981   2.967 -0.6352  0.1143  0.4732
10091TIP3    H151688   0.328   3.011   3.003 -0.0356 -1.4875  0.4919
10091TIP3    H251689   0.252   2.885   2.966 -2.8387 -0.1290  1.3967
10092TIP3   OH251690   5.951   1.464   5.892 -0.3638 -0.0037 -0.1220
10092TIP3    H151691   5.924   1.515   5.969 -1.7160  0.1844 -0.6900
10092TIP3    H251692   6.013   1.399   5.927 -1.7697 -0.6324  1.3558
10093TIP3   OH251693   2.495   3.885   3.560  0.2617 -0.5395  0.2144
10093TIP3    H151694   2.530   3.837   3.485  0.7458 -1.2130  0.8590
10093TIP3    H251695   2.569   3.896   3.619 -0.1979 -0.3516  0.7717
10094TIP3   OH251696   5.529   4.011   6.106  0.7117  0.3048 -0.1721
10094TIP3    H151697   5.448   4.004   6.056  0.2272 -2.9308  0.8442
10094TIP3    H251698   5.502   4.034   6.194  1.1072  1.1846 -0.2721
10095TIP3   OH251699   0.470   3.610  12.585  0.1488  0.0991 -0.1859
10095TIP3    H151700   0.554   3.582  12.548  1.0192  1.0236  1.0060
10095TIP3    H251701   0.494   3.670  12.656 -1.4674 -0.8945  1.2824
10096TIP3   OH251702   0.630   4.211  15.852  0.7567  0.1356  0.0917
10096TIP3    H151703   0.559   4.254  15.806 -0.5420 -1.4813  0.4912
10096TIP3    H251704   0.709   4.258  15.824 -0.1115  0.1223 -2.7026
10097TIP3   OH251705   4.719   6.369   2.601  0.4965  0.0766  0.1227
10097TIP3    H151706   4.685   6.327   2.522  0.7340  1.6799 -0.8756
10097TIP3    H251707   4.688   6.459   2.596 -0.2625 -0.0044  2.3638
10098TIP3   OH251708   3.833   4.616   3.659  0.5207  0.8537 -0.4564
10098TIP3    H151709   3.914   4.583   3.619  0.7258  2.2940 -1.3010
10098TIP3    H251710   3.780   4.538   3.672  1.8398 -0.0722 -0.3458
10099TIP3   OH251711   2.496   4.397   0.622  0.2603  0.1920  0.4772
10099TIP3    H151712   2.411   4.427   0.589  0.2632 -0.3515 -0.0494
10099TIP3    H251713   2.490   4.406   0.717 -0.1826  0.6808  0.4054
10100TIP3   OH251714   3.634   6.330   1.903 -0.3762 -0.3914 -0.4156
10100TIP3    H151715   3.631   6.344   1.808 -1.6346 -1.3172 -0.5346
10100TIP3    H251716   3.590   6.407   1.940 -0.3014 -0.2529 -0.6104
10101TIP3   OH251717   3.331   1.305   0.705 -0.5582 -0.3654 -0.3456
10101TIP3    H151718   3.359   1.386   0.662 -1.0899 -0.1498 -0.2936
10101TIP3    H251719   3.246   1.327   0.743  0.3412 -0.2067  1.7501
10102TIP3   OH251720   5.724   1.631  12.984  0.2828  0.1953  0.1169
10102TIP3    H151721   5.773   1.712  12.997  0.9278 -0.3376  1.1985
10102TIP3    H251722   5.723   1.590  13.071  0.3904 -1.1842 -0.5034
10103TIP3   OH251723   5.923   2.899   2.797 -0.6809  1.0313  0.0279
10103TIP3    H151724   5.990   2.947   2.749 -0.4416 -0.4501 -1.2159
10103TIP3    H251725   5.858   2.875   2.731 -0.7447 -0.3764  0.5506
10104TIP3   OH251726   1.833   5.146   1.167 -0.1892  0.2494 -0.1638
10104TIP3    H151727   1.888   5.185   1.235  1.9461  0.0870 -1.7019
10104TIP3    H251728   1.751   5.124   1.212  0.0391  2.7267  1.6894
10105TIP3   OH251729   2.237   2.156  13.574  0.2475 -0.1301 -0.3991
10105TIP3    H151730   2.282   2.071  13.573  0.2494 -0.1302 -1.9917
10105TIP3    H251731   2.259   2.196  13.490 -0.7178  0.9506 -0.1589
10106TIP3   OH251732   2.786   2.989   0.362  0.6560  0.0112 -1.0048
10106TIP3    H151733   2.756   2.988   0.271  0.9272 -1.7618 -1.1132
10106TIP3    H251734   2.878   3.016   0.357 -0.1551  3.1715 -0.8871
10107TIP3   OH251735   3.273   6.053  16.387  0.1051  0.4169  0.2853
10107TIP3    H151736   3.328   6.077  16.461 -1.1057 -0.6067  1.5808
10107TIP3    H251737   3.309   6.101  16.313  2.3038  0.2905  1.2010
10108TIP3   OH251738   3.934   0.891   6.275  0.2106  0.1082 -0.8178
10108TIP3    H151739   3.850   0.902   6.319  0.4235 -0.3427 -0.2954
10108TIP3    H251740   3.992   0.954   6.316 -0.0596  0.9605 -1.7003
10109TIP3   OH251741   1.485   5.032   2.652  0.7047 -0.2082 -0.1062
10109TIP3    H151742   1.487   4.963   2.585 -0.3384 -0.8216  0.4856
10109TIP3    H251743   1.578   5.050   2.670  1.0057 -1.9473  0.2242
10110TIP3   OH251744   5.753   0.676  13.181  0.2013 -0.2858 -0.3422
10110TIP3    H151745   5.756   0.767  13.211  1.7613 -0.4132 -0.0176
10110TIP3    H251746   5.708   0.629  13.251 -1.0695  0.2940 -0.7389
10111TIP3   OH251747   0.574   5.842   6.122  0.5541  0.0913  0.2345
10111TIP3    H151748   0.556   5.929   6.156  0.4429  0.0716  0.2259
10111TIP3    H251749   0.660   5.849   6.082  0.4082  0.2769 -0.0470
10112TIP3   OH251750   2.561   5.610  15.403  0.1416 -0.3327 -0.1060
10112TIP3    H151751   2.654   5.595  15.416 -0.0395 -0.2106  1.5908
10112TIP3    H251752   2.529   5.529  15.363  0.8261 -0.7422  0.1540
10113TIP3   OH251753   1.003   5.192  15.027 -0.2145  0.3835  0.1831
10113TIP3    H151754   1.050   5.206  14.945 -1.2240  0.2076 -0.4501
10113TIP3    H251755   1.055   5.126  15.073  0.6664  0.8951 -0.0480
10114TIP3   OH251756   1.850   4.368  15.086 -0.4259  0.0735 -0.3142
10114TIP3    H151757   1.811   4.456  15.075 -0.0985  0.1399 -1.0178
10114TIP3    H251758   1.811   4.335  15.167  0.2155  1.2741  0.5293
10115TIP3   OH251759   3.320   1.196   5.521  0.2497  0.5929  0.0280
10115TIP3    H151760   3.267   1.188   5.441  1.3737 -2.6474 -0.5604
10115TIP3    H251761   3.409   1.180   5.491  0.9816  1.3876  1.6903
10116TIP3   OH251762   3.822   6.552  11.266 -0.0961  0.3715  0.5416
10116TIP3    H151763   3.816   6.493  11.191  0.4416  0.3405  0.5177
10116TIP3    H251764   3.746   6.609  11.258 -0.1581  0.2293  0.0910
10117TIP3   OH251765   1.171   3.532   2.474 -0.4734 -0.2076 -0.5569
10117TIP3    H151766   1.076   3.538   2.467 -0.3788  2.7912 -0.2629
10117TIP3    H251767   1.186   3.445   2.511 -3.3553  0.6320  3.1964
10118TIP3   OH251768   5.549   0.544   0.734 -0.1821 -0.1498  0.5640
10118TIP3    H151769   5.470   0.556   0.787 -0.3194  1.6814 -0.0078
10118TIP3    H251770   5.518   0.500   0.655 -0.6112  0.4684  0.3853
10119TIP3   OH251771   5.776   0.319  12.478 -0.3272 -0.2426 -0.5015
10119TIP3    H151772   5.868   0.293  12.467 -0.3774 -0.3284 -0.7125
10119TIP3    H251773   5.781   0.413  12.495 -0.2425 -0.1166 -1.1947
10120TIP3   OH251774   5.739   6.755   5.480  0.1476 -0.0688  0.7521
10120TIP3    H151775   5.801   6.828   5.480  0.4874 -0.3304 -0.6791
10120TIP3    H251776   5.771   6.696   5.548  1.0319  0.1755  0.5552
10121TIP3   OH251777   1.019   5.996  13.540  0.1916 -0.3563  0.3048
10121TIP3    H151778   0.942   6.009  13.595  0.6189  1.5427  0.5155
10121TIP3    H251779   0.988   5.943  13.467 -1.0083 -0.6599  1.0056
10122TIP3   OH251780   5.387   2.823   5.453  0.6492 -0.2485 -0.3046
10122TIP3    H151781   5.445   2.879   5.402  0.8822 -0.3451 -0.1461
10122TIP3    H251782   5.299   2.857   5.435  0.6828 -0.6210 -1.1768
10123TIP3   OH251783   3.791   1.887   1.298  0.3477 -0.2512  0.1826
10123TIP3    H151784   3.860   1.865   1.235  1.9858 -1.0131  2.1186
10123TIP3    H251785   3.839   1.924   1.373 -1.5445  0.8605  0.9102
10124TIP3   OH251786   1.960   6.262   6.056 -0.1301  0.1068  0.1164
10124TIP3    H151787   1.899   6.334   6.075 -1.6902 -1.0762 -0.1983
10124TIP3    H251788   2.011   6.252   6.137 -0.1360  1.3190  0.2859
10125TIP3   OH251789   0.500   2.463   2.141 -0.0628  0.1062 -0.2167
10125TIP3    H151790   0.569   2.506   2.091  0.9083  1.1668  1.9298
10125TIP3    H251791   0.529   2.372   2.150 -0.1226 -0.0326 -1.2887
10126TIP3   OH251792   0.786   5.421  13.906 -0.3297  0.9370  0.4344
10126TIP3    H151793   0.734   5.372  13.843  2.4705 -0.4440 -0.9906
10126TIP3    H251794   0.785   5.367  13.985 -0.3137  0.4388  0.0985
10127TIP3   OH251795   5.695   4.521  13.314  0.1356  0.2215 -0.1220
10127TIP3    H151796   5.710   4.426  13.322  1.2848  0.2893 -1.1863
10127TIP3    H251797   5.769   4.553  13.263 -0.5576  1.6117 -0.3066
10128TIP3   OH251798   5.261   5.523  17.263 -0.3844  0.0673 -0.0527
10128TIP3    H151799   5.250   5.618  17.267  3.7177  0.7037  1.9340
10128TIP3    H251800   5.194   5.488  17.321 -2.5080  1.6007 -1.4677
10129TIP3   OH251801   5.413   5.318  12.254 -0.2488 -0.0201  0.2929
10129TIP3    H151802   5.423   5.265  12.175 -0.9233 -1.2252  0.9903
10129TIP3    H251803   5.324   5.353  12.248 -0.6926 -0.9857  1.0139
10130TIP3   OH251804   6.490   1.798   4.514 -0.1709  0.0441  0.4599
10130TIP3    H151805   6.532   1.764   4.593  0.6414 -0.9013 -0.3614
10130TIP3    H251806   6.463   1.887   4.538 -0.5634 -0.4610  2.0164
10131TIP3   OH251807   4.366   2.631  11.465 -0.6370 -0.3162 -0.2423
10131TIP3    H151808   4.276   2.600  11.460 -0.4793 -0.9211  0.5353
10131TIP3    H251809   4.403   2.587  11.541 -0.3498  1.6633  0.8425
10132TIP3   OH251810   6.240   0.848   1.390 -0.2023 -0.0021  0.2243
10132TIP3    H151811   6.303   0.783   1.359  0.0161  0.8216 -1.1592
10132TIP3    H251812   6.154   0.813   1.365 -0.0289  0.6527 -1.4325
10133TIP3   OH251813   1.587   1.890   0.441 -0.1024  0.4508 -0.4401
10133TIP3    H151814   1.647   1.815   0.450  0.4557  0.8822 -0.5225
10133TIP3    H251815   1.559   1.887   0.350 -1.2248 -0.5059 -0.0908
10134TIP3   OH251816   3.901   3.510   0.372 -0.2479  0.0871  0.1501
10134TIP3    H151817   3.996   3.514   0.368 -0.2606 -0.2275 -0.5169
10134TIP3    H251818   3.871   3.539   0.286 -0.7904  1.1523  0.6760
10135TIP3   OH251819   1.604   2.281   6.028  0.0077 -0.6224 -0.0036
10135TIP3    H151820   1.650   2.319   5.953  0.5198 -2.1354 -0.5000
10135TIP3    H251821   1.674   2.254   6.088 -0.3651 -0.1770  0.6447
10136TIP3   OH251822   6.366   0.807   2.370 -0.0047  0.1959  0.3445
10136TIP3    H151823   6.284   0.853   2.352 -1.0026 -1.7828 -0.5678
10136TIP3    H251824   6.403   0.788   2.283  0.0950 -1.1219  0.6502
10137TIP3   OH251825   1.661   0.328  15.547  0.1495 -0.2975 -0.3301
10137TIP3    H151826   1.641   0.287  15.463 -2.4295  0.7487 -0.3361
10137TIP3    H251827   1.756   0.337  15.548  0.3037 -0.9221 -2.8445
10138TIP3   OH251828   5.300   5.300   4.772 -0.1608  0.0969 -0.1248
10138TIP3    H151829   5.242   5.287   4.846  0.2214 -0.5543  0.0718
10138TIP3    H251830   5.350   5.378   4.793  0.7266 -0.7022  0.8382
10139TIP3   OH251831   0.879   6.241  16.743  0.4121 -0.6315  0.1988
10139TIP3    H151832   0.788   6.246  16.712  0.8504 -2.9536 -1.8175
10139TIP3    H251833   0.931   6.277  16.671  1.1023  2.3534  2.0420
10140TIP3   OH251834   2.023   2.031  13.385  0.0703 -0.1213  0.6993
10140TIP3    H151835   1.983   1.963  13.331  0.4246  0.4263 -0.2686
10140TIP3    H251836   2.064   1.983  13.457 -0.5828 -0.8467  0.6013
10141TIP3   OH251837   1.763   1.343   2.080  0.0549 -0.3993 -0.7770
10141TIP3    H151838   1.843   1.355   2.028 -0.8989  0.0036 -2.2003
10141TIP3    H251839   1.735   1.432   2.102 -1.5869 -0.3171 -2.8500
10142TIP3   OH251840   5.989   5.413  12.997  0.0909  0.3874 -0.3729
10142TIP3    H151841   6.052   5.377  13.059 -0.1307 -1.7944 -1.3394
10142TIP3    H251842   6.040   5.473  12.942  0.8092  0.4166  0.3126
10143TIP3   OH251843   0.354   0.276  16.119 -0.0187 -0.6212 -0.3878
10143TIP3    H151844   0.432   0.300  16.169  0.1369 -0.4732 -0.6970
10143TIP3    H251845   0.322   0.359  16.083 -0.5717 -0.6220  0.1000
10144TIP3   OH251846   0.195   4.089   2.825 -0.1804 -0.4978  0.3135
10144TIP3    H151847   0.189   4.184   2.835 -0.8802 -0.5707  0.6490
10144TIP3    H251848   0.173   4.073   2.734 -0.3918 -0.3617  0.3390
10145TIP3   OH251849   5.416   2.261   5.419  0.3946 -0.5103 -0.0732
10145TIP3    H151850   5.495   2.211   5.440 -0.7109 -2.3352 -0.0068
10145TIP3    H251851   5.347   2.218   5.470 -1.2728 -1.2211 -2.7524
10146TIP3   OH251852   2.848   5.003   4.327 -0.6523 -0.0338  0.1098
10146TIP3    H151853   2.794   4.956   4.391  0.6385 -0.7607  0.7205
10146TIP3    H251854   2.935   5.007   4.368 -0.0238  0.3175 -1.2054
10147TIP3   OH251855   3.907   6.673   5.430 -0.2229  0.5061 -0.2412
10147TIP3    H151856   3.835   6.737   5.436 -0.2666  0.6464 -1.7856
10147TIP3    H251857   3.877   6.610   5.364  0.4064 -0.3376  0.2640
10148TIP3   OH251858   4.246   1.527  16.268  0.0721  0.6271 -0.1777
10148TIP3    H151859   4.302   1.460  16.307 -1.4855 -1.1152 -0.8044
10148TIP3    H251860   4.223   1.585  16.340  0.4741 -0.2015  0.6335
10149TIP3   OH251861   2.584   5.479   3.558  0.2831 -0.7411  0.7986
10149TIP3    H151862   2.499   5.475   3.515 -0.3588 -0.8291  2.0554
10149TIP3    H251863   2.590   5.568   3.592  1.0131 -0.5114  0.1085
10150TIP3   OH251864   0.167   5.763   3.344 -0.1691  0.2317  0.6099
10150TIP3    H151865   0.232   5.693   3.352  0.4933  0.7532 -0.1780
10150TIP3    H251866   0.202   5.834   3.397 -0.0272  0.5569  0.0865
10151TIP3   OH251867   3.599   4.357  16.051  0.2534  0.0090 -0.0696
10151TIP3    H151868   3.555   4.390  16.129 -2.3804 -0.8925 -1.0908
10151TIP3    H251869   3.655   4.286  16.084  0.5898  0.8128  1.1778
10152TIP3   OH251870   2.678   5.788  12.297  0.3258 -0.0585 -0.7904
10152TIP3    H151871   2.692   5.765  12.205  0.9681 -0.7058 -0.5393
10152TIP3    H251872   2.591   5.754  12.317 -0.2121  0.8945 -1.3993
10153TIP3   OH251873   6.159   3.521  15.200  0.0292 -0.0223  0.1976
10153TIP3    H151874   6.153   3.612  15.170  0.7063 -0.2801 -0.7895
10153TIP3    H251875   6.079   3.480  15.168 -0.9456  0.5187  1.8195
10154TIP3   OH251876   0.868   1.206   6.351 -0.1674 -0.0705  0.3190
10154TIP3    H151877   0.840   1.195   6.442  0.0143 -1.6129  0.2261
10154TIP3    H251878   0.917   1.125   6.331  0.0865  0.3852 -1.0431
10155TIP3   OH251879   6.559   5.345   4.199 -0.3952 -0.2333  0.2571
10155TIP3    H151880   6.621   5.355   4.272 -2.3285  0.4178  1.9269
10155TIP3    H251881   6.525   5.434   4.185  0.9037 -0.0664 -2.4544
10156TIP3   OH251882   1.068   4.704   5.078  0.3164 -0.2508 -0.1202
10156TIP3    H151883   1.042   4.672   4.992 -1.3033  0.5649  0.0478
10156TIP3    H251884   1.014   4.655   5.140  0.0239  0.5937  0.3108
10157TIP3   OH251885   6.407   0.663   2.143 -0.4127 -0.2701 -0.4106
10157TIP3    H151886   6.502   0.657   2.137 -0.0538  3.0683  0.0686
10157TIP3    H251887   6.376   0.635   2.057  1.0714 -0.5556 -0.8857
10158TIP3   OH251888   1.389   6.623   4.322  0.2108 -0.3052 -0.1440
10158TIP3    H151889   1.442   6.692   4.363 -0.0684 -0.5347  0.6072
10158TIP3    H251890   1.438   6.542   4.340  0.7816 -0.2783 -1.4195
10159TIP3   OH251891   4.729   3.843  17.208  0.2541  0.5557  0.1418
10159TIP3    H151892   4.802   3.856  17.270  0.5674  0.0467 -0.1198
10159TIP3    H251893   4.765   3.787  17.140 -0.9411 -1.3978  1.0224
10160TIP3   OH251894   6.397   3.865  13.114 -0.0292 -1.1555  0.1475
10160TIP3    H151895   6.437   3.951  13.124  1.0572 -1.7210  0.8483
10160TIP3    H251896   6.454   3.818  13.054 -0.3420 -1.5439  0.1488
10161TIP3   OH251897   4.000   0.085   0.052 -0.6246 -0.4076  0.5599
10161TIP3    H151898   3.994   0.021  -0.019 -1.4755  1.4290 -1.1370
10161TIP3    H251899   4.083   0.130   0.035 -2.3990  2.3953 -1.5345
10162TIP3   OH251900   4.902   6.463   5.648  0.1692 -0.0753  0.2062
10162TIP3    H151901   4.965   6.531   5.671  0.3162 -0.6624  1.6599
10162TIP3    H251902   4.828   6.478   5.707 -0.4331 -0.2672 -0.4909
10163TIP3   OH251903   0.576   6.137  12.048  0.0377 -0.1484  0.0523
10163TIP3    H151904   0.617   6.221  12.070  0.6495  0.2452 -2.2560
10163TIP3    H251905   0.493   6.161  12.007 -1.5682 -0.8781  2.6673
10164TIP3   OH251906   2.758   4.417   3.227 -0.2208 -1.0518  0.0366
10164TIP3    H151907   2.780   4.415   3.320 -0.1837 -1.6493  0.0212
10164TIP3    H251908   2.680   4.361   3.220 -0.4614 -0.6861 -0.2297
10165TIP3   OH251909   2.848   6.681  13.159  0.4549  0.4467 -0.0585
10165TIP3    H151910   2.806   6.766  13.153 -0.3824  0.1538  1.2937
10165TIP3    H251911   2.936   6.695  13.124 -0.0328  1.5778 -0.8972
10166TIP3   OH251912   4.804   2.738  17.239 -0.1321 -0.3022 -0.5152
10166TIP3    H151913   4.784   2.745  17.332  0.0790  0.5292 -0.5298
10166TIP3    H251914   4.718   2.737  17.197 -0.2129  0.6187 -0.3943
10167TIP3   OH251915   6.625   6.300  12.013  0.1865 -0.4632  0.1536
10167TIP3    H151916   6.542   6.278  12.054  0.2119 -0.8776 -0.0123
10167TIP3    H251917   6.613   6.389  11.980 -0.3170 -0.6559 -0.1947
10168TIP3   OH251918   6.540   5.795   4.255 -0.6551  0.1435 -0.2175
10168TIP3    H151919   6.482   5.870   4.244 -0.5482  0.2613  0.0083
10168TIP3    H251920   6.612   5.811   4.195  0.6808  1.5278  1.6152
10169TIP3   OH251921   3.796   4.625   5.482  0.1908  0.1133  0.0565
10169TIP3    H151922   3.820   4.712   5.450 -0.1294 -0.9704 -3.6051
10169TIP3    H251923   3.857   4.566   5.439  0.2501 -1.5541  2.2710
10170TIP3   OH251924   4.555   2.341   2.000  0.2511  0.2024  0.4397
10170TIP3    H151925   4.623   2.365   1.937  2.0187  0.0364  2.1867
10170TIP3    H251926   4.546   2.417   2.057 -0.7683  0.0793  0.4620
10171TIP3   OH251927   4.806   2.511   6.815 -0.5146 -0.2076  0.0426
10171TIP3    H151928   4.869   2.476   6.752 -0.4765 -2.9270  1.4751
10171TIP3    H251929   4.727   2.528   6.763  0.1817 -0.3470 -1.0891
10172TIP3   OH251930   2.990   1.737  16.050  0.0645 -0.4031  0.1052
10172TIP3    H151931   3.005   1.782  15.967 -0.6359  0.6849  0.5407
10172TIP3    H251932   3.069   1.685  16.064  0.3308 -0.3435 -1.0727
10173TIP3   OH251933   0.323   3.848  11.776  0.4791  0.1460  0.0656
10173TIP3    H151934   0.329   3.905  11.699 -2.9879 -0.5114 -0.8676
10173TIP3    H251935   0.288   3.904  11.845  2.0827  0.3412  0.7663
10174TIP3   OH251936   2.421   5.907  13.522 -0.0284  0.2295  0.1132
10174TIP3    H151937   2.329   5.905  13.546  0.0624  0.6269  0.5051
10174TIP3    H251938   2.431   5.988  13.472  0.2687  0.5995  0.7566
10175TIP3   OH251939   5.047   3.433   6.587 -0.3585  0.4943  0.2701
10175TIP3    H151940   4.976   3.495   6.602 -0.0803  0.9112 -0.1278
10175TIP3    H251941   5.004   3.347   6.584 -0.5805  0.4744  2.3116
10176TIP3   OH251942   5.420   5.474   2.698 -0.8178 -0.2370 -0.6692
10176TIP3    H151943   5.395   5.454   2.608  0.1214  1.0933 -1.2572
10176TIP3    H251944   5.351   5.435   2.752 -1.4906 -0.8832 -1.9688
10177TIP3   OH251945   6.071   3.608   4.116  0.5247  0.0279  0.1144
10177TIP3    H151946   6.100   3.697   4.135  0.5872 -0.1929  1.1033
10177TIP3    H251947   6.140   3.571   4.061  1.5999 -0.1148  1.5015
10178TIP3   OH251948   3.099   1.701   3.151  0.2438 -0.1060  0.1096
10178TIP3    H151949   3.081   1.792   3.125 -0.0306 -0.1816  0.0321
10178TIP3    H251950   3.025   1.677   3.206 -1.2867 -1.2633 -2.2480
10179TIP3   OH251951   2.125   5.124   2.234  0.1284 -0.1667 -0.0256
10179TIP3    H151952   2.149   5.206   2.190  0.6302  0.7904  1.8981
10179TIP3    H251953   2.208   5.077   2.242 -0.4941 -2.0245 -3.1896
10180TIP3   OH251954   4.681   0.478  15.702 -0.2845  0.3060 -0.2771
10180TIP3    H151955   4.765   0.482  15.748  0.3250  0.0794 -1.3450
10180TIP3    H251956   4.703   0.489  15.610 -1.2374 -1.4602 -0.7673
10181TIP3   OH251957   4.067   0.161   4.945 -0.2605  0.7649 -0.2494
10181TIP3    H151958   4.111   0.115   5.016 -0.9011 -1.8068 -1.4006
10181TIP3    H251959   4.055   0.250   4.977 -1.0461 -0.4068  3.0761
10182TIP3   OH251960   2.927   6.503   4.037 -0.3997 -0.4509 -0.2210
10182TIP3    H151961   2.952   6.594   4.053 -2.8525  0.6706 -2.1203
10182TIP3    H251962   2.879   6.476   4.116  1.9690 -0.8611  1.1783
10183TIP3   OH251963   2.807   3.398  12.880 -0.4019  0.7349 -0.1783
10183TIP3    H151964   2.781   3.317  12.923  0.9440  0.1556 -0.4011
10183TIP3    H251965   2.752   3.465  12.920 -0.7028 -0.1068  0.8698
10184TIP3   OH251966   3.572   6.293  12.995  0.0751 -0.5193 -0.7110
10184TIP3    H151967   3.605   6.313  13.083 -0.8922  0.4866 -0.5457
10184TIP3    H251968   3.608   6.207  12.974  0.9042 -0.4524  0.3789
10185TIP3   OH251969   4.227   5.144  13.242 -0.0816  0.2443 -0.2031
10185TIP3    H151970   4.201   5.236  13.242 -0.2871  0.1895 -1.1755
10185TIP3    H251971   4.185   5.107  13.319 -1.9908  0.4118 -1.1213
10186TIP3   OH251972   3.243   2.564  12.828 -0.9272  0.0036 -0.2486
10186TIP3    H151973   3.258   2.577  12.921 -2.2671  1.9716 -0.2292
10186TIP3    H251974   3.275   2.476  12.809  0.9828  0.2316  1.6835
10187TIP3   OH251975   1.236   5.503   0.567 -0.0440 -0.0426  0.1103
10187TIP3    H151976   1.265   5.428   0.619 -0.5756 -0.6457 -0.4426
10187TIP3    H251977   1.287   5.496   0.486 -0.1404  0.1585  0.0322
10188TIP3   OH251978   1.230   4.707   6.258  0.0470 -0.0931  0.0544
10188TIP3    H151979   1.178   4.659   6.194 -1.9595  0.2382  1.3409
10188TIP3    H251980   1.240   4.646   6.331  2.2602 -0.4514 -0.4638
10189TIP3   OH251981   1.059   0.951   3.821  0.0044 -0.1772 -0.5292
10189TIP3    H151982   1.032   0.887   3.887  0.8103  0.4206  0.4149
10189TIP3    H251983   0.978   0.979   3.780 -0.5940 -0.0457  0.7093
10190TIP3   OH251984   2.651   0.660  16.187  0.3525 -0.0982 -0.3363
10190TIP3    H151985   2.703   0.731  16.147 -1.3425  0.4334 -1.6869
10190TIP3    H251986   2.716   0.595  16.212  1.7420  0.7928 -1.4413
10191TIP3   OH251987   5.924   6.603   4.498  0.1295  0.4442 -0.3516
10191TIP3    H151988   5.916   6.694   4.526 -0.9125  0.7123 -1.4761
10191TIP3    H251989   5.849   6.559   4.537  1.0794 -0.1590  0.8964
10192TIP3   OH251990   5.036   4.402  11.560  0.3848 -0.0047 -0.7490
10192TIP3    H151991   5.014   4.326  11.614 -2.3212  0.4561 -1.0635
10192TIP3    H251992   5.028   4.476  11.619  3.9047  0.0874 -0.2093
10193TIP3   OH251993   5.889   3.374  13.769  0.3465  0.0235  0.4154
10193TIP3    H151994   5.797   3.350  13.768  0.7802 -1.8144  0.6239
10193TIP3    H251995   5.920   3.351  13.856  1.3579 -0.9192 -0.1673
10194TIP3   OH251996   1.753   6.183  16.108  0.5939  0.1066  0.3868
10194TIP3    H151997   1.848   6.192  16.113  1.0982 -2.7023 -1.6040
10194TIP3    H251998   1.723   6.258  16.056  1.9114  0.2176 -0.2295
10195TIP3   OH251999   1.118   0.757   1.610 -0.4623 -0.0629  0.3867
10195TIP3    H152000   1.069   0.770   1.692  1.2345  0.4075  1.3794
10195TIP3    H252001   1.188   0.822   1.614 -0.1135 -0.3052 -1.2790
10196TIP3   OH252002   4.554   1.668   0.341 -0.1724 -0.2103 -0.2171
10196TIP3    H152003   4.494   1.645   0.270  0.5314 -1.7289 -0.3583
10196TIP3    H252004   4.592   1.584   0.368  1.0736  0.5878  0.5955
10197TIP3   OH252005   0.781   6.674  11.650  0.0672 -0.1536 -0.4441
10197TIP3    H152006   0.694   6.704  11.679  1.0954  1.5428  1.0920
10197TIP3    H252007   0.805   6.737  11.581 -0.4035 -1.3837 -1.7819
10198TIP3   OH252008   5.944   2.370  15.525  0.1658 -0.0605 -0.3484
10198TIP3    H152009   5.914   2.279  15.535  0.2270 -0.1565 -1.0458
10198TIP3    H252010   5.998   2.370  15.446  4.1785 -0.4295  2.1024
10199TIP3   OH252011   6.162   0.657   0.404  0.1301  0.1591  0.0294
10199TIP3    H152012   6.157   0.751   0.389 -0.2136 -0.1895 -2.4421
10199TIP3    H252013   6.230   0.626   0.344  1.0150 -1.0473  1.5932
10200TIP3   OH252014   5.023   3.970  17.203 -0.5204 -0.4894  0.4422
10200TIP3    H152015   5.006   4.063  17.215  0.4334 -0.3106  0.5073
10200TIP3    H252016   5.116   3.965  17.181 -0.9442 -1.2747 -1.4319
10201TIP3   OH252017   0.486   2.239  16.350 -0.1483 -0.3296  0.5402
10201TIP3    H152018   0.566   2.189  16.367  0.7016  0.2594 -1.4742
10201TIP3    H252019   0.512   2.330  16.362 -0.7959 -0.1806  0.8520
10202TIP3   OH252020   6.439   6.409  16.677  0.4471 -0.0741 -0.8490
10202TIP3    H152021   6.381   6.340  16.710  0.0257 -0.1555 -1.7349
10202TIP3    H252022   6.486   6.368  16.604  0.5528  0.4370 -1.0710
10203TIP3   OH252023   1.399   2.449   6.269  0.5685 -0.0276 -0.1766
10203TIP3    H152024   1.337   2.514   6.302 -0.2532  0.1105 -1.8800
10203TIP3    H252025   1.429   2.485   6.186 -0.3268 -2.0400 -1.4516
10204TIP3   OH252026   0.083   5.428  11.392  0.5121  0.6987  0.0698
10204TIP3    H152027  -0.004   5.407  11.359  0.8166 -2.4229  0.8626
10204TIP3    H252028   0.137   5.438  11.314 -0.1631  0.6103 -0.4151
10205TIP3   OH252029   6.698   1.574  11.180 -0.5498  1.0102  0.2539
10205TIP3    H152030   6.669   1.664  11.189  0.3518  1.3752 -0.3441
10205TIP3    H252031   6.673   1.549  11.091 -2.0819  0.1773  0.8929
10206TIP3   OH252032   6.448   5.373  13.686 -0.3519 -0.3154  0.3998
10206TIP3    H152033   6.388   5.300  13.702  0.4049 -0.8486  0.9005
10206TIP3    H252034   6.418   5.412  13.603  0.0165 -2.0272 -0.5878
10207TIP3   OH252035   6.019   2.165   2.516 -0.2961 -0.2631  0.4153
10207TIP3    H152036   6.028   2.074   2.546 -0.8838 -0.0717  1.2294
10207TIP3    H252037   6.103   2.185   2.475  0.0690 -0.9741  0.7884
10208TIP3   OH252038   3.703   5.997   2.097 -0.4407 -0.4384  0.1885
10208TIP3    H152039   3.735   6.016   2.009 -1.3985  0.9172  0.1030
10208TIP3    H252040   3.651   5.917   2.087  0.9094 -1.3142 -0.1094
10209TIP3   OH252041   6.748   3.035   3.982 -0.0926 -0.1903 -0.2962
10209TIP3    H152042   6.765   3.129   3.984 -1.0700  0.0027 -0.6463
10209TIP3    H252043   6.724   3.013   4.072 -0.8632  0.0955 -0.4264
10210TIP3   OH252044   2.388   4.399   1.547 -0.9440 -0.1877 -0.3153
10210TIP3    H152045   2.374   4.474   1.605 -1.2000 -0.5736  0.1169
10210TIP3    H252046   2.462   4.352   1.585 -1.3761 -0.6715 -0.0606
10211TIP3   OH252047   4.697   1.716   1.262 -0.0770  0.8143 -0.5040
10211TIP3    H152048   4.768   1.690   1.320 -0.8148 -0.4612 -0.1483
10211TIP3    H252049   4.733   1.791   1.213  2.8828 -1.9382 -2.9891
10212TIP3   OH252050   0.819   1.169   5.591 -0.3898 -0.4446 -0.4069
10212TIP3    H152051   0.880   1.104   5.625 -1.9161 -1.3311  0.7440
10212TIP3    H252052   0.745   1.166   5.651 -0.7979  1.9083 -0.6977
10213TIP3   OH252053   5.321   1.749  15.378 -0.1507  0.0841 -0.0073
10213TIP3    H152054   5.355   1.720  15.294 -1.1179  1.0045 -0.7509
10213TIP3    H252055   5.255   1.815  15.356  0.1571  0.9643  1.5010
10214TIP3   OH252056   4.523   6.430   5.159  0.5015 -0.6581  0.7397
10214TIP3    H152057   4.553   6.340   5.153 -1.7202 -1.4589  0.6441
10214TIP3    H252058   4.479   6.447   5.075 -0.4859 -0.0661  1.3446
10215TIP3   OH252059   5.534   3.132   3.317  0.2221 -0.2178  0.7968
10215TIP3    H152060   5.613   3.086   3.288 -0.1008  0.0523 -0.6005
10215TIP3    H252061   5.566   3.199   3.377  1.3193  1.0152 -1.0436
10216TIP3   OH252062   2.009   6.107   2.655  0.8811 -0.7873  0.1545
10216TIP3    H152063   1.933   6.117   2.598  0.8672  0.4496  0.3692
10216TIP3    H252064   2.073   6.170   2.623  1.5569 -1.3124  0.4212
10217TIP3   OH252065   5.096   1.319  16.882  0.0667  0.3334 -0.0590
10217TIP3    H152066   5.105   1.349  16.792  1.6927  2.1835  0.6537
10217TIP3    H252067   5.009   1.352  16.909  0.6872  2.1937 -0.1585
10218TIP3   OH252068   0.962   0.664  13.851 -0.6643 -0.3503  0.0692
10218TIP3    H152069   0.966   0.569  13.845 -1.8768 -0.4483  0.5333
10218TIP3    H252070   1.050   0.694  13.826 -0.3131 -1.5746 -0.2015
10219TIP3   OH252071   0.363   1.909  13.301  0.2161 -0.2399 -0.0606
10219TIP3    H152072   0.412   1.986  13.329 -0.0900  0.2468 -0.8073
10219TIP3    H252073   0.271   1.936  13.307 -0.0528 -1.4817  2.3110
10220TIP3   OH252074   3.613   2.463  12.413 -0.4062  0.4017  0.0110
10220TIP3    H152075   3.705   2.453  12.439 -0.5989  0.9340  0.9447
10220TIP3    H252076   3.579   2.373  12.410 -0.5920  0.3302  2.5136
10221TIP3   OH252077   4.250   1.091   5.322 -0.3507 -0.1257 -0.1452
10221TIP3    H152078   4.195   1.148   5.375 -0.2292 -0.5893  0.4870
10221TIP3    H252079   4.226   1.111   5.232 -2.7687 -1.4736  0.1285
10222TIP3   OH252080   4.886   6.223  16.069 -0.3129 -0.1092  0.1479
10222TIP3    H152081   4.980   6.208  16.082 -0.5442 -0.4757  1.5014
10222TIP3    H252082   4.874   6.317  16.085 -0.1084  0.0440 -0.5494
10223TIP3   OH252083   5.650   1.079  12.825 -0.3253  0.2291 -0.0250
10223TIP3    H152084   5.704   1.047  12.753 -1.6050 -1.2280 -0.4015
10223TIP3    H252085   5.621   1.166  12.797  1.8459  1.1101  0.2537
10224TIP3   OH252086   2.129   5.216   1.528  0.1649  0.1066 -0.4778
10224TIP3    H152087   2.122   5.215   1.623  0.6977 -1.2006 -0.4313
10224TIP3    H252088   2.106   5.127   1.501  0.0395  0.4517 -1.5674
10225TIP3   OH252089   4.609   1.943  13.660 -0.5986  0.4193 -0.3688
10225TIP3    H152090   4.600   1.862  13.710 -1.4010  1.2084  0.8256
10225TIP3    H252091   4.701   1.968  13.674  0.1786 -1.1485 -2.2073
10226TIP3   OH252092   2.589   2.418   0.443 -0.2177 -0.2038 -0.7602
10226TIP3    H152093   2.645   2.341   0.434  0.1339  0.1166 -1.4426
10226TIP3    H252094   2.505   2.384   0.473 -0.4459 -1.0220 -2.2177
10227TIP3   OH252095   4.718   4.003   0.307  0.2271 -0.0470  0.1542
10227TIP3    H152096   4.702   3.908   0.311  1.8471 -0.3345  3.1409
10227TIP3    H252097   4.809   4.013   0.335  0.8448  2.3250 -2.2638
10228TIP3   OH252098   3.762   0.520   3.661  0.2316 -0.3181  0.1828
10228TIP3    H152099   3.801   0.468   3.590 -1.6262  0.6002 -1.6274
10228TIP3    H252100   3.831   0.527   3.726  1.3833 -2.8966 -0.6105
10229TIP3   OH252101   1.773   6.008  17.110  0.0745  0.3384 -0.3549
10229TIP3    H152102   1.814   6.002  17.196  1.1214  2.5971 -0.6323
10229TIP3    H252103   1.835   5.965  17.051 -0.3759 -0.7014 -0.0953
10230TIP3   OH252104   6.419   5.030  11.795 -0.2735  0.2653 -0.6742
10230TIP3    H152105   6.432   5.120  11.826  1.2128 -0.3028  0.4872
10230TIP3    H252106   6.328   5.011  11.815 -0.6159  1.5216 -0.9585
10231TIP3   OH252107   1.827   1.582   0.821 -0.3304 -0.2310 -0.1132
10231TIP3    H152108   1.732   1.571   0.813 -0.7604  0.4385  2.9836
10231TIP3    H252109   1.844   1.669   0.786 -0.2467 -1.5646 -3.7963
10232TIP3   OH252110   3.710   1.460   0.804 -0.3282 -0.0558 -0.3109
10232TIP3    H152111   3.747   1.501   0.726  0.4144  0.2838  0.2109
10232TIP3    H252112   3.694   1.532   0.864 -1.8110 -0.2020 -0.5032
10233TIP3   OH252113   2.741   3.897   5.036  0.2648 -0.2947 -0.7586
10233TIP3    H152114   2.702   3.895   4.948  1.6973 -1.3748 -1.4115
10233TIP3    H252115   2.834   3.878   5.021  0.6633  0.1792  0.9432
10234TIP3   OH252116   6.107   1.348  16.075 -0.7839  0.0001  0.4301
10234TIP3    H152117   6.094   1.443  16.070 -0.1390  0.2101  2.1204
10234TIP3    H252118   6.022   1.311  16.049 -1.2966  1.0599  0.5415
10235TIP3   OH252119   6.252   2.030  10.874  0.0646  0.2882 -0.7691
10235TIP3    H152120   6.171   2.074  10.849 -0.7972 -0.5895  0.4261
10235TIP3    H252121   6.300   2.022  10.791 -1.6646 -0.4074 -1.7610
10236TIP3   OH252122   2.512   3.356  12.723  0.1206  0.2531  0.1216
10236TIP3    H152123   2.490   3.388  12.811  1.9303 -0.3426  0.8356
10236TIP3    H252124   2.466   3.273  12.715 -0.3868  0.5084  0.3297
10237TIP3   OH252125   0.679   6.421   2.316  0.0273 -0.0717  0.2369
10237TIP3    H152126   0.625   6.342   2.320  1.3060 -1.0812 -1.1028
10237TIP3    H252127   0.721   6.426   2.401 -0.0761 -0.8255  0.3397
10238TIP3   OH252128   1.665   0.567  14.953  0.2659  0.1270 -0.5543
10238TIP3    H152129   1.758   0.561  14.930 -0.1098 -0.1630 -2.1190
10238TIP3    H252130   1.651   0.492  15.011  1.8685  2.4595  3.2476
10239TIP3   OH252131   5.598   4.888   3.603  0.3682 -0.4378  0.3062
10239TIP3    H152132   5.605   4.856   3.513  0.7746  2.7131 -0.9330
10239TIP3    H252133   5.651   4.968   3.604 -1.0010  0.5733  2.8720
10240TIP3   OH252134   5.600   6.309   3.885 -0.0104 -0.1884 -0.6032
10240TIP3    H152135   5.633   6.328   3.797  1.4911 -0.7955 -0.1897
10240TIP3    H252136   5.587   6.396   3.924  2.0962  0.0988 -0.4403
10241TIP3   OH252137   0.414   2.216   5.426 -0.3224 -0.1102  0.7784
10241TIP3    H152138   0.422   2.308   5.453 -3.4571  0.3838  0.4161
10241TIP3    H252139   0.347   2.180   5.484 -0.2619 -1.7157 -0.0973
10242TIP3   OH252140   5.311   2.350  11.833 -0.8827 -0.3993 -0.4090
10242TIP3    H152141   5.386   2.320  11.885  0.4499 -0.6443 -2.3666
10242TIP3    H252142   5.258   2.271  11.820 -0.2764 -0.7358 -0.9019
10243TIP3   OH252143   6.114   5.242  11.428  0.2104 -0.1563  0.2866
10243TIP3    H152144   6.184   5.307  11.430  0.1078 -0.0407  0.1625
10243TIP3    H252145   6.044   5.279  11.482  0.3097 -0.3474  0.5491
10244TIP3   OH252146   6.220   0.425  10.975 -0.5175 -0.5911  0.5294
10244TIP3    H152147   6.186   0.379  10.898  1.4695 -0.4712 -0.4791
10244TIP3    H252148   6.258   0.356  11.029  0.3145 -0.4163  0.1792
10245TIP3   OH252149   5.013   3.461   1.040  0.1996 -0.5174  0.2858
10245TIP3    H152150   5.061   3.411   1.106  0.0889 -1.5406 -0.3909
10245TIP3    H252151   5.072   3.533   1.017  0.9635 -1.1444  0.2456
10246TIP3   OH252152   6.248   6.241  16.803 -0.4301  0.1867  0.1060
10246TIP3    H152153   6.231   6.189  16.882 -1.2279 -2.0279 -1.4118
10246TIP3    H252154   6.162   6.276  16.778 -0.0499  1.5390  0.6016
10247TIP3   OH252155   0.768   5.595   5.270 -0.0264  0.0012 -0.2876
10247TIP3    H152156   0.695   5.633   5.317 -1.1779 -0.2470 -1.7951
10247TIP3    H252157   0.797   5.523   5.324  2.6216  3.1423  3.0005
10248TIP3   OH252158   5.284   1.383   0.765  0.0913 -0.4517 -0.2297
10248TIP3    H152159   5.285   1.459   0.823 -0.8914 -1.9329  1.8606
10248TIP3    H252160   5.235   1.411   0.688 -2.3092  0.3766  1.5040
10249TIP3   OH252161   2.039   0.922   2.871  0.0511  0.5485  0.3897
10249TIP3    H152162   2.071   0.946   2.958 -0.1484 -0.9591  0.9044
10249TIP3    H252163   1.946   0.947   2.872  0.3232  1.6319  0.1609
10250TIP3   OH252164   3.145   2.995   3.812  0.1912 -0.2333  0.1091
10250TIP3    H152165   3.196   3.065   3.770  0.5762  0.5334  1.7591
10250TIP3    H252166   3.082   2.968   3.746 -0.0031  1.7214 -0.5694
10251TIP3   OH252167   3.915   5.455  13.307 -0.4020  0.3263  0.1307
10251TIP3    H152168   3.881   5.478  13.393  1.3179 -0.0175  0.9484
10251TIP3    H252169   4.001   5.496  13.303  0.3850 -1.3062 -0.6004
10252TIP3   OH252170   2.814   5.341   3.482  0.2202 -0.5763 -0.3618
10252TIP3    H152171   2.727   5.367   3.512  0.9768  0.1894  1.3055
10252TIP3    H252172   2.856   5.423   3.457  0.7927 -0.8198 -0.2218
10253TIP3   OH252173   4.512   2.597   0.265  0.3292 -0.0233 -0.3773
10253TIP3    H152174   4.565   2.663   0.221  2.0981 -0.2129  1.3608
10253TIP3    H252175   4.559   2.515   0.252  0.9105 -0.0947  1.7515
10254TIP3   OH252176   3.515   5.283  11.552 -0.5536 -0.3882 -0.0587
10254TIP3    H152177   3.591   5.280  11.495 -1.9320 -0.8205 -1.9596
10254TIP3    H252178   3.473   5.198  11.541 -2.4197  0.5535 -0.6636
10255TIP3   OH252179   3.948   0.254  15.128  0.2632  0.0976 -0.2255
10255TIP3    H152180   3.918   0.345  15.119 -0.4453 -0.1792 -0.7490
10255TIP3    H252181   4.012   0.257  15.200 -0.1947  0.9014  0.1643
10256TIP3   OH252182   0.484   1.439   4.114  0.4007  0.2621  0.0826
10256TIP3    H152183   0.534   1.358   4.106  2.2646  1.3407  0.1027
10256TIP3    H252184   0.502   1.470   4.203 -0.5234  0.5460  0.1742
10257TIP3   OH252185   2.219   3.893  14.166  0.2245 -0.6629 -0.6826
10257TIP3    H152186   2.252   3.982  14.185 -0.6264 -0.4861  0.0241
10257TIP3    H252187   2.298   3.839  14.166  0.5558 -0.2628  1.0879
10258TIP3   OH252188   6.134   5.190  10.870 -0.6547  0.1487  0.4209
10258TIP3    H152189   6.194   5.154  10.936  0.7302  1.7799  0.1336
10258TIP3    H252190   6.143   5.130  10.796  1.7046  1.0076 -0.0966
10259TIP3   OH252191   0.404   4.404  10.851 -0.0300 -0.2937 -0.3920
10259TIP3    H152192   0.473   4.468  10.833  1.5772 -2.1437 -1.1596
10259TIP3    H252193   0.450   4.320  10.859 -2.1090 -1.4738 -0.0245
10260TIP3   OH252194   3.540   3.715   2.119  0.3705  0.0297 -0.5094
10260TIP3    H152195   3.626   3.674   2.130  0.0344 -0.1522  2.0225
10260TIP3    H252196   3.553   3.806   2.146  0.0399  0.3515 -1.4071
10261TIP3   OH252197   3.021   3.131  15.109  0.1663 -0.8276 -0.3014
10261TIP3    H152198   3.097   3.155  15.163  0.6188 -0.5239 -1.0604
10261TIP3    H252199   2.945   3.158  15.162  0.6276  0.5209 -0.2933
10262TIP3   OH252200   6.687   2.813  15.969 -0.0640 -0.4909  0.3372
10262TIP3    H152201   6.765   2.863  15.994  0.6691 -1.6903  0.5236
10262TIP3    H252202   6.616   2.877  15.970  0.7209  0.3965  1.2831
10263TIP3   OH252203   1.546   3.088   5.211  0.5550  0.2324  0.0860
10263TIP3    H152204   1.641   3.074   5.218  0.4576 -0.6021 -0.1396
10263TIP3    H252205   1.515   3.014   5.160 -0.2276  0.5030  0.1587
10264TIP3   OH252206   1.565   3.295   3.297  0.2188 -0.2074  0.2349
10264TIP3    H152207   1.477   3.299   3.334 -0.6179 -0.0778 -1.6487
10264TIP3    H252208   1.604   3.380   3.314 -0.4753  0.1465  0.0615
10265TIP3   OH252209   3.004   1.639  16.338  0.0469  0.1858 -0.1900
10265TIP3    H152210   2.984   1.625  16.245 -1.2133  0.1562  0.0705
10265TIP3    H252211   3.099   1.626  16.344  0.4393  1.8516 -1.7801
10266TIP3   OH252212   5.168   2.609  14.341  0.5826  0.5390  0.3689
10266TIP3    H152213   5.157   2.667  14.266 -0.4572  1.0513  0.8994
10266TIP3    H252214   5.151   2.522  14.307  0.8328  0.6869 -0.1440
10267TIP3   OH252215   3.180   5.015   3.577  0.1224 -0.5253 -0.6738
10267TIP3    H152216   3.125   4.941   3.603 -2.5630  1.5852  0.1961
10267TIP3    H252217   3.166   5.024   3.483  1.5019 -1.8389 -1.0373
10268TIP3   OH252218   4.839   2.617  16.442 -0.1363  0.1490 -0.0246
10268TIP3    H152219   4.798   2.628  16.357 -3.3929  0.1525  1.3958
10268TIP3    H252220   4.800   2.537  16.477  0.8309  0.3449  1.5961
10269TIP3   OH252221   1.179   2.949   2.312 -0.0201  0.4069  0.1685
10269TIP3    H152222   1.222   2.887   2.253 -0.7485  0.1840 -0.1435
10269TIP3    H252223   1.249   2.981   2.369  0.0839 -2.1376  1.6195
10270TIP3   OH252224   3.230   3.242   6.194  0.7813  0.4016  0.7077
10270TIP3    H152225   3.147   3.270   6.157  0.7943 -0.6490 -0.1633
10270TIP3    H252226   3.279   3.323   6.207  0.7225  0.8504 -1.4781
10271TIP3   OH252227   4.268   2.667  15.427  0.2909  0.1389 -0.0780
10271TIP3    H152228   4.332   2.665  15.357  0.5023 -0.8281  0.1337
10271TIP3    H252229   4.241   2.759  15.432  0.6389  0.3051 -1.0782
10272TIP3   OH252230   1.097   1.933   0.663 -0.4526 -0.2159 -0.1531
10272TIP3    H152231   1.016   1.915   0.711 -0.5457  0.9327  0.1330
10272TIP3    H252232   1.083   2.018   0.623 -0.0342 -0.7727 -1.5212
10273TIP3   OH252233   5.343   5.600  13.824 -0.0822  0.0540  0.3296
10273TIP3    H152234   5.362   5.674  13.882  0.1090  0.3271 -0.0733
10273TIP3    H252235   5.385   5.525  13.866  1.3604  0.5203 -0.1858
10274TIP3   OH252236   5.090   1.539   0.683  0.2462 -0.0966 -0.8701
10274TIP3    H152237   5.002   1.537   0.645  0.1025 -0.4637 -0.5208
10274TIP3    H252238   5.122   1.627   0.663 -1.0805  0.8716  0.9923
10275TIP3   OH252239   5.603   2.109   0.480 -0.0211  0.3558 -0.2825
10275TIP3    H152240   5.633   2.027   0.439  0.8001  0.9470 -0.9003
10275TIP3    H252241   5.676   2.135   0.536 -1.1637 -0.4924  1.7038
10276TIP3   OH252242   1.322   5.688  12.761 -0.2011  0.0411 -0.3991
10276TIP3    H152243   1.409   5.674  12.799 -0.5494 -2.9803 -0.5006
10276TIP3    H252244   1.262   5.681  12.835 -0.5592 -1.2498 -0.7912
10277TIP3   OH252245   0.034   4.667   4.346  0.1415  0.1518 -0.9694
10277TIP3    H152246  -0.009   4.752   4.352  0.0519  0.0257  0.3949
10277TIP3    H252247  -0.015   4.619   4.279  0.0439  1.0727 -1.5671
10278TIP3   OH252248   2.467   2.289  12.390 -0.2089  0.5179  0.2807
10278TIP3    H152249   2.401   2.246  12.335  0.4206 -0.8447  0.5540
10278TIP3    H252250   2.549   2.276  12.343  0.1381  0.5244  0.8766
10279TIP3   OH252251   5.788   3.433   5.543 -0.2825 -0.0129  0.1849
10279TIP3    H152252   5.839   3.404   5.468 -0.1622 -2.4398  1.1337
10279TIP3    H252253   5.786   3.529   5.535  0.3482 -0.1469 -2.4623
10280TIP3   OH252254   0.972   6.112  15.264 -0.2892  0.5422 -0.2201
10280TIP3    H152255   1.054   6.095  15.218 -0.3405 -2.8122  0.6839
10280TIP3    H252256   0.998   6.130  15.354 -0.5201 -1.0683  0.1903
10281TIP3   OH252257   3.630   1.412  14.383  0.2356  0.1445 -0.3763
10281TIP3    H152258   3.718   1.406  14.422  0.6071  0.3221 -1.1591
10281TIP3    H252259   3.646   1.414  14.289 -0.7114 -1.6583 -0.6149
10282TIP3   OH252260   6.358   0.417  11.372 -0.0241  0.0739 -0.0924
10282TIP3    H152261   6.284   0.409  11.312  0.0635 -0.3327 -0.1439
10282TIP3    H252262   6.329   0.373  11.452  0.2861 -0.3732 -0.2260
10283TIP3   OH252263   0.275   3.719  10.797  0.3147 -1.1540 -0.2311
10283TIP3    H152264   0.304   3.770  10.873 -2.1565  0.9139 -0.5430
10283TIP3    H252265   0.322   3.757  10.723  1.5664 -2.1487  0.0213
10284TIP3   OH252266   1.440   5.198  14.666  0.5329 -0.4606 -0.6770
10284TIP3    H152267   1.359   5.149  14.680  0.1999 -0.0399 -1.0710
10284TIP3    H252268   1.503   5.134  14.635 -0.4558 -0.3213 -3.1791
10285TIP3   OH252269   2.002   4.069   4.257 -0.0046  0.5499 -0.4370
10285TIP3    H152270   2.069   4.115   4.207  1.0571  1.7728  1.9399
10285TIP3    H252271   1.994   3.984   4.214  2.5151  0.6563 -1.2752
10286TIP3   OH252272   2.812   6.483  12.180 -0.2009 -0.1253 -0.0271
10286TIP3    H152273   2.787   6.420  12.248 -1.4315  0.2195 -0.1408
10286TIP3    H252274   2.901   6.457  12.155 -0.7691 -1.9658 -0.2386
10287TIP3   OH252275   0.488   6.605  15.950  0.1670 -0.4297 -0.1861
10287TIP3    H152276   0.543   6.679  15.925  0.4730 -0.2539  0.9609
10287TIP3    H252277   0.403   6.643  15.970  0.0844 -0.4944 -0.4162
10288TIP3   OH252278   4.623   6.736   2.479 -0.3899 -0.0700 -0.0747
10288TIP3    H152279   4.684   6.759   2.409 -0.0152  0.0737  0.2946
10288TIP3    H252280   4.637   6.803   2.546 -2.2978  1.0941 -0.7666
10289TIP3   OH252281   6.167   1.705   0.629  0.0764  0.5606  0.5331
10289TIP3    H152282   6.203   1.627   0.671 -0.4439 -0.3876 -0.7058
10289TIP3    H252283   6.243   1.749   0.590  0.2238 -0.0443  0.1233
10290TIP3   OH252284   3.651   2.110   2.806  0.1192 -0.9255  0.2130
10290TIP3    H152285   3.634   2.145   2.893 -0.5820 -0.5772 -0.0531
10290TIP3    H252286   3.713   2.039   2.820  0.1731 -0.7369  0.9704
10291TIP3   OH252287   2.199   0.792  13.052 -0.2309  0.2413 -0.1530
10291TIP3    H152288   2.148   0.867  13.021  0.5659  0.3865 -1.1484
10291TIP3    H252289   2.135   0.720  13.053 -1.1343  1.0032  1.3216
10292TIP3   OH252290   0.588   3.119   1.161 -0.0490  0.2615  0.1830
10292TIP3    H152291   0.658   3.173   1.125 -1.5095  2.4453  0.4446
10292TIP3    H252292   0.590   3.039   1.109  0.7008  1.5204 -1.8231
10293TIP3   OH252293   5.493   2.335   2.559 -0.0172 -0.2655  0.1517
10293TIP3    H152294   5.434   2.365   2.490  0.6780  1.4180  0.2373
10293TIP3    H252295   5.473   2.392   2.633  1.6054  0.2477  0.2289
10294TIP3   OH252296   3.355   0.523  11.796 -0.7040 -0.5123 -0.2324
10294TIP3    H152297   3.264   0.501  11.776 -1.4723  0.2601  2.1223
10294TIP3    H252298   3.392   0.441  11.830 -1.2344 -0.2503  1.0196
10295TIP3   OH252299   6.560   0.187   6.062 -0.3085 -0.1504 -0.0464
10295TIP3    H152300   6.594   0.142   6.139 -0.7565 -0.6106 -0.1164
10295TIP3    H252301   6.482   0.138   6.038 -1.0634  0.9390  0.1450
10296TIP3   OH252302   0.008   6.437  16.039 -0.1988  0.6848  0.0147
10296TIP3    H152303  -0.017   6.388  15.960 -1.0936 -0.4619  0.9665
10296TIP3    H252304   0.100   6.459  16.026 -0.6442  1.5865 -1.8849
10297TIP3   OH252305   1.147   0.849  16.068 -0.1047  0.2532 -0.3548
10297TIP3    H152306   1.154   0.864  15.974 -0.5073 -1.4127 -0.6827
10297TIP3    H252307   1.228   0.804  16.092  0.1625  1.0053  0.1718
10298TIP3   OH252308   2.435   6.737  11.554 -0.4974 -0.0173  0.5539
10298TIP3    H152309   2.378   6.712  11.481  2.0890  0.3397 -1.7651
10298TIP3    H252310   2.422   6.831  11.563  0.6447  0.3258 -0.9363
10299TIP3   OH252311   3.791   5.225  17.223 -0.7095  0.4564 -0.3675
10299TIP3    H152312   3.877   5.209  17.185 -0.8924  0.5003 -0.8106
10299TIP3    H252313   3.772   5.316  17.201 -0.4844  0.7207  0.5095
10300TIP3   OH252314   5.043   6.325  13.843  0.7238 -0.4558 -0.1903
10300TIP3    H152315   4.961   6.302  13.798 -0.4598  0.8876  1.1847
10300TIP3    H252316   5.051   6.259  13.912 -1.5474  1.7230  2.3934
10301TIP3   OH252317   2.176   4.718  12.335 -0.2457 -0.0764 -0.4512
10301TIP3    H152318   2.271   4.703  12.343 -0.1686  0.4975 -0.2944
10301TIP3    H252319   2.145   4.716  12.426 -0.4400 -0.5943 -0.5238
10302TIP3   OH252320   2.892   3.914   0.281 -0.4117  0.5494 -0.1580
10302TIP3    H152321   2.921   3.825   0.303 -0.6640  0.4292 -0.3029
10302TIP3    H252322   2.905   3.921   0.187 -0.0436  0.7970 -0.0879
10303TIP3   OH252323   4.209   5.798  15.457  0.7207 -0.3942  0.3466
10303TIP3    H152324   4.288   5.778  15.406 -0.2451 -1.1722 -0.9308
10303TIP3    H252325   4.190   5.716  15.503 -2.0325 -2.0367 -3.2159
10304TIP3   OH252326   6.082   6.022   3.485 -0.1181  0.0797  0.2106
10304TIP3    H152327   6.106   5.939   3.527 -0.1758  0.5941  1.2964
10304TIP3    H252328   6.016   5.998   3.420  0.0695 -0.7587  0.3177
10305TIP3   OH252329   3.256   2.131   0.373  0.4064  0.0860  0.0526
10305TIP3    H152330   3.331   2.084   0.410  0.2244 -2.3550 -2.2811
10305TIP3    H252331   3.181   2.074   0.391 -0.4211  1.1361  0.0016
10306TIP3   OH252332   5.540   4.517   2.675  0.4016  0.0185  0.4027
10306TIP3    H152333   5.551   4.579   2.747 -1.5377 -1.0102  1.6836
10306TIP3    H252334   5.445   4.516   2.659  0.5845 -1.3109 -0.7582
10307TIP3   OH252335   1.634   1.911   0.810 -0.0189  0.7075 -0.0377
10307TIP3    H152336   1.729   1.917   0.804 -0.0975  0.9906 -1.2735
10307TIP3    H252337   1.615   1.819   0.795  0.1726  0.1630  2.5861
10308TIP3   OH252338   5.979   5.672   1.381  0.8183 -0.4756  0.4379
10308TIP3    H152339   5.916   5.714   1.323 -1.6544 -2.2746  1.6201
10308TIP3    H252340   6.019   5.744   1.430  0.0072  0.7548 -0.6372
10309TIP3   OH252341   0.477   4.678   3.466  0.2977  0.3560 -0.2959
10309TIP3    H152342   0.412   4.641   3.526 -0.0968 -0.0804 -0.9750
10309TIP3    H252343   0.561   4.656   3.505  0.0723 -1.1662 -0.5955
10310TIP3   OH252344   1.906   5.667  12.116 -0.6818 -0.5607  0.1245
10310TIP3    H152345   1.833   5.626  12.069 -0.8390 -0.0833 -0.0554
10310TIP3    H252346   1.985   5.632  12.075 -0.8081  0.8257 -1.3901
10311TIP3   OH252347   4.917   1.174  15.019  0.0982 -0.2298  0.2501
10311TIP3    H152348   4.970   1.211  15.089 -0.4771  0.0249  0.5641
10311TIP3    H252349   4.979   1.152  14.950  0.6801 -0.5368  0.8639
10312TIP3   OH252350   3.452   1.942  13.695 -0.6850 -0.1167 -0.2140
10312TIP3    H152351   3.435   1.848  13.698 -0.7524 -0.1117 -0.4786
10312TIP3    H252352   3.502   1.960  13.775 -2.7297  0.0490  1.0873
10313TIP3   OH252353   1.311   5.223  13.379 -0.1396 -0.4128 -0.6337
10313TIP3    H152354   1.379   5.219  13.312 -0.4132 -1.6464 -0.8661
10313TIP3    H252355   1.317   5.311  13.415  1.1287 -0.2871 -1.1200
10314TIP3   OH252356   1.864   4.611   2.543 -0.3935  0.3902 -0.1892
10314TIP3    H152357   1.923   4.536   2.549  0.5169  1.0710 -0.3252
10314TIP3    H252358   1.788   4.579   2.495 -0.0429 -0.4538 -0.1879
10315TIP3   OH252359   1.613   4.636  12.516 -0.3217 -0.0375  0.5101
10315TIP3    H152360   1.602   4.664  12.607 -1.5183  1.4893 -0.0531
10315TIP3    H252361   1.531   4.591  12.494 -0.4784  0.5316 -0.1109
10316TIP3   OH252362   3.192   1.248   1.828 -0.3734 -0.6057 -0.1209
10316TIP3    H152363   3.262   1.184   1.839 -0.1659 -0.3286  0.2277
10316TIP3    H252364   3.198   1.275   1.737 -1.2561 -1.9767 -0.6187
10317TIP3   OH252365   0.244   2.447   3.079  0.2189  0.5142 -0.2572
10317TIP3    H152366   0.281   2.382   3.019  1.9158  0.9544  0.2498
10317TIP3    H252367   0.182   2.398   3.132 -0.8607 -0.0198 -1.9145
10318TIP3   OH252368   4.777   4.126   1.331 -0.0818 -0.2703  0.0290
10318TIP3    H152369   4.824   4.088   1.405  0.1117  0.5904  0.3495
10318TIP3    H252370   4.695   4.158   1.368  0.0524  0.2440 -0.1114
10319TIP3   OH252371   4.289   2.626  12.586  0.0872  0.0311  0.0768
10319TIP3    H152372   4.380   2.645  12.607  0.5789 -2.4803  0.5685
10319TIP3    H252373   4.246   2.613  12.670 -0.5452  0.4647 -0.1702
10320TIP3   OH252374   3.488   0.711  15.262  0.0429  1.0356 -0.5867
10320TIP3    H152375   3.545   0.634  15.259  0.1342  1.0724  0.1818
10320TIP3    H252376   3.412   0.683  15.313  0.7216  1.8730  0.9323
10321TIP3   OH252377   0.394   3.629   0.078 -0.5477  0.2143  0.0727
10321TIP3    H152378   0.304   3.610   0.054 -0.2875 -1.5141  0.3758
10321TIP3    H252379   0.391   3.650   0.171 -0.8174  1.7040 -0.2387
10322TIP3   OH252380   0.790   0.642   4.470 -0.4340 -0.3172 -0.0737
10322TIP3    H152381   0.809   0.700   4.544 -1.1984  1.2151 -1.0216
10322TIP3    H252382   0.787   0.701   4.394 -1.4258 -1.5859 -1.0555
10323TIP3   OH252383   5.247   3.235   2.978 -0.4092  0.3321 -0.1266
10323TIP3    H152384   5.310   3.165   2.995 -0.0487  0.7723  0.4028
10323TIP3    H252385   5.166   3.190   2.955 -0.6224 -0.3193  1.6965
10324TIP3   OH252386   2.491   2.560   2.589 -0.1815 -0.0218  0.8049
10324TIP3    H152387   2.397   2.575   2.578 -0.4852 -2.0586  0.1623
10324TIP3    H252388   2.503   2.468   2.567  2.2940  0.6756 -1.2992
10325TIP3   OH252389   0.481   1.134   1.390 -0.3878 -0.2562 -0.3458
10325TIP3    H152390   0.528   1.156   1.471 -0.8037  1.1082 -0.4382
10325TIP3    H252391   0.450   1.219   1.357  1.1362 -0.5410 -2.7965
10326TIP3   OH252392   5.065   6.383  14.863 -0.8572  0.2020  0.1665
10326TIP3    H152393   5.136   6.445  14.876  0.3220 -1.0129 -0.2570
10326TIP3    H252394   5.020   6.380  14.948  0.5651 -0.1616  0.9444
10327TIP3   OH252395   4.997   4.612  12.990 -0.1385  0.3340  0.1008
10327TIP3    H152396   5.069   4.670  12.963 -1.0563  1.1212 -0.7118
10327TIP3    H252397   4.965   4.574  12.909 -0.2124 -0.5468  0.5330
10328TIP3   OH252398   1.346   5.135  11.313 -0.4017 -0.0124  0.4581
10328TIP3    H152399   1.374   5.226  11.321  1.1011 -0.4301  0.2089
10328TIP3    H252400   1.251   5.140  11.305 -0.4339  1.4727  1.3360
10329TIP3   OH252401   0.293   5.976   1.261 -0.5250 -0.3058 -0.1115
10329TIP3    H152402   0.243   6.056   1.242  0.2931  0.0857 -0.6318
10329TIP3    H252403   0.353   5.966   1.187 -1.0440 -1.7629 -0.3685
10330TIP3   OH252404   1.007   5.170  14.014  0.3362  0.8625 -0.3415
10330TIP3    H152405   1.067   5.215  13.954  0.6878  2.1717  0.9390
10330TIP3    H252406   0.929   5.154  13.961  0.6666  1.9008 -1.1933
10331TIP3   OH252407   4.147   6.178  10.635 -0.4697  0.6715 -0.4998
10331TIP3    H152408   4.092   6.127  10.694 -0.6655  1.8173  0.3391
10331TIP3    H252409   4.117   6.268  10.645  1.1407  1.2492 -0.4764
10332TIP3   OH252410   0.474   1.601  17.210 -0.5691  0.0845 -0.1217
10332TIP3    H152411   0.390   1.604  17.255 -0.6953 -1.0763 -0.2478
10332TIP3    H252412   0.451   1.594  17.117 -0.4071 -2.0736 -0.0592
10333TIP3   OH252413   3.824   5.166  16.800 -0.6096  0.3929 -0.3048
10333TIP3    H152414   3.842   5.255  16.770 -1.1621  0.0103 -1.8206
10333TIP3    H252415   3.747   5.139  16.751 -0.7544 -0.7458  0.5141
10334TIP3   OH252416   0.303   6.432   1.073 -0.6481  0.1281  0.1649
10334TIP3    H152417   0.361   6.450   0.999  0.2590 -2.6593  0.0696
10334TIP3    H252418   0.217   6.460   1.043  0.2927  2.7245 -0.3714
10335TIP3   OH252419   1.677   4.687  16.247 -0.1690 -0.8759  0.4061
10335TIP3    H152420   1.753   4.634  16.222 -0.2220 -0.7673 -0.0014
10335TIP3    H252421   1.650   4.729  16.165 -2.0049 -2.6204  0.0262
10336TIP3   OH252422   4.381   2.179   2.300 -0.5849  0.0893  1.0453
10336TIP3    H152423   4.404   2.268   2.328  0.1026  0.0878  0.5245
10336TIP3    H252424   4.375   2.129   2.381 -0.9038  0.5957  1.3382
10337TIP3   OH252425   3.072   4.604  12.476 -0.2724 -0.4563  0.0771
10337TIP3    H152426   3.034   4.677  12.427 -2.1212 -1.4977 -0.1659
10337TIP3    H252427   3.036   4.613  12.564  1.7169  0.4660  0.8348
10338TIP3   OH252428   6.070   0.945  14.536  0.1344 -0.0951  0.1442
10338TIP3    H152429   6.127   0.891  14.591 -2.1521 -1.4955  1.2954
10338TIP3    H252430   6.053   1.023  14.589  0.6749  0.1774 -0.0695
10339TIP3   OH252431   2.593   0.488  12.086 -0.6780  0.3137 -0.5037
10339TIP3    H152432   2.595   0.399  12.051 -0.2888 -0.2260  0.8234
10339TIP3    H252433   2.675   0.527  12.059  0.2860 -0.5901  0.9780
10340TIP3   OH252434   3.580   1.253   6.315  0.2339 -0.1569  0.1500
10340TIP3    H152435   3.522   1.329   6.324 -0.9359 -0.5651 -2.7713
10340TIP3    H252436   3.522   1.180   6.294  1.6600 -0.7434 -2.1274
10341TIP3   OH252437   6.483   6.540   1.721 -0.2876 -0.1679  0.2756
10341TIP3    H152438   6.495   6.464   1.664  0.9391  0.3751 -0.2102
10341TIP3    H252439   6.529   6.611   1.677  2.1975 -0.1157  2.7089
10342TIP3   OH252440   1.102   2.113   2.716 -0.0693 -0.0139 -0.2954
10342TIP3    H152441   1.058   2.166   2.649 -0.5176 -0.1774 -0.1307
10342TIP3    H252442   1.117   2.029   2.674 -2.7313 -1.0583  0.6006
10343TIP3   OH252443   1.835   6.017  14.540  0.3286 -0.2571  0.4061
10343TIP3    H152444   1.744   6.001  14.564  0.4042 -2.9945 -0.8121
10343TIP3    H252445   1.845   5.978  14.454  2.8644 -0.8307  0.8630
10344TIP3   OH252446   5.903   3.556   5.797 -0.3148 -0.6329  0.3898
10344TIP3    H152447   5.934   3.518   5.715 -0.2633 -0.5372  0.3658
10344TIP3    H252448   5.902   3.650   5.782  1.3089 -0.4873  1.0445
10345TIP3   OH252449   1.498   4.270   1.861 -0.5679 -0.7391 -0.0981
10345TIP3    H152450   1.493   4.182   1.900 -2.0666 -1.2597 -1.3616
10345TIP3    H252451   1.520   4.327   1.935 -0.0074 -2.0989  0.8403
10346TIP3   OH252452   3.995   2.217  15.905 -0.2938  0.2896  0.8176
10346TIP3    H152453   4.017   2.125  15.919 -0.3465  0.2107  0.4058
10346TIP3    H252454   3.904   2.224  15.932 -0.5271  0.0424  0.1076
10347TIP3   OH252455   3.829   1.975  16.565 -0.3849 -0.0330  0.7060
10347TIP3    H152456   3.816   1.916  16.639 -0.7206 -1.3225 -0.3385
10347TIP3    H252457   3.741   2.006  16.543 -0.3966 -0.3391  0.3118
10348TIP3   OH252458   4.250   6.334   4.330  0.2500 -0.0424  0.4360
10348TIP3    H152459   4.198   6.364   4.404  0.4148 -1.0917  0.9873
10348TIP3    H252460   4.337   6.319   4.367  0.9659  1.6461 -0.4576
10349TIP3   OH252461   2.535   2.872  13.346 -0.7035 -0.8385  0.2507
10349TIP3    H152462   2.453   2.823  13.341 -0.1113 -1.7423 -1.4198
10349TIP3    H252463   2.598   2.810  13.381 -0.4230 -0.5662  0.2347
10350TIP3   OH252464   5.494   3.842   3.141 -0.2396 -0.5736  0.0165
10350TIP3    H152465   5.555   3.788   3.091  1.7752  1.7695 -0.2457
10350TIP3    H252466   5.529   3.931   3.133 -5.2202  1.5443 -2.5757
10351TIP3   OH252467   2.436   3.152  11.091  0.1219  0.0739  0.0892
10351TIP3    H152468   2.402   3.236  11.059  0.2514 -0.0128 -0.2923
10351TIP3    H252469   2.377   3.087  11.054 -0.2924  0.0265  0.8259
10352TIP3   OH252470   2.923   4.408  15.869  0.5295  0.1353  0.6922
10352TIP3    H152471   3.012   4.376  15.886  0.8173  0.3140 -0.4265
10352TIP3    H252472   2.871   4.328  15.863  0.6696  0.0147  1.0516
10353TIP3   OH252473   5.178   3.189   0.207 -0.1076 -0.1800 -0.2476
10353TIP3    H152474   5.220   3.106   0.231 -1.7172 -0.0965  3.5212
10353TIP3    H252475   5.088   3.180   0.238 -0.6482  2.5723 -0.7795
10354TIP3   OH252476   6.232   3.126   0.965 -0.1540 -0.0094 -0.3829
10354TIP3    H152477   6.224   3.036   0.934  1.6334 -0.3430 -0.0171
10354TIP3    H252478   6.147   3.166   0.948 -0.7652 -1.5783 -1.1512
10355TIP3   OH252479   4.440   5.675   3.453  0.1966 -0.3610 -0.0017
10355TIP3    H152480   4.467   5.761   3.423 -2.7287  0.6911  0.0631
10355TIP3    H252481   4.425   5.686   3.547 -2.0959 -0.3097 -0.3178
10356TIP3   OH252482   2.839   4.982  15.949  0.3825  0.0316 -0.0002
10356TIP3    H152483   2.913   5.042  15.942  1.0050 -0.8344 -1.1286
10356TIP3    H252484   2.860   4.926  16.023  0.1904  0.6543  0.5374
10357TIP3   OH252485   5.033   6.429  11.603  0.2369  0.2149  0.5637
10357TIP3    H152486   5.020   6.445  11.697  1.5727  0.6704  0.7033
10357TIP3    H252487   5.127   6.408  11.596  0.1641  0.2470 -0.6764
10358TIP3   OH252488   0.019   0.613  11.455 -0.3872 -0.3524 -0.0995
10358TIP3    H152489  -0.033   0.634  11.378  0.8009  0.8430 -0.6054
10358TIP3    H252490   0.042   0.520  11.444 -1.5437 -0.6188 -0.3612
10359TIP3   OH252491   0.821   0.770   2.588 -0.0619  0.1396 -0.1124
10359TIP3    H152492   0.859   0.813   2.664 -1.9320  1.5575  0.0852
10359TIP3    H252493   0.888   0.707   2.560  2.1226  2.0546  0.5478
10360TIP3   OH252494   3.451   0.638  12.565  0.2897  0.2378  0.4336
10360TIP3    H152495   3.368   0.668  12.527  1.0810  1.4782 -0.3468
10360TIP3    H252496   3.510   0.631  12.491  0.6100 -1.7335  0.8223
10361TIP3   OH252497   4.835   3.318  16.228 -0.2146  0.0646  0.1446
10361TIP3    H152498   4.863   3.356  16.145 -0.0189  1.9598  1.0352
10361TIP3    H252499   4.742   3.298  16.215  0.0491 -0.6021 -0.8330
10362TIP3   OH252500   0.883   0.114  13.122  0.2179 -0.3486  0.1834
10362TIP3    H152501   0.967   0.069  13.126 -0.3931 -1.4066  2.1789
10362TIP3    H252502   0.827   0.068  13.184 -3.2634 -2.4263 -3.8988
10363TIP3   OH252503   6.400   2.872  11.699 -0.4554 -0.6395  0.0571
10363TIP3    H152504   6.406   2.840  11.609  0.6549  1.4211 -0.6524
10363TIP3    H252505   6.484   2.847  11.738 -0.7367 -1.0827  0.3922
10364TIP3   OH252506   0.672   1.550   2.780  0.2941  0.3021  0.2651
10364TIP3    H152507   0.676   1.584   2.869  0.3533 -2.5156  1.4501
10364TIP3    H252508   0.585   1.511   2.773  1.0416 -1.3995 -0.0959
10365TIP3   OH252509   1.600   4.838  13.576  0.4452 -0.0846 -0.0388
10365TIP3    H152510   1.590   4.746  13.552 -0.3127 -0.2642  0.9026
10365TIP3    H252511   1.555   4.886  13.507 -2.7759 -0.6454  1.4822
10366TIP3   OH252512   1.074   2.557   4.952 -0.2832  0.2938  0.4014
10366TIP3    H152513   1.007   2.610   4.995  0.4721  1.1894  0.5241
10366TIP3    H252514   1.091   2.485   5.013 -1.0825  0.0954  0.3929
10367TIP3   OH252515   4.339   4.967  11.490 -0.1902  0.0059  0.0598
10367TIP3    H152516   4.294   5.004  11.566 -0.1152 -1.8702  1.0840
10367TIP3    H252517   4.281   4.986  11.417 -0.2901  1.8138  0.5465
10368TIP3   OH252518   4.449   2.177  16.470 -0.1441  0.2216  0.0728
10368TIP3    H152519   4.499   2.102  16.438 -1.9258 -0.4007 -1.4207
10368TIP3    H252520   4.399   2.144  16.544 -0.7309 -0.0166 -0.4221
10369TIP3   OH252521   5.734   3.186  15.715 -0.7814 -0.0449  0.2795
10369TIP3    H152522   5.669   3.255  15.702 -0.2395  0.4321  0.0526
10369TIP3    H252523   5.696   3.129  15.782 -1.6898 -0.0989 -0.2630
10370TIP3   OH252524   6.139   6.643   5.964 -0.2765 -0.2394 -0.4724
10370TIP3    H152525   6.162   6.573   6.025  2.0077  0.4562 -0.4374
10370TIP3    H252526   6.052   6.671   5.992 -0.5056 -1.8611  0.6151
10371TIP3   OH252527   6.509   6.578   3.770 -0.0850  0.5336  0.8594
10371TIP3    H152528   6.442   6.578   3.838 -0.1872  2.6404  0.8179
10371TIP3    H252529   6.547   6.665   3.773  0.8257  0.2517 -0.9121
10372TIP3   OH252530   5.975   2.695   5.804  0.0571 -0.2051 -0.7348
10372TIP3    H152531   5.886   2.659   5.801 -0.6828  1.5506 -1.4529
10372TIP3    H252532   5.985   2.739   5.719  0.4794  2.1301  0.4551
10373TIP3   OH252533   0.398   0.725   5.830  0.5566  0.0645 -0.2250
10373TIP3    H152534   0.488   0.699   5.809 -0.0247 -0.8335 -1.7092
10373TIP3    H252535   0.353   0.642   5.849 -0.1450  0.4393 -0.2363
10374TIP3   OH252536   3.746   4.370  14.457 -0.1091  0.0096  0.4253
10374TIP3    H152537   3.793   4.314  14.518  0.5547  1.4205  1.2468
10374TIP3    H252538   3.742   4.455  14.501 -1.2390  0.5703 -0.7123
10375TIP3   OH252539   1.241   2.163   5.305 -0.2066 -0.6222  0.1951
10375TIP3    H152540   1.200   2.084   5.270 -0.1396  0.9165 -3.8545
10375TIP3    H252541   1.331   2.137   5.323  0.5234 -1.0835 -3.4091
10376TIP3   OH252542   2.690   5.119  10.806  0.0780  0.0195  0.6956
10376TIP3    H152543   2.628   5.089  10.739  1.0504 -1.6040  0.4365
10376TIP3    H252544   2.658   5.080  10.887  0.2610 -0.1014  0.7115
10377TIP3   OH252545   2.465   3.514   3.019 -1.1717 -0.5898 -0.5841
10377TIP3    H152546   2.453   3.530   2.926 -2.6728  0.7114 -0.2158
10377TIP3    H252547   2.465   3.601   3.059  1.8560 -0.9499  0.4300
10378TIP3   OH252548   2.985   0.024   5.362 -0.4949 -0.2331 -0.1000
10378TIP3    H152549   3.036  -0.020   5.294  1.0241  3.1779 -1.3698
10378TIP3    H252550   2.907   0.057   5.317 -0.9263 -0.3808  0.5163
10379TIP3   OH252551   2.074   5.057   1.825 -0.1614  0.1648  0.1740
10379TIP3    H152552   2.020   5.020   1.894  0.1556 -0.4642  0.0916
10379TIP3    H252553   2.150   4.999   1.819 -0.3259  0.0357 -0.9072
10380TIP3   OH252554   1.500   1.276  12.013  0.3216 -0.3821 -0.3012
10380TIP3    H152555   1.451   1.262  12.094  0.5602  0.2780 -0.0376
10380TIP3    H252556   1.435   1.305  11.950 -0.0412 -1.8342 -0.6351
10381TIP3   OH252557   6.414   2.034  13.400  0.0003 -0.0901  0.4642
10381TIP3    H152558   6.342   2.095  13.387 -0.0680 -0.5499 -1.7064
10381TIP3    H252559   6.493   2.087  13.389 -0.0588 -0.3346 -1.4144
10382TIP3   OH252560   6.571   0.797  16.342  0.7001  0.1282 -0.0349
10382TIP3    H152561   6.568   0.765  16.252 -0.6291 -0.0920  0.0607
10382TIP3    H252562   6.553   0.891  16.334 -0.0981 -0.0098  0.0360
10383TIP3   OH252563   6.699   4.953  16.468  0.1491 -0.2059  0.1833
10383TIP3    H152564   6.749   4.887  16.516  0.2418 -0.1863  0.1126
10383TIP3    H252565   6.714   5.035  16.516  0.7185 -0.0714 -0.2228
10384TIP3   OH252566   1.953   0.105   0.944 -0.1394  0.0739  0.4926
10384TIP3    H152567   2.048   0.109   0.931 -0.2432  1.6287 -0.0356
10384TIP3    H252568   1.936   0.170   1.012 -0.6583 -1.5155  1.9523
10385TIP3   OH252569   3.625   5.144   1.803  0.0213 -0.3694  0.0255
10385TIP3    H152570   3.538   5.182   1.788 -1.0147 -2.9509 -1.2473
10385TIP3    H252571   3.680   5.184   1.736 -0.7595 -0.3216 -0.6083
10386TIP3   OH252572   5.388   1.709  16.655 -0.1343  0.1758  0.3133
10386TIP3    H152573   5.365   1.795  16.620  0.1361 -0.1690 -0.7327
10386TIP3    H252574   5.389   1.722  16.750  2.5672  2.0314  0.1514
10387TIP3   OH252575   6.094   5.072  15.933 -0.1865  0.8163  0.0563
10387TIP3    H152576   6.032   5.000  15.943  1.5370 -0.5900  1.1505
10387TIP3    H252577   6.150   5.046  15.860  0.2130  1.2351  0.2079
10388TIP3   OH252578   4.543   2.369  15.213 -0.4448  0.4613  0.3895
10388TIP3    H152579   4.638   2.376  15.199 -0.0658 -0.0553  2.3805
10388TIP3    H252580   4.522   2.281  15.181 -0.1752  0.4150  0.3311
10389TIP3   OH252581   0.956   0.469   0.873  0.4537  0.1645  0.6478
10389TIP3    H152582   0.951   0.425   0.958 -1.1995  0.9430  0.9818
10389TIP3    H252583   0.865   0.477   0.844  0.7525  2.5311  0.1720
10390TIP3   OH252584   4.958   4.112  13.176  0.6474  0.2180  0.1126
10390TIP3    H152585   4.948   4.198  13.136  0.0723  0.7583  1.3982
10390TIP3    H252586   4.973   4.129  13.269  0.0634 -1.0811  0.4732
10391TIP3   OH252587   6.368   3.004  15.723  0.0840  0.4906  0.5655
10391TIP3    H152588   6.445   3.011  15.666  0.1231  3.1571  0.8018
10391TIP3    H252589   6.297   3.045  15.673 -0.9467 -0.9738  0.7793
10392TIP3   OH252590   6.602   3.687   6.595 -0.6052  0.1716  0.3695
10392TIP3    H152591   6.543   3.620   6.560 -1.6544  0.2686  1.8418
10392TIP3    H252592   6.585   3.686   6.689  1.6632  0.3166  0.8298
10393TIP3   OH252593   0.180   5.522  15.290  0.3430 -0.5212  0.7606
10393TIP3    H152594   0.226   5.593  15.334 -0.9571  0.5425  0.4519
10393TIP3    H252595   0.222   5.442  15.323  1.2824  0.3530  1.7348
10394TIP3   OH252596   0.339   0.266   0.048  0.0263 -0.3448 -0.2485
10394TIP3    H152597   0.350   0.254  -0.046  1.7086 -0.6775 -0.0433
10394TIP3    H252598   0.389   0.345   0.069  0.8568 -1.0407  0.5368
10395TIP3   OH252599   2.523   0.946  15.156 -1.0330  0.1688 -0.6895
10395TIP3    H152600   2.507   1.009  15.086 -0.8350 -0.7582 -1.5822
10395TIP3    H252601   2.530   0.862  15.112  0.4996 -0.2522  0.2836
10396TIP3   OH252602   6.090   1.194   5.723 -0.1030  0.2542  0.2349
10396TIP3    H152603   6.004   1.229   5.699 -1.0512 -1.7056  0.5027
10396TIP3    H252604   6.147   1.219   5.651 -0.7253  2.1014  0.3279
10397TIP3   OH252605   6.244   3.775   3.894 -0.2049 -0.1785 -0.2023
10397TIP3    H152606   6.268   3.683   3.905 -2.1794 -1.1131 -2.6920
10397TIP3    H252607   6.254   3.790   3.800 -3.1067  1.1049 -0.4105
10398TIP3   OH252608   5.096   1.264   0.460 -0.0831 -0.0389 -0.5440
10398TIP3    H152609   5.037   1.329   0.423 -0.4283 -0.0345 -0.0020
10398TIP3    H252610   5.135   1.308   0.536 -1.3587 -0.9177  0.6526
10399TIP3   OH252611   6.154   3.420   4.955 -0.0525  0.0132 -0.1464
10399TIP3    H152612   6.231   3.469   4.927  1.1321 -1.0989  1.0517
10399TIP3    H252613   6.138   3.447   5.045 -0.3225 -0.6775  0.0188
10400TIP3   OH252614   2.118   6.443  11.325  0.7851  0.5751 -0.6558
10400TIP3    H152615   2.046   6.440  11.262 -1.1320 -0.5043  1.4176
10400TIP3    H252616   2.163   6.359  11.314 -1.1058 -0.7548  0.9720
10401TIP3   OH252617   3.983   6.459  14.276  0.7952 -0.5603 -0.3854
10401TIP3    H152618   3.928   6.441  14.352  1.7002  1.8396  0.9502
10401TIP3    H252619   4.025   6.375  14.256 -0.1556 -1.4549  1.1811
10402TIP3   OH252620   0.922   6.351   3.838  0.1742  0.5455  0.1465
10402TIP3    H152621   0.868   6.283   3.798 -0.8359  1.9924 -1.0349
10402TIP3    H252622   0.893   6.433   3.797  0.9848  1.7745  1.8912
10403TIP3   OH252623   4.583   3.248  16.168 -0.2330  0.0013 -0.2398
10403TIP3    H152624   4.532   3.230  16.089 -0.3756  0.3736 -0.2374
10403TIP3    H252625   4.524   3.226  16.240 -0.9224  1.7256 -0.2176
10404TIP3   OH252626   4.292   3.916  12.199 -0.8427  0.2280  0.3959
10404TIP3    H152627   4.338   3.978  12.255 -0.7084  0.4455  0.0528
10404TIP3    H252628   4.287   3.960  12.114 -1.3080  0.0303  0.3148
10405TIP3   OH252629   3.298   1.174  13.763 -0.6359  0.1225 -0.5451
10405TIP3    H152630   3.227   1.112  13.746 -1.8251  1.2407  0.1421
10405TIP3    H252631   3.254   1.253  13.794  0.9862  0.2399  1.7618
10406TIP3   OH252632   5.152   5.946  11.643 -0.3685  0.1423 -0.3009
10406TIP3    H152633   5.243   5.973  11.658 -0.7835 -0.0103  3.4668
10406TIP3    H252634   5.102   6.026  11.658 -1.0281 -0.5670  1.4989
10407TIP3   OH252635   0.969   5.978   1.952 -0.3462 -0.7345  0.3340
10407TIP3    H152636   0.885   6.023   1.944 -0.4292 -1.1119 -1.4592
10407TIP3    H252637   0.987   5.947   1.863  2.1115  0.0843  0.4822
10408TIP3   OH252638   2.901   5.509  11.972 -0.0878  0.4579 -0.5790
10408TIP3    H152639   2.989   5.529  11.939  0.1617 -1.6942 -1.3812
10408TIP3    H252640   2.842   5.549  11.908  0.3522  0.1346 -1.2032
10409TIP3   OH252641   6.507   1.073  14.313 -0.4654 -0.1445  0.1389
10409TIP3    H152642   6.454   1.095  14.389  1.3042  1.6950  0.9413
10409TIP3    H252643   6.464   1.117  14.240  0.4070  2.2687  0.9561
10410TIP3   OH252644   0.056   5.812   0.266  0.6922  0.1820  0.3997
10410TIP3    H152645   0.084   5.748   0.331  0.2972  0.2376  0.6288
10410TIP3    H252646   0.063   5.766   0.182  0.8980  0.0079  0.5111
10411TIP3   OH252647   2.999   5.946   1.882 -0.3395  0.8818 -0.3533
10411TIP3    H152648   3.001   5.953   1.978  1.6827 -1.4860 -0.1150
10411TIP3    H252649   3.065   6.009   1.852 -0.4619  1.1163 -0.1337
10412TIP3   OH252650   4.956   5.331   5.479 -0.1624  0.0652 -0.1017
10412TIP3    H152651   4.927   5.247   5.514  0.9905 -0.5561 -0.5852
10412TIP3    H252652   4.987   5.379   5.555 -0.3671 -0.1347  0.1107
10413TIP3   OH252653   4.118   3.126   0.442  0.3705 -0.2189  0.0369
10413TIP3    H152654   4.102   3.110   0.535  0.9358 -0.5767  0.0748
10413TIP3    H252655   4.031   3.148   0.407  0.0010 -0.9036  0.4843
10414TIP3   OH252656   3.221   6.727  14.676  0.4352  0.2252  0.0796
10414TIP3    H152657   3.135   6.761  14.701  0.5713  1.3624 -0.8514
10414TIP3    H252658   3.202   6.654  14.618 -0.0526  2.2901 -2.5877
10415TIP3   OH252659   1.192   2.849   4.949  0.2743 -0.1845 -0.4449
10415TIP3    H152660   1.187   2.753   4.953 -1.1409 -0.1275 -0.1206
10415TIP3    H252661   1.208   2.868   4.857 -1.0296 -0.7265 -0.8199
10416TIP3   OH252662   2.511   3.575  16.755 -0.4920  0.0767  0.0691
10416TIP3    H152663   2.448   3.646  16.745 -0.9819 -0.0046  2.1220
10416TIP3    H252664   2.481   3.527  16.833 -0.1298 -2.3516 -1.2021
10417TIP3   OH252665   3.879   6.019   0.442  0.0252  1.0027  0.0634
10417TIP3    H152666   3.847   5.992   0.356 -1.2268  2.0831  0.1764
10417TIP3    H252667   3.883   6.114   0.438  1.5909  0.9966  0.6624
10418TIP3   OH252668   4.624   3.250  10.947  0.5892  0.2816 -0.2429
10418TIP3    H152669   4.685   3.323  10.943  0.2590  0.6746  1.4123
10418TIP3    H252670   4.544   3.282  10.905  1.1103  0.1301 -1.4116
10419TIP3   OH252671   1.866   4.940  15.222 -0.0111 -0.3312 -0.2699
10419TIP3    H152672   1.846   5.011  15.160  0.9480 -0.8819 -1.2583
10419TIP3    H252673   1.872   4.984  15.307 -1.6511  0.4007 -0.5030
10420TIP3   OH252674   3.857   0.178  11.242  0.4385  0.0860 -0.2450
10420TIP3    H152675   3.820   0.244  11.184 -1.3634  1.3291  2.1536
10420TIP3    H252676   3.928   0.223  11.288 -0.5997  0.3218  1.1845
10421TIP3   OH252677   2.537   6.283  13.154 -0.1338 -0.5898 -0.6529
10421TIP3    H152678   2.474   6.331  13.209 -0.6977 -3.0565  1.0569
10421TIP3    H252679   2.617   6.335  13.158 -0.3193 -0.3589  2.1308
10422TIP3   OH252680   2.205   1.926   4.880  0.1800 -0.7501  0.3510
10422TIP3    H152681   2.146   1.866   4.925 -0.6967 -0.1710  0.0051
10422TIP3    H252682   2.286   1.921   4.930 -0.5991 -0.5270  1.6905
10423TIP3   OH252683   2.168   5.241  16.312  0.1242  0.1694  0.2897
10423TIP3    H152684   2.163   5.336  16.310 -0.4462  0.1701  1.3834
10423TIP3    H252685   2.261   5.222  16.302  0.3549  0.8704  1.0231
10424TIP3   OH252686   1.701   5.730   2.032 -0.8539  0.1408 -0.2911
10424TIP3    H152687   1.766   5.784   1.987  0.3876 -0.9763  0.0900
10424TIP3    H252688   1.735   5.641   2.024 -1.8768 -0.3644  0.7303
10425TIP3   OH252689   3.093   1.050   0.537 -0.7636 -0.1965 -0.0092
10425TIP3    H152690   3.168   1.018   0.487 -0.8032 -0.1609 -0.0915
10425TIP3    H252691   3.071   0.978   0.596 -0.2886  0.0212  0.4383
10426TIP3   OH252692   4.957   1.076   3.967  0.2119  0.3083 -0.3017
10426TIP3    H152693   4.969   1.026   3.886  2.9125 -0.1558  0.3130
10426TIP3    H252694   4.958   1.167   3.938 -0.1011  0.1222 -0.9212
10427TIP3   OH252695   4.346   3.079  14.135  0.7386 -0.6397  0.7014
10427TIP3    H152696   4.305   3.126  14.062  1.6553 -0.8672  0.0229
10427TIP3    H252697   4.427   3.045  14.099  1.5838 -0.1289  2.0545
10428TIP3   OH252698   2.057   5.426  16.623 -0.4120  0.4789  0.0086
10428TIP3    H152699   2.026   5.428  16.532  0.8504  0.4127 -0.4434
10428TIP3    H252700   2.080   5.335  16.639 -2.2149  0.1504  0.9864
10429TIP3   OH252701   6.365   0.617  14.662 -0.3592  0.6388 -0.1867
10429TIP3    H152702   6.453   0.583  14.644 -0.3514 -0.0071  0.9850
10429TIP3    H252703   6.306   0.557  14.618 -0.2682  0.0730  0.4405
10430TIP3   OH252704   4.765   2.774  14.175  0.0644 -0.9007  0.0134
10430TIP3    H152705   4.817   2.789  14.096  0.4584 -0.9791  0.2600
10430TIP3    H252706   4.725   2.688  14.162  0.4865 -1.1093  0.0994
10431TIP3   OH252707   0.312   1.624  16.964 -0.1114 -0.2848  0.6804
10431TIP3    H152708   0.233   1.649  17.011 -0.5007  0.0283 -0.1273
10431TIP3    H252709   0.355   1.707  16.943  0.3599 -0.4453  0.9832
10432TIP3   OH252710   1.122   5.052  12.451  0.5182 -0.0697 -0.0453
10432TIP3    H152711   1.211   5.066  12.420  0.9078  0.0930  1.1023
10432TIP3    H252712   1.125   4.966  12.492  0.3409  0.2452  0.6411
10433TIP3   OH252713   1.583   0.748   2.037 -0.4517  0.5593 -0.1292
10433TIP3    H152714   1.505   0.724   1.987 -0.0880  0.1105 -0.5058
10433TIP3    H252715   1.561   0.728   2.128 -1.3062  1.8593 -0.0310
10434TIP3   OH252716   3.705   5.693   3.282  0.2909  0.4966 -0.2827
10434TIP3    H152717   3.766   5.661   3.349 -1.1049 -1.7975  0.0053
10434TIP3    H252718   3.751   5.766   3.241  1.7909  1.0803  2.2030
10435TIP3   OH252719   4.411   1.242  15.836  0.2937  0.0998 -0.4574
10435TIP3    H152720   4.399   1.314  15.774  0.3645  0.4225 -0.0960
10435TIP3    H252721   4.410   1.163  15.781 -0.1671  0.3464 -0.8087
10436TIP3   OH252722   5.042   1.329   3.223  0.7351  0.4220  0.4854
10436TIP3    H152723   5.072   1.396   3.284  0.6912  0.4708  0.4529
10436TIP3    H252724   4.965   1.367   3.181  2.2738  1.4371 -1.5399
10437TIP3   OH252725   2.857   3.209  15.864  0.1450  0.0008 -0.2770
10437TIP3    H152726   2.909   3.132  15.886  0.1269 -0.7066 -2.4904
10437TIP3    H252727   2.856   3.211  15.768 -2.2542  1.1311 -0.3079
10438TIP3   OH252728   2.018   6.523  12.341  0.4657 -0.1507  0.5418
10438TIP3    H152729   1.997   6.613  12.319 -0.7816 -0.7933 -1.1198
10438TIP3    H252730   2.035   6.524  12.435  1.0698  1.8912  0.4541
10439TIP3   OH252731   4.096   2.350   1.612  0.1170 -0.1070  0.4644
10439TIP3    H152732   4.009   2.379   1.586  0.5050  1.5825  0.9305
10439TIP3    H252733   4.123   2.291   1.542 -1.5381 -0.9805  0.5061
10440TIP3   OH252734   6.303   1.881   3.257 -0.0607 -0.0387  0.1664
10440TIP3    H152735   6.360   1.932   3.313  0.8572  1.0231 -1.6290
10440TIP3    H252736   6.334   1.791   3.266  1.4265  0.4117 -0.1774
10441TIP3   OH252737   6.600   0.069  11.552 -0.1557  0.3585  0.3292
10441TIP3    H152738   6.597   0.087  11.458 -0.3195 -0.2765  0.2099
10441TIP3    H252739   6.688   0.034  11.567 -0.7844 -1.4293  0.0510
10442TIP3   OH252740   6.129   5.702  10.510  0.3720 -0.0756 -0.7672
10442TIP3    H152741   6.086   5.620  10.489 -0.7506  0.6420 -1.3804
10442TIP3    H252742   6.204   5.677  10.564 -0.0796 -1.4702 -0.7511
10443TIP3   OH252743   2.651   4.567  12.303  0.2193 -0.4582  0.0249
10443TIP3    H152744   2.639   4.636  12.369  1.5508 -0.3487  0.1741
10443TIP3    H252745   2.608   4.601  12.225 -0.6412 -0.2215  0.5823
10444TIP3   OH252746   3.711   5.563  15.205 -0.2424  0.5269 -0.1577
10444TIP3    H152747   3.702   5.520  15.290 -0.8126  0.8204 -0.0584
10444TIP3    H252748   3.710   5.657  15.225 -0.6065  0.6009 -0.5016
10445TIP3   OH252749   6.479   1.255  11.852  0.1991  0.7082  0.1948
10445TIP3    H152750   6.529   1.216  11.781  0.3354  0.6719  0.3108
10445TIP3    H252751   6.453   1.341  11.819 -0.0989  0.5223 -0.0590
10446TIP3   OH252752   0.284   3.714  15.607  0.6963  0.1481  0.4381
10446TIP3    H152753   0.255   3.782  15.547  0.4194  1.1979  1.7041
10446TIP3    H252754   0.379   3.718  15.604  0.7089 -0.5472 -0.7081
10447TIP3   OH252755   1.579   5.190   1.323 -0.5565  0.5011 -0.4634
10447TIP3    H152756   1.600   5.265   1.378 -1.3479  0.3259  0.0913
10447TIP3    H252757   1.514   5.140   1.373  1.1565 -1.4606 -0.0501
10448TIP3   OH252758   3.108   3.244  12.926  0.0930  0.2122 -0.3315
10448TIP3    H152759   3.186   3.200  12.961  0.0511 -0.4848 -1.0684
10448TIP3    H252760   3.052   3.173  12.896 -1.2581  0.6704  1.0119
10449TIP3   OH252761   0.706   6.532   6.380  0.0460  0.2454 -0.2163
10449TIP3    H152762   0.612   6.526   6.362  0.1519  0.5216 -0.8697
10449TIP3    H252763   0.713   6.509   6.473 -0.4186 -2.0146 -0.6880
10450TIP3   OH252764   3.790   3.973  14.716 -0.9768  0.6932  0.2619
10450TIP3    H152765   3.694   3.981  14.719 -1.0441 -0.1000  0.7281
10450TIP3    H252766   3.805   3.884  14.684 -0.4083  0.6256  0.7028
10451TIP3   OH252767   2.620   0.235   6.579  0.0199 -0.6709 -0.1851
10451TIP3    H152768   2.594   0.305   6.638 -2.3248 -1.8882  0.3614
10451TIP3    H252769   2.643   0.280   6.498 -2.9054  0.7403 -0.3746
10452TIP3   OH252770   6.373   5.760   2.683 -0.5803 -0.0534 -0.1172
10452TIP3    H152771   6.424   5.780   2.605  0.2985  0.2239  0.5136
10452TIP3    H252772   6.425   5.794   2.755 -1.4090 -0.2506  0.5913
10453TIP3   OH252773   0.119   0.753  14.666  0.7369 -0.6143  0.0229
10453TIP3    H152774   0.153   0.769  14.754  0.2589  0.8113 -0.0203
10453TIP3    H252775   0.024   0.746  14.678  0.6453 -0.1586 -0.4071
10454TIP3   OH252776   0.287   1.560  14.212 -0.1538 -0.3281 -0.7719
10454TIP3    H152777   0.221   1.497  14.182  0.3400 -1.0870 -0.3155
10454TIP3    H252778   0.293   1.544  14.306  0.2159  0.1837 -0.7086
10455TIP3   OH252779   4.578   1.695  15.265 -0.2775 -0.1913 -0.8348
10455TIP3    H152780   4.580   1.609  15.308 -0.4447  0.4506  0.4883
10455TIP3    H252781   4.493   1.732  15.290 -0.0302  0.5296 -1.0574
10456TIP3   OH252782   0.486   3.767  13.354 -1.2988  0.2832 -0.5063
10456TIP3    H152783   0.458   3.695  13.410 -0.0081 -0.5228 -0.8540
10456TIP3    H252784   0.463   3.846  13.403 -0.8672 -0.3988  0.8397
10457TIP3   OH252785   2.293   0.601   4.537 -0.3361  0.5793 -0.0256
10457TIP3    H152786   2.297   0.690   4.501 -1.9354 -0.0149 -1.8445
10457TIP3    H252787   2.374   0.560   4.508 -0.3117  0.9743 -0.5409
10458TIP3   OH252788   0.295   5.918   0.497 -0.0287 -0.4489  0.2718
10458TIP3    H152789   0.333   5.877   0.419  0.3297  1.5997 -0.7042
10458TIP3    H252790   0.259   5.845   0.547  0.2612 -1.8985 -1.5098
10459TIP3   OH252791   1.843   5.475   2.758  0.4242  0.0151 -0.1538
10459TIP3    H152792   1.887   5.517   2.832 -2.6562 -0.5333  2.1654
10459TIP3    H252793   1.779   5.539   2.729  0.1878 -0.5894 -1.0108
10460TIP3   OH252794   2.721   3.303   0.766  0.1373 -0.5161 -0.0664
10460TIP3    H152795   2.654   3.236   0.779  0.4875 -1.2999 -1.9505
10460TIP3    H252796   2.801   3.254   0.745  0.9975  0.4410  0.8542
10461TIP3   OH252797   1.157   2.937   3.673  0.4771  0.5584  0.1543
10461TIP3    H152798   1.139   2.912   3.582 -2.1708  0.0823  0.7312
10461TIP3    H252799   1.184   2.855   3.715 -1.6725 -0.0403  0.5106
10462TIP3   OH252800   6.269   0.698   3.499 -0.0464 -0.3350 -0.0450
10462TIP3    H152801   6.245   0.786   3.530 -1.7873 -0.2390 -1.4824
10462TIP3    H252802   6.316   0.714   3.417  1.5765 -0.7078  0.7724
10463TIP3   OH252803   2.920   1.366   1.260  0.1727  0.3351  0.5712
10463TIP3    H152804   2.990   1.305   1.238  0.3304  0.6804  0.0932
10463TIP3    H252805   2.848   1.311   1.288 -0.2211 -0.1808 -1.2943
10464TIP3   OH252806   1.855   4.777   1.488  0.1823 -0.1511 -0.0216
10464TIP3    H152807   1.823   4.833   1.559  1.0405  0.3601 -0.0224
10464TIP3    H252808   1.854   4.689   1.525  2.1213  0.2856  1.2000
10465TIP3   OH252809   3.400   4.514   0.431  0.0781 -1.0526  0.2444
10465TIP3    H152810   3.377   4.506   0.523  0.2112  0.0021  0.3803
10465TIP3    H252811   3.444   4.432   0.410  2.0564 -0.4278  1.7225
10466TIP3   OH252812   6.412   0.157  14.289  0.1054 -0.1773  0.2898
10466TIP3    H152813   6.402   0.083  14.228 -0.9799 -0.2053  0.4687
10466TIP3    H252814   6.506   0.165  14.302  0.5757  1.0876 -2.9200
10467TIP3   OH252815   1.684   0.397   1.642  0.1397 -0.0858  0.3168
10467TIP3    H152816   1.623   0.417   1.712 -0.3627  1.2136 -0.4649
10467TIP3    H252817   1.629   0.385   1.565  0.9037  2.9128 -0.8059
10468TIP3   OH252818   4.921   2.426  12.436  0.4402 -0.2778  0.8814
10468TIP3    H152819   5.016   2.428  12.443  0.4281  0.1615  0.8989
10468TIP3    H252820   4.901   2.337  12.406  0.9760  0.1916 -0.9352
10469TIP3   OH252821   6.729   6.128  11.690 -0.2132  0.2893 -0.0456
10469TIP3    H152822   6.665   6.100  11.624 -0.3271 -0.6989  0.4580
10469TIP3    H252823   6.788   6.185  11.643  0.1675 -1.0174 -1.2252
10470TIP3   OH252824   4.584   2.342  16.719  0.1369 -0.3670 -0.3300
10470TIP3    H152825   4.652   2.324  16.784  0.3381 -3.0345 -1.1522
10470TIP3    H252826   4.508   2.368  16.771  0.1097 -3.0101  1.0965
10471TIP3   OH252827   0.142   2.853   5.524 -0.1831 -0.3663 -0.3798
10471TIP3    H152828   0.181   2.847   5.611  0.4315  1.2384 -0.5015
10471TIP3    H252829   0.052   2.822   5.536 -0.0127 -0.4876  0.7526
10472TIP3   OH252830   4.738   3.004  11.369  0.0534  0.1836  0.1642
10472TIP3    H152831   4.761   2.949  11.444 -1.0079  0.8384  1.0038
10472TIP3    H252832   4.690   2.946  11.310  1.0915 -0.3916 -0.1345
10473TIP3   OH252833   4.307   5.075  15.806  0.0781 -0.5230 -0.5067
10473TIP3    H152834   4.249   5.119  15.743 -0.9708 -0.3108  0.5665
10473TIP3    H252835   4.306   4.983  15.779 -2.9342 -1.0516  0.9698
10474TIP3   OH252836   6.087   0.071   5.606 -0.1197 -0.0739  0.1267
10474TIP3    H152837   6.137  -0.011   5.610 -0.3241 -0.2774 -0.9560
10474TIP3    H252838   6.037   0.074   5.687  0.5041 -0.6270  0.5353
10475TIP3   OH252839   3.478   1.277  13.932  0.3383  0.0353  0.1933
10475TIP3    H152840   3.525   1.207  13.978 -1.8299 -0.7958  1.3218
10475TIP3    H252841   3.425   1.231  13.867 -0.4202  0.7076  0.3193
10476TIP3   OH252842   4.031   4.454  13.975 -0.3882 -0.0327 -0.4565
10476TIP3    H152843   4.007   4.410  14.056 -0.5944 -0.1103 -0.5581
10476TIP3    H252844   4.036   4.546  13.998  0.2130 -0.1218 -0.2033
10477TIP3   OH252845   2.242   1.903   1.136 -0.1864 -0.1743  0.0961
10477TIP3    H152846   2.292   1.824   1.156  0.3436  0.1623  0.1383
10477TIP3    H252847   2.299   1.975   1.166 -0.5641  0.2268 -0.1425
10478TIP3   OH252848   0.814   6.254   5.616 -0.5631 -0.3216  0.1605
10478TIP3    H152849   0.765   6.181   5.655 -1.0963  0.3322  0.7282
10478TIP3    H252850   0.808   6.239   5.522  0.8132 -1.9746  0.2725
10479TIP3   OH252851   6.337   1.383  14.253  0.2818  0.4438  0.2949
10479TIP3    H152852   6.346   1.354  14.343  0.6582 -0.0979  0.0920
10479TIP3    H252853   6.258   1.438  14.252 -1.5273 -1.9684  0.3822
10480TIP3   OH252854   3.513   1.185   3.684 -0.2031  0.2965  0.2597
10480TIP3    H152855   3.568   1.229   3.749 -0.0689 -0.8996  0.9768
10480TIP3    H252856   3.437   1.154   3.734 -0.8723  0.7226 -0.4622
10481TIP3   OH252857   0.229   0.272  14.492  0.0376 -0.0112  0.4731
10481TIP3    H152858   0.188   0.190  14.462  0.2877  0.0814 -0.1282
10481TIP3    H252859   0.199   0.338  14.429  1.8797 -0.1171 -0.5688
10482TIP3   OH252860   1.451   2.184  16.583  0.8821  0.0872 -0.4346
10482TIP3    H152861   1.376   2.189  16.524  1.7784 -0.2186 -1.6532
10482TIP3    H252862   1.427   2.239  16.657 -0.1163  0.8470 -1.2823
10483TIP3   OH252863   3.465   1.603  14.065  0.0805  0.1298  0.0269
10483TIP3    H152864   3.499   1.515  14.081  0.3836  0.2317 -0.0341
10483TIP3    H252865   3.532   1.661  14.101  1.0032  0.3717 -1.9411
10484TIP3   OH252866   1.884   3.029   2.819 -0.4203 -0.0914 -0.0398
10484TIP3    H152867   1.934   3.050   2.740  2.0373 -2.1500  0.8258
10484TIP3    H252868   1.892   3.106   2.875  1.0061 -0.0192 -0.3218
10485TIP3   OH252869   2.206   2.059  12.617 -0.4675 -0.5448 -0.4640
10485TIP3    H152870   2.206   2.154  12.610  0.2762 -0.2857  2.0550
10485TIP3    H252871   2.136   2.040  12.680  0.1113 -1.5662 -0.1111
10486TIP3   OH252872   5.141   0.713  11.093 -0.0108 -0.1600 -0.0363
10486TIP3    H152873   5.185   0.629  11.086  0.6997  0.2714 -0.8194
10486TIP3    H252874   5.059   0.702  11.045  0.6248 -0.0510 -1.1739
10487TIP3   OH252875   5.414   4.048   1.158  0.0883  0.1960  0.6603
10487TIP3    H152876   5.427   3.954   1.168 -2.1305 -0.3002 -0.3583
10487TIP3    H252877   5.421   4.063   1.064 -0.9972  0.7593  0.6533
10488TIP3   OH252878   4.966   1.927  12.234  0.5493 -0.3271 -0.1264
10488TIP3    H152879   4.931   1.965  12.153  0.2112  2.1274  1.0921
10488TIP3    H252880   4.889   1.895  12.281  0.5755 -0.3454 -0.0962
10489TIP3   OH252881   1.090   0.131  15.840 -0.4936  0.2665  0.0171
10489TIP3    H152882   1.026   0.060  15.843 -0.6809  0.4563  0.6577
10489TIP3    H252883   1.038   0.210  15.838 -0.2853  0.4365  0.8945
10490TIP3   OH252884   4.967   4.308  13.760  1.1981 -0.2088 -0.6363
10490TIP3    H152885   4.978   4.217  13.788  2.2854  0.9817  3.4418
10490TIP3    H252886   5.056   4.342  13.757  0.7926  0.7979 -2.0390
10491TIP3   OH252887   2.423   3.970  15.266 -0.3125 -0.6898 -0.5258
10491TIP3    H152888   2.448   4.045  15.320  0.1493 -0.2823 -1.2872
10491TIP3    H252889   2.366   4.008  15.198 -0.6805 -1.1518 -0.4810
10492TIP3   OH252890   4.628   5.017   4.209  0.4151  0.0858 -0.2430
10492TIP3    H152891   4.584   4.932   4.201  0.7016 -0.1104  0.2407
10492TIP3    H252892   4.720   4.997   4.196  0.2868  0.6814 -2.5946
10493TIP3   OH252893   3.534   2.357  16.202 -0.1392 -0.2409  0.6137
10493TIP3    H152894   3.517   2.451  16.199  2.7877  0.3684 -1.4152
10493TIP3    H252895   3.456   2.317  16.164 -0.1601  1.6970 -1.6564
10494TIP3   OH252896   4.155   2.165   5.784 -0.3923  0.0128 -0.0820
10494TIP3    H152897   4.100   2.217   5.726  2.0783 -0.2957 -2.9225
10494TIP3    H252898   4.191   2.228   5.847 -0.4899  1.0298 -1.0200
10495TIP3   OH252899   2.217   6.018  11.721 -0.0805 -0.1729  0.2995
10495TIP3    H152900   2.287   5.986  11.662  1.7669  0.6029  1.9569
10495TIP3    H252901   2.160   5.942  11.732  1.8731 -1.6815  0.7947
10496TIP3   OH252902   4.110   3.356  14.705 -0.4727 -0.3008 -0.2405
10496TIP3    H152903   4.117   3.280  14.763  0.7538 -0.9421 -1.1634
10496TIP3    H252904   4.093   3.318  14.618 -2.8519  0.6637 -0.2435
10497TIP3   OH252905   5.865   2.861   5.583  0.6286 -0.1239 -0.3091
10497TIP3    H152906   5.819   2.777   5.590 -0.7571  0.6450  0.2201
10497TIP3    H252907   5.848   2.891   5.494  0.7444 -0.1836 -0.3522
10498TIP3   OH252908   5.124   3.440  14.758  0.0989  0.1664  0.2525
10498TIP3    H152909   5.206   3.391  14.763 -0.4644 -0.6866  1.6994
10498TIP3    H252910   5.074   3.412  14.835 -1.0245  1.6259  0.1072
10499TIP3   OH252911   4.385   2.902  16.125  0.2527 -0.1295 -0.1121
10499TIP3    H152912   4.377   2.813  16.091  0.6464 -0.8598  1.5906
10499TIP3    H252913   4.472   2.905  16.165  0.1359  0.9225  0.0961
10500TIP3   OH252914   0.915   5.863  15.446 -0.0532 -0.5584 -0.4861
10500TIP3    H152915   0.942   5.953  15.461  1.1280 -0.9371 -0.2097
10500TIP3    H252916   0.849   5.868  15.376  0.8473  0.4164 -1.2946
10501TIP3   OH252917   0.315   5.990   5.761 -0.1109  0.0439  0.7863
10501TIP3    H152918   0.248   6.053   5.786  0.1264 -0.3221  2.4611
10501TIP3    H252919   0.365   6.034   5.693 -1.5483  0.6254  0.0469
10502TIP3   OH252920   3.570   0.533   2.460  0.5784  0.1226  0.9345
10502TIP3    H152921   3.490   0.585   2.454 -1.2092 -2.5578 -0.9991
10502TIP3    H252922   3.597   0.519   2.369  2.1083 -0.6872  1.4719
10503TIP3   OH252923   5.763   3.089  16.994 -0.4994  0.1884 -0.2554
10503TIP3    H152924   5.849   3.098  16.955  0.9375  2.8105  2.9957
10503TIP3    H252925   5.712   3.161  16.956 -0.3405  0.3746 -0.1164
10504TIP3   OH252926   6.071   2.345   1.983 -0.2791 -0.5749  0.3555
10504TIP3    H152927   6.156   2.301   1.978  1.3024  2.2722 -0.2801
10504TIP3    H252928   6.084   2.416   2.046 -0.5870  2.7866 -2.9581
10505TIP3   OH252929   0.989   0.855   1.858  0.0828  0.0753 -0.1667
10505TIP3    H152930   0.916   0.900   1.901  0.4994  0.4303  0.1831
10505TIP3    H252931   1.003   0.776   1.910 -0.5521 -0.3949 -0.6930
10506TIP3   OH252932   2.624   1.484  13.260 -0.0308  0.1403 -0.2624
10506TIP3    H152933   2.658   1.569  13.230 -0.0552  0.2674  0.0546
10506TIP3    H252934   2.604   1.436  13.180 -2.0137  1.2219 -0.4676
10507TIP3   OH252935   0.574   1.615   5.237 -0.3387  0.1319 -0.4604
10507TIP3    H152936   0.569   1.673   5.313 -0.9458  0.1709 -0.5206
10507TIP3    H252937   0.628   1.541   5.266 -0.2352  0.3391 -0.1213
10508TIP3   OH252938   2.751   1.448   2.000 -0.3418 -0.2551 -0.0667
10508TIP3    H152939   2.810   1.396   2.055 -0.9335 -0.7010  0.1558
10508TIP3    H252940   2.725   1.388   1.930  0.7924  0.4593 -1.1294
10509TIP3   OH252941   2.329   4.101  14.312  0.1187 -0.4501  0.1725
10509TIP3    H152942   2.397   4.055  14.361 -0.6384  0.3662  2.1021
10509TIP3    H252943   2.314   4.181  14.362 -1.2026  0.1089 -1.0494
10510TIP3   OH252944   5.723   6.488   1.945  0.5421 -0.5915 -0.0816
10510TIP3    H152945   5.788   6.438   1.896  0.8951 -1.4308  1.1892
10510TIP3    H252946   5.714   6.570   1.897  1.2118 -1.1869 -1.2671
10511TIP3   OH252947   2.298   0.704   5.705 -0.0667  0.1586  0.3703
10511TIP3    H152948   2.381   0.662   5.729  1.1951  1.3587 -1.6061
10511TIP3    H252949   2.244   0.632   5.671  0.6223 -0.4422  0.5134
10512TIP3   OH252950   2.675   5.390  16.438 -0.0375  0.0365 -0.2391
10512TIP3    H152951   2.692   5.467  16.384  2.9460 -0.6998 -0.5345
10512TIP3    H252952   2.602   5.346  16.395  0.3012  1.0413 -1.9184
10513TIP3   OH252953   2.182   0.151   1.548 -0.0448  0.0051 -0.1642
10513TIP3    H152954   2.091   0.122   1.543  0.0788 -0.7050  1.2611
10513TIP3    H252955   2.200   0.159   1.642  1.4734 -0.2616 -0.4039
10514TIP3   OH252956   3.377   0.560   5.524 -0.2974 -0.2212 -0.0734
10514TIP3    H152957   3.413   0.497   5.461 -0.9105 -0.7480  0.0950
10514TIP3    H252958   3.426   0.641   5.507  2.1811 -1.3225  1.2488
10515TIP3   OH252959   0.783   1.798   4.788 -0.6865 -0.7535  0.0989
10515TIP3    H152960   0.691   1.787   4.814 -0.8432 -1.8345 -0.8085
10515TIP3    H252961   0.779   1.859   4.714 -0.6880 -0.8104  0.0513
10516TIP3   OH252962   4.781   6.505   4.070  0.1941 -0.3263  0.3462
10516TIP3    H152963   4.802   6.586   4.116 -1.9076  0.6003 -0.2336
10516TIP3    H252964   4.765   6.532   3.980 -1.8066 -1.1461  0.4116
10517TIP3   OH252965   3.163   1.963  14.091  0.3814 -0.2658 -0.0158
10517TIP3    H152966   3.258   1.957  14.078  0.2341 -2.4391 -0.5516
10517TIP3    H252967   3.130   1.878  14.061 -2.1739  1.6393 -3.2577
10518TIP3   OH252968   3.047   2.006   4.717  0.2040 -0.2511  0.5138
10518TIP3    H152969   3.042   1.970   4.628 -0.8627 -6.0796  2.4913
10518TIP3    H252970   3.141   2.012   4.735  0.4531  1.8190 -1.1343
10519TIP3   OH252971   0.986   5.846  16.909 -0.4247 -0.4646 -0.2573
10519TIP3    H152972   0.912   5.789  16.889 -1.2880  1.0081 -1.4130
10519TIP3    H252973   1.012   5.882  16.825 -1.3180  2.5264  0.6411
10520TIP3   OH252974   0.485   0.579   1.324 -0.1316 -0.4150  0.2247
10520TIP3    H152975   0.456   0.600   1.235  0.8921 -0.9155 -0.2476
10520TIP3    H252976   0.422   0.514   1.355 -1.4249  0.9204  0.4865
10521TIP3   OH252977   4.362   1.826  13.625 -0.3846  0.3496 -0.4913
10521TIP3    H152978   4.398   1.737  13.626 -0.0678  0.4683 -0.9287
10521TIP3    H252979   4.435   1.882  13.652 -0.2417  0.5901 -1.3610
10522TIP3   OH252980   4.882   0.508   1.889 -0.9243  0.1228 -0.2641
10522TIP3    H152981   4.821   0.455   1.838 -2.2115  0.3802  0.9359
10522TIP3    H252982   4.842   0.513   1.976  0.8182  0.3146  0.5681
10523TIP3   OH252983   1.920   2.634   4.100 -0.2313  0.3535 -0.5730
10523TIP3    H152984   1.993   2.618   4.041  0.1469 -0.1096  0.0075
10523TIP3    H252985   1.890   2.546   4.126  0.4420  0.5419  0.9217
10524TIP3   OH252986   0.716   3.148  12.109 -0.2805 -0.1264  0.7038
10524TIP3    H152987   0.647   3.119  12.169  0.9132  0.2109  2.3241
10524TIP3    H252988   0.787   3.177  12.167  0.6834  0.8439 -0.8859
10525TIP3   OH252989   4.498   5.857   0.420  0.0627  0.3839 -0.3689
10525TIP3    H152990   4.569   5.883   0.362  0.5985 -0.1072  0.0631
10525TIP3    H252991   4.432   5.818   0.362  0.6145 -0.1544 -0.6372
10526TIP3   OH252992   1.160   1.132  16.240  0.4877  0.4312  0.8942
10526TIP3    H152993   1.175   1.144  16.146  1.2194 -2.0545  0.6404
10526TIP3    H252994   1.092   1.066  16.246  1.7773 -0.8663  2.0817
10527TIP3   OH252995   4.619   2.337  12.638  0.4705 -0.6189  0.7913
10527TIP3    H152996   4.665   2.261  12.673  0.8440 -2.1868 -2.6778
10527TIP3    H252997   4.668   2.360  12.559 -1.5300  1.1805 -0.0216
10528TIP3   OH252998   3.545   4.495   4.470  0.2490 -0.3182 -0.0673
10528TIP3    H152999   3.520   4.441   4.395  1.0213 -1.0303  0.1719
10528TIP3    H253000   3.616   4.447   4.512  1.1221  0.9844  0.0340
10529TIP3   OH253001   0.309   1.236  14.349  0.5260 -0.3226  0.6338
10529TIP3    H153002   0.319   1.142  14.331 -0.9130 -0.1457 -1.4619
10529TIP3    H253003   0.316   1.277  14.263  1.5909  1.5722  1.5718
10530TIP3   OH253004   0.903   5.045  16.782 -0.2049 -0.4457  0.7274
10530TIP3    H153005   0.859   5.121  16.820  0.6881 -0.0203  0.9363
10530TIP3    H253006   0.984   5.036  16.833  1.7512  0.9745 -1.8415
10531TIP3   OH253007   1.795   6.367   2.193  0.1278 -0.3984 -0.3869
10531TIP3    H153008   1.823   6.452   2.228  0.1645  0.6540 -2.7855
10531TIP3    H253009   1.876   6.323   2.168  0.0439 -0.6780 -0.1753
10532TIP3   OH253010   2.670   0.584   0.303  0.3879  0.0207 -0.3965
10532TIP3    H153011   2.580   0.614   0.316  0.7318  2.0872 -2.0497
10532TIP3    H253012   2.724   0.649   0.349  1.0517 -0.9910  0.2777
10533TIP3   OH253013   6.425   1.435   4.668 -0.2675 -0.1373  1.1602
10533TIP3    H153014   6.469   1.512   4.704  2.0348 -0.5270 -0.5303
10533TIP3    H253015   6.367   1.470   4.600  1.9972  0.1715 -0.7825
10534TIP3   OH253016   5.670   1.246   0.071  0.1294  0.8344  0.5840
10534TIP3    H153017   5.701   1.184   0.138 -2.1482  1.1222  2.0146
10534TIP3    H253018   5.734   1.317   0.072  1.7098 -0.5145  0.3256
10535TIP3   OH253019   4.860   1.010   3.701 -0.0058 -0.1315 -0.0139
10535TIP3    H153020   4.878   1.000   3.607 -1.7690 -0.3529 -0.3662
10535TIP3    H253021   4.771   0.978   3.712  0.8595 -2.1329  2.1337
10536TIP3   OH253022   4.059   6.349   5.637  0.1672 -0.4440 -0.4941
10536TIP3    H153023   4.025   6.259   5.636 -0.6524 -0.1424 -1.2858
10536TIP3    H253024   3.988   6.402   5.601  0.5143  0.5828  0.2968
10537TIP3   OH253025   0.594   2.062   2.877  0.1526  0.7431 -0.2732
10537TIP3    H153026   0.682   2.024   2.880  0.6040  1.7160 -1.1275
10537TIP3    H253027   0.549   2.013   2.808  0.7706  1.7941 -1.4525
10538TIP3   OH253028   2.981   2.757   1.271 -0.0317 -0.0177 -0.4595
10538TIP3    H153029   3.044   2.756   1.344 -1.8359 -1.1802  1.1702
10538TIP3    H253030   2.951   2.667   1.264 -1.8328  0.5773 -0.8894
10539TIP3   OH253031   1.774   0.342   3.735  0.6634  0.1836 -0.1221
10539TIP3    H153032   1.696   0.287   3.729 -1.7156  3.2698 -0.5237
10539TIP3    H253033   1.810   0.342   3.647  0.2270 -0.1453 -0.3038
10540TIP3   OH253034   5.074   1.200  15.232 -0.3381  0.4670 -0.5339
10540TIP3    H153035   5.158   1.240  15.211 -0.1988 -0.1869 -1.2844
10540TIP3    H253036   5.074   1.192  15.327  1.6560 -2.0141 -0.6358
10541TIP3   OH253037   5.859   0.995  16.678 -0.4550 -0.5597 -0.7282
10541TIP3    H153038   5.793   0.929  16.697 -1.6069 -0.1019 -2.8002
10541TIP3    H253039   5.934   0.945  16.646 -1.4620 -0.9065 -2.6679
10542TIP3   OH253040   2.250   2.374   1.417  0.3136  0.4855 -0.4913
10542TIP3    H153041   2.269   2.339   1.329 -0.5750 -0.1105 -0.4574
10542TIP3    H253042   2.242   2.468   1.404  0.0737  0.3907 -1.0768
10543TIP3   OH253043   0.551   1.031   5.552 -0.1294  0.3219  0.0583
10543TIP3    H153044   0.558   1.102   5.488  0.9130 -0.2158 -0.4578
10543TIP3    H253045   0.551   0.951   5.500  1.6615 -0.1735  0.7227
10544TIP3   OH253046   2.971   3.787  11.170 -0.0182 -0.0980  0.2302
10544TIP3    H153047   2.979   3.840  11.248 -0.9344 -0.4387  0.5788
10544TIP3    H253048   3.046   3.810  11.116  0.2805  0.5969  0.9366
10545TIP3   OH253049   6.218   4.215  13.740  0.2572  0.2509  0.0266
10545TIP3    H153050   6.269   4.152  13.687 -0.3380 -0.2921  0.0911
10545TIP3    H253051   6.214   4.293  13.685 -1.7233 -0.8315 -1.4782
10546TIP3   OH253052   0.516   6.480   0.897  0.1271  0.0863  0.0588
10546TIP3    H153053   0.520   6.492   0.802 -0.6561 -2.5018 -0.3624
10546TIP3    H253054   0.603   6.504   0.927  0.0056  2.2313 -1.0957
10547TIP3   OH253055   3.646   0.842   1.595 -0.4065 -0.0921 -0.4949
10547TIP3    H153056   3.603   0.857   1.510  1.2637 -0.5477 -1.4690
10547TIP3    H253057   3.645   0.928   1.637 -2.4736 -0.1345 -0.3383
10548TIP3   OH253058   1.602   1.669  14.191 -0.5423 -0.1409  0.5632
10548TIP3    H153059   1.641   1.619  14.119 -0.7784 -0.7033  0.8205
10548TIP3    H253060   1.664   1.660  14.263  0.3315  1.4890  0.0599
10549TIP3   OH253061   0.298   3.158  15.765 -0.1820  0.0906  0.1787
10549TIP3    H153062   0.361   3.162  15.837 -1.1591  0.4354  1.0499
10549TIP3    H253063   0.294   3.248  15.733  0.6729 -0.1718 -0.7015
10550TIP3   OH253064   3.557   2.704  14.130  0.2326  0.1520  0.0009
10550TIP3    H153065   3.525   2.694  14.040  0.3807  0.4387 -0.0831
10550TIP3    H253066   3.626   2.638  14.138  2.0826  1.8781 -0.9529
10551TIP3   OH253067   6.508   0.937  11.565  0.2995  0.0496 -0.2646
10551TIP3    H153068   6.586   0.982  11.533  0.4351 -0.5395 -0.7803
10551TIP3    H253069   6.486   0.874  11.496 -0.7599  0.3570 -0.2377
10552TIP3   OH253070   3.153   4.098  16.756  0.4498  0.4825 -0.0250
10552TIP3    H153071   3.238   4.071  16.793 -0.0461 -1.2817 -0.0864
10552TIP3    H253072   3.173   4.122  16.666  1.2143  2.1705  0.5513
10553TIP3   OH253073   3.601   1.480  13.812  0.6020  0.0085  0.4344
10553TIP3    H153074   3.551   1.453  13.889 -0.7465  2.1896  0.3986
10553TIP3    H253075   3.692   1.467  13.837  0.1569 -2.6707  1.0579
10554TIP3   OH253076   0.873   4.210   5.724 -0.2682  0.1665 -0.5283
10554TIP3    H153077   0.805   4.143   5.723  0.5229 -0.7627  1.4643
10554TIP3    H253078   0.954   4.163   5.702  0.1479  0.6657 -0.0997
10555TIP3   OH253079   1.701   3.571   3.068 -0.0599 -0.0367  0.1663
10555TIP3    H153080   1.703   3.554   3.162 -0.0092 -0.5989  0.0674
10555TIP3    H253081   1.617   3.535   3.040  0.0372 -0.0948 -0.0467
10556TIP3   OH253082   1.500   5.478  14.197 -0.0507  0.1020  0.5171
10556TIP3    H153083   1.524   5.435  14.114  0.4095 -2.9853  2.0923
10556TIP3    H253084   1.405   5.488  14.192  0.0170  0.3824 -0.5452
10557TIP3   OH253085   3.162   2.603   4.926 -0.3313 -0.2531  0.2851
10557TIP3    H153086   3.175   2.571   4.837  1.3080 -0.8236  0.6881
10557TIP3    H253087   3.107   2.536   4.968 -0.8581 -0.1303 -0.2042
10558TIP3   OH253088   3.638   0.148   0.557  0.6367 -0.1859 -0.0295
10558TIP3    H153089   3.726   0.183   0.542  1.4269 -1.2525  1.8270
10558TIP3    H253090   3.590   0.221   0.595  1.0788  0.0507  0.0922
10559TIP3   OH253091   5.344   0.402  13.328  1.0200  0.5128  0.2664
10559TIP3    H153092   5.406   0.371  13.393  0.0115  1.6941  1.8514
10559TIP3    H253093   5.333   0.328  13.268  1.4707 -0.8554  1.8091
10560TIP3   OH253094   4.743   5.081   0.592 -0.7680  0.1613 -0.0178
10560TIP3    H153095   4.827   5.061   0.551  0.3594  1.0537  1.7228
10560TIP3    H253096   4.720   5.167   0.557 -0.6061  0.2259  0.0317
10561TIP3   OH253097   5.757   6.316   5.282  0.1603  0.1745  0.3621
10561TIP3    H153098   5.674   6.361   5.291 -1.1852 -1.9298 -0.6584
10561TIP3    H253099   5.803   6.331   5.365  0.1553  3.8810 -0.1746
10562TIP3   OH253100   2.083   3.784   2.259  0.2547 -0.2465 -0.4766
10562TIP3    H153101   2.038   3.789   2.175 -1.4811 -0.3640  0.3987
10562TIP3    H253102   2.084   3.691   2.280  1.4406 -0.3053 -0.7385
10563TIP3   OH253103   3.444   1.007  13.431 -0.3374  0.6380  0.2961
10563TIP3    H153104   3.421   1.097  13.406 -0.1116  1.2490  2.1281
10563TIP3    H253105   3.365   0.973  13.473 -0.6562 -0.3021 -1.0060
10564TIP3   OH253106   3.513   2.826  13.773 -0.4057  0.0427 -0.2145
10564TIP3    H153107   3.594   2.875  13.757 -0.2158  0.1554  1.0199
10564TIP3    H253108   3.542   2.735  13.782 -0.5756 -0.0945 -1.0127
10565TIP3   OH253109   1.793   2.705  16.658 -0.8216  0.1559 -0.0128
10565TIP3    H153110   1.833   2.639  16.715 -0.5189  0.1211 -0.2664
10565TIP3    H253111   1.764   2.774  16.718  0.6306  0.7215  0.0887
10566TIP3   OH253112   1.253   4.098   2.081  0.4460 -0.2792  0.6365
10566TIP3    H153113   1.314   4.036   2.040  0.2933 -0.4222  0.6272
10566TIP3    H253114   1.309   4.154   2.136  0.6004 -0.3371  0.5399
10567TIP3   OH253115   4.880   5.945  13.530  0.4574 -0.2135 -0.0299
10567TIP3    H153116   4.811   5.898  13.577  1.1771  0.2531  1.5719
10567TIP3    H253117   4.944   5.878  13.506 -0.5135 -0.6509 -1.5395
10568TIP3   OH253118   5.669   0.822  12.658 -0.4273 -0.5717  0.2522
10568TIP3    H153119   5.710   0.893  12.608 -0.6508 -1.3728 -1.1120
10568TIP3    H253120   5.712   0.824  12.743  0.3998  0.4424 -0.1745
10569TIP3   OH253121   5.717   2.248   2.426  0.0178  0.0599  0.1300
10569TIP3    H153122   5.729   2.169   2.478 -0.1710  0.7270  1.2163
10569TIP3    H253123   5.635   2.286   2.458  0.4030  1.0001  0.0452
10570TIP3   OH253124   2.779   0.461  13.622  0.1039 -0.0626 -0.4378
10570TIP3    H153125   2.819   0.512  13.551  0.3322  0.0353 -0.2391
10570TIP3    H253126   2.687   0.451  13.595  0.3421 -0.5987 -1.0703
10571TIP3   OH253127   0.514   6.329  13.005 -0.8184  0.1561 -0.0521
10571TIP3    H153128   0.461   6.402  13.036 -0.4226 -0.1177  1.3326
10571TIP3    H253129   0.485   6.254  13.058  0.3934 -0.1686  0.1910
10572TIP3   OH253130   3.223   0.184   5.427 -0.2273  0.2835  0.7570
10572TIP3    H153131   3.224   0.180   5.331  0.7372 -1.4018  0.8094
10572TIP3    H253132   3.144   0.136   5.452  0.5389 -0.9690  0.8373
10573TIP3   OH253133   0.815   3.861  14.358 -1.1724  0.1068  0.7813
10573TIP3    H153134   0.803   3.955  14.372 -3.2066  0.2293 -1.2266
10573TIP3    H253135   0.727   3.827  14.345 -0.2922 -1.2949 -2.7247
10574TIP3   OH253136   3.697   0.386   0.862 -0.2645 -0.1745  0.4959
10574TIP3    H153137   3.638   0.384   0.787 -0.4732  1.6930  0.5535
10574TIP3    H253138   3.641   0.408   0.936  0.3247  0.5881  0.7312
10575TIP3   OH253139   5.080   6.128   4.275  0.1233 -0.1446 -0.1381
10575TIP3    H153140   5.039   6.193   4.219  2.8607  1.0280 -0.9836
10575TIP3    H253141   5.022   6.122   4.351 -0.6740  2.7562 -0.3707
10576TIP3   OH253142   4.161   1.601   2.870 -0.0619 -0.3183 -0.4132
10576TIP3    H153143   4.079   1.551   2.870 -0.1517 -0.4004 -3.3942
10576TIP3    H253144   4.157   1.653   2.789  2.8259 -0.3569 -0.6861
10577TIP3   OH253145   0.802   3.334  11.600  0.1200  0.3209 -0.1170
10577TIP3    H153146   0.708   3.319  11.587  0.0018 -1.8415  2.4912
10577TIP3    H253147   0.806   3.402  11.668  0.4542  0.4436 -0.2579
10578TIP3   OH253148   3.023   2.840   4.586  0.6119  0.2136  0.4075
10578TIP3    H153149   2.960   2.813   4.518  1.1200  0.3800 -0.1382
10578TIP3    H253150   3.107   2.845   4.540  0.9501  0.3990  1.0388
10579TIP3   OH253151   3.978   6.172  13.307  0.0705  0.4129  0.2516
10579TIP3    H153152   3.882   6.170  13.309  0.0061 -3.1846  0.1110
10579TIP3    H253153   4.000   6.190  13.216 -0.4615  1.2084  0.2719
10580TIP3   OH253154   3.689   6.051  17.102 -0.3921  0.1513  0.0997
10580TIP3    H153155   3.619   6.083  17.045 -0.6783 -0.9510 -0.1922
10580TIP3    H253156   3.650   5.977  17.149  0.5102 -0.3404  0.0962
10581TIP3   OH253157   0.636   3.327  11.929  0.0251  0.2781 -0.3477
10581TIP3    H153158   0.714   3.369  11.893  0.0775  0.4842 -0.0013
10581TIP3    H253159   0.669   3.255  11.982 -0.0343  0.1925 -0.4262
10582TIP3   OH253160   2.509   0.762  14.536 -0.4139  0.1952 -0.0213
10582TIP3    H153161   2.563   0.830  14.495 -0.8636  1.5227  1.4894
10582TIP3    H253162   2.565   0.685  14.540  0.4880  0.7924 -0.7602
10583TIP3   OH253163   2.997   1.529  12.631  0.4652 -0.3118 -0.8654
10583TIP3    H153164   2.987   1.616  12.669 -2.7131 -0.6114 -0.7685
10583TIP3    H253165   3.031   1.475  12.703  1.9279  0.6826 -0.7712
10584TIP3   OH253166   4.572   4.380  12.701 -0.0551  0.2963  0.3543
10584TIP3    H153167   4.490   4.429  12.706 -0.5774 -0.5072 -0.1174
10584TIP3    H253168   4.565   4.315  12.771 -0.4823 -0.7393 -0.6234
10585TIP3   OH253169   5.111   2.740  14.837 -0.3944 -0.2966 -0.3819
10585TIP3    H153170   5.096   2.767  14.746 -0.5892  0.1086 -0.2325
10585TIP3    H253171   5.024   2.719  14.870 -0.5093  0.8999  0.1246
10586TIP3   OH253172   2.002   3.821  16.530 -0.3774  0.3324  0.5700
10586TIP3    H153173   1.919   3.773  16.530  0.2130 -0.7251  0.0672
10586TIP3    H253174   2.011   3.855  16.441  0.2578 -0.5330  0.2909
10587TIP3   OH253175   0.772   4.588   4.189  0.1180 -0.5387 -0.6832
10587TIP3    H153176   0.723   4.597   4.107  0.7629  0.0103 -1.0172
10587TIP3    H253177   0.762   4.496   4.213 -2.2340 -0.1673  0.0005
10588TIP3   OH253178   3.599   1.443   1.846 -0.3234  0.3256 -0.1487
10588TIP3    H153179   3.662   1.374   1.866  0.2928  0.9719  0.2015
10588TIP3    H253180   3.648   1.524   1.860 -1.1424  0.8347 -0.1912
10589TIP3   OH253181   2.833   4.696  14.299  0.6704 -0.2164 -0.0399
10589TIP3    H153182   2.855   4.609  14.333  0.7854  0.3999  1.5715
10589TIP3    H253183   2.906   4.751  14.326 -0.5856  0.8954  1.2554
10590TIP3   OH253184   2.981   3.652   0.269  0.0284  0.6802  0.1013
10590TIP3    H153185   3.067   3.646   0.228  1.2025  3.1547  1.9576
10590TIP3    H253186   2.994   3.619   0.358 -0.8966  1.1733  0.4388
10591TIP3   OH253187   0.038   1.447   0.908 -0.4051  0.9818 -0.5058
10591TIP3    H153188   0.076   1.368   0.869 -1.2455 -1.0422  2.3845
10591TIP3    H253189   0.113   1.497   0.939  0.1526 -0.7326  1.1182
10592TIP3   OH253190   3.301   6.361  12.966  0.1308 -0.1208  0.0255
10592TIP3    H153191   3.395   6.348  12.952  0.2090 -0.0606  0.5029
10592TIP3    H253192   3.295   6.443  13.016 -0.1327 -0.5405  0.6812
10593TIP3   OH253193   1.708   1.519  15.483 -0.1366 -0.3144 -0.7654
10593TIP3    H153194   1.721   1.606  15.445 -1.2401  0.6083  0.8675
10593TIP3    H253195   1.793   1.497  15.521  0.2151 -0.0670 -1.3884
10594TIP3   OH253196   2.399   0.719   4.154 -0.6622  0.0176 -0.1571
10594TIP3    H153197   2.487   0.747   4.130 -0.5148 -1.4454 -1.5228
10594TIP3    H253198   2.414   0.644   4.212 -1.0201  0.1045  0.0495
10595TIP3   OH253199   0.355   5.078  12.467 -0.5641 -0.3762  0.4696
10595TIP3    H153200   0.387   5.154  12.517  0.3877 -0.1022 -0.5088
10595TIP3    H253201   0.346   5.009  12.532  1.2642 -0.2109  0.9573
10596TIP3   OH253202   6.691   1.671   0.706 -0.7844 -0.2101  0.6987
10596TIP3    H153203   6.786   1.659   0.704 -0.3365  2.6881  0.9708
10596TIP3    H253204   6.664   1.634   0.790 -0.1558 -2.1874  0.0997
10597TIP3   OH253205   3.814   1.513   6.176  0.1783 -0.1074  0.9909
10597TIP3    H153206   3.760   1.453   6.125  2.4199 -1.2709 -0.1525
10597TIP3    H253207   3.781   1.506   6.265 -1.5958 -0.6684  0.3362
10598TIP3   OH253208   0.409   4.223  16.318 -0.0145 -0.0640 -0.2375
10598TIP3    H153209   0.435   4.292  16.258  1.6619  0.1562  0.6738
10598TIP3    H253210   0.410   4.264  16.405  0.0445 -0.9723  0.2087
10599TIP3   OH253211   5.793   0.592   3.925  0.3604  0.2960 -0.6086
10599TIP3    H153212   5.821   0.583   3.834 -1.1416  0.1962 -1.0910
10599TIP3    H253213   5.745   0.674   3.928 -1.0652 -0.5061 -0.3290
10600TIP3   OH253214   6.273   0.816   4.553 -0.0157 -0.2342 -0.3999
10600TIP3    H153215   6.264   0.824   4.648  0.5107  3.6167 -0.5311
10600TIP3    H253216   6.368   0.813   4.538  0.0595  2.3855 -0.8478
10601TIP3   OH253217   6.303   5.455   3.545 -0.0429  0.0662 -0.0519
10601TIP3    H153218   6.259   5.399   3.608 -0.6622  0.2946 -0.2743
10601TIP3    H253219   6.383   5.408   3.523 -0.4877 -0.6721 -0.1375
10602TIP3   OH253220   5.307   1.370   6.005 -0.2335  0.2380  0.6247
10602TIP3    H153221   5.327   1.303   5.939  0.8624 -0.3846  1.5558
10602TIP3    H253222   5.338   1.452   5.966  0.7630 -0.1800  0.5012
10603TIP3   OH253223   6.102   3.563   5.191  0.2184 -0.3704 -0.2718
10603TIP3    H153224   6.177   3.595   5.241 -0.2177 -0.4203  0.4247
10603TIP3    H253225   6.027   3.610   5.227 -0.4126 -1.9486  0.6039
10604TIP3   OH253226   6.689   4.731  11.854 -0.2678 -0.5292 -0.2286
10604TIP3    H153227   6.633   4.784  11.796  1.0644  1.6117  0.3384
10604TIP3    H253228   6.747   4.684  11.794  0.2806  0.7159 -0.7078
10605TIP3   OH253229   0.454   2.128  12.407 -0.0757 -0.6208 -0.7527
10605TIP3    H153230   0.382   2.075  12.440 -1.2418 -0.3544 -2.7078
10605TIP3    H253231   0.530   2.070  12.412 -0.4587 -1.0331  0.9815
10606TIP3   OH253232   6.206   3.717  11.247  0.2538 -0.8270 -0.7324
10606TIP3    H153233   6.210   3.789  11.310 -0.8529 -2.7543  1.6991
10606TIP3    H253234   6.132   3.738  11.191  1.4188  1.0525 -1.6675
10607TIP3   OH253235   6.674   2.864  11.664  0.7279  0.0508  0.5268
10607TIP3    H153236   6.744   2.850  11.728  1.7164  2.0967 -0.0251
10607TIP3    H253237   6.719   2.869  11.580 -0.1212  1.0209  0.1126
10608TIP3   OH253238   0.211   1.117  16.044 -0.0972 -0.0529 -0.4570
10608TIP3    H153239   0.238   1.182  16.109 -0.2597 -1.2647  0.8496
10608TIP3    H253240   0.218   1.164  15.960  1.1049  1.2266  0.3091
10609TIP3   OH253241   5.502   5.580  13.214 -0.6598  0.4151  0.2339
10609TIP3    H153242   5.478   5.489  13.198  1.4660 -0.6015  2.2563
10609TIP3    H253243   5.551   5.606  13.136  1.6209 -1.3495  0.9708
10610TIP3   OH253244   2.237   2.852  15.467  0.1883  0.2240 -0.4801
10610TIP3    H153245   2.177   2.887  15.401 -0.0947  1.4878  0.4018
10610TIP3    H253246   2.189   2.862  15.550  0.7246 -0.8624 -0.0224
10611TIP3   OH253247   4.965   1.667   5.873 -0.0641  0.4404 -0.0854
10611TIP3    H153248   4.962   1.592   5.932 -2.8937  1.3329  1.0852
10611TIP3    H253249   4.902   1.647   5.805  0.4254  1.0350 -0.7313
10612TIP3   OH253250   4.879   2.966   3.267 -0.8109 -0.2525  0.4601
10612TIP3    H153251   4.821   2.997   3.197 -0.4121 -0.3765  0.0737
10612TIP3    H253252   4.965   2.960   3.227 -0.4547  0.2496  1.1231
10613TIP3   OH253253   2.973   2.683  13.501  0.4170  0.8224 -0.3671
10613TIP3    H153254   3.063   2.668  13.472  0.1722 -3.8020  0.4580
10613TIP3    H253255   2.978   2.690  13.596 -0.0977 -0.2161 -0.2464
10614TIP3   OH253256   4.228   1.604   4.853 -0.2392 -0.2586 -0.5585
10614TIP3    H153257   4.169   1.534   4.824  0.1562 -0.5163 -0.7426
10614TIP3    H253258   4.309   1.559   4.877  0.2751  0.2171 -1.3995
10615TIP3   OH253259   3.199   1.838   1.451  0.6359  0.3448 -0.0164
10615TIP3    H153260   3.259   1.790   1.394  0.1689 -0.3403  0.0561
10615TIP3    H253261   3.121   1.783   1.456 -0.2236  1.4771 -0.5518
10616TIP3   OH253262   4.721   5.110  14.745 -0.0922 -0.8403 -0.1820
10616TIP3    H153263   4.638   5.141  14.709 -0.8021 -0.5528  1.6052
10616TIP3    H253264   4.716   5.014  14.736 -0.3071 -0.7833 -0.7040
10617TIP3   OH253265   4.046   5.354  15.108 -0.0551  0.0227 -0.5639
10617TIP3    H153266   4.022   5.394  15.192  0.6999  1.2227 -0.8973
10617TIP3    H253267   3.981   5.385  15.046  0.5210  0.7349 -0.8207
10618TIP3   OH253268   0.877   3.009   1.085  0.0994 -0.1659  0.2728
10618TIP3    H153269   0.822   2.958   1.026 -0.9267  1.3511 -0.1316
10618TIP3    H253270   0.839   2.995   1.171 -0.9185  0.8153  0.0064
10619TIP3   OH253271   3.734   5.917   3.134 -0.4635  0.3581  0.3174
10619TIP3    H153272   3.738   5.900   3.040  1.6763  0.6825  0.3033
10619TIP3    H253273   3.661   5.978   3.144 -0.2457  0.9211 -1.2385
10620TIP3   OH253274   6.273   1.932  14.575  0.5614 -0.0945 -0.2597
10620TIP3    H153275   6.331   1.995  14.618  0.6259  1.1568 -2.0820
10620TIP3    H253276   6.323   1.851  14.574  1.5631  0.5052 -0.2246
10621TIP3   OH253277   3.924   0.375   4.579  0.0026 -0.4509 -0.5067
10621TIP3    H153278   3.986   0.325   4.527 -1.2142 -0.3166 -2.1575
10621TIP3    H253279   3.976   0.447   4.616  1.1902 -1.3763 -0.3209
10622TIP3   OH253280   6.036   4.710   3.368 -0.1354 -0.7082  0.4902
10622TIP3    H153281   6.034   4.624   3.408 -4.5051 -1.0753 -0.0285
10622TIP3    H253282   6.010   4.770   3.438 -0.2860 -0.2947  0.0914
10623TIP3   OH253283   5.714   1.101   1.558 -0.0564  0.3702 -0.0267
10623TIP3    H153284   5.625   1.134   1.543  0.4445  1.2165 -1.2245
10623TIP3    H253285   5.715   1.016   1.513 -0.2278  0.4231 -0.1331
10624TIP3   OH253286   0.582   1.100   5.859 -0.3272 -0.1866 -0.0486
10624TIP3    H153287   0.497   1.133   5.832  0.1969  0.1610 -1.3662
10624TIP3    H253288   0.618   1.058   5.781 -0.0919 -2.0533  1.0167
10625TIP3   OH253289   3.467   3.606   5.309 -0.0047 -0.6096 -0.5707
10625TIP3    H153290   3.426   3.655   5.380  0.2100  1.8353 -2.0103
10625TIP3    H253291   3.435   3.516   5.320 -1.5097  0.0951  1.4267
10626TIP3   OH253292   4.954   1.673  16.063 -0.7002  0.2896 -0.2942
10626TIP3    H153293   4.975   1.605  16.126  0.4099  1.6657  0.8952
10626TIP3    H253294   5.033   1.684  16.011 -1.3658 -0.3248 -1.4608
10627TIP3   OH253295   5.714   2.159  16.095 -0.0999  0.2479  0.1557
10627TIP3    H153296   5.657   2.161  16.019  0.8936 -1.0680 -0.6765
10627TIP3    H253297   5.793   2.113  16.065  0.5851  0.2658  1.7947
10628TIP3   OH253298   1.167   0.467  16.627 -0.0863  0.2656 -0.5357
10628TIP3    H153299   1.235   0.534  16.631 -1.9413  2.2217  0.0978
10628TIP3    H253300   1.099   0.505  16.572 -1.6749 -0.6344  0.7070
10629TIP3   OH253301   1.421   6.125   0.506  0.5007 -0.5964 -0.2149
10629TIP3    H153302   1.387   6.060   0.443 -0.7260  1.2398 -1.5493
10629TIP3    H253303   1.500   6.159   0.464 -0.0353  0.2705 -0.5311
10630TIP3   OH253304   3.446   5.589   2.788 -0.2642  0.7409 -0.2194
10630TIP3    H153305   3.404   5.638   2.717 -2.9829  1.2225  1.5830
10630TIP3    H253306   3.523   5.641   2.810 -0.8285  1.9847 -1.0639
10631TIP3   OH253307   1.731   0.215   5.836  0.0515 -1.0859  0.0795
10631TIP3    H153308   1.729   0.306   5.866  0.4083 -0.9034 -0.4300
10631TIP3    H253309   1.676   0.214   5.757 -0.6664 -1.5034  0.5778
10632TIP3   OH253310   2.070   6.272   3.643 -0.4389 -0.3571 -0.7253
10632TIP3    H153311   2.035   6.230   3.721  1.6973  1.4166  1.3443
10632TIP3    H253312   2.145   6.218   3.619  0.3254  0.3781 -0.0596
10633TIP3   OH253313   6.350   2.482   0.436  0.7535 -0.1917  0.0224
10633TIP3    H153314   6.425   2.424   0.422  0.8980 -0.8420  2.8810
10633TIP3    H253315   6.385   2.554   0.489 -0.1430  0.8160 -0.7135
10634TIP3   OH253316   1.753   1.300  10.736  0.4074  0.0955 -0.2765
10634TIP3    H153317   1.750   1.361  10.663  0.9838  1.7220  1.0049
10634TIP3    H253318   1.738   1.214  10.696 -1.7566  1.1732 -1.9505
10635TIP3   OH253319   1.154   4.679   3.829  0.3051  0.4943 -0.0437
10635TIP3    H153320   1.160   4.600   3.776 -0.7464  0.3938 -0.0489
10635TIP3    H253321   1.235   4.727   3.811  2.0838 -1.6345  1.7597
10636TIP3   OH253322   2.134   3.180  17.166 -0.1872  0.4728  0.3426
10636TIP3    H153323   2.113   3.173  17.073  0.9339  2.0869 -0.0758
10636TIP3    H253324   2.202   3.247  17.171  0.9130 -0.6635  2.1737
10637TIP3   OH253325   0.915   0.582   1.743 -0.3142  0.1299  0.2177
10637TIP3    H153326   0.875   0.637   1.676  0.0270  0.7465  0.5161
10637TIP3    H253327   0.875   0.610   1.825 -0.3631 -0.2816  0.3387
10638TIP3   OH253328   4.611   5.311  16.409 -0.1236  0.3439 -0.2470
10638TIP3    H153329   4.648   5.278  16.327 -0.2441 -2.4860  0.7343
10638TIP3    H253330   4.550   5.243  16.437  0.6527  0.7233  2.6681
10639TIP3   OH253331   6.532   6.292   6.074 -0.0552 -0.7739 -0.0473
10639TIP3    H153332   6.526   6.210   6.123  1.1430 -1.5996 -1.2080
10639TIP3    H253333   6.626   6.310   6.068 -0.2186 -0.2101 -1.2400
10640TIP3   OH253334   4.712   4.365   1.916  0.6302  0.1970  0.0465
10640TIP3    H153335   4.696   4.368   2.010 -1.4876  0.9815 -0.2857
10640TIP3    H253336   4.701   4.455   1.887  1.2036 -0.0503 -0.9857
10641TIP3   OH253337   0.878   1.922   0.896 -0.1702  0.2923 -0.1013
10641TIP3    H153338   0.914   1.880   0.974 -1.6615  1.1506  1.1030
10641TIP3    H253339   0.784   1.928   0.913 -0.1417  3.7006 -0.3148
10642TIP3   OH253340   4.226   1.070   5.026  0.2108  0.1900  0.5770
10642TIP3    H153341   4.143   1.103   4.991  0.0900 -0.9106 -0.2106
10642TIP3    H253342   4.288   1.077   4.954  0.2661 -0.9561  0.5035
10643TIP3   OH253343   6.662   2.688   5.625  0.6712 -0.1551 -0.4453
10643TIP3    H153344   6.600   2.730   5.684  1.2816  0.9905 -0.6008
10643TIP3    H253345   6.670   2.599   5.659  0.2552  0.1866  0.5971
10644TIP3   OH253346   4.142   0.895  14.944  0.2900 -0.5131 -1.0578
10644TIP3    H153347   4.070   0.861  14.891  1.0103 -1.9180 -1.1812
10644TIP3    H253348   4.190   0.817  14.972  0.9228  0.3123  0.2374
10645TIP3   OH253349   2.321   0.047   3.072 -0.0770 -0.2548  0.1875
10645TIP3    H153350   2.361   0.100   3.141 -0.3955 -0.3652  0.4644
10645TIP3    H253351   2.366   0.072   2.992 -0.0969  0.2987  0.3463
10646TIP3   OH253352   2.551   4.313   1.780  0.0586 -0.2116 -0.3139
10646TIP3    H153353   2.567   4.238   1.722  0.7188  0.6791 -1.3163
10646TIP3    H253354   2.637   4.355   1.790 -0.2251  0.1863  0.5710
10647TIP3   OH253355   2.674   3.174   4.470 -0.4297  0.3293 -0.0864
10647TIP3    H153356   2.592   3.125   4.477  0.0185 -0.2623  1.5985
10647TIP3    H253357   2.738   3.120   4.518  0.7216  1.2305 -0.5557
10648TIP3   OH253358   5.358   5.885  15.839 -0.2525  0.5272  0.1802
10648TIP3    H153359   5.283   5.877  15.898  0.1770  0.7851  0.7708
10648TIP3    H253360   5.424   5.933  15.890  0.6885 -0.5622  0.0152
10649TIP3   OH253361   3.430   0.215   3.436  0.2810  0.2201  0.0500
10649TIP3    H153362   3.335   0.214   3.438  0.2047 -2.7038  2.5565
10649TIP3    H253363   3.452   0.200   3.344 -1.5736  1.8092 -0.7298
10650TIP3   OH253364   4.215   6.638  14.104 -0.1855  0.0029 -0.0277
10650TIP3    H153365   4.184   6.588  14.029 -0.5216 -1.0015  0.7715
10650TIP3    H253366   4.163   6.607  14.178  0.3752  0.7288  0.6966
10651TIP3   OH253367   5.366   5.021   1.495  0.3582  0.2798  0.3293
10651TIP3    H153368   5.334   5.055   1.579  1.4879 -0.0069  0.9089
10651TIP3    H253369   5.444   5.073   1.477  0.9517 -0.6291  0.2040
10652TIP3   OH253370   4.461   3.813  17.140 -0.9394 -0.2874 -0.4271
10652TIP3    H153371   4.553   3.807  17.168 -0.7916 -0.6600 -0.9680
10652TIP3    H253372   4.416   3.855  17.213 -0.0046  1.5715 -0.8636
10653TIP3   OH253373   1.719   4.364  11.160 -0.5087 -0.0420  0.2467
10653TIP3    H153374   1.645   4.338  11.214 -1.5633  1.0983 -0.5775
10653TIP3    H253375   1.680   4.389  11.076  0.9952 -1.0629 -0.8242
10654TIP3   OH253376   0.889   0.325  17.021  0.5356  0.6169 -0.1875
10654TIP3    H153377   0.920   0.398  16.967  2.0235  0.2692  0.1442
10654TIP3    H253378   0.949   0.253  17.000  0.1802  0.0234  0.7787
10655TIP3   OH253379   3.331   4.549  16.583  0.5398  0.4295  0.5873
10655TIP3    H153380   3.386   4.470  16.581  0.0076  0.0574  0.4188
10655TIP3    H253381   3.280   4.539  16.664 -0.3615  0.0216 -0.0207
10656TIP3   OH253382   6.742   5.865   4.455  0.1079  0.6057  0.0015
10656TIP3    H153383   6.821   5.914   4.432  0.2877  0.2412 -0.1571
10656TIP3    H253384   6.680   5.886   4.386  0.6353 -0.4600 -0.8268
10657TIP3   OH253385   2.912   4.849   4.083 -0.2763  0.4074  0.1181
10657TIP3    H153386   2.985   4.892   4.038  0.8529 -1.7455 -0.2685
10657TIP3    H253387   2.914   4.886   4.171 -0.2641  2.1125 -0.5652
10658TIP3   OH253388   5.733   0.130  11.013  0.0915 -0.2806  0.1430
10658TIP3    H153389   5.772   0.043  11.004  0.2950 -0.0450 -1.5914
10658TIP3    H253390   5.738   0.148  11.106 -0.2812 -2.2720  0.6051
10659TIP3   OH253391   3.643   0.796  14.107 -0.6889 -0.2221 -0.1985
10659TIP3    H153392   3.681   0.825  14.190 -0.4876  0.3402 -0.4816
10659TIP3    H253393   3.665   0.703  14.102 -1.3923 -0.4595  0.7548
10660TIP3   OH253394   1.549   2.934  14.137  0.0962 -0.0005 -0.5168
10660TIP3    H153395   1.491   3.003  14.103  0.1019 -0.2088 -0.9535
10660TIP3    H253396   1.498   2.892  14.206 -0.5643 -0.6554 -1.3822
10661TIP3   OH253397   6.204   1.114  16.562 -0.1918  0.2361  0.2141
10661TIP3    H153398   6.202   1.020  16.577  0.7290  0.2905  0.7376
10661TIP3    H253399   6.134   1.130  16.499  0.8217 -1.0696 -1.3398
10662TIP3   OH253400   6.547   6.686  15.017  0.6107 -0.4190  0.5116
10662TIP3    H153401   6.457   6.709  14.992  0.3905 -1.8347 -0.1093
10662TIP3    H253402   6.595   6.768  15.014 -0.3761  0.1484 -0.4430
10663TIP3   OH253403   0.280   1.710   3.398 -0.6458  0.3505  0.0961
10663TIP3    H153404   0.193   1.712   3.440 -0.5875 -1.7622  0.4311
10663TIP3    H253405   0.263   1.678   3.310 -0.2104 -0.1990  0.2048
10664TIP3   OH253406   5.721   5.091  13.559 -0.1695  0.0748 -0.1464
10664TIP3    H153407   5.737   5.002  13.591  0.3269 -0.3415 -1.4907
10664TIP3    H253408   5.625   5.099  13.559 -0.1994 -0.0749  0.9422
10665TIP3   OH253409   1.366   4.589   4.548  0.1012 -0.1258 -0.2064
10665TIP3    H153410   1.351   4.499   4.520  0.7707 -0.4863  0.5681
10665TIP3    H253411   1.283   4.617   4.587  0.3068 -0.8700  0.7838
10666TIP3   OH253412   3.193   1.669  14.080  0.1356 -0.1137  0.1943
10666TIP3    H153413   3.286   1.654  14.093 -0.1105 -1.5932  0.4989
10666TIP3    H253414   3.170   1.617  14.003 -0.6877 -0.8942  0.9446
10667TIP3   OH253415   0.263   4.186   0.670 -0.1888 -0.0637 -0.2935
10667TIP3    H153416   0.185   4.145   0.632  0.8131 -0.3216 -2.1914
10667TIP3    H253417   0.335   4.158   0.613  0.9967  1.7920  0.2212
10668TIP3   OH253418   4.494   0.908  11.810 -0.4947 -0.0775  0.3529
10668TIP3    H153419   4.520   0.999  11.792  1.1418 -0.7259 -0.8163
10668TIP3    H253420   4.575   0.865  11.836 -1.0913 -1.3822  0.1161
10669TIP3   OH253421   6.658   3.245   1.895  0.2618 -0.2988 -0.1401
10669TIP3    H153422   6.623   3.296   1.968  1.1422  1.0970 -0.6472
10669TIP3    H253423   6.696   3.167   1.936  2.6398  1.4309  1.2164
10670TIP3   OH253424   1.169   0.546   3.884  0.5324  0.0721  0.0950
10670TIP3    H153425   1.211   0.617   3.932  0.6292 -0.1339  0.3175
10670TIP3    H253426   1.235   0.516   3.822  0.1371  0.8656 -0.7208
10671TIP3   OH253427   4.928   0.274   3.904 -0.1904  0.0582 -0.4372
10671TIP3    H153428   4.924   0.364   3.874  1.2465  0.1769 -0.3327
10671TIP3    H253429   4.860   0.268   3.971 -0.3615  1.0355 -0.5138
10672TIP3   OH253430   2.289   2.602  11.576 -0.2429 -0.1829  0.7961
10672TIP3    H153431   2.382   2.622  11.583 -0.0263 -0.1188 -1.4875
10672TIP3    H253432   2.276   2.525  11.632  1.4906 -1.0854  0.0024
10673TIP3   OH253433   1.987   4.288   4.515 -0.2888  0.2135  0.1941
10673TIP3    H153434   2.033   4.258   4.436 -2.6431  1.7826 -1.9375
10673TIP3    H253435   1.932   4.214   4.539  1.9501 -1.0757  1.8050
10674TIP3   OH253436   4.455   5.978   3.152 -0.0376 -0.9308 -0.2882
10674TIP3    H153437   4.388   5.958   3.217  1.1083 -1.6325  0.7160
10674TIP3    H253438   4.506   5.898   3.144  0.6566 -0.4284 -1.0554
10675TIP3   OH253439   6.039   0.118   3.783  0.0052  0.3530 -0.6329
10675TIP3    H153440   6.055   0.142   3.874  0.2531 -1.3457 -0.1981
10675TIP3    H253441   5.945   0.130   3.771 -0.1025  0.1371 -0.0211
10676TIP3   OH253442   3.507   2.725  12.529 -0.2612 -0.4727  0.1229
10676TIP3    H153443   3.581   2.783  12.511 -0.7760  0.1724  0.0163
10676TIP3    H253444   3.543   2.637  12.524  0.4730 -0.1696 -0.0374
10677TIP3   OH253445   5.546   1.685   1.030 -0.1976 -0.2867  0.4660
10677TIP3    H153446   5.611   1.616   1.044  0.0138 -0.7209 -2.1335
10677TIP3    H253447   5.590   1.766   1.056  0.3211 -0.8806  1.5007
10678TIP3   OH253448   4.478   1.822  12.602 -0.0124  0.1998 -0.2532
10678TIP3    H153449   4.509   1.736  12.575  0.7979  0.4856 -0.2445
10678TIP3    H253450   4.446   1.809  12.691 -1.5989 -0.4838 -0.8886
10679TIP3   OH253451   6.252   2.780   4.555 -0.0591 -0.6207  0.0277
10679TIP3    H153452   6.343   2.808   4.554  0.1857 -1.1348  2.1887
10679TIP3    H253453   6.201   2.860   4.546  0.6173 -0.1533  0.3298
10680TIP3   OH253454   6.540   3.783   5.908  0.3305 -0.5048 -0.9289
10680TIP3    H153455   6.503   3.708   5.955  1.2468 -0.1143  0.5063
10680TIP3    H253456   6.618   3.806   5.960 -0.0436  1.5538 -1.2231
10681TIP3   OH253457   0.789   0.237  10.710  0.0180  0.3984 -0.1143
10681TIP3    H153458   0.771   0.160  10.656 -0.4161 -0.4348  1.1615
10681TIP3    H253459   0.877   0.222  10.746  0.1498  0.7591 -0.2794
10682TIP3   OH253460   4.554   3.050   4.450  0.2456  0.2598 -0.5792
10682TIP3    H153461   4.495   3.118   4.418  0.7385 -0.0282 -2.2342
10682TIP3    H253462   4.526   3.033   4.540 -1.2336  1.1498 -0.8420
10683TIP3   OH253463   3.649   0.670   5.638  0.4120 -0.2312  0.3576
10683TIP3    H153464   3.647   0.650   5.544  0.8686 -0.2745  0.3522
10683TIP3    H253465   3.742   0.667   5.660  0.2705 -0.6481  0.9033
10684TIP3   OH253466   6.182   3.467  13.086  0.0299 -0.4130 -0.0291
10684TIP3    H153467   6.140   3.539  13.039 -0.4964 -1.7499 -1.6906
10684TIP3    H253468   6.113   3.401  13.096  1.2613 -1.9449 -1.2770
10685TIP3   OH253469   1.410   2.526   5.980 -0.0060 -0.1513 -0.0234
10685TIP3    H153470   1.453   2.604   5.944  0.0435 -0.1582  0.0212
10685TIP3    H253471   1.416   2.461   5.910 -1.1148  0.2619 -0.5222
10686TIP3   OH253472   4.516   5.104  13.226  0.3948 -0.0300  0.1028
10686TIP3    H153473   4.427   5.095  13.259  0.8466  1.6258  1.9655
10686TIP3    H253474   4.530   5.025  13.174 -3.0778  0.9535 -2.6722
10687TIP3   OH253475   2.814   2.202  17.287 -0.2134  0.5413  0.1178
10687TIP3    H153476   2.883   2.232  17.228  0.9029  0.1141  1.1522
10687TIP3    H253477   2.789   2.280  17.336  0.6179  0.4133  0.7754
10688TIP3   OH253478   4.668   0.039  17.103 -0.4074  0.0622  0.3858
10688TIP3    H153479   4.594   0.002  17.056 -0.4753  0.6335  0.0292
10688TIP3    H253480   4.742  -0.017  17.078 -0.8320 -0.9660  1.3238
10689TIP3   OH253481   1.552   6.754   2.671  0.2471 -0.7167  0.3252
10689TIP3    H153482   1.468   6.792   2.647 -0.6091 -2.9792 -0.5438
10689TIP3    H253483   1.554   6.760   2.767 -1.2279 -1.1980  0.4140
10690TIP3   OH253484   3.133   6.492  15.420  0.4301  0.0956  0.2383
10690TIP3    H153485   3.130   6.399  15.446 -0.5772 -0.2804 -1.1186
10690TIP3    H253486   3.052   6.529  15.456  0.2801  0.1760 -0.1774
10691TIP3   OH253487   5.709   4.087   2.432 -0.3564 -0.3273 -0.2183
10691TIP3    H153488   5.778   4.119   2.373 -0.6147  1.4648  0.3653
10691TIP3    H253489   5.689   4.163   2.487 -1.8028 -1.2473  0.5728
10692TIP3   OH253490   2.515   6.364   4.309 -0.4648  0.0347  0.4899
10692TIP3    H153491   2.468   6.345   4.227  0.9965 -0.9892 -0.1509
10692TIP3    H253492   2.567   6.285   4.325  2.3231  1.7068  0.2498
10693TIP3   OH253493   1.805   3.378  17.136 -0.4042 -0.3518  0.1716
10693TIP3    H153494   1.831   3.298  17.182  0.0690 -0.9057 -1.0101
10693TIP3    H253495   1.882   3.401  17.084 -0.8826  0.3225 -0.2508
10694TIP3   OH253496   5.979   4.413  11.636 -0.0747  0.4009 -0.2556
10694TIP3    H153497   6.024   4.497  11.627 -1.4931  0.9333 -5.2888
10694TIP3    H253498   5.894   4.427  11.594 -2.1077 -2.5556  2.3808
10695TIP3   OH253499   4.847   6.361  12.081  0.2050 -0.3201  0.3466
10695TIP3    H153500   4.921   6.326  12.131  0.8021  1.4448  0.7750
10695TIP3    H253501   4.801   6.417  12.144 -1.7743 -1.6911  0.2101
10696TIP3   OH253502   2.117   3.941   3.968  0.0197 -0.1660 -0.1178
10696TIP3    H153503   2.156   3.924   3.883 -0.4064  0.5957 -0.4765
10696TIP3    H253504   2.023   3.952   3.949  0.2348  2.5480  0.0452
10697TIP3   OH253505   4.899   5.461  13.173 -0.2271  0.4864 -0.4282
10697TIP3    H153506   4.982   5.417  13.194 -1.8578 -1.5359  2.4387
10697TIP3    H253507   4.924   5.552  13.157  2.4993  0.0817  0.9307
10698TIP3   OH253508   6.557   1.612  11.444 -0.7059 -0.3247  0.1183
10698TIP3    H153509   6.468   1.577  11.449 -0.9767  0.1323 -1.0310
10698TIP3    H253510   6.606   1.546  11.395 -0.0202 -1.2470  1.9520
10699TIP3   OH253511   6.642   2.567  17.313 -0.2496  0.2756 -0.3039
10699TIP3    H153512   6.649   2.475  17.336 -3.2812  0.5648  2.6174
10699TIP3    H253513   6.721   2.607  17.347  1.5616 -1.2538 -2.4335
10700TIP3   OH253514   1.105   2.522   0.086  0.4470 -0.1456 -0.2151
10700TIP3    H153515   1.033   2.461   0.067 -0.5367  1.5574 -2.4694
10700TIP3    H253516   1.062   2.605   0.105  1.7973  0.3016  1.0485
10701TIP3   OH253517   0.845   2.035   3.175 -0.0237 -0.1624 -0.0972
10701TIP3    H153518   0.797   2.036   3.092 -1.5053 -0.3402  0.7047
10701TIP3    H253519   0.925   1.987   3.156 -0.3509 -0.2338 -1.4176
10702TIP3   OH253520   5.743   6.546   3.735  0.0833 -0.6075  0.2129
10702TIP3    H153521   5.830   6.507   3.734  0.7034  0.6783 -2.1811
10702TIP3    H253522   5.756   6.635   3.768 -0.4560 -0.6463  0.5543
10703TIP3   OH253523   1.573   2.661  16.212  0.1352  0.0404 -0.2974
10703TIP3    H153524   1.610   2.717  16.281 -0.2297 -0.7327  0.5428
10703TIP3    H253525   1.519   2.598  16.259  0.9872 -1.3996 -1.1611
10704TIP3   OH253526   4.938   3.671   3.136  0.0949 -0.1365  0.2241
10704TIP3    H153527   4.909   3.761   3.125  0.0392 -0.2004 -0.1644
10704TIP3    H253528   4.969   3.644   3.049  1.3709 -0.0533  0.6242
10705TIP3   OH253529   2.404   0.465  15.713 -0.2786 -0.0550  0.1104
10705TIP3    H153530   2.462   0.539  15.694 -1.0137  0.3615 -0.5407
10705TIP3    H253531   2.423   0.401  15.644 -1.8267  0.8107 -1.1739
10706TIP3   OH253532   5.511   6.605   4.741  0.3064 -0.2115  0.1405
10706TIP3    H153533   5.457   6.559   4.806 -1.2419  1.1051 -0.1649
10706TIP3    H253534   5.562   6.535   4.699  0.4460 -1.2303  1.9164
10707TIP3   OH253535   0.203   1.479  16.008 -0.1858  0.3965  0.0059
10707TIP3    H153536   0.224   1.443  16.094  0.1321  1.5792  0.4458
10707TIP3    H253537   0.239   1.416  15.945  2.7187  1.1781  0.7235
10708TIP3   OH253538   0.193   5.032   1.284 -0.6031  0.0388  0.1953
10708TIP3    H153539   0.212   5.123   1.259  1.0541  0.0729  1.3538
10708TIP3    H253540   0.172   4.988   1.202 -0.2283  1.2149 -0.5582
10709TIP3   OH253541   6.270   4.898   1.225 -0.3343 -0.4854 -0.3857
10709TIP3    H153542   6.276   4.835   1.297 -0.3210  0.7312  0.7167
10709TIP3    H253543   6.346   4.955   1.237  0.6292 -1.2584 -2.3902
10710TIP3   OH253544   5.995   5.109  16.410 -0.8201  0.5179  0.1250
10710TIP3    H153545   5.969   5.141  16.324 -1.9530 -0.6619  0.0044
10710TIP3    H253546   6.080   5.068  16.396 -1.1361  0.0601 -0.4982
10711TIP3   OH253547   2.178   4.161   3.021 -0.3824 -0.5130 -0.7001
10711TIP3    H153548   2.122   4.084   3.027 -1.4658  0.2956 -0.0404
10711TIP3    H253549   2.162   4.195   2.933 -1.6677  0.2246 -0.2100
10712TIP3   OH253550   3.197   1.553   2.730 -0.2973 -0.6022  0.6926
10712TIP3    H153551   3.152   1.635   2.749  1.4320  0.5225  0.2055
10712TIP3    H253552   3.156   1.488   2.788 -3.3768  0.0044 -0.6237
10713TIP3   OH253553   3.432   6.399  17.119 -0.1323 -1.0339  0.3616
10713TIP3    H153554   3.418   6.446  17.038 -2.1933 -0.9650  0.7098
10713TIP3    H253555   3.499   6.334  17.098 -1.3268 -1.6868 -1.6795
10714TIP3   OH253556   0.135   5.487  10.934 -0.4931  0.2610 -0.3919
10714TIP3    H153557   0.184   5.470  10.854 -1.0569 -0.4057 -0.6049
10714TIP3    H253558   0.145   5.581  10.948  0.4511  0.2120 -0.6784
10715TIP3   OH253559   5.482   4.813  14.829  0.1283 -0.2621  0.9392
10715TIP3    H153560   5.516   4.871  14.761  0.2766 -1.3493  0.0511
10715TIP3    H253561   5.410   4.862  14.869  0.7910  0.8501  0.7793
10716TIP3   OH253562   5.230   6.666  15.756 -0.0224  0.3034 -0.0161
10716TIP3    H153563   5.316   6.634  15.727 -0.8706 -1.4608 -0.7126
10716TIP3    H253564   5.248   6.754  15.789  1.7922  0.6163 -1.6275
10717TIP3   OH253565   3.024   6.604   4.515  0.1573  0.4306 -0.4032
10717TIP3    H153566   3.056   6.546   4.584 -0.0496  1.1332  0.2964
10717TIP3    H253567   2.996   6.545   4.445 -0.7624 -0.3539  0.5930
10718TIP3   OH253568   4.569   2.619  17.026  0.0450  0.1814 -0.2189
10718TIP3    H153569   4.512   2.631  16.950 -0.9273  0.8217  0.5893
10718TIP3    H253570   4.536   2.681  17.091  1.5348  0.4079  0.3621
10719TIP3   OH253571   5.989   1.803  15.922  0.4043 -0.1589  0.0932
10719TIP3    H153572   5.989   1.895  15.947 -0.9810  0.2710 -1.3567
10719TIP3    H253573   5.953   1.801  15.833 -1.9916 -2.2920  0.9801
10720TIP3   OH253574   6.310   5.668  14.106  0.5437 -0.5137 -0.5391
10720TIP3    H153575   6.284   5.605  14.174 -0.4812  0.8258  0.3708
10720TIP3    H253576   6.299   5.621  14.024 -0.0107 -1.5856  0.1226
10721TIP3   OH253577   0.992   4.555  10.601  0.0172 -0.0470 -0.2252
10721TIP3    H153578   1.055   4.601  10.546 -1.3882 -0.0840 -1.9793
10721TIP3    H253579   1.011   4.584  10.690  1.6393  0.9306 -0.8558
10722TIP3   OH253580   6.238   3.597  17.174  0.0295 -0.1754 -0.1249
10722TIP3    H153581   6.256   3.659  17.245  0.4164 -0.7114  0.2467
10722TIP3    H253582   6.189   3.526  17.215 -1.9109  0.6589 -0.8870
10723TIP3   OH253583   0.669   6.359  14.020  0.1427 -0.3525  0.4858
10723TIP3    H153584   0.602   6.362  14.088  0.2571 -0.1112  0.5894
10723TIP3    H253585   0.686   6.451  13.999 -1.0320 -0.4262 -0.9930
10724TIP3   OH253586   0.259   5.507  11.183 -0.4039 -0.4077 -0.2504
10724TIP3    H153587   0.339   5.547  11.149 -0.0783 -0.2733  0.6554
10724TIP3    H253588   0.224   5.457  11.109 -0.6371  1.2453 -1.3306
10725TIP3   OH253589   4.227   2.692  13.620 -0.9345  0.3861  0.0627
10725TIP3    H153590   4.188   2.607  13.637 -1.0301  0.5360  0.6238
10725TIP3    H253591   4.173   2.731  13.552 -1.0795  0.1244  0.0305
10726TIP3   OH253592   2.756   0.163  12.765  0.3916 -0.0832  0.3481
10726TIP3    H153593   2.709   0.133  12.842 -0.7748  0.7402 -0.0187
10726TIP3    H253594   2.748   0.090  12.703 -0.2429 -0.0257  0.3561
10727TIP3   OH253595   0.919   3.551   2.402  0.4319  0.3716  0.1278
10727TIP3    H153596   0.863   3.478   2.429 -0.3445 -0.4069 -3.1645
10727TIP3    H253597   0.867   3.629   2.419  0.5175  0.1043  1.8923
10728TIP3   OH253598   0.415   3.639   0.876 -0.4271 -0.3646  0.4052
10728TIP3    H153599   0.375   3.721   0.904 -0.0297 -0.0047 -0.0589
10728TIP3    H253600   0.357   3.606   0.807 -0.2713 -0.1722  0.1815
10729TIP3   OH253601   0.816   4.100   4.977 -0.1062  0.5369  0.1129
10729TIP3    H153602   0.904   4.068   4.997  0.6181  1.9375 -0.6445
10729TIP3    H253603   0.787   4.144   5.057 -1.1099 -1.8480  1.1623
10730TIP3   OH253604   4.572   6.610   5.513 -0.1005 -1.0494 -0.0933
10730TIP3    H153605   4.490   6.651   5.485  0.9770  0.6226 -0.9222
10730TIP3    H253606   4.606   6.668   5.581  2.6003  0.8800 -2.8572
10731TIP3   OH253607   5.823   2.873   0.219 -0.6257  0.3755 -0.1165
10731TIP3    H153608   5.908   2.865   0.262 -1.1281  1.8635  1.2385
10731TIP3    H253609   5.845   2.883   0.126  0.6657  0.3589  0.1592
10732TIP3   OH253610   5.918   3.174  15.499 -0.2592  0.2266  0.0171
10732TIP3    H153611   5.865   3.162  15.578  1.0749  1.2993  1.1167
10732TIP3    H253612   5.901   3.265  15.473  0.6049  0.4135  0.0725
10733TIP3   OH253613   5.341   5.670  14.173 -0.4731  0.4541 -0.6106
10733TIP3    H153614   5.389   5.588  14.189 -1.2490  0.4170  2.0984
10733TIP3    H253615   5.402   5.724  14.123  1.0674 -0.8587 -0.2490
10734TIP3   OH253616   1.928   5.467   4.890  0.4709  0.2249 -0.2476
10734TIP3    H153617   2.017   5.472   4.923  0.7840  2.6008 -1.2431
10734TIP3    H253618   1.893   5.386   4.927  2.8778 -0.5551  0.4966
10735TIP3   OH253619   6.281   6.015  10.774 -0.8104 -0.6349 -0.7120
10735TIP3    H153620   6.316   5.926  10.759  0.8900 -0.0524 -0.4518
10735TIP3    H253621   6.325   6.068  10.707 -2.3824 -0.0844 -1.3488
10736TIP3   OH253622   4.431   0.737  14.930  0.6261 -0.4297 -0.6442
10736TIP3    H153623   4.401   0.648  14.947  1.2061 -0.8981 -1.8998
10736TIP3    H253624   4.516   0.726  14.886  0.7013  0.7321 -0.8298
10737TIP3   OH253625   3.739   4.944   3.687  0.4859 -0.7059  0.3079
10737TIP3    H153626   3.731   4.986   3.601  0.2803 -1.2534  0.0583
10737TIP3    H253627   3.751   5.017   3.748  1.7368 -0.3812 -0.3083
10738TIP3   OH253628   1.436   1.811  14.001 -0.1288  0.1952  0.9417
10738TIP3    H153629   1.454   1.904  14.016  0.1452  0.2708  0.1958
10738TIP3    H253630   1.500   1.765  14.055  0.5865  0.4528  0.3306
10739TIP3   OH253631   5.112   4.385  11.838  0.3999 -0.0590 -0.5517
10739TIP3    H153632   5.146   4.474  11.848  3.4640 -1.3071  1.5994
10739TIP3    H253633   5.179   4.339  11.788 -0.3035 -1.5825 -0.1603
10740TIP3   OH253634   1.885   1.218   3.628  0.3617 -0.5276  0.3446
10740TIP3    H153635   1.963   1.201   3.679  0.6910  1.1460  0.4467
10740TIP3    H253636   1.898   1.305   3.591 -0.2865 -1.2815 -1.8213
10741TIP3   OH253637   5.050   5.491   0.481 -0.3655  0.1189  0.3039
10741TIP3    H153638   5.132   5.530   0.452 -0.2642  0.1804  0.6652
10741TIP3    H253639   4.998   5.565   0.513 -0.2452 -0.0083  0.8170
10742TIP3   OH253640   4.272   0.489  12.591 -0.3260 -0.0462  0.1991
10742TIP3    H153641   4.304   0.540  12.515 -0.9997 -0.6520 -0.5084
10742TIP3    H253642   4.193   0.535  12.618  0.6295  0.9647  1.4252
10743TIP3   OH253643   3.583   3.226  14.976  0.7791  0.0112 -0.4902
10743TIP3    H153644   3.557   3.285  14.906  1.3928  0.8738 -0.0021
10743TIP3    H253645   3.538   3.144  14.956 -0.7608  0.8742 -0.7281
10744TIP3   OH253646   4.740   6.581  15.531  0.1818  0.0949  0.9686
10744TIP3    H153647   4.785   6.515  15.479 -0.2080 -0.3658  1.2000
10744TIP3    H253648   4.647   6.570  15.509  0.2063  1.3385  0.1489
10745TIP3   OH253649   4.354   4.892   3.664  0.3975 -0.1622 -0.3688
10745TIP3    H153650   4.291   4.868   3.731  2.3624  0.9169  2.0117
10745TIP3    H253651   4.369   4.811   3.614 -1.5359 -0.8345  0.0700
10746TIP3   OH253652   0.376   1.471   5.492  0.2640  0.2573  0.7632
10746TIP3    H153653   0.419   1.556   5.506  1.2488 -0.5333  2.8630
10746TIP3    H253654   0.448   1.412   5.470 -0.4195 -0.0695 -0.7052
10747TIP3   OH253655   6.115   6.306   3.309 -0.0089  0.3592  0.1832
10747TIP3    H153656   6.076   6.300   3.221  0.1155  1.3624  0.0384
10747TIP3    H253657   6.139   6.217   3.331 -1.2425 -0.1051 -0.2528
10748TIP3   OH253658   5.941   1.828  13.499  0.1606 -0.1005 -0.1058
10748TIP3    H153659   6.011   1.769  13.473  0.4839 -0.2912  1.1274
10748TIP3    H253660   5.891   1.843  13.419  1.6175  0.0611 -1.0175
10749TIP3   OH253661   2.424   2.090   0.055 -0.2677 -0.1910  0.0299
10749TIP3    H153662   2.466   2.092  -0.031  0.3368 -0.0572  0.3261
10749TIP3    H253663   2.435   2.179   0.088 -0.2076 -0.3333  0.3880
10750TIP3   OH253664   0.655   3.729   1.118  0.0379 -0.1002 -0.4859
10750TIP3    H153665   0.688   3.782   1.190  0.7431 -0.9654 -0.1592
10750TIP3    H253666   0.731   3.713   1.063  0.0592 -1.6569 -0.0238
10751TIP3   OH253667   5.331   3.367   3.700  0.2397  0.6441  0.6159
10751TIP3    H153668   5.261   3.429   3.681  0.1497  0.4711  0.3811
10751TIP3    H253669   5.411   3.413   3.675  0.1458  0.5368  0.1220
10752TIP3   OH253670   6.391   5.512   1.938  0.0367 -0.3084  0.0095
10752TIP3    H153671   6.420   5.432   1.980 -1.4432 -0.6718  0.4153
10752TIP3    H253672   6.414   5.582   2.000 -0.9558 -0.7098  0.8742
10753TIP3   OH253673   6.228   4.424  13.552 -0.1036 -0.3023  0.0936
10753TIP3    H153674   6.221   4.519  13.566  1.2685 -0.3999  1.8183
10753TIP3    H253675   6.320   4.411  13.527 -0.5068 -1.1018 -1.0433
10754TIP3   OH253676   3.197   4.138  11.945  0.6039  0.1146  0.2845
10754TIP3    H153677   3.236   4.154  11.859  0.0785 -1.1890 -0.2309
10754TIP3    H253678   3.107   4.109  11.925  0.2496  0.4785  1.3060
10755TIP3   OH253679   2.070   2.754  16.690  0.2428  0.1296  0.6661
10755TIP3    H153680   2.124   2.705  16.751  0.0207 -1.8490 -0.6326
10755TIP3    H253681   2.005   2.691  16.658  0.5703  0.9292 -1.8559
10756TIP3   OH253682   1.323   3.072  12.148  0.2279  0.0721  0.3528
10756TIP3    H153683   1.371   2.991  12.131 -0.8467 -0.1137 -2.2362
10756TIP3    H253684   1.231   3.048  12.138 -0.1744  1.3781  0.6455
10757TIP3   OH253685   6.241   4.251  11.723  0.5879 -0.0568 -0.0049
10757TIP3    H153686   6.324   4.298  11.726  1.6796 -1.9380  0.5240
10757TIP3    H253687   6.262   4.162  11.752 -1.8086 -0.3211  1.1579
10758TIP3   OH253688   5.677   2.839  15.013  0.4679  0.1490  0.0161
10758TIP3    H153689   5.757   2.787  15.024 -0.9575 -1.7963  2.2559
10758TIP3    H253690   5.627   2.792  14.945  0.4651  0.2977 -0.0838
10759TIP3   OH253691   1.970   0.417   2.796  0.3643 -0.1055 -0.1463
10759TIP3    H153692   1.989   0.511   2.792  0.8262  0.1287  3.6893
10759TIP3    H253693   2.053   0.376   2.772  1.0801  0.6109  0.9486
10760TIP3   OH253694   2.204   5.538   3.598 -0.1363 -0.5661  0.2224
10760TIP3    H153695   2.172   5.531   3.688  0.4339 -2.0372  0.3409
10760TIP3    H253696   2.222   5.631   3.586 -1.8798 -0.0843  1.0343
10761TIP3   OH253697   6.327   2.369   2.991 -0.4709 -0.1564  0.4728
10761TIP3    H153698   6.248   2.401   2.947 -0.0229 -0.5326 -0.6344
10761TIP3    H253699   6.316   2.274   2.995  1.0124 -0.4881 -1.9571
10762TIP3   OH253700   0.314   3.636  15.863  0.5021 -0.2163 -0.1721
10762TIP3    H153701   0.252   3.667  15.929  0.5471  0.4368 -0.4287
10762TIP3    H253702   0.297   3.691  15.787  0.7514 -0.6705 -0.5648
10763TIP3   OH253703   1.161   4.248  15.489  0.6493  0.0670 -0.4949
10763TIP3    H153704   1.134   4.327  15.534 -0.3650 -0.4189 -0.2140
10763TIP3    H253705   1.114   4.177  15.534  1.1636 -0.6392 -1.0411
10764TIP3   OH253706   5.716   6.182   4.258 -0.2531  0.3682  0.1954
10764TIP3    H153707   5.646   6.244   4.244 -0.1030  0.6646  0.7297
10764TIP3    H253708   5.682   6.120   4.322 -1.0578 -1.1733 -1.6197
10765TIP3   OH253709   4.129   3.901  12.889  0.8443  0.1370 -0.2522
10765TIP3    H153710   4.128   3.819  12.938  1.1239  1.0277  1.3578
10765TIP3    H253711   4.222   3.918  12.873  0.8171  0.3204 -0.2254
10766TIP3   OH253712   1.029   4.772  12.583  0.5387 -0.4192 -0.1339
10766TIP3    H153713   1.050   4.756  12.492 -0.2166 -0.1961 -0.3570
10766TIP3    H253714   1.046   4.689  12.627 -0.7679 -1.0677 -0.7989
10767TIP3   OH253715   3.884   2.811   0.926  0.0463  0.1094 -0.8565
10767TIP3    H153716   3.970   2.794   0.889  0.8324  1.8405  0.0912
10767TIP3    H253717   3.885   2.769   1.012 -0.0203  0.2061 -0.8075
10768TIP3   OH253718   6.256   0.618  14.202 -0.2842  0.0780 -0.6542
10768TIP3    H153719   6.262   0.705  14.241  0.0979 -0.0990 -0.3178
10768TIP3    H253720   6.228   0.634  14.112 -1.3936  0.4767 -0.2607
10769TIP3   OH253721   2.245   4.564   0.727  0.0330 -0.4058 -0.6340
10769TIP3    H153722   2.171   4.508   0.752 -0.7444  0.1454 -1.6500
10769TIP3    H253723   2.217   4.606   0.646  0.4759  1.6677  0.2122
10770TIP3   OH253724   1.610   2.981   2.847 -0.1464 -0.0392 -0.5005
10770TIP3    H153725   1.592   3.045   2.916 -0.6357  2.0072 -2.3902
10770TIP3    H253726   1.705   2.976   2.842 -0.0901  1.0062 -0.6925
10771TIP3   OH253727   3.926   1.534   3.292 -0.0640 -0.1473  0.1658
10771TIP3    H153728   3.996   1.582   3.246  0.2751 -1.6177 -0.9348
10771TIP3    H253729   3.852   1.594   3.291  0.1648  0.1698 -1.6964
10772TIP3   OH253730   0.140   4.111  17.035 -0.7372  0.5697 -0.6522
10772TIP3    H153731   0.047   4.107  17.056 -0.9119 -1.3966 -1.6178
10772TIP3    H253732   0.185   4.094  17.118 -1.2515  0.2582 -0.4380
10773TIP3   OH253733   5.197   0.807   1.861 -0.2110  0.2164 -0.1412
10773TIP3    H153734   5.129   0.817   1.795 -2.7717  1.7148  2.4990
10773TIP3    H253735   5.191   0.715   1.887 -0.9148  0.2227 -0.2606
10774TIP3   OH253736   6.059   3.108  16.859  0.3897 -0.1339 -0.2273
10774TIP3    H153737   6.089   3.107  16.768  0.0251  3.3380 -0.5135
10774TIP3    H253738   6.119   3.168  16.903 -1.1458  0.4752  1.1235
10775TIP3   OH253739   2.070   6.128   2.992 -0.5921 -0.3620  0.5189
10775TIP3    H153740   2.097   6.074   2.918 -1.3495 -3.2945  2.2057
10775TIP3    H253741   1.975   6.138   2.982 -0.4652  0.6953  0.2390
10776TIP3   OH253742   5.552   5.797   5.694  0.1419 -0.1810 -0.0173
10776TIP3    H153743   5.639   5.776   5.661  0.8360  0.1181  1.5018
10776TIP3    H253744   5.542   5.891   5.677  0.7174  0.0900  0.9952
10777TIP3   OH253745   0.761   4.628   3.510  0.3622  0.2150 -0.4516
10777TIP3    H153746   0.772   4.643   3.604 -0.7690 -1.2197 -0.0621
10777TIP3    H253747   0.811   4.699   3.469  3.0006 -0.5256  1.1802
10778TIP3   OH253748   0.911   0.894  15.537 -0.1301 -0.1389  0.0326
10778TIP3    H153749   0.964   0.967  15.508 -0.8322 -0.2004 -1.5183
10778TIP3    H253750   0.970   0.819  15.536 -0.0402 -0.0650 -0.9124
10779TIP3   OH253751   1.219   6.510  11.351  0.3051 -0.7737 -0.5352
10779TIP3    H153752   1.179   6.550  11.429  0.2809  0.2809 -1.0610
10779TIP3    H253753   1.157   6.443  11.324 -0.7572  0.2883 -0.8628
10780TIP3   OH253754   3.633   1.472   0.465  0.1909 -0.0238  0.6013
10780TIP3    H153755   3.695   1.399   0.461  1.0717  0.7382  0.0085
10780TIP3    H253756   3.678   1.539   0.516  0.7741  1.3534 -1.5698
10781TIP3   OH253757   0.458   1.479   3.735 -0.3580 -0.4984  0.1456
10781TIP3    H153758   0.503   1.409   3.686 -0.8461  0.6349 -2.0758
10781TIP3    H253759   0.528   1.525   3.781  0.3076 -0.9015 -0.4331
10782TIP3   OH253760   5.333   1.121  15.561 -0.3901 -0.0133  0.4441
10782TIP3    H153761   5.273   1.184  15.521  1.2713  2.5132  1.6299
10782TIP3    H253762   5.413   1.127  15.509  0.6784  0.8865  2.0833
10783TIP3   OH253763   5.946   2.005   6.094 -0.0211 -0.2868 -0.2277
10783TIP3    H153764   6.035   1.983   6.121  0.1340  1.0847  0.4939
10783TIP3    H253765   5.903   2.035   6.174  0.3326  3.5293 -1.2505
10784TIP3   OH253766   1.937   4.821   3.101  0.4664 -0.1792  0.3976
10784TIP3    H153767   1.866   4.789   3.157  1.4073 -0.6577  1.3473
10784TIP3    H253768   1.937   4.762   3.025  0.1560 -0.4641  0.6185
10785TIP3   OH253769   5.156   0.760  12.973  0.4159  0.0071  0.3695
10785TIP3    H153770   5.064   0.757  12.945  0.1149 -0.1131  1.3163
10785TIP3    H253771   5.206   0.757  12.892 -0.3692 -1.8036 -0.0975
10786TIP3   OH253772   2.252   1.365   3.603 -0.2681  0.1294 -0.0012
10786TIP3    H153773   2.345   1.343   3.601 -0.2224  0.3296 -0.9693
10786TIP3    H253774   2.230   1.380   3.511 -1.3736 -0.3924  0.1636
10787TIP3   OH253775   6.268   5.805   1.224  0.2970  0.4979  0.0463
10787TIP3    H153776   6.318   5.834   1.148  1.0582 -0.3552  0.2111
10787TIP3    H253777   6.256   5.711   1.211 -3.1333  0.9301 -1.0680
10788TIP3   OH253778   2.063   2.219  16.175 -0.4435  0.0920  0.3549
10788TIP3    H153779   2.115   2.197  16.252  0.9873 -2.9274 -1.2846
10788TIP3    H253780   1.977   2.240  16.210  0.4036 -0.2121  2.8393
10789TIP3   OH253781   3.909   4.218  14.593 -0.2871 -0.1995  0.0032
10789TIP3    H153782   3.922   4.148  14.656  0.2406  1.5429  1.9339
10789TIP3    H253783   3.992   4.266  14.592 -0.0250 -0.5825 -2.6135
10790TIP3   OH253784   4.504   1.401   4.692 -0.2526  0.4680  0.1352
10790TIP3    H153785   4.472   1.406   4.782  2.1975  1.4550  1.0439
10790TIP3    H253786   4.528   1.491   4.671 -1.5025  0.3962 -1.8566
10791TIP3   OH253787   0.212   0.041  12.588  0.3035 -0.6107 -0.4848
10791TIP3    H153788   0.244  -0.044  12.559 -1.8073 -1.2621 -1.0586
10791TIP3    H253789   0.170   0.079  12.510  0.2370  0.4786  0.0588
10792TIP3   OH253790   6.076   0.835  16.652 -0.2004  0.2912  0.1813
10792TIP3    H153791   6.049   0.744  16.647  1.7090 -0.2947 -0.3218
10792TIP3    H253792   6.155   0.834  16.705  0.2667  1.5440 -0.4442
10793TIP3   OH253793   1.447   1.253   1.514 -0.3579  0.4646  0.2340
10793TIP3    H153794   1.480   1.164   1.504  0.8966  0.9914 -0.5570
10793TIP3    H253795   1.515   1.308   1.475 -1.0275  1.7839  0.8712
10794TIP3   OH253796   2.136   1.804  15.637 -0.1914  0.4186 -0.2717
10794TIP3    H153797   2.118   1.721  15.594 -0.3197 -0.5643  1.5709
10794TIP3    H253798   2.051   1.834  15.669 -0.3035  1.7670 -1.7067
10795TIP3   OH253799   0.538   3.284   2.086 -0.4051  0.0233 -0.2190
10795TIP3    H153800   0.585   3.234   2.153 -0.5234  0.2825  0.0580
10795TIP3    H253801   0.588   3.268   2.006 -0.5763 -0.7308 -0.1850
10796TIP3   OH253802   1.250   4.293  11.873  0.5576  0.1296  0.4872
10796TIP3    H153803   1.335   4.250  11.861  0.5398 -0.0198  0.8709
10796TIP3    H253804   1.193   4.251  11.808  0.5278 -0.4695  0.8917
10797TIP3   OH253805   3.628   1.372   5.437  1.0748  0.2655  0.1546
10797TIP3    H153806   3.621   1.277   5.427  2.5938 -0.1007  1.9498
10797TIP3    H253807   3.556   1.407   5.384 -0.6267 -1.9442  0.8476
10798TIP3   OH253808   0.617   2.094   5.671  0.8689 -0.4414 -0.1138
10798TIP3    H153809   0.652   2.047   5.746  3.1265 -0.3146 -0.9889
10798TIP3    H253810   0.679   2.166   5.657 -0.1194  0.2135 -1.4047
10799TIP3   OH253811   2.141   0.307  13.938 -0.2955 -0.4890  0.0938
10799TIP3    H153812   2.075   0.332  13.873  0.8170 -0.2152 -0.9554
10799TIP3    H253813   2.171   0.389  13.975  0.2670 -0.5365 -0.2491
10800TIP3   OH253814   5.510   0.471   5.241  0.3744 -0.4371 -0.2480
10800TIP3    H153815   5.542   0.385   5.214 -1.8399 -0.8097 -2.0052
10800TIP3    H253816   5.416   0.458   5.255 -0.0756  1.7340 -0.8696
10801TIP3   OH253817   0.677   1.301  11.302 -0.3970 -0.1229  0.2486
10801TIP3    H153818   0.690   1.274  11.211  1.8145  1.0262  0.1397
10801TIP3    H253819   0.627   1.382  11.297  0.6313  0.5149 -0.0603
10802TIP3   OH253820   1.932   0.502  16.318 -0.1615 -0.3245  0.1585
10802TIP3    H153821   1.865   0.474  16.255  0.1059 -0.1995 -0.1899
10802TIP3    H253822   1.887   0.566  16.374 -0.7617 -1.3768  0.9221
10803TIP3   OH253823   3.873   5.187   0.643 -0.0790  0.1070  0.0535
10803TIP3    H153824   3.785   5.186   0.606  0.4986 -1.0016 -1.4004
10803TIP3    H253825   3.931   5.191   0.567  1.1355  0.7520  0.9790
10804TIP3   OH253826   6.550   1.546  10.946 -0.2549  0.7326  0.1279
10804TIP3    H153827   6.501   1.464  10.941  1.3897 -0.2209 -1.2164
10804TIP3    H253828   6.493   1.610  10.903  0.1968 -0.6565 -2.7387
10805TIP3   OH253829   5.051   0.382  13.304 -0.0909  0.7594 -0.2407
10805TIP3    H153830   5.144   0.387  13.326 -0.4332  1.8478  1.0611
10805TIP3    H253831   5.042   0.431  13.222  0.4944  0.5413 -0.4381
10806TIP3   OH253832   6.719   5.591   5.845 -0.0415  0.1996  0.1900
10806TIP3    H153833   6.761   5.530   5.905 -0.4104  0.8642  1.1341
10806TIP3    H253834   6.790   5.622   5.789  0.1706 -0.9939 -0.2475
10807TIP3   OH253835   3.964   1.465  13.576 -0.1636  0.1078  0.0649
10807TIP3    H153836   3.886   1.457  13.522 -1.2890  0.6869  1.5194
10807TIP3    H253837   4.022   1.524  13.528 -0.5567 -0.4232 -1.0852
10808TIP3   OH253838   4.291   1.980   5.173 -0.2910 -1.1465 -0.2783
10808TIP3    H153839   4.233   1.905   5.158  0.5580 -1.7846 -0.4807
10808TIP3    H253840   4.323   1.968   5.262 -2.2308  0.4746  0.7272
10809TIP3   OH253841   0.441   4.052  11.344 -0.1347  0.1145 -0.2205
10809TIP3    H153842   0.369   4.091  11.394 -0.8845 -0.5842 -0.7311
10809TIP3    H253843   0.439   4.098  11.260 -1.7165 -1.6532 -1.2441
10810TIP3   OH253844   2.245   2.617   4.768  0.2934  0.0131  0.6165
10810TIP3    H153845   2.160   2.599   4.728 -0.3607  2.4114  0.7672
10810TIP3    H253846   2.224   2.663   4.849  1.7305 -0.2006  1.1342
10811TIP3   OH253847   1.338   3.946  14.760 -0.2925 -0.2489 -0.7656
10811TIP3    H153848   1.265   3.991  14.717  0.9204  1.5091 -1.0940
10811TIP3    H253849   1.304   3.859  14.781 -2.9928  1.0133  0.5262
10812TIP3   OH253850   6.718   2.644   1.405  0.0944  0.0653  0.2604
10812TIP3    H153851   6.788   2.682   1.351 -1.2089  2.3373  0.0456
10812TIP3    H253852   6.758   2.566   1.444  1.5901 -0.8047 -2.7062
10813TIP3   OH253853   5.110   0.105  16.559 -0.2317 -0.2934  0.4436
10813TIP3    H153854   5.073   0.133  16.642 -2.1108  2.3796 -1.1228
10813TIP3    H253855   5.036   0.063  16.513  1.1711 -3.1884  0.6252
10814TIP3   OH253856   0.652   6.690  14.197 -0.6580  0.2126 -0.4849
10814TIP3    H153857   0.695   6.756  14.143  0.6145 -0.5241 -0.4219
10814TIP3    H253858   0.597   6.640  14.137  0.1577 -0.1151 -0.9802
10815TIP3   OH253859   4.072   5.188  10.930  0.0685 -0.3893 -0.1262
10815TIP3    H153860   4.119   5.255  10.980  0.0829 -0.9436  0.6228
10815TIP3    H253861   4.084   5.214  10.839 -2.1072  2.0696  0.1920
10816TIP3   OH253862   6.045   4.112  11.927 -0.2569 -0.1086  0.4933
10816TIP3    H153863   6.048   4.151  12.014 -2.9011  0.1134  0.5564
10816TIP3    H253864   6.044   4.017  11.943  2.6810 -0.2430  0.4734
10817TIP3   OH253865   2.119   0.860  14.750  0.1270  0.5504  0.3775
10817TIP3    H153866   2.048   0.905  14.704  0.7289  1.1887  0.0528
10817TIP3    H253867   2.197   0.913  14.730  0.3463  1.0981  2.4719
10818TIP3   OH253868   3.212   3.868   4.744  0.1499  0.1161  0.0547
10818TIP3    H153869   3.210   3.950   4.793 -0.8388  0.0145  0.1945
10818TIP3    H253870   3.301   3.835   4.757  1.2988  2.2064 -1.7580
10819TIP3   OH253871   0.885   2.317  14.714  0.1185 -0.3605 -0.0552
10819TIP3    H153872   0.830   2.386  14.749  0.4414  0.3003 -0.8209
10819TIP3    H253873   0.974   2.352  14.717  0.4685 -1.2638  0.8014
10820TIP3   OH253874   5.454   0.017   2.006 -0.3480 -0.1435 -0.8059
10820TIP3    H153875   5.517   0.022   1.934 -0.3547 -1.0064 -0.8731
10820TIP3    H253876   5.506  -0.000   2.084 -0.4418 -0.2417 -0.7647
10821TIP3   OH253877   4.299   0.172  14.069  0.0276  0.0104  0.1982
10821TIP3    H153878   4.255   0.146  14.150  2.0549 -1.1450  0.9953
10821TIP3    H253879   4.283   0.100  14.009  2.5282 -1.4957  1.2017
10822TIP3   OH253880   1.188   6.647  17.336  0.5226 -0.2592  0.0015
10822TIP3    H153881   1.223   6.591  17.405  1.8829  0.2453 -0.2472
10822TIP3    H253882   1.157   6.725  17.382  0.5246 -0.3307  0.1264
10823TIP3   OH253883   4.716   3.470   5.413 -0.2703  0.1325 -0.4837
10823TIP3    H153884   4.623   3.491   5.421  0.0481  0.7806  2.9315
10823TIP3    H253885   4.762   3.546   5.450  1.4227 -1.4635  0.9520
10824TIP3   OH253886   5.460   5.030  10.882 -0.7426  0.0392 -0.1180
10824TIP3    H153887   5.493   4.952  10.837  1.5630  1.2702 -0.6858
10824TIP3    H253888   5.415   5.080  10.814 -0.5497  0.1185 -0.1864
10825TIP3   OH253889   5.351   0.094   3.576 -0.1030  0.5177 -0.2047
10825TIP3    H153890   5.445   0.086   3.560 -0.2877 -1.4428 -0.5542
10825TIP3    H253891   5.341   0.077   3.669 -0.1198  0.7823 -0.1565
10826TIP3   OH253892   0.351   5.581   1.773 -0.1397 -0.1047 -0.0763
10826TIP3    H153893   0.399   5.582   1.690 -0.8568 -0.5128 -0.5168
10826TIP3    H253894   0.315   5.669   1.782  0.8646  0.2752  0.3777
10827TIP3   OH253895   3.801   2.393  12.654 -0.0523  0.1339  0.5929
10827TIP3    H153896   3.750   2.313  12.665  0.4881 -0.1808  0.8369
10827TIP3    H253897   3.850   2.379  12.573 -3.4615  2.1403 -2.1344
10828TIP3   OH253898   5.345   5.431  16.172 -0.1335 -0.2473  0.0105
10828TIP3    H153899   5.332   5.522  16.147  0.6984  0.5466  2.1636
10828TIP3    H253900   5.282   5.416  16.243  1.8971 -0.2288  1.9490
10829TIP3   OH253901   0.796   3.053  15.451  0.1959 -0.2844 -0.1137
10829TIP3    H153902   0.707   3.086  15.437  0.3494 -0.0926 -0.6586
10829TIP3    H253903   0.796   3.024  15.542 -0.1545  0.5780  0.1755
10830TIP3   OH253904   0.593   4.225  16.585  0.1829 -0.9013 -0.2141
10830TIP3    H153905   0.568   4.148  16.634  1.1601 -0.1118  1.6190
10830TIP3    H253906   0.511   4.268  16.563 -0.4046 -2.6506 -1.6792
10831TIP3   OH253907   4.840   0.759  15.515  0.7006  0.0134 -0.4946
10831TIP3    H153908   4.903   0.830  15.502  2.1390 -0.8449  1.3287
10831TIP3    H253909   4.888   0.694  15.567 -1.4829 -0.9997  0.3536
10832TIP3   OH253910   4.227   6.205  14.974  0.3990 -0.3971  0.2363
10832TIP3    H153911   4.209   6.122  15.018  2.3224 -0.5076  0.9094
10832TIP3    H253912   4.142   6.232  14.938 -0.5315 -1.9894  1.1138
10833TIP3   OH253913   0.823   6.292   4.840  0.6139 -0.2248  0.0716
10833TIP3    H153914   0.830   6.342   4.922  2.2535 -0.0406 -0.1515
10833TIP3    H253915   0.801   6.358   4.774 -0.4614 -0.3348  0.2993
10834TIP3   OH253916   5.900   4.766  15.096 -0.1976 -0.8581 -0.0398
10834TIP3    H153917   5.966   4.718  15.046  0.9888  0.7641 -0.1115
10834TIP3    H253918   5.816   4.735  15.062  0.5464 -2.0485 -0.8363
10835TIP3   OH253919   1.738   0.687   3.335 -0.4072 -0.6344 -0.1337
10835TIP3    H153920   1.782   0.711   3.254 -0.8336  1.5732  0.2334
10835TIP3    H253921   1.808   0.655   3.392  0.3182  0.3471 -0.4556
10836TIP3   OH253922   3.352   2.457  14.388 -0.1743  0.0236 -0.1243
10836TIP3    H153923   3.350   2.551  14.368 -1.4593 -0.1808 -1.0416
10836TIP3    H253924   3.273   2.442  14.440  1.2522 -0.1399  2.1550
10837TIP3   OH253925   3.171   2.075  11.065  0.2270 -0.3483  0.2175
10837TIP3    H153926   3.265   2.066  11.049  0.2114  0.0162 -0.1068
10837TIP3    H253927   3.164   2.106  11.155  0.4611  0.4464 -0.0264
10838TIP3   OH253928   5.760   4.089  12.421 -0.5285 -0.0740 -0.3476
10838TIP3    H153929   5.735   4.170  12.465  0.4561  0.7631 -1.2572
10838TIP3    H253930   5.718   4.020  12.471 -2.4641  1.0759 -0.2941
10839TIP3   OH253931   2.349   1.264   4.891  0.3163 -0.7846 -0.3069
10839TIP3    H153932   2.284   1.285   4.823  0.9950  1.4120 -0.3448
10839TIP3    H253933   2.433   1.286   4.852  1.0284 -2.4138  0.2040
10840TIP3   OH253934   1.301   4.586  12.611  0.2906  0.0120 -0.1855
10840TIP3    H153935   1.291   4.675  12.579  2.9133 -0.2032 -1.9018
10840TIP3    H253936   1.341   4.596  12.698 -2.0595  0.4818  0.9224
10841TIP3   OH253937   1.500   6.573   0.375  0.1633 -0.6399  0.7054
10841TIP3    H153938   1.544   6.521   0.307 -0.7497  0.1388 -0.5458
10841TIP3    H253939   1.564   6.581   0.445  1.1368 -1.5290 -0.0475
10842TIP3   OH253940   5.443   5.261   4.147  0.2992  0.2456  0.0641
10842TIP3    H153941   5.537   5.273   4.132  0.8614 -2.7901  0.5572
10842TIP3    H253942   5.437   5.235   4.238 -1.0239  0.1955 -0.0286
10843TIP3   OH253943   5.478   0.456  11.271 -0.3185  0.1819 -0.3164
10843TIP3    H153944   5.448   0.546  11.268 -0.6123  0.0841 -0.3916
10843TIP3    H253945   5.455   0.420  11.185  1.0043  0.4059 -0.7891
10844TIP3   OH253946   5.228   4.990  12.426  0.0725  0.7825 -0.4069
10844TIP3    H153947   5.251   5.042  12.349  0.8079  2.0462  0.6212
10844TIP3    H253948   5.282   5.026  12.496  0.4384 -1.2615  0.4182
10845TIP3   OH253949   3.250   6.340   0.693  0.2254  0.0275  1.1624
10845TIP3    H153950   3.177   6.402   0.700  0.6353  0.5494  0.8835
10845TIP3    H253951   3.312   6.369   0.760  0.9786  0.6989  0.1999
10846TIP3   OH253952   6.329   4.288   6.185 -0.3128  0.2108 -0.3545
10846TIP3    H153953   6.412   4.333   6.203 -0.4316  0.7966 -1.2413
10846TIP3    H253954   6.325   4.219   6.252  0.7814  0.3066 -0.1666
10847TIP3   OH253955   0.614   4.675   2.686  0.7295  0.2069 -0.3597
10847TIP3    H153956   0.649   4.744   2.743  1.1652  1.3333 -1.9509
10847TIP3    H253957   0.519   4.687   2.690  0.7202 -0.0304  0.4723
10848TIP3   OH253958   0.956   0.969   3.079 -0.6028  0.2570 -0.9627
10848TIP3    H153959   0.919   1.057   3.069  0.0080  0.7255  0.5566
10848TIP3    H253960   0.880   0.912   3.088 -1.0037  0.8435 -0.5049
10849TIP3   OH253961   2.626   0.160   1.601  0.1947 -0.1528  0.4592
10849TIP3    H153962   2.564   0.114   1.658  0.0027 -0.5690 -0.0789
10849TIP3    H253963   2.703   0.102   1.598  0.2471 -0.0792  0.3840
10850TIP3   OH253964   4.397   0.109  13.505 -0.6695  0.3367  0.1031
10850TIP3    H153965   4.414   0.202  13.489  0.8172  0.2956  1.2613
10850TIP3    H253966   4.448   0.064  13.438 -0.6217  0.3256  0.1477
10851TIP3   OH253967   3.870   2.216   5.875  0.1941 -0.4774 -0.0588
10851TIP3    H153968   3.804   2.236   5.942 -0.1050  3.0111 -1.1836
10851TIP3    H253969   3.953   2.224   5.920 -0.0423 -0.1360  0.3229
10852TIP3   OH253970   5.678   1.956  12.747 -0.1496  0.0870 -0.0097
10852TIP3    H153971   5.662   1.990  12.659 -0.6981 -0.8075 -0.2777
10852TIP3    H253972   5.610   1.996  12.801 -1.8903 -1.8108 -0.6605
10853TIP3   OH253973   5.512   5.178   4.388 -1.0540 -0.0933  0.1624
10853TIP3    H153974   5.450   5.167   4.460  0.6016  0.3844  1.7418
10853TIP3    H253975   5.584   5.119   4.409  0.4644  1.6459  0.1058
10854TIP3   OH253976   0.316   3.346  12.439  0.8730  0.5450 -0.2694
10854TIP3    H153977   0.318   3.403  12.516  1.1226  1.1655 -0.7200
10854TIP3    H253978   0.348   3.402  12.368  0.8173 -0.0720 -0.7856
10855TIP3   OH253979   1.463   1.106   4.218 -0.5489 -0.2564  0.3438
10855TIP3    H153980   1.537   1.060   4.178 -0.9148 -0.3884 -0.1822
10855TIP3    H253981   1.427   1.159   4.148 -1.4745 -0.8380  0.3664
10856TIP3   OH253982   2.565   1.043   0.631 -0.2774 -0.0115 -0.3718
10856TIP3    H153983   2.534   1.117   0.578  3.6702  1.8934 -0.3546
10856TIP3    H253984   2.620   0.992   0.572  1.6434  0.3665  1.0053
10857TIP3   OH253985   2.529   1.866  12.151 -0.4872  0.2603  0.2220
10857TIP3    H153986   2.520   1.889  12.243 -0.7901  0.8354  0.0584
10857TIP3    H253987   2.596   1.926  12.117 -0.9258  0.5741 -0.1018
10858TIP3   OH253988   6.575   4.427  17.025 -0.1405 -0.1220 -0.2319
10858TIP3    H153989   6.480   4.435  17.013 -0.1684  1.5239  0.7156
10858TIP3    H253990   6.585   4.397  17.115  0.2383 -0.1595 -0.2877
10859TIP3   OH253991   6.705   1.864  11.196 -0.4492  0.0057  0.2014
10859TIP3    H153992   6.718   1.839  11.288 -1.0392  2.7227  1.1154
10859TIP3    H253993   6.794   1.877  11.162 -0.2534 -0.2848  0.5894
10860TIP3   OH253994   6.317   0.670  14.952  0.7567  0.4451  0.0420
10860TIP3    H153995   6.235   0.621  14.950  0.1490  1.4624 -1.0658
10860TIP3    H253996   6.363   0.643  14.873  1.8783 -0.6794  1.0168
10861TIP3   OH253997   3.580   0.625   3.513 -0.2291  0.4868  0.3947
10861TIP3    H153998   3.494   0.596   3.541 -0.0543  0.1944  0.6324
10861TIP3    H253999   3.641   0.577   3.568  0.2737 -2.5512 -2.4937
10862TIP3   OH254000   6.073   3.789  16.399 -0.1170  0.6443 -0.3419
10862TIP3    H154001   6.109   3.735  16.469  0.1407  1.4877  0.1969
10862TIP3    H254002   6.078   3.735  16.321 -2.0007 -0.9815  0.5806
10863TIP3   OH254003   5.936   3.399   6.095  0.7065 -0.2156  0.7561
10863TIP3    H154004   5.885   3.333   6.048  2.0787 -1.4681  0.9553
10863TIP3    H254005   5.937   3.369   6.186 -1.5492  1.9564  1.6090
10864TIP3   OH254006   5.944   1.498  12.875  0.4426  0.9139 -0.9331
10864TIP3    H154007   5.862   1.542  12.897 -0.8858 -0.0366 -3.4796
10864TIP3    H254008   5.939   1.413  12.920  0.3909  1.1617 -0.4714
10865TIP3   OH254009   0.647   4.725  16.593 -0.0936  0.4011 -0.6739
10865TIP3    H154010   0.739   4.753  16.591  0.5194 -1.2400 -4.3430
10865TIP3    H254011   0.597   4.804  16.571  0.7833  0.6506 -1.9093
10866TIP3   OH254012   3.366   0.457   0.088  0.1940  0.5225  0.3688
10866TIP3    H154013   3.437   0.454   0.153 -0.4034  2.2352  1.1475
10866TIP3    H254014   3.315   0.379   0.106  1.4988 -0.4036  0.2275
10867TIP3   OH254015   6.341   1.182  14.852 -0.5010 -0.0731 -0.0776
10867TIP3    H154016   6.349   1.118  14.922  2.0361  0.3783  0.1300
10867TIP3    H254017   6.342   1.267  14.896  1.1766  0.2172 -0.6065
10868TIP3   OH254018   4.446   1.579  13.335  0.5164 -0.0489 -0.5424
10868TIP3    H154019   4.448   1.560  13.429  0.9541 -3.9955 -1.2144
10868TIP3    H254020   4.532   1.552  13.303  0.7853  2.2540 -1.9976
10869TIP3   OH254021   6.026   2.062   4.249 -0.0573 -0.0961  0.0441
10869TIP3    H154022   6.086   2.126   4.212  0.7775 -0.9957 -0.2075
10869TIP3    H254023   6.080   2.008   4.307 -0.7810 -0.4457  0.4155
10870TIP3   OH254024   3.497   2.179  16.985  0.0432 -0.0437  0.0038
10870TIP3    H154025   3.478   2.273  16.995  2.6651  0.6782 -1.0249
10870TIP3    H254026   3.414   2.136  17.007 -0.9937  2.4384  1.4289
10871TIP3   OH254027   5.578   5.783   1.305  0.1132 -0.5467 -0.1171
10871TIP3    H154028   5.666   5.769   1.270  0.7998 -0.2250  1.4029
10871TIP3    H254029   5.578   5.739   1.390 -0.7881  0.4579  0.4388
10872TIP3   OH254030   3.657   3.987  13.642  0.1211  0.1649 -0.1894
10872TIP3    H154031   3.643   4.066  13.695 -0.0403 -0.5535  0.8517
10872TIP3    H254032   3.707   4.018  13.566 -1.3689  1.5764 -0.6597
10873TIP3   OH254033   1.144   2.448   0.729  0.2763 -0.3472 -0.1275
10873TIP3    H154034   1.156   2.524   0.672  0.9491 -0.7661 -0.5515
10873TIP3    H254035   1.054   2.420   0.712 -0.3161  0.9333  0.7547
10874TIP3   OH254036   2.281   3.834   2.482 -0.6125 -0.1163  0.3763
10874TIP3    H154037   2.222   3.836   2.406 -1.2740  0.5204  0.8861
10874TIP3    H254038   2.363   3.869   2.450  0.2065 -2.8565 -0.8870
10875TIP3   OH254039   1.258   0.256   1.449  0.3693  0.4846 -0.2385
10875TIP3    H154040   1.254   0.207   1.532  1.5780 -0.4015 -0.6720
10875TIP3    H254041   1.167   0.276   1.428 -0.0564 -0.5179  0.5877
10876TIP3   OH254042   4.982   4.620   1.883 -0.0702 -0.2030 -0.6053
10876TIP3    H154043   5.077   4.620   1.868 -0.3746 -0.7856 -3.0193
10876TIP3    H254044   4.954   4.531   1.863 -1.3527  0.4433 -1.8878
10877TIP3   OH254045   0.737   4.838   5.549 -0.1273  0.5832  0.1082
10877TIP3    H154046   0.699   4.886   5.623 -2.9357  0.0819 -0.9117
10877TIP3    H254047   0.736   4.900   5.477  0.1553  0.2662 -0.1701
10878TIP3   OH254048   0.076   0.425  16.708  0.2266 -0.2072 -0.1385
10878TIP3    H154049   0.094   0.518  16.722 -0.3085 -0.6074  4.7916
10878TIP3    H254050  -0.019   0.421  16.694  0.2483 -0.0638 -0.3443
10879TIP3   OH254051   1.721   1.543   2.671 -0.3391 -0.1004 -0.1194
10879TIP3    H154052   1.750   1.476   2.609 -2.0225  1.6358 -3.0301
10879TIP3    H254053   1.784   1.614   2.661 -0.7308  0.2673 -0.0246
10880TIP3   OH254054   3.901   5.683  13.798  0.5082  0.5783 -0.4625
10880TIP3    H154055   3.857   5.710  13.878 -1.1219  0.6803 -1.3457
10880TIP3    H254056   3.943   5.763  13.766  1.0742  0.5602  0.2176
10881TIP3   OH254057   0.184   6.512  15.476  0.0562 -0.2263 -0.0814
10881TIP3    H154058   0.115   6.526  15.541  1.2486  0.0656  1.1699
10881TIP3    H254059   0.186   6.593  15.425 -0.4594 -0.1998 -0.0607
10882TIP3   OH254060   1.902   0.423  14.735  0.4767 -0.7016 -0.5685
10882TIP3    H154061   1.997   0.422  14.751  0.8203  1.5407 -2.0240
10882TIP3    H254062   1.875   0.513  14.753 -1.3443 -1.2263 -0.4865
10883TIP3   OH254063   0.299   1.174   0.607  0.2380 -0.1932 -0.4713
10883TIP3    H154064   0.249   1.093   0.597 -1.6578  0.6972  1.2622
10883TIP3    H254065   0.239   1.243   0.581 -0.0507  1.0139  2.9119
10884TIP3   OH254066   5.930   6.143   2.851 -0.6625  0.0934  0.1121
10884TIP3    H154067   5.905   6.059   2.813 -2.4212  0.2190  0.8617
10884TIP3    H254068   6.025   6.140   2.857 -0.7132 -2.2584  0.9905
10885TIP3   OH254069   5.875   2.114   2.854  0.0011 -0.1035  0.0537
10885TIP3    H154070   5.949   2.083   2.907 -1.1809  1.2432  2.6832
10885TIP3    H254071   5.852   2.198   2.893 -0.6394  1.2743 -3.0393
10886TIP3   OH254072   0.980   2.727   2.092 -0.1312  0.2071 -0.3206
10886TIP3    H154073   1.034   2.697   2.165 -1.8538  2.3407  2.0006
10886TIP3    H254074   1.041   2.768   2.031  1.3427 -1.5324 -0.0708
10887TIP3   OH254075   6.448   1.493   6.409 -0.4542 -0.1054 -0.3547
10887TIP3    H154076   6.525   1.543   6.382 -0.0953 -0.4352  0.0465
10887TIP3    H254077   6.461   1.477   6.503 -0.9624 -0.2497 -0.3038
10888TIP3   OH254078   4.271   4.243   3.491  0.0402  0.8306  0.1509
10888TIP3    H154079   4.274   4.245   3.586 -1.3506 -0.5245  0.2691
10888TIP3    H254080   4.334   4.175   3.467 -0.1109  0.6920  0.1459
10889TIP3   OH254081   3.338   0.123   4.633  0.2965 -0.2891  0.1019
10889TIP3    H154082   3.250   0.134   4.595 -0.3509  1.7380  1.9859
10889TIP3    H254083   3.331   0.043   4.686  0.6612 -2.0637 -2.3382
10890TIP3   OH254084   3.767   2.540  14.113 -0.2293  0.6132  0.4431
10890TIP3    H154085   3.767   2.454  14.154  0.9455 -0.0183 -0.8052
10890TIP3    H254086   3.842   2.585  14.152 -0.2443  0.6990  0.3731
10891TIP3   OH254087   1.487   4.433   0.075 -0.5058 -0.1588 -0.3666
10891TIP3    H154088   1.550   4.369   0.109 -1.1345 -0.4269  0.3496
10891TIP3    H254089   1.488   4.504   0.139 -2.9502 -1.4320  1.2677
10892TIP3   OH254090   1.546   4.345   3.174 -0.0940 -0.3856 -0.2488
10892TIP3    H154091   1.591   4.345   3.090 -0.2633  1.4991 -0.3856
10892TIP3    H254092   1.530   4.253   3.194 -0.2613 -0.8532 -2.3883
10893TIP3   OH254093   4.145   2.699   5.235  0.1800  0.0790 -0.4400
10893TIP3    H154094   4.069   2.710   5.177  0.0299 -1.3662 -0.5675
10893TIP3    H254095   4.194   2.780   5.226 -0.7913  0.6034 -1.2044
10894TIP3   OH254096   1.898   0.208   4.947 -0.0422 -0.2329  0.2452
10894TIP3    H154097   1.909   0.193   4.853 -0.2610 -0.5327  0.2624
10894TIP3    H254098   1.973   0.261   4.973  0.2136 -0.4602 -0.0288
10895TIP3   OH254099   3.327   0.623   2.329 -0.3092  0.4706 -0.6064
10895TIP3    H154100   3.326   0.684   2.403  0.4019  0.7429 -0.8127
10895TIP3    H254101   3.312   0.678   2.252 -0.2085  0.3042 -0.7450
10896TIP3   OH254102   5.538   0.950  10.604 -0.3174  0.0730  0.6946
10896TIP3    H154103   5.477   1.023  10.595  1.4748  1.5736 -0.0331
10896TIP3    H254104   5.587   0.968  10.684 -0.0658 -0.5146  0.6830
10897TIP3   OH254105   0.679   3.414  13.772 -0.5022 -0.3159  0.3926
10897TIP3    H154106   0.656   3.474  13.843  1.7366  0.5733  0.4344
10897TIP3    H254107   0.613   3.431  13.705 -1.1093  0.7250  1.2131
10898TIP3   OH254108   6.362   1.605   3.228  0.1515 -0.0163  0.0912
10898TIP3    H154109   6.285   1.549   3.222 -0.7523  0.9883  1.5129
10898TIP3    H254110   6.430   1.549   3.265 -1.0541  0.0103  2.5635
10899TIP3   OH254111   5.783   3.688  10.832  0.0790 -0.1096 -0.3534
10899TIP3    H154112   5.826   3.767  10.864  0.5168 -0.6442  0.4093
10899TIP3    H254113   5.840   3.616  10.860 -1.8182 -0.9447  1.7249
10900TIP3   OH254114   4.670   5.408  13.782 -0.2476 -0.2798 -0.0330
10900TIP3    H154115   4.698   5.410  13.873 -1.0754 -0.3464  0.2276
10900TIP3    H254116   4.574   5.414  13.785 -0.2064  3.8769 -1.0186
10901TIP3   OH254117   4.728   5.665   4.036  0.0781  0.1887 -0.1396
10901TIP3    H154118   4.696   5.734   3.977  2.2459 -0.0035 -1.6852
10901TIP3    H254119   4.732   5.707   4.122  0.2999  1.6611 -0.8359
10902TIP3   OH254120   3.723   3.031   3.100 -0.4411  0.3857  1.0755
10902TIP3    H154121   3.660   3.008   3.032 -1.2760 -1.9811  2.5566
10902TIP3    H254122   3.751   3.119   3.076 -0.7960 -0.2536 -2.2276
10903TIP3   OH254123   3.795   3.017   4.393  0.2614 -0.3395  0.0105
10903TIP3    H154124   3.778   3.110   4.379  1.8557 -0.1346 -0.8804
10903TIP3    H254125   3.722   2.972   4.351  0.5443  0.4809 -1.4097
10904TIP3   OH254126   1.550   0.565  11.690  0.4976 -0.2534 -0.6499
10904TIP3    H154127   1.486   0.617  11.737 -0.2961  0.7334 -2.6796
10904TIP3    H254128   1.578   0.498  11.752  0.9211  2.0220  1.8052
10905TIP3   OH254129   0.449   4.101   2.769  0.0648 -0.3093  0.1365
10905TIP3    H154130   0.356   4.087   2.789  0.0343 -0.0225  0.1955
10905TIP3    H254131   0.490   4.110   2.855 -0.3146  2.5825  0.1050
10906TIP3   OH254132   6.632   6.083  13.304 -0.3057 -0.3889  0.3820
10906TIP3    H154133   6.626   6.014  13.237 -1.6275 -0.5717  0.6544
10906TIP3    H254134   6.541   6.102  13.326 -0.0068  2.0983 -0.3227
10907TIP3   OH254135   5.578   5.871   3.309  0.1751  0.0045 -0.4845
10907TIP3    H154136   5.652   5.844   3.255 -0.6888  0.0268 -1.6985
10907TIP3    H254137   5.527   5.791   3.323  2.2389 -0.9178  3.4725
10908TIP3   OH254138   4.673   4.910  15.391  0.2387 -0.1914  0.0204
10908TIP3    H154139   4.752   4.962  15.379  0.3772 -0.4780 -0.3483
10908TIP3    H254140   4.619   4.929  15.314  0.1365 -0.3188  0.0594
10909TIP3   OH254141   4.673   6.535   5.799 -0.2970  0.9759 -0.0431
10909TIP3    H154142   4.718   6.515   5.881  0.5290 -0.8721 -0.8668
10909TIP3    H254143   4.585   6.501   5.811 -0.0830  0.4138  0.0017
10910TIP3   OH254144   1.541   4.606  15.905 -0.1326 -0.0817  0.3162
10910TIP3    H154145   1.495   4.523  15.920  0.9044 -0.3266  2.6166
10910TIP3    H254146   1.605   4.586  15.837 -0.4379 -0.9604  0.2746
10911TIP3   OH254147   1.327   3.431   5.375 -0.2439  0.1209  0.4183
10911TIP3    H154148   1.335   3.495   5.446  0.2086  0.1950  0.3029
10911TIP3    H254149   1.389   3.462   5.309  0.7309 -0.9956  0.7851
10912TIP3   OH254150   4.824   4.539   1.632 -0.1499 -0.4148  0.9386
10912TIP3    H154151   4.899   4.589   1.599 -1.0447 -0.1594 -0.8558
10912TIP3    H254152   4.765   4.606   1.667 -1.6288  0.0005 -2.0288
10913TIP3   OH254153   6.679   3.696  15.532 -0.1126 -0.0016 -0.0834
10913TIP3    H154154   6.669   3.761  15.462  3.5209  0.6906 -0.1594
10913TIP3    H254155   6.672   3.747  15.613  1.0110  0.1886 -0.0998
10914TIP3   OH254156   5.410   6.300  11.253  0.2890 -0.4725  0.0371
10914TIP3    H154157   5.493   6.281  11.296  0.2226  1.3220  1.0673
10914TIP3    H254158   5.418   6.261  11.166  3.2406  1.7798 -0.8535
10915TIP3   OH254159   6.380   4.729   1.493  0.4400  0.6549 -0.1696
10915TIP3    H154160   6.320   4.699   1.561 -0.0086 -0.6694 -1.0903
10915TIP3    H254161   6.424   4.649   1.463 -1.6930  0.5383 -3.6131
10916TIP3   OH254162   0.524   0.635   2.787  0.3462  0.4615 -0.1727
10916TIP3    H154163   0.587   0.707   2.788  0.9486 -0.0669 -0.1119
10916TIP3    H254164   0.521   0.605   2.696 -0.3950  0.9797 -0.3327
10917TIP3   OH254165   2.118   6.151  15.277 -0.1660  0.1805 -0.2564
10917TIP3    H154166   2.122   6.115  15.365  0.5329  2.8475  0.9215
10917TIP3    H254167   2.170   6.092  15.223 -1.6968 -2.2338  0.7681
10918TIP3   OH254168   3.318   6.723  14.090 -0.0847  0.1758  0.9783
10918TIP3    H154169   3.226   6.748  14.082 -0.6902 -1.9706  0.4476
10918TIP3    H254170   3.351   6.775  14.163 -0.9654  2.8912 -0.4146
10919TIP3   OH254171   0.470   4.422  14.029 -0.5574  0.2610 -0.0974
10919TIP3    H154172   0.410   4.388  13.963 -0.8491 -3.3247  1.7755
10919TIP3    H254173   0.544   4.361  14.028 -1.0906 -0.6869  3.5131
10920TIP3   OH254174   2.714   1.559   2.511 -0.0735 -0.1910 -0.1189
10920TIP3    H154175   2.717   1.509   2.592  0.8147 -1.4441 -0.8798
10920TIP3    H254176   2.772   1.634   2.526  3.6083 -2.6023 -0.8975
10921TIP3   OH254177   6.318   1.940   0.003 -0.0735  0.2339 -0.1205
10921TIP3    H154178   6.234   1.901  -0.023  0.0943 -0.0502 -0.2469
10921TIP3    H254179   6.352   1.880   0.068 -0.6233  1.0899  0.9826
10922TIP3   OH254180   0.876   6.391   3.543  0.4848 -0.4913  0.5181
10922TIP3    H154181   0.942   6.323   3.531  0.0153 -0.6680 -1.3477
10922TIP3    H254182   0.803   6.345   3.586  0.4068 -1.0350 -0.1761
10923TIP3   OH254183   5.403   4.924  11.121 -0.7439 -1.1292 -0.3235
10923TIP3    H154184   5.450   4.964  11.048  2.0646  1.1407  2.4588
10923TIP3    H254185   5.423   4.831  11.116 -0.5914 -1.0179 -2.3500
10924TIP3   OH254186   0.071   5.702   4.966  0.0966  0.1989  0.6971
10924TIP3    H154187  -0.009   5.655   4.988  0.9230 -1.8642 -0.4111
10924TIP3    H254188   0.046   5.759   4.893 -0.4710 -0.0877  0.6664
10925TIP3   OH254189   6.020   1.724  11.817  0.3399 -0.2340 -0.0815
10925TIP3    H154190   6.075   1.755  11.745 -0.9289  1.5402 -0.3572
10925TIP3    H254191   6.009   1.630  11.801 -1.9186  0.4351 -3.7000
10926TIP3   OH254192   0.239   1.621  11.216  0.2830 -0.4653  0.0008
10926TIP3    H154193   0.167   1.647  11.275 -0.4048  0.7368 -1.2992
10926TIP3    H254194   0.199   1.561  11.154  0.3666  0.2439 -0.7591
10927TIP3   OH254195   4.476   2.842  16.414 -0.1384  0.4393  0.2830
10927TIP3    H154196   4.543   2.819  16.348  0.1754 -1.3728  1.1777
10927TIP3    H254197   4.459   2.935  16.398 -1.4580 -0.2544 -3.5987
10928TIP3   OH254198   4.320   5.000   4.090 -0.4403 -0.6574 -0.4985
10928TIP3    H154199   4.307   5.011   4.185 -2.3523 -1.8514 -0.5726
10928TIP3    H254200   4.320   5.089   4.056  1.0739 -0.1538  0.6800
10929TIP3   OH254201   2.843   5.496  16.170  0.6121 -0.2432  0.5555
10929TIP3    H154202   2.905   5.457  16.108  1.0323  0.3524  0.5908
10929TIP3    H254203   2.890   5.495  16.254  0.3506 -0.3211  0.7008
10930TIP3   OH254204   2.613   6.600   0.247  0.1288 -0.5406  0.2602
10930TIP3    H154205   2.566   6.639   0.174  0.8923  2.0214  1.0407
10930TIP3    H254206   2.706   6.616   0.228  0.3384  0.2215  1.7777
10931TIP3   OH254207   3.713   3.777  15.532  0.3409  0.2030  0.3978
10931TIP3    H154208   3.684   3.792  15.622 -0.1848  0.3229  0.2105
10931TIP3    H254209   3.728   3.683  15.527  0.9219  0.2665  0.7685
10932TIP3   OH254210   2.637   2.861  12.225  0.6897 -0.1657  0.3696
10932TIP3    H154211   2.579   2.801  12.272  0.5235  0.5123  1.0577
10932TIP3    H254212   2.706   2.804  12.189  0.7648 -0.7346  1.3429
10933TIP3   OH254213   3.012   3.962   5.139  0.5984 -0.6189 -0.2658
10933TIP3    H154214   3.044   4.017   5.069 -2.6978  0.0024 -1.4626
10933TIP3    H254215   3.053   3.877   5.124 -0.1252 -0.5524 -3.1313
10934TIP3   OH254216   1.166   5.031  10.981  0.1976 -0.0449 -0.0542
10934TIP3    H154217   1.138   5.004  10.894 -1.7373  0.4600  0.3714
10934TIP3    H254218   1.177   5.126  10.975  2.6120 -0.2785 -0.3769
10935TIP3   OH254219   5.171   6.215  13.617 -0.0030  0.5660 -0.5418
10935TIP3    H154220   5.103   6.240  13.680 -0.3412  0.9226 -1.0482
10935TIP3    H254221   5.124   6.165  13.550  0.4374 -0.2348 -0.2647
10936TIP3   OH254222   4.207   2.798  15.785  0.0276 -0.1209 -0.2056
10936TIP3    H154223   4.150   2.855  15.732 -2.1219 -1.1673  0.8437
10936TIP3    H254224   4.208   2.839  15.871  1.8041  0.4461 -0.4533
10937TIP3   OH254225   5.623   5.151   0.578  0.0913 -0.0603 -0.0407
10937TIP3    H154226   5.555   5.093   0.542 -0.7165  0.8713 -0.0512
10937TIP3    H254227   5.577   5.204   0.643  0.7458  0.7636 -0.2383
10938TIP3   OH254228   2.772   5.003  12.527 -0.6292  0.2022  0.3741
10938TIP3    H154229   2.694   5.026  12.578  0.1470  1.2455  1.1261
10938TIP3    H254230   2.840   4.988  12.592 -0.1129 -0.4105 -0.2922
10939TIP3   OH254231   2.418   4.704   4.727 -0.0309  0.8277 -0.0532
10939TIP3    H154232   2.347   4.640   4.735  0.5122 -0.0613 -1.8203
10939TIP3    H254233   2.498   4.651   4.732  0.5031  1.6811  0.7712
10940TIP3   OH254234   0.199   2.610  13.811 -0.1833 -0.2888 -0.2674
10940TIP3    H154235   0.197   2.526  13.765  0.4369 -0.1886 -0.4877
10940TIP3    H254236   0.271   2.603  13.873 -0.0333  0.1296 -0.3878
10941TIP3   OH254237   6.515   1.231   0.194 -0.4549 -0.6052 -0.3379
10941TIP3    H154238   6.543   1.180   0.119 -1.0214 -0.7952 -0.4294
10941TIP3    H254239   6.594   1.244   0.246 -0.0954 -0.6302 -0.8691
10942TIP3   OH254240   2.826   6.443   1.181  0.1011 -0.5478  0.3819
10942TIP3    H154241   2.755   6.501   1.209  0.9106  0.7699 -0.2213
10942TIP3    H254242   2.797   6.409   1.096 -0.6128 -1.4745  0.9802
10943TIP3   OH254243   0.130   6.731   0.760 -0.0468 -0.1343  0.5788
10943TIP3    H154244   0.138   6.800   0.694  3.0404 -1.5051 -0.6819
10943TIP3    H254245   0.104   6.653   0.710 -1.0211 -0.4648  1.5713
10944TIP3   OH254246   3.797   4.873   5.721 -0.1705 -0.1591  0.1690
10944TIP3    H154247   3.714   4.908   5.753 -0.0730 -0.1909  0.4667
10944TIP3    H254248   3.775   4.785   5.690  0.1297 -1.0761  2.3321
10945TIP3   OH254249   1.647   3.083  15.365 -0.5560 -0.4314  0.1261
10945TIP3    H154250   1.718   3.146  15.354 -1.7609  1.0730  0.6268
10945TIP3    H254251   1.662   3.045  15.452 -2.6476  3.0747  2.2632
10946TIP3   OH254252   3.372   6.328   5.492  0.7633 -0.3093 -0.0221
10946TIP3    H154253   3.352   6.390   5.563  1.1773  0.6942 -0.7610
10946TIP3    H254254   3.435   6.267   5.531 -0.2777 -0.7793  0.9654
10947TIP3   OH254255   2.504   1.227  12.782  0.8392 -0.8969  0.0906
10947TIP3    H154256   2.586   1.181  12.800  2.3031  0.8644 -1.6337
10947TIP3    H254257   2.488   1.211  12.689  1.1390  1.5009 -0.4539
10948TIP3   OH254258   0.373   0.401  12.467  0.2880  0.0301 -0.2164
10948TIP3    H154259   0.381   0.387  12.561 -0.1581 -0.7260 -0.2885
10948TIP3    H254260   0.370   0.496  12.457 -1.1139  0.1075  0.6648
10949TIP3   OH254261   3.870   4.048  15.923  0.6874  0.3068  0.2060
10949TIP3    H154262   3.947   3.993  15.912 -0.9207 -2.1897  0.5557
10949TIP3    H254263   3.848   4.078  15.835  3.0823  2.7458  0.3041
10950TIP3   OH254264   1.421   2.465   5.653 -0.3466 -0.0001  0.2333
10950TIP3    H154265   1.338   2.426   5.627  0.1586 -2.0735  1.5437
10950TIP3    H254266   1.472   2.469   5.572 -1.2781  0.1809 -0.3578
10951TIP3   OH254267   1.717   5.815   5.143 -0.0217  0.2247 -0.5495
10951TIP3    H154268   1.753   5.891   5.098  0.6646  0.3214  0.1283
10951TIP3    H254269   1.772   5.742   5.114 -0.3942  0.0641 -0.8552
10952TIP3   OH254270   4.181   0.269  12.429  0.5971 -0.0416  0.1669
10952TIP3    H154271   4.141   0.185  12.449  1.2698 -0.1752  1.0222
10952TIP3    H254272   4.216   0.300  12.512 -0.9546  1.8202  0.1926
10953TIP3   OH254273   5.407   2.214  16.044 -0.6258  0.2835  0.0970
10953TIP3    H154274   5.378   2.140  15.991  2.5297 -0.3419 -0.9858
10953TIP3    H254275   5.424   2.284  15.980  0.6573  0.4277  0.5643
10954TIP3   OH254276   4.118   4.653   4.226  0.4558 -0.1474 -0.6921
10954TIP3    H154277   4.022   4.653   4.219  0.2570  1.7569  1.0228
10954TIP3    H254278   4.149   4.652   4.135 -1.1198 -1.8974 -1.2845
10955TIP3   OH254279   1.593   2.790  12.437 -0.0117 -0.4642  0.4263
10955TIP3    H154280   1.658   2.858  12.421  0.1110 -0.3418  1.3654
10955TIP3    H254281   1.523   2.835  12.485 -1.3503 -0.3293 -1.5405
10956TIP3   OH254282   3.887   3.845   2.501  0.7026 -0.1095  0.7365
10956TIP3    H154283   3.869   3.775   2.439  1.7225  0.4567 -0.2216
10956TIP3    H254284   3.802   3.886   2.517  0.2700 -0.9080  0.5203
10957TIP3   OH254285   4.295   1.432   1.091 -0.3188 -0.1748  0.5051
10957TIP3    H154286   4.380   1.475   1.078 -0.5294  0.1364  0.1607
10957TIP3    H254287   4.307   1.344   1.055 -0.3729  0.1193 -0.2460
10958TIP3   OH254288   4.925   3.999   5.425  0.2729  0.2632  0.2056
10958TIP3    H154289   4.985   4.074   5.431 -1.1369  1.3516  1.5065
10958TIP3    H254290   4.926   3.975   5.333  1.3906  1.3528 -0.0946
10959TIP3   OH254291   2.675   6.753  11.698  0.1606 -0.4414  0.3462
10959TIP3    H154292   2.600   6.772  11.642 -0.9680  0.0893  1.9862
10959TIP3    H254293   2.737   6.708  11.640 -0.7406  0.5224 -1.4379
10960TIP3   OH254294   4.231   0.567  12.306  0.4597  0.0930  0.4861
10960TIP3    H154295   4.275   0.496  12.260  0.9342  0.0307  1.0255
10960TIP3    H254296   4.139   0.560  12.279  0.7906  0.2960 -0.7249
10961TIP3   OH254297   0.870   4.407   1.158 -0.5256 -0.0428 -0.3018
10961TIP3    H154298   0.829   4.494   1.150  0.7214  0.7311  1.0901
10961TIP3    H254299   0.949   4.423   1.209 -0.6106 -2.1222  0.5777
10962TIP3   OH254300   6.078   1.365  15.532  0.0680  0.2546  0.2738
10962TIP3    H154301   6.094   1.297  15.466 -1.2350 -0.9717  1.1836
10962TIP3    H254302   5.997   1.407  15.503 -0.4624 -0.2342  1.0371
10963TIP3   OH254303   5.272   1.514  11.311 -0.8466 -0.3520  0.1772
10963TIP3    H154304   5.367   1.523  11.302 -0.8085  0.5774  1.2240
10963TIP3    H254305   5.237   1.542  11.226 -0.2294  0.4330  0.1669
10964TIP3   OH254306   0.044   4.729  12.980  0.1427 -0.0533  0.2163
10964TIP3    H154307   0.033   4.761  12.891 -0.9711 -0.3981  0.2206
10964TIP3    H254308   0.009   4.798  13.036 -2.6612 -1.3297  0.2097
10965TIP3   OH254309   0.869   4.293  15.308 -0.4009 -0.0486 -0.3554
10965TIP3    H154310   0.943   4.308  15.248 -0.4351  0.6891 -0.2160
10965TIP3    H254311   0.831   4.211  15.277  0.0114 -0.0416 -0.9092
10966TIP3   OH254312   1.973   3.680   3.141  0.0985 -0.3770  0.0870
10966TIP3    H154313   1.891   3.655   3.097  0.0072 -0.0546  0.0753
10966TIP3    H254314   1.977   3.775   3.131  0.8821 -0.4717 -0.6286
10967TIP3   OH254315   0.683   5.254  12.823 -0.2626 -0.5293  0.1672
10967TIP3    H154316   0.755   5.274  12.763  0.2661  1.8764  1.4531
10967TIP3    H254317   0.671   5.335  12.873 -3.5012 -1.0533  0.4182
10968TIP3   OH254318   3.459   5.685  15.384 -0.3177 -0.0825  0.9863
10968TIP3    H154319   3.496   5.681  15.472  2.6640  1.7045 -0.0264
10968TIP3    H254320   3.466   5.778  15.360  3.1198 -0.9939 -2.6107
10969TIP3   OH254321   5.416   1.779  13.326 -0.2590  0.1201  0.0724
10969TIP3    H154322   5.482   1.809  13.263  0.4711 -2.8664 -0.7361
10969TIP3    H254323   5.456   1.797  13.411 -0.1354  1.8686 -0.3157
10970TIP3   OH254324   2.624   4.805  10.947 -0.1396  0.1812  0.0466
10970TIP3    H154325   2.575   4.859  10.886 -1.4200  2.0365  2.5432
10970TIP3    H254326   2.594   4.716  10.929 -1.2658  0.7975 -1.2847
10971TIP3   OH254327   5.549   4.159  15.160 -0.4422 -0.5489  0.4557
10971TIP3    H154328   5.578   4.207  15.238  0.0157  0.4354 -0.2973
10971TIP3    H254329   5.464   4.198  15.139 -0.3524 -0.4919  0.1985
10972TIP3   OH254330   5.523   1.445  13.337  0.0084 -0.0678 -0.2152
10972TIP3    H154331   5.600   1.438  13.393 -0.7109  1.1291  0.9987
10972TIP3    H254332   5.449   1.443  13.398 -0.8070  1.3346 -1.1030
10973TIP3   OH254333   5.470   0.259  11.615  0.4721 -0.1235 -0.3861
10973TIP3    H154334   5.565   0.257  11.625  0.3564 -0.5235  0.7411
10973TIP3    H254335   5.436   0.216  11.694 -0.6832  1.4197  0.0157
10974TIP3   OH254336   2.600   2.395  16.039 -0.4973  0.3764  0.0802
10974TIP3    H154337   2.685   2.367  16.073 -1.0767  0.2594  1.4798
10974TIP3    H254338   2.565   2.318  15.995 -0.6898 -0.1691  1.1499
10975TIP3   OH254339   0.245   3.976  15.481  0.1735 -0.1675 -0.1521
10975TIP3    H154340   0.229   4.056  15.530 -1.0389 -0.1319 -0.5619
10975TIP3    H254341   0.297   4.004  15.406  1.1655 -0.0554  0.5604
10976TIP3   OH254342   1.171   3.024   0.007 -0.0776  0.1471  0.3958
10976TIP3    H154343   1.110   3.099   0.009 -0.4360 -0.1519  1.2874
10976TIP3    H254344   1.123   2.954   0.051 -0.6874 -1.3658 -2.4641
10977TIP3   OH254345   1.976   3.361   3.263 -0.2847 -0.2677  0.0259
10977TIP3    H154346   2.046   3.327   3.318  0.4562  1.3069  0.1403
10977TIP3    H254347   1.946   3.440   3.309 -1.3682 -0.3062 -0.5848
10978TIP3   OH254348   4.595   4.599   4.804 -0.2875 -0.2127  0.2818
10978TIP3    H154349   4.527   4.665   4.792  0.1789  0.7938  2.5509
10978TIP3    H254350   4.675   4.642   4.774 -0.2082 -0.2597  0.4230
10979TIP3   OH254351   2.524   3.351   0.099 -0.0763 -0.4052  0.2736
10979TIP3    H154352   2.433   3.358   0.072 -0.2128 -0.4337  0.7129
10979TIP3    H254353   2.572   3.407   0.038 -0.1854 -1.5471 -0.8907
10980TIP3   OH254354   4.027   3.523   1.026  0.6997 -0.4773  0.1454
10980TIP3    H154355   4.030   3.427   1.026  0.8921 -0.5290 -1.9753
10980TIP3    H254356   3.937   3.544   0.999  0.8541 -0.0769 -0.0642
10981TIP3   OH254357   0.393   4.340  15.094 -0.4680 -0.2228 -0.2075
10981TIP3    H154358   0.349   4.263  15.128 -0.8347  1.0932  2.5961
10981TIP3    H254359   0.478   4.342  15.139  0.0924  0.3199 -1.2332
10982TIP3   OH254360   5.111   2.212  13.824 -0.1936  0.3457 -0.0184
10982TIP3    H154361   5.119   2.117  13.816 -2.0384  0.1236  0.3627
10982TIP3    H254362   5.192   2.238  13.868 -0.0420 -1.1610  0.6862
10983TIP3   OH254363   5.379   0.108  11.845  0.2522 -0.1963  0.1947
10983TIP3    H154364   5.357   0.015  11.843 -0.9558  0.0440  1.3469
10983TIP3    H254365   5.300   0.151  11.878  1.3696  1.0546  1.3632
10984TIP3   OH254366   5.361   3.272   4.011 -1.0014 -0.0521  0.0623
10984TIP3    H154367   5.330   3.356   3.974 -0.0612  0.7390  1.0150
10984TIP3    H254368   5.392   3.223   3.935 -1.2693  0.6018 -0.4820
10985TIP3   OH254369   2.394   3.321   3.204  0.0024 -0.1156  0.1566
10985TIP3    H154370   2.423   3.384   3.139 -1.9457  1.3690  0.6252
10985TIP3    H254371   2.378   3.241   3.155 -0.0065  0.5246 -0.9104
10986TIP3   OH254372   3.072   4.586   0.714 -0.4091  0.6437  0.4762
10986TIP3    H154373   3.094   4.556   0.627 -0.0548 -0.4655  0.9380
10986TIP3    H254374   2.984   4.625   0.705 -0.9546 -0.6699 -0.1076
10987TIP3   OH254375   3.855   5.061   0.322 -0.0093 -0.0423 -0.2438
10987TIP3    H154376   3.855   5.128   0.254 -2.7420 -0.1893 -0.5048
10987TIP3    H254377   3.787   5.089   0.383  1.1529 -0.8444  1.5119
10988TIP3   OH254378   1.218   6.434   0.137 -0.0112  0.0338  0.3869
10988TIP3    H154379   1.186   6.369   0.076  1.6126 -0.4487 -0.0072
10988TIP3    H254380   1.192   6.401   0.223  1.6417 -1.7227  0.2815
10989TIP3   OH254381   2.623   4.846   6.012  0.3838 -0.6271 -0.5740
10989TIP3    H154382   2.647   4.895   6.091 -0.5149 -1.1232  0.0202
10989TIP3    H254383   2.688   4.873   5.947 -1.0822  2.7530 -0.8310
10990TIP3   OH254384   5.668   5.368  11.751  0.1903 -0.3528 -0.0838
10990TIP3    H154385   5.745   5.413  11.786 -0.4920  1.2599 -0.5389
10990TIP3    H254386   5.690   5.275  11.757  1.3016 -0.0332  1.7779
10991TIP3   OH254387   5.228   2.528   0.353  0.1950 -0.3543  0.2567
10991TIP3    H154388   5.154   2.510   0.411 -0.7302  0.8414 -0.4848
10991TIP3    H254389   5.294   2.463   0.377 -0.5179 -0.5022  1.9572
10992TIP3   OH254390   2.731   0.928   3.045  0.0001 -0.7579 -0.3436
10992TIP3    H154391   2.715   0.929   2.950  1.3869 -1.9504 -0.6286
10992TIP3    H254392   2.825   0.918   3.053  0.0603  0.6651  1.2088
10993TIP3   OH254393   3.657   4.151  12.178  0.4191  0.0995 -0.4042
10993TIP3    H154394   3.700   4.220  12.128  0.0630  0.1383 -0.6634
10993TIP3    H254395   3.569   4.185  12.194  0.4297 -0.0515 -0.0337
10994TIP3   OH254396   3.263   4.545  10.705 -0.3602  0.3881  0.2862
10994TIP3    H154397   3.177   4.586  10.715 -0.4474  0.7986 -1.7574
10994TIP3    H254398   3.324   4.619  10.699 -0.0506  0.1284  0.2007
10995TIP3   OH254399   4.360   2.359  12.531  1.0228  0.1464 -0.7700
10995TIP3    H154400   4.443   2.352  12.578 -0.3560  0.2588  1.8654
10995TIP3    H254401   4.313   2.431  12.575 -2.4696 -3.0695  1.3659
10996TIP3   OH254402   4.837   0.855  12.939  0.2881  0.1491 -0.0085
10996TIP3    H154403   4.758   0.888  12.897  0.5373 -0.1768 -0.7526
10996TIP3    H254404   4.857   0.919  13.007 -0.5490  0.2940  0.1112
10997TIP3   OH254405   2.513   2.135   5.604 -0.3505  0.0419 -0.7598
10997TIP3    H154406   2.421   2.116   5.585  0.1543 -2.6052 -0.9325
10997TIP3    H254407   2.539   2.067   5.667  1.5254  0.6455 -0.8223
10998TIP3   OH254408   4.306   0.296  12.783  0.0042  0.5963  0.0994
10998TIP3    H154409   4.287   0.372  12.727 -0.6785 -0.0936 -0.6121
10998TIP3    H254410   4.221   0.269  12.817  0.0244 -0.8138 -0.9159
10999TIP3   OH254411   2.858   4.934   5.152 -0.0138  0.3694  0.0308
10999TIP3    H154412   2.853   5.005   5.087 -0.6008  0.5589  0.2778
10999TIP3    H254413   2.770   4.896   5.153  0.6617 -1.3521 -1.1799
11000TIP3   OH254414   2.369   2.090  11.748  1.0083  0.0997 -0.2318
11000TIP3    H154415   2.374   2.163  11.809 -2.2340  0.5836 -0.3391
11000TIP3    H254416   2.380   2.012  11.803  1.0454  0.6015  0.4898
11001TIP3   OH254417   1.394   3.824  17.341  0.5291 -0.0178  0.3029
11001TIP3    H154418   1.394   3.775  17.258  1.3843  2.2674 -1.1479
11001TIP3    H254419   1.486   3.829  17.366  0.4305  0.6267  0.5521
11002TIP3   OH254420   0.057   6.160   5.869 -0.3027  0.0225 -0.3760
11002TIP3    H154421   0.060   6.169   5.774  0.0653  0.6392 -0.3139
11002TIP3    H254422  -0.035   6.148   5.889 -0.1997 -2.1214 -0.9684
11003TIP3   OH254423   6.320   4.910   6.203 -0.4867 -0.6637 -0.6344
11003TIP3    H154424   6.244   4.941   6.154  0.2947  1.5028 -0.5810
11003TIP3    H254425   6.385   4.888   6.136 -0.4577 -0.5538 -0.6427
11004TIP3   OH254426   2.802   2.782   4.422  0.3382 -0.0619  0.3279
11004TIP3    H154427   2.743   2.728   4.368 -1.2118 -0.1962  2.0438
11004TIP3    H254428   2.813   2.862   4.372 -0.1222 -0.6221 -0.7105
11005TIP3   OH254429   4.766   5.033  12.738 -0.1798  0.4019 -0.1438
11005TIP3    H154430   4.841   5.030  12.679  0.7959 -0.2691  1.0654
11005TIP3    H254431   4.801   5.000  12.822 -2.0749 -0.9360  0.1737
11006TIP3   OH254432   6.168   1.286   5.985  0.2641  0.1875  0.0563
11006TIP3    H154433   6.246   1.335   6.012  0.8769  0.4676 -2.0606
11006TIP3    H254434   6.137   1.244   6.066  1.9565  0.9613  1.1608
11007TIP3   OH254435   1.752   6.093   5.469  0.0949 -0.1118 -0.2583
11007TIP3    H154436   1.658   6.097   5.482  0.2292  0.9520  0.4977
11007TIP3    H254437   1.785   6.176   5.504  1.3885 -0.7736  0.1569
11008TIP3   OH254438   3.213   2.598  16.334  0.6883 -0.4547 -0.7026
11008TIP3    H154439   3.235   2.635  16.248  0.2582 -0.8661 -0.9920
11008TIP3    H254440   3.150   2.660  16.371  1.8291  0.3988 -0.1313
11009TIP3   OH254441   3.848   4.129  15.354  0.7398 -0.5808  0.8033
11009TIP3    H154442   3.923   4.081  15.319  0.8649  0.1526  0.0480
11009TIP3    H254443   3.801   4.162  15.277  2.0932  2.7056  1.2222
11010TIP3   OH254444   2.838   2.266   3.735  0.0466  0.1128  0.7295
11010TIP3    H154445   2.784   2.237   3.662 -0.1011 -2.1759  1.6819
11010TIP3    H254446   2.782   2.326   3.784 -0.6785 -0.1886  0.2754
11011TIP3   OH254447   0.500   2.138   1.326 -0.1091  0.3446 -0.0796
11011TIP3    H154448   0.405   2.152   1.329 -0.0778  0.4875  0.2851
11011TIP3    H254449   0.534   2.211   1.275 -0.2771 -0.1375 -0.8899
11012TIP3   OH254450   0.229   2.521  12.742  0.1000 -0.2688  0.2347
11012TIP3    H154451   0.214   2.504  12.649 -0.2405  0.6804  0.1021
11012TIP3    H254452   0.156   2.577  12.768  0.7059  0.2536  0.8406
11013TIP3   OH254453   2.850   0.616   3.929  0.1560  0.3779 -0.1375
11013TIP3    H154454   2.786   0.566   3.879 -0.9008  1.5994 -0.0287
11013TIP3    H254455   2.925   0.556   3.937 -1.3282 -1.5022  0.6352
11014TIP3   OH254456   6.367   3.273   0.151  0.3783  0.0134 -0.1532
11014TIP3    H154457   6.435   3.317   0.100  0.9054 -0.3671  0.2027
11014TIP3    H254458   6.296   3.336   0.157  1.1893  0.8963  0.5064
11015TIP3   OH254459   4.857   1.494   2.696 -0.2931  0.5095 -0.1885
11015TIP3    H154460   4.774   1.541   2.686 -1.0697 -0.4013  1.6242
11015TIP3    H254461   4.833   1.410   2.734  1.5213  0.5086  1.1019
11016TIP3   OH254462   0.533   5.757   0.841 -0.7072  0.1160  0.2898
11016TIP3    H154463   0.579   5.788   0.763 -1.2869  0.1754 -0.0302
11016TIP3    H254464   0.572   5.671   0.860 -0.3608  0.2352  0.1129
11017TIP3   OH254465   6.511   1.831  11.620 -0.0435  0.1963  0.0962
11017TIP3    H154466   6.523   1.757  11.560  0.5009 -0.0882  0.5423
11017TIP3    H254467   6.491   1.905  11.563 -2.6098 -0.6587 -0.2643
11018TIP3   OH254468   2.062   3.887   3.506 -0.4803  0.4987  0.1438
11018TIP3    H154469   2.037   3.978   3.490 -0.0673  0.4782 -0.6912
11018TIP3    H254470   2.121   3.891   3.582 -0.4189  0.9396  0.0769
11019TIP3   OH254471   3.050   0.496  14.895  0.1213  0.3311 -0.0986
11019TIP3    H154472   3.000   0.522  14.972 -1.0564 -2.3472  0.1334
11019TIP3    H254473   2.994   0.519  14.821  0.8563  2.0515 -0.1682
11020TIP3   OH254474   1.317   1.359   2.089 -0.5527  0.4327 -0.0681
11020TIP3    H154475   1.353   1.445   2.072 -0.0168  0.0846 -0.7312
11020TIP3    H254476   1.229   1.361   2.050 -0.9510  0.9998  0.8136
11021TIP3   OH254477   6.092   5.549  12.500 -0.0245  0.2397  0.1041
11021TIP3    H154478   6.148   5.625  12.522  0.0883  0.4411 -0.8417
11021TIP3    H254479   6.024   5.585  12.443 -1.0994 -0.0211  1.1862
11022TIP3   OH254480   1.715   2.294  16.553 -0.0257 -0.7647  0.2528
11022TIP3    H154481   1.633   2.250  16.576 -1.7171  1.7421 -0.5558
11022TIP3    H254482   1.693   2.387  16.554  3.4215  0.2154  2.2511
11023TIP3   OH254483   2.147   1.854  14.882  0.6019 -0.0906  0.2819
11023TIP3    H154484   2.196   1.783  14.924  0.7825 -0.4886 -0.5772
11023TIP3    H254485   2.101   1.812  14.809  1.1578  0.7519 -0.5878
11024TIP3   OH254486   1.006   6.277  12.350 -0.5956  0.1970 -0.4825
11024TIP3    H154487   0.951   6.236  12.284  0.3779 -1.1342 -0.5038
11024TIP3    H254488   0.975   6.241  12.433 -0.3015  0.0817 -0.4228
11025TIP3   OH254489   3.295   4.061   1.723  0.2023 -0.3237  0.3498
11025TIP3    H154490   3.327   4.047   1.634 -0.7655  0.8938 -0.2266
11025TIP3    H254491   3.322   3.983   1.771  0.0662 -1.3720 -1.2059
11026TIP3   OH254492   5.786   1.933   5.877  0.3155  0.6788  0.1146
11026TIP3    H154493   5.848   1.940   5.950  0.4301  0.7502  0.0100
11026TIP3    H254494   5.730   1.859   5.901 -0.9450  1.9397  1.2584
11027TIP3   OH254495   2.965   5.643   1.585 -0.4179  0.0704 -1.1772
11027TIP3    H154496   2.881   5.623   1.626  0.3779 -0.9129  0.0431
11027TIP3    H254497   2.952   5.622   1.493 -1.5969  0.2542 -1.0720
11028TIP3   OH254498   3.383   3.790  14.317  0.4897  0.2507  0.3001
11028TIP3    H154499   3.288   3.799  14.309  0.4370 -0.6782 -0.2324
11028TIP3    H254500   3.416   3.819  14.232  0.5479 -1.1546 -0.1758
11029TIP3   OH254501   3.167   5.484  16.639 -0.0861  0.5674 -0.0936
11029TIP3    H154502   3.256   5.449  16.641 -0.2876 -0.1633 -1.9890
11029TIP3    H254503   3.180   5.579  16.627  0.4550  0.4750 -0.2958
11030TIP3   OH254504   5.475   5.413   0.311 -0.5984  0.0564  0.0958
11030TIP3    H154505   5.427   5.463   0.246 -1.0949  1.5739  1.5554
11030TIP3    H254506   5.515   5.341   0.262 -0.4879  1.4425 -1.9539
11031TIP3   OH254507   1.318   4.695  13.764  0.0632  0.0225 -0.2248
11031TIP3    H154508   1.324   4.755  13.838  0.5713  1.7827 -1.6171
11031TIP3    H254509   1.389   4.631  13.778  0.1080  0.2918  0.8165
11032TIP3   OH254510   1.765   2.394   0.119  0.2048 -0.3124  0.6789
11032TIP3    H154511   1.782   2.480   0.158  2.0534 -0.1025 -0.4520
11032TIP3    H254512   1.714   2.347   0.186  1.2419  0.8220  2.3515
11033TIP3   OH254513   2.635   6.052   1.010 -0.0492 -0.3004  0.3268
11033TIP3    H154514   2.658   5.960   1.015  0.2356 -0.3356 -1.2078
11033TIP3    H254515   2.715   6.098   1.035  0.0034 -0.4566  0.4498
11034TIP3   OH254516   4.143   5.943  13.288  0.2290  0.1099 -0.2750
11034TIP3    H154517   4.213   5.948  13.223  1.2872 -0.6530  0.7680
11034TIP3    H254518   4.115   6.034  13.299  1.6377  0.5519 -0.1019
11035TIP3   OH254519   4.943   4.023   1.538  0.0950  0.6301  0.2683
11035TIP3    H154520   4.888   3.966   1.592 -0.2831  1.1133  0.4017
11035TIP3    H254521   4.964   4.098   1.595 -0.2584  1.1165 -0.2273
11036TIP3   OH254522   4.664   6.744   0.781 -0.2060  0.2520  0.4587
11036TIP3    H154523   4.705   6.685   0.718 -1.2947  0.5723 -0.5821
11036TIP3    H254524   4.600   6.793   0.730 -1.2020  0.4473  1.8437
11037TIP3   OH254525   1.140   4.923   4.674 -0.1527 -0.5930  0.7887
11037TIP3    H154526   1.210   4.967   4.625 -0.5690 -0.8224 -0.0253
11037TIP3    H254527   1.076   4.992   4.692  0.1133 -0.4576  1.2281
11038TIP3   OH254528   3.705   4.877  15.916 -0.3748 -0.4309 -0.0258
11038TIP3    H154529   3.739   4.815  15.981  0.2102  0.4378  0.5077
11038TIP3    H254530   3.692   4.824  15.837 -0.1322 -1.2892  0.5000
11039TIP3   OH254531   6.019   4.653  15.453  0.0489 -0.3100 -0.3022
11039TIP3    H154532   5.996   4.598  15.527 -0.0258 -1.1937 -0.9618
11039TIP3    H254533   5.996   4.600  15.376 -2.3694  1.5706 -1.0042
11040TIP3   OH254534   1.830   1.212   4.277  0.1907  0.3073 -0.3943
11040TIP3    H154535   1.888   1.205   4.201  1.9894  1.1988  0.8276
11040TIP3    H254536   1.836   1.303   4.304  0.8672 -0.3030  1.7289
11041TIP3   OH254537   5.666   3.504   5.160  0.1240  0.0057  0.3309
11041TIP3    H154538   5.735   3.564   5.131  0.9300 -0.4445  1.2576
11041TIP3    H254539   5.628   3.471   5.079 -2.4364  3.9678 -0.3966
11042TIP3   OH254540   3.087   6.442  13.551 -0.3232  0.2691 -0.2877
11042TIP3    H154541   3.035   6.485  13.618  0.6992 -0.4324  0.9948
11042TIP3    H254542   3.063   6.488  13.470 -1.4240  1.2768  0.5633
11043TIP3   OH254543   0.075   5.833  13.354  0.1017 -0.1608 -0.2570
11043TIP3    H154544   0.122   5.829  13.437  0.1720 -1.6955 -0.3511
11043TIP3    H254545   0.100   5.918  13.317  0.9553  0.0557  0.7658
11044TIP3   OH254546   4.681   6.293   2.305 -0.0319 -0.0820  0.5185
11044TIP3    H154547   4.645   6.291   2.216  2.0493 -0.2309 -0.3713
11044TIP3    H254548   4.724   6.208   2.315 -1.3969 -0.6375  2.2207
11045TIP3   OH254549   0.395   6.385  10.647 -0.4087  0.1257 -0.3281
11045TIP3    H154550   0.308   6.401  10.611 -0.8530  0.5937  0.9324
11045TIP3    H254551   0.445   6.463  10.625 -0.5727  0.2507 -0.2578
11046TIP3   OH254552   5.602   4.727   0.428  0.0413 -0.0994 -0.0986
11046TIP3    H154553   5.639   4.640   0.422 -0.3873 -0.1993 -2.1645
11046TIP3    H254554   5.624   4.769   0.344  1.3348  2.2614  1.3016
11047TIP3   OH254555   4.065   4.115  14.053  0.1773 -1.0056  0.2707
11047TIP3    H154556   4.037   4.205  14.071 -1.2608 -1.5582  1.0104
11047TIP3    H254557   4.115   4.120  13.972  0.8738  0.5836  0.7713
11048TIP3   OH254558   6.688   0.732  13.249  0.2397  0.1020  0.1361
11048TIP3    H154559   6.607   0.684  13.266 -1.2645  2.5424  0.3011
11048TIP3    H254560   6.664   0.824  13.255  2.9041  0.9476 -0.5008
11049TIP3   OH254561   1.990   2.002   5.573  0.4274  0.6160  0.8218
11049TIP3    H154562   1.977   1.930   5.511 -2.1341  0.2535  1.6452
11049TIP3    H254563   2.025   1.960   5.651 -0.5325  0.3183  1.1068
11050TIP3   OH254564   1.796   6.339  17.037  0.1654  0.0248 -0.1208
11050TIP3    H154565   1.801   6.244  17.031  1.0298  0.0231  0.4381
11050TIP3    H254566   1.795   6.357  17.131  1.3594  0.6099 -0.1915
11051TIP3   OH254567   2.241   0.186   2.199  1.1479 -0.4507 -0.0075
11051TIP3    H154568   2.287   0.235   2.131  1.7049  0.8438  1.2399
11051TIP3    H254569   2.158   0.160   2.159  2.0426 -0.9459 -1.5973
11052TIP3   OH254570   4.982   0.286  14.218 -0.1611  0.5703 -0.1455
11052TIP3    H154571   5.042   0.212  14.229  1.8266  2.0740 -0.4453
11052TIP3    H254572   4.959   0.311  14.308  0.2884  0.4648  0.0009
11053TIP3   OH254573   6.557   3.068   1.686  0.0641  0.0437  0.3096
11053TIP3    H154574   6.479   3.038   1.732 -0.7065  0.3906 -0.7472
11053TIP3    H254575   6.604   3.122   1.750 -1.3715  1.1448  0.4686
11054TIP3   OH254576   2.787   3.566  15.670 -0.4198 -0.0410 -0.1707
11054TIP3    H154577   2.705   3.588  15.627 -1.2123  3.5557  2.6638
11054TIP3    H254578   2.832   3.650  15.681  1.4253 -1.2304  2.4761
11055TIP3   OH254579   0.945   2.404  16.856  0.4289  0.0094 -0.0932
11055TIP3    H154580   0.989   2.447  16.929  0.1089 -0.9377  0.6868
11055TIP3    H254581   0.997   2.427  16.779  0.9404  0.7877  0.4687
11056TIP3   OH254582   1.960   4.234  13.635 -0.3130  0.2826  0.3310
11056TIP3    H154583   2.012   4.186  13.700 -0.7419  2.0564  2.0639
11056TIP3    H254584   1.977   4.188  13.553  2.2981 -0.5033  1.2045
11057TIP3   OH254585   5.595   0.799   1.706  0.2073  0.4732 -0.8158
11057TIP3    H154586   5.617   0.875   1.760  0.7293  0.9012 -1.6114
11057TIP3    H254587   5.675   0.779   1.657 -0.7909  1.4178 -3.0025
11058TIP3   OH254588   2.528   3.638   5.772 -0.1623  0.5202  0.0338
11058TIP3    H154589   2.597   3.648   5.706 -0.1691 -1.1963 -0.3048
11058TIP3    H254590   2.556   3.691   5.846  0.9179  0.7985 -0.5565
11059TIP3   OH254591   0.784   6.123   4.198  0.3522 -0.2309 -0.3982
11059TIP3    H154592   0.801   6.061   4.269 -0.3495  1.1957  1.0749
11059TIP3    H254593   0.871   6.142   4.162  1.0308  0.7645  1.6325
11060TIP3   OH254594   6.418   5.426   2.734 -0.0600  0.1727  0.0892
11060TIP3    H154595   6.497   5.472   2.704  0.5655 -2.0286 -1.8787
11060TIP3    H254596   6.373   5.490   2.789  2.4457  1.9423  0.2461
11061TIP3   OH254597   6.380   3.165  13.471  0.4495 -0.0691  0.2109
11061TIP3    H154598   6.387   3.258  13.446  1.2824 -0.4272 -0.9620
11061TIP3    H254599   6.286   3.152  13.486  0.1104  0.6087 -1.1318
11062TIP3   OH254600   5.128   6.736   4.005  0.1342 -0.3067  0.4299
11062TIP3    H154601   5.120   6.741   3.910 -0.1229  1.1524  0.4991
11062TIP3    H254602   5.157   6.647   4.023  2.7655  0.1121 -1.2094
11063TIP3   OH254603   1.797   6.205   2.960  0.5740  0.2874  0.2746
11063TIP3    H154604   1.779   6.289   3.001 -1.0401 -0.9224  2.3001
11063TIP3    H254605   1.712   6.178   2.924  1.1969 -0.2294 -0.8339
11064TIP3   OH254606   1.347   3.136  11.809 -0.2441 -0.2796  0.6292
11064TIP3    H154607   1.357   3.094  11.723  1.0523 -1.2805  1.2279
11064TIP3    H254608   1.423   3.194  11.816 -0.6863  0.2744  0.8427
11065TIP3   OH254609   5.400   4.366  14.362  0.2617 -0.0449  0.3821
11065TIP3    H154610   5.407   4.271  14.368 -2.7268 -0.3863  0.1268
11065TIP3    H254611   5.407   4.397  14.453  0.3203 -0.6209  0.5735
11066TIP3   OH254612   4.564   1.962   5.137  0.0300  0.7708 -0.1013
11066TIP3    H154613   4.548   1.879   5.181  0.0307  0.1022 -1.3126
11066TIP3    H254614   4.476   1.996   5.118 -0.0004  1.8354  1.7660
11067TIP3   OH254615   2.528   5.943   2.392 -0.1338  0.1335  0.5147
11067TIP3    H154616   2.468   5.997   2.444 -0.5209 -0.2904  0.5138
11067TIP3    H254617   2.572   5.888   2.456  1.1791  1.2980  0.6619
11068TIP3   OH254618   1.443   3.636  14.963  0.3403  0.8525 -0.4021
11068TIP3    H154619   1.376   3.685  15.011  0.5357  0.8379 -0.1131
11068TIP3    H254620   1.398   3.557  14.934  0.5298  0.3027  0.7615
11069TIP3   OH254621   4.631   4.117   1.060 -0.3432 -0.3346  0.0198
11069TIP3    H154622   4.632   4.098   1.154  2.1567  0.3071  0.1694
11069TIP3    H254623   4.721   4.107   1.032 -0.8356  0.6054 -2.1024
11070TIP3   OH254624   0.452   5.382   5.793 -0.2544 -0.1809 -0.5066
11070TIP3    H154625   0.456   5.434   5.873  0.6766  0.5951 -1.0363
11070TIP3    H254626   0.488   5.439   5.725  0.9789 -1.5708 -1.0788
11071TIP3   OH254627   0.232   1.711   2.639  0.2243 -0.1365  0.5122
11071TIP3    H154628   0.191   1.630   2.672  0.5812  0.2548  1.9804
11071TIP3    H254629   0.255   1.691   2.548 -0.5388 -1.3672  0.5685
11072TIP3   OH254630   5.009   5.148  16.989  0.0618  0.1570 -0.2505
11072TIP3    H154631   5.061   5.093  17.048  0.1476  0.5418  0.0401
11072TIP3    H254632   4.943   5.089  16.953  0.5672 -0.2863 -0.4568
11073TIP3   OH254633   5.190   5.219   3.991 -0.0702 -0.1602  0.3812
11073TIP3    H154634   5.144   5.234   3.909 -1.9244  1.5140  1.6325
11073TIP3    H254635   5.210   5.307   4.024  0.5883 -0.7918  1.7610
11074TIP3   OH254636   3.623   2.105  12.782 -0.1249  0.7008  0.1036
11074TIP3    H154637   3.573   2.068  12.855  1.1714 -0.3487  0.5076
11074TIP3    H254638   3.674   2.031  12.749  0.5463  1.5487 -0.8153
11075TIP3   OH254639   4.885   0.479   2.760  0.6282  0.0229 -0.6185
11075TIP3    H154640   4.862   0.436   2.842  1.3258  1.6878  0.5088
11075TIP3    H254641   4.977   0.457   2.747  0.5687 -0.0855 -0.8507
11076TIP3   OH254642   5.177   0.278   0.890 -0.2511 -0.1846  0.9932
11076TIP3    H154643   5.120   0.352   0.866 -0.7326 -0.3668  1.5676
11076TIP3    H254644   5.144   0.249   0.975  1.6975  0.7250  2.1286
11077TIP3   OH254645   5.176   0.039  14.765 -0.1896  0.4386 -0.5327
11077TIP3    H154646   5.190   0.133  14.770  0.0977  0.3367  1.2286
11077TIP3    H254647   5.082   0.027  14.779 -0.2724  0.4713 -1.0425
11078TIP3   OH254648   6.314   4.396  17.049  0.4475  0.4300  0.0827
11078TIP3    H154649   6.262   4.329  17.003  2.5670 -0.1604 -1.6385
11078TIP3    H254650   6.323   4.363  17.138 -2.5275  0.8485  0.6385
11079TIP3   OH254651   1.005   5.897  15.772  0.7795  0.2971  0.3164
11079TIP3    H154652   0.961   5.980  15.789  0.0062 -0.1051  0.3199
11079TIP3    H254653   0.955   5.857  15.700  0.3557 -0.7393  1.1579
11080TIP3   OH254654   4.154   4.712  13.667  0.3484  0.6166 -0.6845
11080TIP3    H154655   4.240   4.674  13.649  0.5652  1.2102 -0.9438
11080TIP3    H254656   4.173   4.796  13.708 -0.1336 -0.6251  2.3434
11081TIP3   OH254657   1.839   2.293  16.289 -0.0793  0.5002  0.3136
11081TIP3    H154658   1.755   2.298  16.243 -0.7008 -0.9517  1.2321
11081TIP3    H254659   1.815   2.271  16.379  1.0793  3.3947  1.4637
11082TIP3   OH254660   6.309   0.023  11.293 -0.0590 -0.2860 -0.5681
11082TIP3    H154661   6.313  -0.066  11.329 -1.0439  0.1910  0.8256
11082TIP3    H254662   6.235   0.063  11.338 -1.1976  0.4822 -2.9699
11083TIP3   OH254663   0.894   6.392  11.677  0.3776 -0.6597  0.0972
11083TIP3    H154664   0.832   6.465  11.685  2.0465  1.0546 -1.4271
11083TIP3    H254665   0.910   6.363  11.767 -0.4597  0.7511  0.7331
11084TIP3   OH254666   6.440   5.058   1.823  0.0107  0.0320  0.0194
11084TIP3    H154667   6.449   5.035   1.731  0.3838  1.2381 -0.2569
11084TIP3    H254668   6.371   5.000   1.855 -1.8192  1.2079 -1.6058
11085TIP3   OH254669   0.774   2.252  11.694 -0.0084 -0.6528 -0.6232
11085TIP3    H154670   0.758   2.173  11.744 -1.3746 -1.6219 -2.4978
11085TIP3    H254671   0.870   2.259  11.691  0.1193 -1.0265  1.3024
11086TIP3   OH254672   4.981   3.827   4.947 -0.6034 -0.5185  0.8593
11086TIP3    H154673   4.949   3.747   4.989  0.7362 -1.5405  0.0036
11086TIP3    H254674   4.911   3.851   4.885 -0.8911 -1.1870  0.9149
11087TIP3   OH254675   4.509   6.499   0.667  0.2781 -0.2519  0.7694
11087TIP3    H154676   4.477   6.527   0.753  0.4166 -0.0954  0.7711
11087TIP3    H254677   4.447   6.432   0.639  1.5645 -2.0590  2.0441
11088TIP3   OH254678   0.206   6.675  15.884  0.6644 -0.0592  0.3946
11088TIP3    H154679   0.174   6.713  15.966  2.0172 -0.9124  1.3709
11088TIP3    H254680   0.131   6.678  15.825 -0.1341  1.2512  1.4246
11089TIP3   OH254681   3.913   1.744  12.205  0.1125 -0.0223  0.1721
11089TIP3    H154682   3.857   1.700  12.270  1.0488 -1.1000  0.2895
11089TIP3    H254683   3.900   1.693  12.124  0.3359  0.1903  0.0009
11090TIP3   OH254684   3.110   5.652  12.297  0.1464 -0.4926 -0.1050
11090TIP3    H154685   3.205   5.642  12.290  0.1193 -1.1466  0.3582
11090TIP3    H254686   3.083   5.688  12.213  0.7019 -1.1348 -0.5675
11091TIP3   OH254687   2.937   2.142  11.924 -0.0990  0.1638 -0.0574
11091TIP3    H154688   2.968   2.210  11.984  2.2707 -1.3512  0.6065
11091TIP3    H254689   3.001   2.071  11.934 -1.7265 -1.6486 -1.6584
11092TIP3   OH254690   6.093   3.525   1.943 -0.0830  0.4128 -0.7769
11092TIP3    H154691   6.161   3.516   1.876  2.9747 -2.0779  2.2861
11092TIP3    H254692   6.051   3.439   1.946  1.0480 -0.1417  1.5051
11093TIP3   OH254693   2.548   1.854  11.130 -0.2230 -0.3931  0.8710
11093TIP3    H154694   2.562   1.901  11.213 -0.4236  1.3595 -0.0266
11093TIP3    H254695   2.453   1.845  11.125 -0.3522  1.1221  0.0327
11094TIP3   OH254696   2.996   3.277   5.506  0.2543  0.3086  0.2095
11094TIP3    H154697   2.910   3.300   5.541 -0.2714  1.8198 -1.8489
11094TIP3    H254698   3.058   3.304   5.574 -0.8493 -0.6859  1.6640
11095TIP3   OH254699   4.437   0.939  14.724 -0.0533 -0.0882  0.4284
11095TIP3    H154700   4.362   0.983  14.684  0.0955  1.4034  1.7338
11095TIP3    H254701   4.400   0.857  14.759 -0.6946 -0.2019 -0.4689
11096TIP3   OH254702   1.213   4.111  16.457 -0.3098  0.3064  0.0803
11096TIP3    H154703   1.211   4.165  16.378  0.0014 -0.5558 -0.5350
11096TIP3    H254704   1.166   4.163  16.523 -3.5296 -0.2737 -1.5453
11097TIP3   OH254705   0.106   4.816   0.745 -0.0558  0.8201 -0.5433
11097TIP3    H154706   0.113   4.771   0.661 -0.2375 -2.2310  0.9190
11097TIP3    H254707   0.194   4.810   0.783  0.2015  2.7787 -0.7017
11098TIP3   OH254708   4.236   2.506   4.372 -0.7264 -0.4137  0.3785
11098TIP3    H154709   4.261   2.594   4.344 -0.3345 -0.3919  0.7832
11098TIP3    H254710   4.317   2.456   4.372 -1.1574 -1.1868 -1.2600
11099TIP3   OH254711   2.840   3.541  10.598  0.0641  0.3658 -0.2248
11099TIP3    H154712   2.851   3.581  10.684 -0.4986  1.1881 -0.5301
11099TIP3    H254713   2.902   3.467  10.598 -1.0682 -0.6631  1.4958
11100TIP3   OH254714   4.186   3.668  11.595  0.2469 -0.0016  0.7496
11100TIP3    H154715   4.213   3.745  11.647  3.3210  0.4626 -1.3085
11100TIP3    H254716   4.111   3.699  11.544  1.6537  1.8523 -0.3142
11101TIP3   OH254717   1.735   5.620  14.101 -0.2185 -0.0089  0.1543
11101TIP3    H154718   1.681   5.572  14.163 -0.3206 -2.3653 -1.6031
11101TIP3    H254719   1.695   5.602  14.016  1.7609  0.4222 -0.9297
11102TIP3   OH254720   6.167   4.370  16.445 -0.6148  0.0437 -0.3351
11102TIP3    H154721   6.216   4.415  16.376 -1.7843  1.3064 -0.3934
11102TIP3    H254722   6.083   4.349  16.404 -1.9156  2.1489  1.0746
11103TIP3   OH254723   3.884   1.413  14.474 -0.0749  0.3873 -0.4257
11103TIP3    H154724   3.909   1.475  14.406  0.4769  0.8240  0.1626
11103TIP3    H254725   3.963   1.401  14.527 -0.4926  0.0632  0.1408
11104TIP3   OH254726   1.152   1.228   3.394  0.5901  0.2361 -0.0269
11104TIP3    H154727   1.234   1.208   3.440  2.2247 -1.4072 -3.3321
11104TIP3    H254728   1.102   1.146   3.399 -0.0673  0.6617  0.4417
11105TIP3   OH254729   2.034   3.436   0.432  0.2993  0.0974  0.0739
11105TIP3    H154730   1.950   3.419   0.390 -1.3151 -0.4291  3.1571
11105TIP3    H254731   2.035   3.376   0.507  2.5436  1.4590  1.2441
11106TIP3   OH254732   2.763   4.068   4.498  0.1470 -0.3135  0.1826
11106TIP3    H154733   2.678   4.069   4.453  0.0487  1.7983  0.3345
11106TIP3    H254734   2.744   4.028   4.583 -0.8939  0.7954  0.5009
11107TIP3   OH254735   6.578   3.616  17.304 -0.1051 -0.1423 -0.5664
11107TIP3    H154736   6.556   3.531  17.265  1.1244 -0.2948 -0.9772
11107TIP3    H254737   6.499   3.641  17.353 -0.6841 -1.2545 -0.8858
11108TIP3   OH254738   4.477   5.855  14.430  0.2499 -0.8172  0.0499
11108TIP3    H154739   4.511   5.943  14.413 -1.5240  0.2601  1.7169
11108TIP3    H254740   4.541   5.815  14.488  0.7119 -0.3640 -0.1432
11109TIP3   OH254741   1.596   6.742  13.964 -0.4948  0.2234 -0.3982
11109TIP3    H154742   1.613   6.678  14.033 -1.0489  0.7024  0.2063
11109TIP3    H254743   1.551   6.814  14.009  1.2719  1.6548 -0.7547
11110TIP3   OH254744   0.434   6.024  11.198 -0.1845  0.0312 -0.1152
11110TIP3    H154745   0.521   6.023  11.237  0.3106  2.2406 -1.0029
11110TIP3    H254746   0.444   5.975  11.116 -0.1818 -0.9864  0.4765
11111TIP3   OH254747   1.496   5.844   0.026 -0.6096  0.2246 -1.0004
11111TIP3    H154748   1.415   5.836   0.077 -0.4920 -0.7187 -0.9586
11111TIP3    H254749   1.470   5.819  -0.063 -0.1736 -0.9676 -0.8062
11112TIP3   OH254750   4.543   3.964   2.527  0.2664 -0.0841  0.0869
11112TIP3    H154751   4.618   4.021   2.509  0.1102  0.1958  0.3245
11112TIP3    H254752   4.541   3.956   2.622  0.7916 -1.1679  0.0159
11113TIP3   OH254753   4.855   0.098  12.691 -0.2262 -0.0883  0.0603
11113TIP3    H154754   4.822   0.179  12.731  0.9561 -0.6755  2.4290
11113TIP3    H254755   4.801   0.029  12.729 -2.0728 -0.4239 -2.9016
11114TIP3   OH254756   1.947   6.498   5.131 -0.4633  0.4791 -0.0375
11114TIP3    H154757   1.925   6.483   5.039 -2.2222  1.1765  0.2289
11114TIP3    H254758   1.938   6.592   5.143  1.5484  0.6406  0.4447
11115TIP3   OH254759   4.623   5.834   1.776  0.4735 -0.2359  0.6827
11115TIP3    H154760   4.565   5.771   1.733  0.2046 -0.5520  1.4881
11115TIP3    H254761   4.665   5.880   1.704  1.4407 -2.0225  0.0342
11116TIP3   OH254762   1.337   1.438  13.428  0.1874 -0.1605  0.1681
11116TIP3    H154763   1.395   1.465  13.356 -0.8517 -0.3245 -0.7585
11116TIP3    H254764   1.393   1.387  13.486  1.7057  2.1677  0.8716
11117TIP3   OH254765   4.301   1.694  16.780 -0.1703 -0.0336 -0.6080
11117TIP3    H154766   4.381   1.733  16.815 -0.6866 -1.7811  2.9731
11117TIP3    H254767   4.330   1.615  16.734  0.2554  0.0050 -0.4088
11118TIP3   OH254768   5.952   0.164   5.833  0.1456 -0.4214 -0.2675
11118TIP3    H154769   5.899   0.228   5.785  1.2210  0.4593 -0.3157
11118TIP3    H254770   5.945   0.192   5.925  0.4787 -0.3392 -0.2672
11119TIP3   OH254771   3.232   2.340  16.472 -0.0160 -0.2337  0.0741
11119TIP3    H154772   3.168   2.282  16.430 -1.0322  0.7199  0.2715
11119TIP3    H254773   3.232   2.418  16.417  1.4644 -0.4439 -0.2805
11120TIP3   OH254774   2.934   1.677   4.874 -0.0766 -0.8757 -0.3642
11120TIP3    H154775   2.970   1.764   4.892  0.2507 -0.7449 -1.5604
11120TIP3    H254776   2.847   1.693   4.839  0.4201 -0.9264 -1.7143
11121TIP3   OH254777   6.226   0.043  15.442 -0.0296  0.3328  0.3293
11121TIP3    H154778   6.267   0.017  15.360  2.8371  1.5777  1.2397
11121TIP3    H254779   6.166  -0.029  15.463 -0.2192 -0.4001 -2.3834
11122TIP3   OH254780   2.720   4.705   1.814 -0.2079  0.4607  0.3583
11122TIP3    H154781   2.807   4.692   1.777  0.3387  0.0614  1.7115
11122TIP3    H254782   2.660   4.671   1.748  0.7812 -1.3571  0.3327
11123TIP3   OH254783   1.903   1.676  10.832  0.6336  0.0779 -0.2162
11123TIP3    H154784   1.873   1.691  10.742  3.9629  3.1677 -1.0519
11123TIP3    H254785   1.863   1.748  10.882  0.4289 -0.4351  0.3650
11124TIP3   OH254786   4.280   1.785   0.856  0.1707 -0.0409 -0.2103
11124TIP3    H154787   4.341   1.787   0.782 -0.9789  2.3130 -1.2147
11124TIP3    H254788   4.222   1.712   0.837 -0.0446  0.4697 -1.6019
11125TIP3   OH254789   2.567   0.612  17.191 -0.1090 -0.8926 -0.1844
11125TIP3    H154790   2.507   0.673  17.147  0.3437 -1.5375 -1.7727
11125TIP3    H254791   2.654   0.642  17.166  0.2219 -0.6082  1.2323
11126TIP3   OH254792   2.912   4.035   1.640  0.0908  0.6650  0.3877
11126TIP3    H154793   2.971   3.962   1.656 -0.4866 -0.0368 -0.5675
11126TIP3    H254794   2.914   4.047   1.545  0.6704  2.3201  0.5881
11127TIP3   OH254795   0.111   2.658   3.766  0.0067 -0.3591  0.8953
11127TIP3    H154796   0.033   2.670   3.819 -0.8988 -0.2784 -0.4261
11127TIP3    H254797   0.172   2.726   3.796  0.0775 -1.1826  2.7724
11128TIP3   OH254798   5.389   4.237   3.278 -0.0821  0.0448 -0.0886
11128TIP3    H154799   5.404   4.185   3.356  0.0601  0.0890 -0.0865
11128TIP3    H254800   5.466   4.221   3.223 -0.0649  0.2082 -0.1122
11129TIP3   OH254801   3.121   3.202  13.886 -0.0307  0.6644  0.0681
11129TIP3    H154802   3.047   3.243  13.932  0.7121  2.3683 -0.2172
11129TIP3    H254803   3.168   3.274  13.845  1.1054 -0.5189 -0.8090
11130TIP3   OH254804   4.002   0.853  16.308 -0.1131 -0.4636 -0.1520
11130TIP3    H154805   3.931   0.790  16.298 -0.2690 -0.1266 -1.2714
11130TIP3    H254806   3.973   0.931  16.263 -0.0158  0.5373  1.4290
11131TIP3   OH254807   2.718   3.390  16.035  0.9434 -0.0054 -0.0373
11131TIP3    H154808   2.774   3.331  15.985  1.7454  0.5408  0.2120
11131TIP3    H254809   2.677   3.446  15.970  0.2389 -0.7723 -0.2693
11132TIP3   OH254810   5.491   4.699   6.133 -0.2826 -0.1556 -0.5893
11132TIP3    H154811   5.566   4.672   6.186 -2.1687 -1.3819  1.6374
11132TIP3    H254812   5.528   4.712   6.045  2.6554  0.1735  0.5726
11133TIP3   OH254813   6.655   4.287  11.897 -0.3886  0.0264 -0.5755
11133TIP3    H154814   6.586   4.332  11.848  0.5038  0.2180 -1.6965
11133TIP3    H254815   6.643   4.195  11.876 -0.2184  0.0752 -0.9017
11134TIP3   OH254816   1.106   4.175  17.015  0.2931  0.5136 -0.4545
11134TIP3    H154817   1.139   4.221  16.938  0.0823 -0.5896 -1.2129
11134TIP3    H254818   1.176   4.114  17.039 -0.6141 -0.9091 -1.2834
11135TIP3   OH254819   0.073   5.461  12.953  0.3832 -0.6740  0.2318
11135TIP3    H154820   0.137   5.391  12.945 -0.6763 -1.6063 -0.4870
11135TIP3    H254821   0.115   5.527  13.007  1.3340 -1.9585  1.1020
11136TIP3   OH254822   2.393   5.109  17.245 -0.6900  0.4164  0.5540
11136TIP3    H154823   2.483   5.142  17.244 -0.3441 -0.3700 -1.8783
11136TIP3    H254824   2.339   5.188  17.249  0.1371  1.1568 -1.5573
11137TIP3   OH254825   3.930   0.418  15.679  0.4760 -0.3058  0.3899
11137TIP3    H154826   3.862   0.474  15.716 -0.4376 -0.0330 -1.5829
11137TIP3    H254827   4.001   0.478  15.656 -0.0215 -0.0909 -0.6394
11138TIP3   OH254828   1.583   2.067   2.759  0.3180  0.4495 -0.4267
11138TIP3    H154829   1.560   1.984   2.718  0.5818  1.0839 -1.9059
11138TIP3    H254830   1.541   2.064   2.845  1.0044 -1.5438 -0.1145
11139TIP3   OH254831   2.542   4.552  15.681 -0.3187 -0.9768  0.4320
11139TIP3    H154832   2.452   4.524  15.696 -0.1099 -1.6180  0.5182
11139TIP3    H254833   2.558   4.618  15.749 -0.9570 -0.3186 -0.0514
11140TIP3   OH254834   0.252   4.391  10.323  0.5729  0.4327 -0.2902
11140TIP3    H154835   0.313   4.323  10.293  1.8605  1.4935 -0.1590
11140TIP3    H254836   0.265   4.393  10.418  1.8198  2.0145 -0.4607
11141TIP3   OH254837   2.612   5.804   1.553  0.1991  0.5381  0.0689
11141TIP3    H154838   2.658   5.809   1.469  0.6569  1.4566  0.3605
11141TIP3    H254839   2.671   5.846   1.615 -0.7191  1.0788  0.5995
11142TIP3   OH254840   5.956   6.148  14.196  0.5091  0.0740 -0.0419
11142TIP3    H154841   6.005   6.072  14.228 -0.0050  0.0583  0.7048
11142TIP3    H254842   5.910   6.182  14.272  1.1452  1.4671 -0.2492
11143TIP3   OH254843   3.318   4.448   0.704  0.5780 -0.0176 -0.1624
11143TIP3    H154844   3.378   4.476   0.773  2.2530 -0.4948 -1.3683
11143TIP3    H254845   3.231   4.464   0.740  1.4140  0.7832  1.6137
11144TIP3   OH254846   0.961   4.958  14.194 -0.2478  0.4412  0.3219
11144TIP3    H154847   1.033   4.897  14.177 -2.0392 -0.8702 -3.9485
11144TIP3    H254848   0.988   5.040  14.151 -0.7959  0.3001 -0.3097
11145TIP3   OH254849   6.013   0.473  12.385  0.3509  0.0845 -0.0338
11145TIP3    H154850   5.945   0.492  12.320  1.3726  1.0699 -0.8371
11145TIP3    H254851   6.060   0.555  12.397  0.0081  0.0316  2.2341
11146TIP3   OH254852   0.041   3.777  10.644 -0.4374  0.1795  0.3328
11146TIP3    H154853   0.124   3.773  10.690 -0.2182 -0.7852 -0.1327
11146TIP3    H254854   0.057   3.731  10.561 -0.8821  1.6673 -0.6239
11147TIP3   OH254855   2.992   0.841  15.201  0.1830  0.0860  0.6172
11147TIP3    H154856   2.984   0.746  15.205  0.9595  0.0085  0.6227
11147TIP3    H254857   2.939   0.867  15.126  0.0865 -0.3688  0.5274
11148TIP3   OH254858   2.181   5.472  14.997  0.1651 -0.4275 -0.0571
11148TIP3    H154859   2.186   5.566  15.014  1.2930 -0.3552 -0.6882
11148TIP3    H254860   2.149   5.435  15.079 -0.2538  0.4933  0.2133
11149TIP3   OH254861   4.201   5.227   2.756  0.2446  0.0303 -0.7364
11149TIP3    H154862   4.154   5.307   2.780  0.0037 -0.5191  0.7307
11149TIP3    H254863   4.289   5.240   2.791  0.6641  0.2817 -1.8528
11150TIP3   OH254864   6.130   1.784  11.275 -0.5069 -0.3530 -0.2414
11150TIP3    H154865   6.158   1.695  11.253 -0.5841 -0.4231 -0.0530
11150TIP3    H254866   6.212   1.833  11.285 -0.4646 -0.4005 -0.3486
11151TIP3   OH254867   0.208   4.216  12.654 -0.2935  0.0625 -0.1297
11151TIP3    H154868   0.128   4.253  12.691 -1.0936 -1.7017 -0.0174
11151TIP3    H254869   0.190   4.207  12.561 -0.3492 -0.6176 -0.0572
11152TIP3   OH254870   1.456   4.318   5.580  0.0543 -0.5717 -0.0783
11152TIP3    H154871   1.539   4.363   5.562  0.1635 -0.4584  0.6468
11152TIP3    H254872   1.457   4.305   5.675  0.0914 -2.2374 -0.2765
11153TIP3   OH254873   5.541   5.598  11.616 -0.0912 -0.1839 -0.0567
11153TIP3    H154874   5.569   5.517  11.659 -1.2490 -0.1326  0.8550
11153TIP3    H254875   5.622   5.641  11.591  0.5955 -0.8046  1.0080
11154TIP3   OH254876   1.191   0.964  15.822 -0.1996  0.4695 -0.5140
11154TIP3    H154877   1.140   0.993  15.746  0.4905 -0.4016 -1.3264
11154TIP3    H254878   1.282   0.963  15.791  0.4965  2.8997  1.1742
11155TIP3   OH254879   2.661   6.117   0.736  0.2086 -0.6624 -0.0241
11155TIP3    H154880   2.633   6.046   0.678  0.2106 -1.0480  0.4409
11155TIP3    H254881   2.636   6.087   0.824  1.3298 -0.6369  0.3112
11156TIP3   OH254882   0.181   4.740  11.677  0.0146  0.2592 -0.0899
11156TIP3    H154883   0.168   4.818  11.731 -3.1126 -0.8075  0.9377
11156TIP3    H254884   0.122   4.752  11.602 -2.6987 -2.1306  1.4554
11157TIP3   OH254885   3.088   5.776  12.038 -0.7614  0.0449  0.3113
11157TIP3    H154886   3.118   5.733  11.958  0.0084  0.2472  0.4889
11157TIP3    H254887   3.014   5.831  12.010 -2.2145 -1.8648  0.1878
11158TIP3   OH254888   0.772   3.845   3.789 -0.5692  0.5493  0.9377
11158TIP3    H154889   0.820   3.801   3.859  1.1554  1.1984  0.2196
11158TIP3    H254890   0.751   3.775   3.727 -1.4248  0.0988  1.7186
11159TIP3   OH254891   5.821   2.838   6.088 -0.1706  0.3854  0.3388
11159TIP3    H154892   5.731   2.822   6.060  0.4993 -1.5646 -0.9055
11159TIP3    H254893   5.843   2.924   6.050 -1.2935  0.6021  0.1474
11160TIP3   OH254894   5.460   5.821  13.928  0.1252 -0.4132  0.5567
11160TIP3    H154895   5.501   5.810  13.842 -1.3204 -0.1512 -0.1812
11160TIP3    H254896   5.514   5.887  13.971  0.2720  0.2125 -0.5463
11161TIP3   OH254897   6.026   6.380  14.857 -0.4037  0.0634  0.0595
11161TIP3    H154898   5.946   6.390  14.805 -0.9359  2.4030  1.2088
11161TIP3    H254899   5.998   6.332  14.935  0.2441 -2.7713 -1.3099
11162TIP3   OH254900   6.670   2.986  17.167 -0.2600 -0.1031  0.6735
11162TIP3    H154901   6.698   2.905  17.124 -0.7944 -0.5625  1.1704
11162TIP3    H254902   6.715   2.985  17.251 -0.0363  0.2690  0.5599
11163TIP3   OH254903   0.621   3.844   2.073 -0.4941 -0.6923 -0.1585
11163TIP3    H154904   0.640   3.752   2.088  0.1388 -0.6377 -0.5974
11163TIP3    H254905   0.689   3.874   2.012 -1.1648 -0.1358 -0.6522
11164TIP3   OH254906   3.589   6.737  11.235  0.8160 -0.2599 -0.2892
11164TIP3    H154907   3.548   6.823  11.247  0.2084 -0.7290  1.1976
11164TIP3    H254908   3.587   6.723  11.140 -1.9179  0.0265 -0.3682
11165TIP3   OH254909   3.577   4.042  15.499  0.5119  0.0392  0.1868
11165TIP3    H154910   3.652   3.983  15.509  1.0872  0.2191 -2.3979
11165TIP3    H254911   3.511   3.991  15.453  0.2101  0.7715 -0.2186
11166TIP3   OH254912   1.407   2.285   3.182  0.6193  0.2755  0.0598
11166TIP3    H154913   1.346   2.350   3.218  0.0462 -1.6926  2.9074
11166TIP3    H254914   1.377   2.273   3.092 -0.9789  1.9268  0.3025
11167TIP3   OH254915   3.087   0.977   5.585  0.2296  0.6396  0.3136
11167TIP3    H154916   3.053   0.966   5.496 -0.7707  2.9950  0.3336
11167TIP3    H254917   3.013   1.014   5.634  1.0419  0.2337  1.8950
11168TIP3   OH254918   5.073   2.210  16.501 -0.1342  0.0516 -0.9550
11168TIP3    H154919   5.167   2.204  16.517 -0.2008  0.8761 -0.2085
11168TIP3    H254920   5.035   2.234  16.585 -0.7921  1.7617 -1.6942
11169TIP3   OH254921   6.602   4.299   1.038  0.5920 -0.1490 -0.5566
11169TIP3    H154922   6.540   4.232   1.064  0.2941  0.2452 -0.2371
11169TIP3    H254923   6.665   4.302   1.110 -1.4255  2.4473  1.2824
11170TIP3   OH254924   1.614   5.695  15.136  0.0639 -0.7267 -0.3531
11170TIP3    H154925   1.613   5.748  15.215 -1.4356 -3.3447  1.5751
11170TIP3    H254926   1.587   5.754  15.066  0.3315  1.4392  1.2890
11171TIP3   OH254927   2.269   4.510  13.622 -0.4192  0.0492 -0.6115
11171TIP3    H154928   2.227   4.508  13.708  0.7160  0.5478 -0.0170
11171TIP3    H254929   2.349   4.561  13.636 -0.7709  1.1198 -2.2232
11172TIP3   OH254930   2.180   4.536   4.918  0.1296 -0.1499 -0.4890
11172TIP3    H154931   2.213   4.613   4.965  1.6878 -0.7165 -0.5860
11172TIP3    H254932   2.129   4.572   4.846  1.4404  0.8518 -0.9673
11173TIP3   OH254933   4.239   4.893   6.036 -0.5195 -0.7012 -0.1120
11173TIP3    H154934   4.292   4.824   5.995  1.3894  0.0757  0.9208
11173TIP3    H254935   4.204   4.852   6.115  0.0201 -0.7091  0.1275
11174TIP3   OH254936   5.168   0.406  15.791  0.1491  0.1704 -0.0086
11174TIP3    H154937   5.190   0.499  15.796 -0.7813  0.6091 -2.4861
11174TIP3    H254938   5.080   0.404  15.755 -0.1769 -1.6935  0.7595
11175TIP3   OH254939   4.926   0.133   4.297  0.6161  0.2948 -0.8653
11175TIP3    H154940   4.870   0.181   4.236 -0.0017  0.0400 -0.5128
11175TIP3    H254941   4.869   0.065   4.333  0.4409  1.4997  1.3029
11176TIP3   OH254942   3.918   2.229   0.327 -0.3384 -0.3934  0.3525
11176TIP3    H154943   4.006   2.194   0.344  0.0216  0.2406 -0.1572
11176TIP3    H254944   3.934   2.316   0.290 -1.1517 -0.6871 -0.7499
11177TIP3   OH254945   3.901   3.386  12.458 -0.0564  0.4997 -0.0964
11177TIP3    H154946   3.981   3.353  12.499 -0.2144 -2.4628 -1.8477
11177TIP3    H254947   3.831   3.347  12.510 -0.4082  2.2075  0.7731
11178TIP3   OH254948   6.229   5.361  10.579 -0.3653 -0.1408 -0.0803
11178TIP3    H154949   6.141   5.376  10.614 -0.4719 -0.0019 -0.4107
11178TIP3    H254950   6.280   5.435  10.611  0.1929 -1.3318  1.9828
11179TIP3   OH254951   1.114   3.767   0.017  0.5731 -0.4848 -0.0413
11179TIP3    H154952   1.095   3.679  -0.013  0.6482 -0.1658 -1.0637
11179TIP3    H254953   1.194   3.792  -0.029 -0.1483  0.5817 -0.7845
11180TIP3   OH254954   5.711   6.310   1.174  0.0528  0.6251 -0.0410
11180TIP3    H154955   5.697   6.278   1.085  1.6835 -2.6723  0.7223
11180TIP3    H254956   5.638   6.274   1.224  1.3323 -1.1771  0.6355
11181TIP3   OH254957   6.251   1.571   5.054 -0.0370  0.2519 -0.0991
11181TIP3    H154958   6.312   1.497   5.048 -0.2684  0.0579 -0.0341
11181TIP3    H254959   6.225   1.588   4.963 -0.1477  0.1193 -0.0915
11182TIP3   OH254960   3.889   3.921  13.368 -0.2286  0.1970  0.2131
11182TIP3    H154961   3.894   3.825  13.364 -0.7277  0.2092 -1.4919
11182TIP3    H254962   3.805   3.942  13.327 -1.1706  1.2992  2.5664
11183TIP3   OH254963   5.860   6.403   5.947 -0.6309  0.1545  0.3979
11183TIP3    H154964   5.792   6.466   5.922 -2.2858 -1.9975 -0.8795
11183TIP3    H254965   5.821   6.353   6.019  0.3819  0.1490  0.9567
11184TIP3   OH254966   6.130   3.793  14.340 -0.0334  0.5033  0.1730
11184TIP3    H154967   6.165   3.751  14.262  0.8549  0.3503  0.6392
11184TIP3    H254968   6.072   3.728  14.379  1.4051 -0.3669  0.9422
11185TIP3   OH254969   3.402   5.884   0.818 -0.6919  0.5865  0.2842
11185TIP3    H154970   3.486   5.908   0.855 -1.6963  0.9688  2.4819
11185TIP3    H254971   3.423   5.846   0.732  1.8476 -1.1135  1.5378
11186TIP3   OH254972   1.392   3.762  13.197 -0.2426 -0.1262 -0.2393
11186TIP3    H154973   1.439   3.749  13.114 -0.4327  1.9053 -0.7226
11186TIP3    H254974   1.315   3.706  13.189  0.3933 -0.9368 -0.8844
11187TIP3   OH254975   4.803   0.744  14.025 -0.1659  0.0722  0.2428
11187TIP3    H154976   4.773   0.670  14.079  0.4852 -1.0189 -0.8357
11187TIP3    H254977   4.853   0.799  14.085 -1.2112 -0.0023  1.2224
11188TIP3   OH254978   4.828   2.591  15.178 -0.1021  0.5171 -0.2491
11188TIP3    H154979   4.869   2.525  15.233 -0.0582  0.3384 -0.4945
11188TIP3    H254980   4.781   2.648  15.240  0.5216  0.7360  0.0309
11189TIP3   OH254981   5.044   6.407   3.722 -0.2797  0.4898 -0.0106
11189TIP3    H154982   4.948   6.415   3.723 -0.1867  2.0621 -0.2739
11189TIP3    H254983   5.071   6.449   3.641  0.4845 -3.1074 -1.7842
11190TIP3   OH254984   5.462   1.850   1.279  0.0131 -0.1930 -0.0307
11190TIP3    H154985   5.532   1.835   1.343  0.9927  1.0757 -0.7615
11190TIP3    H254986   5.418   1.765   1.272 -0.4931 -0.2374  2.6977
11191TIP3   OH254987   2.285   5.174  11.647  0.5263  0.1493  0.5075
11191TIP3    H154988   2.252   5.228  11.575 -0.2808 -2.4484 -1.2334
11191TIP3    H254989   2.315   5.237  11.713 -1.4689  2.6794 -0.8058
11192TIP3   OH254990   0.908   1.517   0.619 -0.1679  0.2984  0.1453
11192TIP3    H154991   0.919   1.563   0.702  1.8138 -0.4133  0.3341
11192TIP3    H254992   0.955   1.434   0.631 -0.2671 -0.0433 -1.5221
11193TIP3   OH254993   5.940   5.729  12.356  0.0501  0.2962  0.2824
11193TIP3    H154994   6.013   5.740  12.295  0.2245 -0.5578  0.3233
11193TIP3    H254995   5.975   5.761  12.440  1.0144 -1.6699  0.7111
11194TIP3   OH254996   1.424   0.826   5.221 -0.4762 -0.0060  1.2190
11194TIP3    H154997   1.402   0.882   5.295  0.0128  1.1522  0.5196
11194TIP3    H254998   1.452   0.886   5.152 -1.7091 -0.9797 -0.2053
11195TIP3   OH254999   1.085   4.056   5.390  0.5622 -0.0718  0.4520
11195TIP3    H155000   1.122   4.096   5.468  1.2250  0.5406 -0.1558
11195TIP3    H255001   1.140   3.980   5.372 -1.2655 -1.9401  2.1580
11196TIP3   OH255002   2.598   4.411   4.986  0.1833 -0.5403  0.3373
11196TIP3    H155003   2.628   4.449   4.903  2.1455 -1.4396  0.5914
11196TIP3    H255004   2.520   4.361   4.962  0.3076 -0.2083 -0.8315
11197TIP3   OH255005   3.557   3.174  13.368 -0.4117  0.1331  0.6438
11197TIP3    H155006   3.533   3.260  13.333  0.4512 -1.3767 -4.4077
11197TIP3    H255007   3.475   3.138  13.402 -1.1688  2.1686  1.0968
11198TIP3   OH255008   3.054   5.645   6.517 -0.0935 -0.3672 -0.4055
11198TIP3    H155009   3.111   5.609   6.449 -0.3672  0.4652 -1.0951
11198TIP3    H255010   3.079   5.737   6.523 -0.7567 -0.2038 -0.0855
11199TIP3   OH255011   0.493   1.726  11.056  0.1420  0.2531 -0.6205
11199TIP3    H155012   0.520   1.635  11.053  0.6263  0.3679  0.1477
11199TIP3    H255013   0.413   1.726  11.109  1.1594  0.5068  0.9533
11200TIP3   OH255014   3.859   0.394  13.523  0.5193  0.1213  0.3792
11200TIP3    H155015   3.894   0.457  13.460 -0.1582 -1.4888 -1.7269
11200TIP3    H255016   3.765   0.389  13.501  0.5829 -1.6856  0.3897
11201TIP3   OH255017   1.252   0.484  13.879 -0.2371 -0.1315  0.6718
11201TIP3    H155018   1.331   0.519  13.920 -0.4644 -0.7204  1.6511
11201TIP3    H255019   1.210   0.560  13.839  1.6397 -0.0412 -1.3224
11202TIP3   OH255020   5.349   6.043   4.554  0.7075  0.7618  0.5136
11202TIP3    H155021   5.356   5.956   4.594 -1.8999 -0.0555 -0.6182
11202TIP3    H255022   5.439   6.075   4.552  1.7766 -1.9390  0.8719
11203TIP3   OH255023   6.098   2.341   2.842 -0.1573  0.0938  0.8800
11203TIP3    H155024   6.032   2.382   2.897 -0.7381 -0.8897  0.9363
11203TIP3    H255025   6.050   2.277   2.790  0.6630 -0.2484  0.5222
11204TIP3   OH255026   1.455   6.611  11.262  0.4971 -0.2494 -0.0576
11204TIP3    H155027   1.428   6.595  11.171  0.3599  0.0389 -0.0700
11204TIP3    H255028   1.396   6.558  11.314  0.6393 -0.4911 -0.1440
11205TIP3   OH255029   2.363   4.788   1.304  0.1820 -0.8322  0.7350
11205TIP3    H155030   2.317   4.774   1.221  1.5302 -1.4644  0.0710
11205TIP3    H255031   2.352   4.882   1.322 -0.9152 -0.8695  0.3386
11206TIP3   OH255032   6.006   3.797   0.074  0.0273 -0.6648  0.3285
11206TIP3    H155033   5.940   3.729   0.087  0.1846 -0.5712  1.6825
11206TIP3    H255034   6.088   3.750   0.060  0.2669 -0.7755  1.9659
11207TIP3   OH255035   3.849   3.941   0.698  0.1890  0.1140 -0.3791
11207TIP3    H155036   3.934   3.960   0.659  0.2752 -1.1109 -0.8524
11207TIP3    H255037   3.831   3.850   0.673 -1.5081  0.5000 -0.7478
11208TIP3   OH255038   4.278   4.095   4.524  0.0809  0.1023 -0.6022
11208TIP3    H155039   4.352   4.077   4.465 -1.0141 -1.1134 -1.6552
11208TIP3    H255040   4.212   4.136   4.468 -0.8678 -0.7934 -0.1621
11209TIP3   OH255041   2.627   4.415  16.079 -0.3118  0.0342 -0.0010
11209TIP3    H155042   2.537   4.416  16.112 -0.8598 -0.8628 -1.3805
11209TIP3    H255043   2.668   4.492  16.119 -1.6964  0.4777  0.6258
11210TIP3   OH255044   3.909   2.617  11.232 -0.1408  0.0320 -0.3976
11210TIP3    H155045   3.858   2.581  11.160 -0.7487 -0.0098  0.0492
11210TIP3    H255046   3.968   2.680  11.191  1.3401 -1.8510 -1.2874
11211TIP3   OH255047   5.855   6.004   2.400  0.2113  0.8837  0.2045
11211TIP3    H155048   5.794   6.026   2.470  1.8695 -1.5633  2.5942
11211TIP3    H255049   5.936   6.048   2.424  1.0479 -0.6703  0.3672
11212TIP3   OH255050   4.786   1.748  12.409 -0.4407  0.1893  0.2261
11212TIP3    H155051   4.763   1.742  12.502  1.5501  0.0161  0.7528
11212TIP3    H255052   4.795   1.657  12.381  1.9115  0.1904  0.7225
11213TIP3   OH255053   2.196   4.951  17.142  0.5801  0.2127  0.1490
11213TIP3    H155054   2.234   4.871  17.104  0.6416 -0.5146  1.6624
11213TIP3    H255055   2.271   5.007  17.159  0.5715  0.4576 -0.5998
11214TIP3   OH255056   5.909   0.236  14.193 -0.1803 -0.0606  0.1224
11214TIP3    H155057   5.972   0.165  14.209  0.6833 -0.0398 -2.6782
11214TIP3    H255058   5.840   0.196  14.140 -0.8705  0.6643  0.4520
11215TIP3   OH255059   6.527   2.781   4.462  0.3582 -0.4834  0.3365
11215TIP3    H155060   6.526   2.690   4.490  0.6558 -1.3177 -2.0976
11215TIP3    H255061   6.565   2.779   4.374  2.4577  2.2628  1.0079
11216TIP3   OH255062   3.133   3.894   5.715 -0.4470 -0.0322 -0.1571
11216TIP3    H155063   3.156   3.880   5.623 -2.3361 -0.3859 -0.6171
11216TIP3    H255064   3.072   3.968   5.713 -1.2857 -0.6763  0.6839
11217TIP3   OH255065   0.959   3.045   2.066 -0.0789  0.3319  0.3634
11217TIP3    H155066   1.028   3.091   2.113  0.2815  0.5434 -0.3532
11217TIP3    H255067   0.893   3.027   2.132  1.2390 -1.0823  1.3886
11218TIP3   OH255068   2.622   3.829   0.737  0.1405 -0.1671  0.6099
11218TIP3    H155069   2.635   3.838   0.643  2.7343  1.2578  1.0306
11218TIP3    H255070   2.664   3.746   0.759 -0.1254 -0.3105  0.5846
11219TIP3   OH255071   0.661   4.859  13.585  0.3510  0.0551 -0.0315
11219TIP3    H155072   0.666   4.909  13.504 -0.2156 -0.5264 -0.4336
11219TIP3    H255073   0.600   4.788  13.566  0.9747 -0.6692  0.6004
11220TIP3   OH255074   6.676   6.220  17.068 -0.1923 -0.2141 -0.2319
11220TIP3    H155075   6.659   6.280  17.141  0.8585  0.9776 -0.9115
11220TIP3    H255076   6.739   6.267  17.013  1.3899 -2.3189 -0.3321
11221TIP3   OH255077   3.786   0.257  16.915 -0.3903  0.4327  0.5049
11221TIP3    H155078   3.782   0.273  17.009 -2.2231 -1.4841  0.8212
11221TIP3    H255079   3.724   0.321  16.877  0.9922  1.8029  0.4343
11222TIP3   OH255080   2.381   5.781   0.634 -0.2889  0.4131  0.4237
11222TIP3    H155081   2.370   5.698   0.587  0.8643  0.2981  0.3233
11222TIP3    H255082   2.397   5.845   0.565  1.3643  0.2534  0.6188
11223TIP3   OH255083   3.729   3.178   0.753  0.1504 -0.3457  0.5215
11223TIP3    H155084   3.766   3.227   0.680  0.2176 -0.8232  0.2239
11223TIP3    H255085   3.650   3.226   0.777  0.0339 -0.2796  0.0151
11224TIP3   OH255086   0.833   5.926   6.010  0.0287  0.1827 -0.2221
11224TIP3    H155087   0.865   5.993   5.949 -0.5293  0.9056  0.2517
11224TIP3    H255088   0.890   5.934   6.087 -0.3573  0.4794  0.0408
11225TIP3   OH255089   4.475   5.689   4.530 -0.1200  0.3034 -0.4218
11225TIP3    H155090   4.516   5.670   4.614  1.5520  0.1390 -1.2302
11225TIP3    H255091   4.409   5.621   4.519 -1.5743  1.3395  1.5101
11226TIP3   OH255092   3.066   6.579  16.116  0.2027  0.0961  0.1080
11226TIP3    H155093   3.151   6.579  16.159  0.2134  1.7964  0.1694
11226TIP3    H255094   3.007   6.539  16.180  0.7940 -0.3487  0.3864
11227TIP3   OH255095   2.200   3.043  13.367 -0.3394  0.2379  0.3763
11227TIP3    H155096   2.119   2.996  13.346 -1.3215  2.1540 -0.3829
11227TIP3    H255097   2.194   3.125  13.318  0.4963  1.9084  2.8265
11228TIP3   OH255098   1.757   5.009   4.130  0.1089  0.2715 -0.4133
11228TIP3    H155099   1.797   5.095   4.118 -1.2737  0.8682 -0.9465
11228TIP3    H255100   1.831   4.948   4.132  1.1668  1.5287  0.6878
11229TIP3   OH255101   2.305   2.407   5.009  0.2303 -0.7572 -0.3097
11229TIP3    H155102   2.244   2.338   4.983 -0.5672 -0.9025  1.7625
11229TIP3    H255103   2.261   2.453   5.081  2.1279 -0.2312  0.5841
11230TIP3   OH255104   1.070   1.187  11.704 -0.0839 -0.1127  0.6263
11230TIP3    H155105   1.032   1.168  11.790 -0.4371  0.2149  0.5437
11230TIP3    H255106   0.995   1.193  11.645  0.1935 -1.1267  0.1328
11231TIP3   OH255107   4.900   5.715   3.082  0.1486  0.2585  0.5869
11231TIP3    H155108   4.960   5.762   3.025 -0.2928 -0.7728 -0.7923
11231TIP3    H255109   4.953   5.646   3.121 -0.2466 -1.1515 -1.2449
11232TIP3   OH255110   3.474   5.590  11.087 -0.0348  0.2050 -0.1809
11232TIP3    H155111   3.401   5.533  11.062 -0.6117  0.9659 -0.2393
11232TIP3    H255112   3.444   5.678  11.067  0.5473  0.6038  0.6454
11233TIP3   OH255113   3.288   4.166   5.691  0.1271  0.0902 -0.1360
11233TIP3    H155114   3.242   4.250   5.694  0.2842  0.2170 -1.0932
11233TIP3    H255115   3.282   4.132   5.781  1.2259  1.7344  0.5969
11234TIP3   OH255116   4.169   3.160  14.880 -0.8079  0.0188  0.1698
11234TIP3    H155117   4.164   3.094  14.811 -1.4183 -0.2466  0.4559
11234TIP3    H255118   4.108   3.129  14.947 -1.1057  0.8759  0.3073
11235TIP3   OH255119   5.827   4.708   2.927 -0.1244  0.2538  0.2032
11235TIP3    H155120   5.835   4.728   3.020  2.1335 -0.3548  0.1870
11235TIP3    H255121   5.849   4.790   2.883  0.0685  0.1991  0.1979
11236TIP3   OH255122   1.155   2.058   6.491 -0.0990 -0.5430 -0.0939
11236TIP3    H155123   1.245   2.026   6.476  0.0812  0.2350 -0.7724
11236TIP3    H255124   1.166   2.151   6.510 -0.6860 -0.6759  0.9557
11237TIP3   OH255125   5.972   2.638   4.989 -0.1230  0.2850 -0.0368
11237TIP3    H155126   5.897   2.589   4.955 -1.0009  1.8237 -0.4455
11237TIP3    H255127   5.978   2.613   5.081 -1.0936  0.0522 -0.0253
11238TIP3   OH255128   3.439   3.572  12.968 -0.3179  0.0674  0.3143
11238TIP3    H155129   3.499   3.646  12.969 -0.2513  0.0603 -1.0616
11238TIP3    H255130   3.424   3.552  13.060  0.0504  1.4710  0.7067
11239TIP3   OH255131   4.443   3.001  16.911 -0.2844 -0.2383  0.1770
11239TIP3    H155132   4.401   2.997  16.824 -2.1301 -0.6323  1.0297
11239TIP3    H255133   4.475   3.091  16.918  0.6226 -0.4220 -1.2111
11240TIP3   OH255134   1.384   5.585  16.632 -0.0722  0.6678 -0.1840
11240TIP3    H155135   1.377   5.626  16.545 -1.0831 -0.1947 -0.5421
11240TIP3    H255136   1.474   5.552  16.636  0.1660  1.2368 -0.6591
11241TIP3   OH255137   1.315   4.585  11.650 -0.2285  0.0524 -0.0235
11241TIP3    H155138   1.322   4.489  11.655  0.3901  0.1442  1.1187
11241TIP3    H255139   1.255   4.600  11.577 -0.6274 -1.2191  0.0101
11242TIP3   OH255140   5.664   1.390   5.451  0.5891 -0.1439 -0.3529
11242TIP3    H155141   5.723   1.462   5.477 -0.3262  0.8546 -0.9794
11242TIP3    H255142   5.636   1.352   5.534 -0.4300  1.4843  0.0925
11243TIP3   OH255143   1.446   4.558  14.175 -0.2193 -0.0960 -0.1964
11243TIP3    H155144   1.402   4.491  14.122 -0.2986 -0.1695 -0.0396
11243TIP3    H255145   1.522   4.584  14.123 -0.8403  0.5583 -0.7911
11244TIP3   OH255146   2.163   1.840  16.303 -0.4454  0.3489 -0.6638
11244TIP3    H155147   2.208   1.760  16.329 -2.0121 -1.2616 -2.5970
11244TIP3    H255148   2.194   1.858  16.214 -2.0479  0.3151 -1.2744
11245TIP3   OH255149   1.193   2.756  16.492  0.2342 -0.0124  0.1026
11245TIP3    H155150   1.121   2.778  16.433  1.6409 -0.3120 -1.8218
11245TIP3    H255151   1.159   2.685  16.547 -1.0525  0.1362 -0.4767
11246TIP3   OH255152   5.604   6.569  13.899 -0.0678  0.3435 -0.1729
11246TIP3    H155153   5.531   6.595  13.843 -0.2237  1.5038  0.5393
11246TIP3    H255154   5.615   6.642  13.960  0.2041 -0.8218  1.2110
11247TIP3   OH255155   0.517   2.524  15.854  0.1791  1.2481  0.5491
11247TIP3    H155156   0.500   2.556  15.942 -0.8289  0.6565  0.5799
11247TIP3    H255157   0.560   2.440  15.867  0.6949  1.4899  0.4614
11248TIP3   OH255158   0.348   0.961  14.357 -0.3979  0.4393 -0.4180
11248TIP3    H155159   0.397   0.881  14.379 -1.2257 -0.1614 -0.6794
11248TIP3    H255160   0.299   0.981  14.437  0.6874  1.3759  0.0395
11249TIP3   OH255161   4.752   3.515   0.912 -0.5758  0.3735 -0.4731
11249TIP3    H155162   4.715   3.565   0.985 -0.0357  0.7174 -0.4361
11249TIP3    H255163   4.826   3.468   0.951 -2.5766 -2.5373  0.1493
11250TIP3   OH255164   5.917   6.667  12.303  0.1386 -0.1349  0.2756
11250TIP3    H155165   5.830   6.701  12.326  0.0036 -1.7767  2.5340
11250TIP3    H255166   5.900   6.604  12.233 -0.3354  0.2492  0.0350
11251TIP3   OH255167   1.727   2.065  17.321 -0.7792 -0.0442 -0.1666
11251TIP3    H155168   1.736   2.037  17.413  0.6479  0.9391  0.0175
11251TIP3    H255169   1.746   1.986  17.270  0.8024 -0.0402  0.3704
11252TIP3   OH255170   3.676   5.794  14.881  0.9498  0.2324 -0.0756
11252TIP3    H155171   3.591   5.811  14.921  0.5220  1.1533 -1.3127
11252TIP3    H255172   3.737   5.851  14.929  0.5243  0.9909 -0.4161
11253TIP3   OH255173   1.734   6.629   3.276  0.1717  0.1142  0.0218
11253TIP3    H155174   1.773   6.548   3.307  0.7183  0.1752 -0.4871
11253TIP3    H255175   1.805   6.693   3.279 -0.4102  0.7457  1.0297
11254TIP3   OH255176   6.427   5.574   0.593 -0.1731  0.1964 -0.3591
11254TIP3    H155177   6.385   5.651   0.555  1.0525  1.1236  0.1113
11254TIP3    H255178   6.520   5.595   0.594  0.0444 -0.6657  1.1624
11255TIP3   OH255179   6.220   5.445   0.688  0.7766  0.1188  0.2791
11255TIP3    H155180   6.299   5.482   0.648  0.3163  0.6234 -0.1859
11255TIP3    H255181   6.198   5.370   0.633  1.0348 -0.1353  0.5194
11256TIP3   OH255182   0.207   3.851   4.218  0.2929  0.4658 -0.5630
11256TIP3    H155183   0.259   3.793   4.163  0.5907 -1.1917  1.3446
11256TIP3    H255184   0.128   3.869   4.166 -0.2400 -2.4204 -0.9197
11257TIP3   OH255185   3.384   5.032   0.541  0.2825  0.4300 -0.2609
11257TIP3    H155186   3.292   5.044   0.519 -0.0159 -2.4448 -0.9687
11257TIP3    H255187   3.383   4.987   0.626  1.0446  0.5082 -0.1962
11258TIP3   OH255188   1.904   1.848  13.206 -0.5846 -0.0632  0.1936
11258TIP3    H155189   1.842   1.775  13.212 -1.7554  0.8279 -0.6664
11258TIP3    H255190   1.945   1.837  13.120 -4.0341  2.6836 -2.1001
11259TIP3   OH255191   6.333   1.959  12.320  0.1537 -0.1272  0.6379
11259TIP3    H155192   6.272   1.952  12.246  0.6518  0.1045  0.1899
11259TIP3    H255193   6.286   2.010  12.386  0.1962  0.8865 -0.0811
11260TIP3   OH255194   0.916   6.142  12.549 -0.7318  0.0685  0.4162
11260TIP3    H155195   0.923   6.148  12.644 -3.9292 -0.6990  0.8248
11260TIP3    H255196   0.893   6.050  12.532 -1.3486  0.4444 -0.9534
11261TIP3   OH255197   0.270   5.114  14.695 -0.2884 -0.0046  0.4844
11261TIP3    H155198   0.202   5.098  14.760 -0.3119  1.4355  0.8544
11261TIP3    H255199   0.350   5.126  14.747 -0.5170  2.3709  0.4184
11262TIP3   OH255200   3.229   5.241   1.117  0.1439  0.4473 -0.1938
11262TIP3    H155201   3.324   5.254   1.109  0.2109 -0.9269 -2.2735
11262TIP3    H255202   3.193   5.275   1.035 -1.0513 -0.0611  0.0987
11263TIP3   OH255203   0.518   1.619  13.807  0.8596  0.4025 -0.2882
11263TIP3    H155204   0.431   1.619  13.849  1.0067  1.4086  0.0423
11263TIP3    H255205   0.558   1.537  13.836 -0.1777 -0.3457 -0.8898
11264TIP3   OH255206   6.632   1.411   5.171  0.3689  0.4735 -0.2238
11264TIP3    H155207   6.576   1.422   5.095  1.4128 -0.0789 -1.0937
11264TIP3    H255208   6.578   1.363   5.234 -0.6952  1.4452 -0.3708
11265TIP3   OH255209   1.483   3.090   3.959  0.1138 -0.1529  0.2015
11265TIP3    H155210   1.438   3.005   3.949  0.2710 -0.1960 -0.1565
11265TIP3    H255211   1.573   3.072   3.934  0.5662 -0.2899  1.8413
11266TIP3   OH255212   3.536   3.616   3.560  0.2310 -0.2443  0.7144
11266TIP3    H155213   3.499   3.563   3.630 -0.6119  0.2992  0.6961
11266TIP3    H255214   3.484   3.594   3.483  1.2563 -0.9586  0.2004
11267TIP3   OH255215   0.698   5.774   4.523  0.0296  0.0893  0.0491
11267TIP3    H155216   0.659   5.841   4.580  1.7449  2.6319 -1.5733
11267TIP3    H255217   0.700   5.695   4.577 -0.4780  1.7768  2.7209
11268TIP3   OH255218   4.401   3.495   3.007 -0.2225 -0.1280  0.0415
11268TIP3    H155219   4.336   3.563   3.023 -0.9786 -0.2957 -2.0075
11268TIP3    H255220   4.474   3.541   2.966  1.0912  0.0794  2.4364
11269TIP3   OH255221   0.350   0.047   5.630  0.1058  0.3873  0.1282
11269TIP3    H155222   0.266   0.090   5.619  1.0146  2.3367  0.3403
11269TIP3    H255223   0.350   0.016   5.720  0.6468  2.9070  1.0697
11270TIP3   OH255224   1.603   3.623  11.379 -0.1753  0.0131 -0.0544
11270TIP3    H155225   1.615   3.650  11.470  1.1285 -0.9659  0.0928
11270TIP3    H255226   1.569   3.534  11.384 -0.4525  0.0885 -0.5248
11271TIP3   OH255227   1.393   1.260   2.360  0.0143 -0.0456 -0.1150
11271TIP3    H155228   1.332   1.290   2.428  0.5843 -0.7802  0.7421
11271TIP3    H255229   1.344   1.269   2.279 -1.4634 -1.1620  0.6046
11272TIP3   OH255230   6.550   0.767  12.301  0.1662  0.1596  0.5648
11272TIP3    H155231   6.632   0.717  12.305  0.6384  0.8300 -0.3587
11272TIP3    H255232   6.502   0.740  12.379  1.8145  0.6742  1.8347
11273TIP3   OH255233   2.973   4.330   0.227 -0.3424 -0.0757  0.0084
11273TIP3    H155234   2.964   4.255   0.284  1.0506 -0.9142 -0.8353
11273TIP3    H255235   2.974   4.294   0.138 -2.6351  1.1972 -0.6314
11274TIP3   OH255236   4.702   0.529  14.191  0.3430  0.3511 -0.2781
11274TIP3    H155237   4.622   0.476  14.188 -0.6886  1.8221 -0.4613
11274TIP3    H255238   4.752   0.493  14.264 -0.7006 -0.3328  0.1383
11275TIP3   OH255239   0.816   1.913  14.993 -0.4511 -0.0556  0.4462
11275TIP3    H155240   0.835   1.904  15.086 -4.6573  0.4189  1.5637
11275TIP3    H255241   0.783   2.002  14.983 -0.1636 -0.1220 -1.5126
11276TIP3   OH255242   1.197   1.686   3.247  0.4025 -0.3737 -0.4702
11276TIP3    H155243   1.182   1.595   3.221 -1.4813 -0.0783 -0.6077
11276TIP3    H255244   1.232   1.680   3.336  0.0751 -1.2420 -0.3912
11277TIP3   OH255245   5.832   2.309   5.884 -0.3507  0.0876 -0.4743
11277TIP3    H155246   5.823   2.394   5.841 -0.1385  0.1442 -0.4101
11277TIP3    H255247   5.765   2.254   5.843  0.1669 -0.0053 -1.2382
11278TIP3   OH255248   5.959   2.176   3.441  0.2111  0.5458 -0.1280
11278TIP3    H155249   5.909   2.187   3.360 -1.2368 -1.4740  0.4064
11278TIP3    H255250   5.992   2.086   3.436 -0.8751 -0.0320  1.9809
11279TIP3   OH255251   3.486   3.097   3.608 -0.2583  0.1261 -0.1885
11279TIP3    H155252   3.497   3.053   3.524 -0.0835 -0.7172  0.2629
11279TIP3    H255253   3.437   3.035   3.662 -1.4477  1.1481 -0.0438
11280TIP3   OH255254   6.519   5.680   4.547  0.3639 -0.2467 -0.0922
11280TIP3    H155255   6.437   5.730   4.545 -0.2620 -1.2357  0.0351
11280TIP3    H255256   6.564   5.705   4.466 -0.3051 -0.0696 -0.4233
11281TIP3   OH255257   1.803   5.457   3.751  0.4360 -0.1105  0.1258
11281TIP3    H155258   1.786   5.540   3.708  0.1454  0.1153  0.6633
11281TIP3    H255259   1.767   5.391   3.692  1.3591  0.0796 -0.6734
11282TIP3   OH255260   6.066   4.457   5.450  0.5865  0.2128 -0.1670
11282TIP3    H155261   5.988   4.414   5.417  0.1900  0.0310  0.9658
11282TIP3    H255262   6.082   4.417   5.535  1.4365  0.8247 -0.0206
11283TIP3   OH255263   5.085   2.823  14.183 -0.1481 -0.4309 -0.5775
11283TIP3    H155264   5.022   2.767  14.138 -1.2905  0.2437  0.1153
11283TIP3    H255265   5.054   2.912  14.165  0.7216 -0.0778 -0.3696
11284TIP3   OH255266   5.407   3.543   6.438 -0.4979 -0.0135 -0.1656
11284TIP3    H155267   5.448   3.510   6.518 -1.4295 -0.5961  0.0895
11284TIP3    H255268   5.454   3.624   6.418 -1.3646  1.0802  1.9441
11285TIP3   OH255269   4.325   0.439   5.762 -0.3556  0.4671 -0.0143
11285TIP3    H155270   4.347   0.397   5.844 -1.1958 -0.8020 -0.4092
11285TIP3    H255271   4.243   0.398   5.735  0.0479  0.6394 -1.6247
11286TIP3   OH255272   0.379   6.444  11.949  0.0358 -0.0502  1.2168
11286TIP3    H155273   0.346   6.356  11.931  1.4715 -0.4175  0.2169
11286TIP3    H255274   0.433   6.465  11.872 -1.0674  2.1124  0.9645
11287TIP3   OH255275   5.622   4.844   1.977 -0.0105 -0.8368  0.2979
11287TIP3    H155276   5.638   4.867   2.069 -0.5945 -0.5297  0.3279
11287TIP3    H255277   5.608   4.929   1.934 -0.7043 -1.0425  0.1145
11288TIP3   OH255278   0.542   2.096  13.116 -0.1995 -0.1946  0.0412
11288TIP3    H155279   0.455   2.059  13.103  0.8321 -3.0367  0.4252
11288TIP3    H255280   0.531   2.160  13.186 -1.7439 -1.7711  1.3448
11289TIP3   OH255281   3.038   1.305  17.333  0.1502 -0.4262  0.3460
11289TIP3    H155282   3.130   1.307  17.359  0.6441 -0.8401 -1.2762
11289TIP3    H255283   3.032   1.234  17.269 -1.7805 -1.9839  2.0887
11290TIP3   OH255284   3.790   2.118  14.589 -0.2980  0.4760 -0.5102
11290TIP3    H155285   3.701   2.084  14.581  0.2120 -1.0773  0.1247
11290TIP3    H255286   3.814   2.143  14.500 -1.5713  1.5097 -0.5969
11291TIP3   OH255287   0.775   2.982  15.109 -0.7168  0.4979 -0.3522
11291TIP3    H155288   0.684   2.972  15.138 -1.1819  1.2983 -1.4708
11291TIP3    H255289   0.795   3.074  15.124  0.6203 -0.0691  1.7666
11292TIP3   OH255290   2.484   5.250  11.404 -0.0740 -0.6120 -1.1494
11292TIP3    H155291   2.453   5.279  11.490 -2.1315 -0.5009 -1.8716
11292TIP3    H255292   2.560   5.305  11.387  1.3146 -1.6556  1.2021
11293TIP3   OH255293   2.820   1.330   5.745 -0.0290 -0.1084 -0.3570
11293TIP3    H155294   2.865   1.245   5.747  0.7100  0.2467 -1.0908
11293TIP3    H255295   2.835   1.362   5.656 -1.1684  0.3454 -0.4028
11294TIP3   OH255296   3.828   1.638   0.561 -0.3523  0.6228  0.4261
11294TIP3    H155297   3.785   1.712   0.518 -2.4331 -0.3710  0.6490
11294TIP3    H255298   3.902   1.676   0.608 -0.1739  2.2370 -1.0726
11295TIP3   OH255299   4.239   5.686  11.060  0.1532 -0.1359  0.3923
11295TIP3    H155300   4.252   5.675  11.154  1.6111  0.6213  0.3138
11295TIP3    H255301   4.247   5.780  11.046  3.2431 -0.4609 -0.8646
11296TIP3   OH255302   6.320   1.747   5.768 -0.2090  0.5491 -0.0855
11296TIP3    H155303   6.284   1.831   5.740  1.2888  0.6977 -1.7092
11296TIP3    H255304   6.267   1.682   5.721  0.4262  0.7075 -1.0546
11297TIP3   OH255305   6.028   1.083   3.411  0.1923  0.1489  0.6916
11297TIP3    H155306   5.984   1.003   3.439  1.2006 -0.7003 -0.0484
11297TIP3    H255307   6.053   1.066   3.320  0.6596  1.1947  0.6096
11298TIP3   OH255308   2.796   0.361  15.462 -0.4068  0.0707 -0.0515
11298TIP3    H155309   2.788   0.291  15.526  1.5356 -0.3496 -0.2009
11298TIP3    H255310   2.862   0.420  15.499  0.3378  0.1115 -1.3753
11299TIP3   OH255311   2.896   5.916  11.897 -0.0541 -0.0183  0.1399
11299TIP3    H155312   2.889   6.003  11.937 -2.7904 -0.4072  0.7234
11299TIP3    H255313   2.866   5.928  11.807  0.8240 -0.1430 -0.1783
11300TIP3   OH255314   2.177   0.348   1.921 -0.2706 -0.3993 -0.4110
11300TIP3    H155315   2.162   0.442   1.920 -0.4991 -0.4221  0.1578
11300TIP3    H255316   2.271   0.338   1.936 -0.1737 -0.2608 -0.9305
11301TIP3   OH255317   3.955   2.634  16.464 -0.0613 -0.1706 -0.0870
11301TIP3    H155318   3.994   2.565  16.410  0.7793 -1.0298  1.5312
11301TIP3    H255319   3.885   2.589  16.512  2.0558 -0.6138  2.8267
11302TIP3   OH255320   1.850   2.463  11.533  0.4339 -0.0823  0.3996
11302TIP3    H155321   1.796   2.386  11.516  1.4204 -0.9869  1.2853
11302TIP3    H255322   1.903   2.473  11.454  1.5428 -1.3691  0.9509
11303TIP3   OH255323   5.181   3.315  14.241 -0.0082 -0.4066 -0.0017
11303TIP3    H155324   5.260   3.361  14.214 -1.1135  1.0863 -0.8916
11303TIP3    H255325   5.136   3.377  14.299 -0.0522 -1.6472  1.3580
11304TIP3   OH255326   4.424   5.833   4.954 -0.2313 -0.3146 -0.2015
11304TIP3    H155327   4.460   5.780   5.026  0.9041  0.6869  0.0043
11304TIP3    H255328   4.357   5.887   4.996 -0.7014 -0.8747 -0.2203
11305TIP3   OH255329   2.205   1.981   4.043 -0.5304 -0.7491  0.3075
11305TIP3    H155330   2.197   2.035   4.122  0.8604  1.3975 -0.9092
11305TIP3    H255331   2.224   2.044   3.973 -0.9544 -2.6453 -1.6208
11306TIP3   OH255332   3.985   4.668  13.218  0.2233  0.5228  0.1388
11306TIP3    H155333   3.979   4.715  13.301  0.4595  0.6400  0.0906
11306TIP3    H255334   3.895   4.648  13.195  0.1645  0.3607  0.4980
11307TIP3   OH255335   5.183   2.594   2.728 -0.7087 -0.1758 -0.1883
11307TIP3    H155336   5.117   2.583   2.659 -0.9489  1.2361 -0.2235
11307TIP3    H255337   5.163   2.680   2.766  0.9036  0.1318  0.0293
11308TIP3   OH255338   6.580   0.054   0.626 -0.2177 -0.0375 -0.3045
11308TIP3    H155339   6.511   0.083   0.686 -0.9739  0.4321 -1.3618
11308TIP3    H255340   6.534   0.035   0.544  0.7657 -0.7995 -0.7065
11309TIP3   OH255341   5.941   0.133   0.509  0.1609  0.0374 -0.0982
11309TIP3    H155342   5.979   0.167   0.590  0.6817  0.4868 -0.5162
11309TIP3    H255343   5.975   0.192   0.441 -2.5087  1.4275 -0.3431
11310TIP3   OH255344   0.886   3.914  12.992  0.2631  0.0134 -0.5151
11310TIP3    H155345   0.822   3.966  13.040  0.8250 -0.7457  1.1089
11310TIP3    H255346   0.960   3.974  12.979  0.2396  0.1244 -0.1468
11311TIP3   OH255347   0.819   5.017  11.820  0.1400  0.6652  0.2864
11311TIP3    H155348   0.740   5.069  11.807 -0.0922  0.2330 -0.0530
11311TIP3    H255349   0.798   4.932  11.782  0.9100  0.6727 -0.1716
11312TIP3   OH255350   5.263   1.819  12.730 -0.5578  0.2278  0.0696
11312TIP3    H155351   5.186   1.762  12.734 -0.4263  0.0567  0.2256
11312TIP3    H255352   5.316   1.792  12.805  0.1072 -0.3201 -0.5741
11313TIP3   OH255353   6.265   4.511  14.711  0.1649 -0.3677  0.4796
11313TIP3    H155354   6.334   4.495  14.775  0.4979 -3.2437 -0.4713
11313TIP3    H255355   6.312   4.532  14.630 -0.1576 -0.2592  0.3165
11314TIP3   OH255356   3.765   0.526  14.766  0.9179 -0.1823  0.2441
11314TIP3    H155357   3.682   0.501  14.806  0.1790 -0.0942 -1.1660
11314TIP3    H255358   3.804   0.443  14.737  1.1124 -0.1799  0.4905
11315TIP3   OH255359   0.189   5.627  16.558 -0.0066  0.2038  0.0430
11315TIP3    H155360   0.273   5.598  16.592 -0.5742  0.2599  1.5914
11315TIP3    H255361   0.192   5.723  16.566 -0.1227  0.2219 -0.1260
11316TIP3   OH255362   2.078   1.451   2.681 -0.1012 -0.5696  0.1555
11316TIP3    H155363   2.031   1.411   2.754  0.0417 -0.5369  0.2671
11316TIP3    H255364   2.127   1.523   2.721  2.0893 -2.1432  0.5169
11317TIP3   OH255365   3.635   3.897   0.172  0.6439  0.1787  0.8692
11317TIP3    H155366   3.684   3.979   0.175 -1.7847  1.7210  1.0922
11317TIP3    H255367   3.577   3.907   0.096  0.1689 -1.2759  1.0124
11318TIP3   OH255368   0.952   4.706  17.224 -0.3007  0.2183  0.6264
11318TIP3    H155369   1.038   4.726  17.260  0.1688  0.4756 -0.5875
11318TIP3    H255370   0.901   4.673  17.298  0.7247  0.4171  1.4292
11319TIP3   OH255371   5.484   0.589  15.192  0.5439  0.4290 -0.2365
11319TIP3    H155372   5.452   0.578  15.103  0.2417  1.6147 -0.2849
11319TIP3    H255373   5.571   0.548  15.191  0.0189 -0.7268 -0.7159
11320TIP3   OH255374   3.176   5.606  15.384  0.1986 -0.1323  0.4845
11320TIP3    H155375   3.266   5.639  15.391 -0.2330  0.9643  1.1674
11320TIP3    H255376   3.124   5.683  15.362 -0.9782 -0.0973  2.9987
11321TIP3   OH255377   3.219   0.895   5.193 -0.0094  0.3327  0.0599
11321TIP3    H155378   3.133   0.930   5.212 -0.7204 -0.8736 -0.7601
11321TIP3    H255379   3.274   0.972   5.178 -1.4474  1.1210 -1.5131
11322TIP3   OH255380   1.443   3.665  11.071 -0.3124  0.2749  0.1639
11322TIP3    H155381   1.407   3.721  11.140  0.7608  1.1266  0.0536
11322TIP3    H255382   1.382   3.676  10.998 -0.8423  0.2407  0.5898
11323TIP3   OH255383   4.228   6.046   5.950 -0.1664  0.7567 -0.1601
11323TIP3    H155384   4.291   6.112   5.922  0.7290 -0.6560 -1.6611
11323TIP3    H255385   4.143   6.090   5.949  0.2972  1.6783 -1.8788
11324TIP3   OH255386   4.947   5.027   5.050  0.1570  0.2382 -0.0242
11324TIP3    H155387   4.945   5.069   5.136  0.6025 -0.5700  0.3950
11324TIP3    H255388   4.940   4.933   5.070 -3.0543  0.1374 -1.0140
11325TIP3   OH255389   3.546   6.242  16.944 -0.0145  0.6753  0.4908
11325TIP3    H155390   3.569   6.260  16.853  1.1855  1.7309  0.9690
11325TIP3    H255391   3.463   6.195  16.940  0.4641 -0.0848 -1.1808
11326TIP3   OH255392   0.976   0.087  14.273 -0.8507  0.4653 -0.0768
11326TIP3    H155393   0.976  -0.003  14.241 -2.0985  0.2701  0.4118
11326TIP3    H255394   1.068   0.111  14.278 -0.5436 -0.0676 -2.1992
11327TIP3   OH255395   5.177   5.317  15.703  0.1719  0.0305  0.1196
11327TIP3    H155396   5.101   5.265  15.679  0.9127 -0.9188 -0.2061
11327TIP3    H255397   5.184   5.308  15.798 -0.9671  1.3239  0.3626
11328TIP3   OH255398   5.238   4.077   5.856 -0.0304  0.0356  0.1152
11328TIP3    H155399   5.298   4.113   5.790 -0.1749  1.0979  0.5370
11328TIP3    H255400   5.160   4.053   5.807 -0.5758  1.8606  0.0266
11329TIP3   OH255401   2.794   5.147   1.801  0.0191  0.0993  0.0541
11329TIP3    H155402   2.816   5.127   1.892 -1.3691 -2.1493 -0.0088
11329TIP3    H255403   2.874   5.185   1.764  1.5236 -1.4655  1.5145
11330TIP3   OH255404   2.550   5.072  15.616  0.4191 -0.7527 -0.1689
11330TIP3    H155405   2.542   5.079  15.521  0.2713 -1.0738 -0.1827
11330TIP3    H255406   2.634   5.114  15.636 -0.1768  0.5462 -0.2846
11331TIP3   OH255407   4.507   0.927   5.097  0.1985 -0.0042  0.2088
11331TIP3    H155408   4.475   1.001   5.046 -0.3763  0.0399  0.6270
11331TIP3    H255409   4.428   0.879   5.122  0.4270  0.2968  1.5569
11332TIP3   OH255410   0.814   0.363  16.372 -0.2744  0.9599 -0.0639
11332TIP3    H155411   0.909   0.354  16.360 -0.2219  3.0848 -1.9394
11332TIP3    H255412   0.805   0.392  16.463  0.7408 -0.4782  0.5357
11333TIP3   OH255413   5.022   0.264   3.089 -0.0500  0.2907 -0.1015
11333TIP3    H155414   4.958   0.218   3.034 -0.5597  0.1218  0.6269
11333TIP3    H255415   5.046   0.202   3.157  1.0874  0.2719 -0.4969
11334TIP3   OH255416   6.369   3.662  13.692 -0.0030  0.1178 -0.4515
11334TIP3    H155417   6.283   3.695  13.714 -0.6505  0.6591 -3.4366
11334TIP3    H255418   6.381   3.587  13.750 -2.5309 -0.0447 -0.0315
11335TIP3   OH255419   2.170   5.960  16.515 -0.7192  0.2639  1.1472
11335TIP3    H155420   2.128   5.875  16.516 -0.3322 -0.0421 -1.3177
11335TIP3    H255421   2.115   6.014  16.458  1.8928 -0.0825 -1.9629
11336TIP3   OH255422   0.940   5.214  13.737 -0.8295 -0.3550  0.2792
11336TIP3    H155423   0.989   5.292  13.764 -1.9149  0.1408  0.9188
11336TIP3    H255424   0.957   5.206  13.643  0.4704 -0.2255  0.4881
11337TIP3   OH255425   4.191   3.401  16.287 -0.1585  0.0691  0.2357
11337TIP3    H155426   4.243   3.481  16.286  1.1843 -0.7800 -0.9653
11337TIP3    H255427   4.163   3.392  16.378  2.3136  0.2459  1.0751
11338TIP3   OH255428   6.714   2.213  10.690  0.1084  0.7724 -0.4894
11338TIP3    H155429   6.689   2.303  10.712  2.1056  1.6442 -1.4710
11338TIP3    H255430   6.786   2.193  10.751  1.4822  0.8997 -1.9915
11339TIP3   OH255431   5.886   1.913  14.948 -0.5373 -0.2896 -0.0312
11339TIP3    H155432   5.791   1.908  14.942 -0.5061  0.5363 -2.0603
11339TIP3    H255433   5.917   1.886  14.861  1.0074  0.4643  0.2486
11340TIP3   OH255434   1.586   0.711  15.411  0.0978  0.4732  0.5381
11340TIP3    H155435   1.604   0.728  15.319 -0.4428 -2.5752 -0.2410
11340TIP3    H255436   1.522   0.639  15.410  0.0666  0.3560  3.2909
11341TIP3   OH255437   0.410   3.821   1.550  0.3058  0.3948 -0.2489
11341TIP3    H155438   0.422   3.759   1.622 -2.0939 -0.1092 -0.1946
11341TIP3    H255439   0.473   3.890   1.567  0.1621  0.0394  2.0723
11342TIP3   OH255440   2.244   1.729  12.761  0.3604  0.0461 -0.2121
11342TIP3    H155441   2.303   1.786  12.712 -0.8557  1.5213 -0.0333
11342TIP3    H255442   2.302   1.675  12.814  1.5799  0.9864 -0.5301
11343TIP3   OH255443   1.985   0.963  14.309 -0.3020 -0.0306  0.2927
11343TIP3    H155444   2.021   0.898  14.370  2.0268 -0.1749 -1.1301
11343TIP3    H255445   2.053   1.030  14.302 -1.4580  1.1032 -0.4600
11344TIP3   OH255446   2.684   1.644   0.975  0.0207  0.7896  0.7036
11344TIP3    H155447   2.734   1.717   0.937 -0.9505  1.3654  0.4776
11344TIP3    H255448   2.721   1.632   1.062  0.4571  1.3061  0.5931
11345TIP3   OH255449   6.284   1.637   6.662 -0.2406  0.0720 -0.1179
11345TIP3    H155450   6.204   1.641   6.715  0.3312 -2.2052  1.0591
11345TIP3    H255451   6.261   1.580   6.589  0.3226 -0.7764  0.3456
11346TIP3   OH255452   5.271   1.505   2.988 -0.2074  0.1361  0.6701
11346TIP3    H155453   5.180   1.521   3.010 -1.1063 -0.4638 -2.2749
11346TIP3    H255454   5.312   1.592   2.994 -1.4314  0.7744  0.0714
11347TIP3   OH255455   6.299   6.662  15.934  0.0958 -0.2687 -0.2661
11347TIP3    H155456   6.253   6.667  16.018 -0.4994  0.5581 -0.6265
11347TIP3    H255457   6.240   6.613  15.877  0.8826 -1.6152  0.0146
11348TIP3   OH255458   5.426   0.679  13.874  0.2963 -0.0628  0.2894
11348TIP3    H155459   5.376   0.602  13.903 -0.6051  0.3078 -0.2464
11348TIP3    H255460   5.517   0.657  13.894 -0.0674 -0.7582  1.2758
11349TIP3   OH255461   5.231   5.894  13.125 -0.1125 -0.2685 -0.0650
11349TIP3    H155462   5.162   5.830  13.139 -0.8812  0.4493 -0.5195
11349TIP3    H255463   5.197   5.976  13.160  0.3467  0.1814 -0.6252
11350TIP3   OH255464   3.066   3.813  14.840 -0.0330  0.2436 -0.6720
11350TIP3    H155465   3.047   3.802  14.934  0.0932  1.2418 -0.5168
11350TIP3    H255466   3.105   3.730  14.814 -3.3822 -1.4704 -0.7136
11351TIP3   OH255467   3.981   6.195  15.894  0.3313 -0.0097 -0.5226
11351TIP3    H155468   3.929   6.122  15.859  0.0277  0.3460 -0.8192
11351TIP3    H255469   3.935   6.220  15.974 -0.4166  0.8129 -1.1871
11352TIP3   OH255470   0.450   1.685  12.859  0.0706 -0.6031 -0.3191
11352TIP3    H155471   0.374   1.727  12.820 -1.5070 -3.0055 -0.0184
11352TIP3    H255472   0.430   1.682  12.953  1.0831 -0.2690 -0.0770
11353TIP3   OH255473   2.272   2.846   0.858  0.9590 -0.1548 -0.4018
11353TIP3    H155474   2.331   2.921   0.852  2.5725 -1.5053 -3.1289
11353TIP3    H255475   2.199   2.868   0.799  0.3008  0.1359  0.4870
11354TIP3   OH255476   5.798   5.788  14.602  0.0218  0.4237  0.3102
11354TIP3    H155477   5.832   5.833  14.525 -1.6035  0.2841 -0.5287
11354TIP3    H255478   5.832   5.699  14.594  0.9471  0.7486  0.4822
11355TIP3   OH255479   5.614   0.750  14.377  0.2544  0.0232  0.1348
11355TIP3    H155480   5.632   0.841  14.399  0.0959  0.1097 -0.0957
11355TIP3    H255481   5.520   0.747  14.359  0.5833  0.2257 -1.8360
11356TIP3   OH255482   0.785   0.324   0.596 -0.2607  0.2256 -0.0756
11356TIP3    H155483   0.750   0.412   0.579  0.2903  0.4599 -0.0261
11356TIP3    H255484   0.709   0.273   0.625 -1.4969 -0.4007 -3.7750
11357TIP3   OH255485   5.158   2.222  11.375  0.0838  0.4357  0.3614
11357TIP3    H155486   5.186   2.291  11.314  0.6818  0.1828  0.3411
11357TIP3    H255487   5.238   2.199  11.422 -0.7435  2.1557  2.8183
11358TIP3   OH255488   5.554   4.482   0.753 -0.4182  0.6353  0.5984
11358TIP3    H155489   5.496   4.410   0.780  0.0205  0.1420  0.2545
11358TIP3    H255490   5.495   4.553   0.730 -1.2126 -1.0253 -3.3681
11359TIP3   OH255491   4.219   2.427   6.551 -0.2308  0.4465 -0.0337
11359TIP3    H155492   4.265   2.432   6.467 -0.2722  1.3864 -0.0031
11359TIP3    H255493   4.128   2.409   6.527 -0.2099  0.5305 -0.1751
11360TIP3   OH255494   2.612   5.448  14.991 -0.0159  0.3215 -0.1448
11360TIP3    H155495   2.630   5.375  14.932  1.1564  2.5973 -2.8817
11360TIP3    H255496   2.518   5.461  14.986 -0.4144 -1.5463  1.2400
11361TIP3   OH255497   2.649   5.561  15.994 -0.4217  0.3148  0.4770
11361TIP3    H155498   2.716   5.538  16.058  0.8061  1.1581 -0.4381
11361TIP3    H255499   2.652   5.657  15.991 -0.1120  0.2774 -1.1476
11362TIP3   OH255500   0.088   4.045   0.289 -0.2588  0.5730 -0.3662
11362TIP3    H155501  -0.000   4.014   0.267 -0.0544 -1.0077  0.8725
11362TIP3    H255502   0.083   4.140   0.280 -2.0856  0.5131 -0.3453
11363TIP3   OH255503   1.306   6.190  11.460 -0.0829 -0.3898  0.2541
11363TIP3    H155504   1.298   6.220  11.369 -0.3325 -0.9093  0.1042
11363TIP3    H255505   1.217   6.191  11.494  0.1265  0.8337  0.8383
11364TIP3   OH255506   1.129   3.686  16.522  0.4793 -0.2496  0.5162
11364TIP3    H155507   1.060   3.634  16.480  1.1428 -1.0220  0.3573
11364TIP3    H255508   1.082   3.754  16.570 -0.3462  1.8474 -2.8661
11365TIP3   OH255509   4.530   1.265  12.656 -0.6472  0.3979 -0.2505
11365TIP3    H155510   4.578   1.319  12.718  0.5106  0.0501 -0.8102
11365TIP3    H255511   4.458   1.321  12.627 -1.8085  0.2439  2.0753
11366TIP3   OH255512   0.386   5.811  15.297 -0.1271  0.1778 -0.1898
11366TIP3    H155513   0.410   5.871  15.226 -1.1528 -0.8862 -1.5174
11366TIP3    H255514   0.435   5.731  15.278 -0.5714 -0.1895  0.1679
11367TIP3   OH255515   1.512   6.279   3.457 -0.0391  0.4308 -0.0033
11367TIP3    H155516   1.480   6.196   3.492  1.6930 -0.6394 -0.8092
11367TIP3    H255517   1.538   6.260   3.367  1.7372  1.4545  0.2339
11368TIP3   OH255518   6.012   6.591   2.501 -0.1355  0.4270 -0.2730
11368TIP3    H155519   6.063   6.658   2.455 -0.0319  0.7232  0.2661
11368TIP3    H255520   6.077   6.535   2.543 -0.1745 -0.7232 -1.6629
11369TIP3   OH255521   3.705   5.024  12.731  0.3239 -0.4261 -0.1690
11369TIP3    H155522   3.785   4.989  12.691  0.5361 -0.0948 -0.0418
11369TIP3    H255523   3.637   5.007  12.666  0.7259  0.4080 -0.8377
11370TIP3   OH255524   4.310   6.559   4.942  0.4277 -0.2830  0.8139
11370TIP3    H155525   4.353   6.540   4.859 -2.2078  0.1656 -0.7426
11370TIP3    H255526   4.277   6.648   4.932  0.0836 -0.2073  2.3769
11371TIP3   OH255527   1.473   3.219  15.653  0.2892  0.1054 -0.1848
11371TIP3    H155528   1.387   3.188  15.625 -0.0364 -0.1594  1.0764
11371TIP3    H255529   1.523   3.139  15.669  0.6300  0.2599 -0.4610
11372TIP3   OH255530   3.917   6.654   1.739  0.0226 -0.3930  0.2490
11372TIP3    H155531   3.979   6.670   1.810  1.0597  2.6917 -1.1647
11372TIP3    H255532   3.851   6.723   1.748  0.7961  0.8104 -2.3227
11373TIP3   OH255533   3.499   0.437   1.060 -0.3131  0.0583 -0.0166
11373TIP3    H155534   3.418   0.394   1.086 -0.1759  0.6121  1.4601
11373TIP3    H255535   3.472   0.509   1.003 -0.7662 -0.3245 -0.2892
11374TIP3   OH255536   3.291   3.265   0.187 -0.1379  0.3559 -0.4358
11374TIP3    H155537   3.349   3.189   0.186  1.1875  1.3171  0.0587
11374TIP3    H255538   3.302   3.305   0.101  1.9711  1.9569  0.4884
11375TIP3   OH255539   4.333   3.330   6.121 -0.2817 -0.1521  0.3375
11375TIP3    H155540   4.327   3.421   6.094 -1.5716 -0.2966  0.0599
11375TIP3    H255541   4.391   3.331   6.197  0.0821  0.8293  0.0613
11376TIP3   OH255542   5.539   3.638  10.971 -0.1855  0.2949 -0.5914
11376TIP3    H155543   5.629   3.652  10.942 -0.3385 -0.6952 -1.6131
11376TIP3    H255544   5.515   3.719  11.016  1.1063  0.6826 -0.5623
11377TIP3   OH255545   4.650   5.504   2.928 -0.2514  0.1571  0.1339
11377TIP3    H155546   4.722   5.479   2.986 -0.0060  0.1075 -0.1868
11377TIP3    H255547   4.630   5.594   2.953  2.8712  1.8370 -2.6425
11378TIP3   OH255548   6.228   5.265  14.035  0.2999 -0.3499 -0.5375
11378TIP3    H155549   6.310   5.299  14.070  0.1363 -0.2403 -0.2629
11378TIP3    H255550   6.160   5.303  14.091  0.0702 -0.5563 -0.6746
11379TIP3   OH255551   4.661   0.764  16.798 -0.1668  0.0771 -0.7812
11379TIP3    H155552   4.746   0.759  16.754  0.3036  0.4481  0.0550
11379TIP3    H255553   4.672   0.710  16.876  0.3287  2.4758  0.9232
11380TIP3   OH255554   4.238   1.241  11.998 -0.1898  0.0650 -0.3476
11380TIP3    H155555   4.288   1.184  12.055  0.3269  1.4017  0.5781
11380TIP3    H255556   4.156   1.257  12.046 -0.6723 -0.4980 -0.9561
11381TIP3   OH255557   1.725   2.195  16.846 -0.1194 -0.4703  0.4889
11381TIP3    H155558   1.729   2.285  16.815 -0.1009 -0.8189 -0.5660
11381TIP3    H255559   1.708   2.202  16.940  0.6844  0.6297  0.5633
11382TIP3   OH255560   3.844   2.761  14.763 -0.9030  0.4162  0.4081
11382TIP3    H155561   3.777   2.725  14.705 -0.8353  0.2831  0.4125
11382TIP3    H255562   3.804   2.840  14.799 -0.9036  0.5645  0.0887
11383TIP3   OH255563   4.043   1.270  16.413  0.0343  0.0677 -0.2751
11383TIP3    H155564   3.965   1.272  16.358 -0.2106  0.0223  0.0744
11383TIP3    H255565   4.109   1.226  16.359 -0.6522 -1.3967  0.0516
11384TIP3   OH255566   2.083   3.813  16.071  0.2933 -0.2400  0.5002
11384TIP3    H155567   2.053   3.890  16.023  2.5001  0.0981 -0.4590
11384TIP3    H255568   2.024   3.743  16.044  1.0331  0.0872 -2.2730
11385TIP3   OH255569   4.128   5.479   5.551 -0.4866  0.1560  0.2625
11385TIP3    H155570   4.054   5.534   5.578 -0.8733  0.6983 -1.7537
11385TIP3    H255571   4.131   5.409   5.616 -3.7056 -0.6957 -0.3593
11386TIP3   OH255572   5.108   4.083  14.913  0.1410  0.0377  0.6971
11386TIP3    H155573   5.044   4.037  14.968  0.5589 -0.2187  0.9738
11386TIP3    H255574   5.152   4.014  14.865 -0.1676  0.2549  0.0813
11387TIP3   OH255575   6.115   2.391   3.885  0.4151 -0.0723 -0.3029
11387TIP3    H155576   6.182   2.390   3.816  3.2987  0.7558  2.2659
11387TIP3    H255577   6.111   2.482   3.914 -2.7567  0.1504 -1.0276
11388TIP3   OH255578   2.997   6.551  13.806  0.0402  0.4023  0.2019
11388TIP3    H155579   2.943   6.473  13.817  2.1720 -1.2740 -0.4277
11388TIP3    H255580   3.018   6.578  13.895 -0.8274  0.3344  0.4294
11389TIP3   OH255581   4.267   0.875   0.988 -0.1801 -0.3222  0.4194
11389TIP3    H155582   4.222   0.795   0.962  1.3833 -1.4913  1.1059
11389TIP3    H255583   4.197   0.939   1.002 -1.3488 -0.8940 -2.2350
11390TIP3   OH255584   6.653   5.759  16.280 -0.0785 -0.0362  0.0000
11390TIP3    H155585   6.612   5.737  16.196  0.0972  2.2805 -0.7796
11390TIP3    H255586   6.580   5.778  16.339 -0.2131 -2.0690  0.5292
11391TIP3   OH255587   5.505   2.216  12.004  0.2194 -0.1545  0.2615
11391TIP3    H155588   5.481   2.186  12.091 -0.2763  0.8204  0.4647
11391TIP3    H255589   5.576   2.157  11.977  2.6188  1.4452  2.6224
11392TIP3   OH255590   5.374   6.050   4.869 -0.2069  1.0480 -0.0314
11392TIP3    H155591   5.355   6.100   4.790 -1.1414  0.8081  0.0287
11392TIP3    H255592   5.298   5.994   4.881  1.1830 -1.0459 -0.5626
11393TIP3   OH255593   6.353   3.189  15.389 -0.4072 -0.3154  0.3286
11393TIP3    H155594   6.311   3.183  15.304 -1.0694  0.1315  0.6159
11393TIP3    H255595   6.364   3.098  15.418  0.0035 -0.4743 -0.3145
11394TIP3   OH255596   5.460   2.986  15.726  0.1310  0.4850 -0.5837
11394TIP3    H155597   5.477   2.994  15.819  2.7219  0.0353 -0.9531
11394TIP3    H255598   5.427   2.897  15.714 -0.1180  0.5153 -0.1252
11395TIP3   OH255599   2.380   1.359   3.922 -0.0673 -0.2102 -0.2561
11395TIP3    H155600   2.443   1.409   3.973 -0.8891  0.6932 -0.1098
11395TIP3    H255601   2.364   1.412   3.844 -0.2464 -0.6893 -0.5565
11396TIP3   OH255602   0.755   0.067   5.943  0.3769 -0.2778 -0.3518
11396TIP3    H155603   0.840   0.057   5.986  2.1074 -0.8518 -3.6244
11396TIP3    H255604   0.758   0.154   5.903 -1.7493  0.8217  1.6283
11397TIP3   OH255605   4.680   0.973   6.366  0.2378  0.6317 -0.1700
11397TIP3    H155606   4.697   0.889   6.407 -1.1001  0.3056 -0.2367
11397TIP3    H255607   4.662   1.032   6.439 -1.2908  0.2527 -0.2085
11398TIP3   OH255608   1.538   3.843   4.741 -0.3552  0.3050 -0.4499
11398TIP3    H155609   1.529   3.935   4.719  0.4877  0.7249  0.8208
11398TIP3    H255610   1.597   3.842   4.817  0.0046 -1.3067 -0.7079
11399TIP3   OH255611   2.680   0.750   1.299  0.0084 -0.1511  0.2321
11399TIP3    H155612   2.735   0.816   1.342  1.1153 -0.8488 -0.1045
11399TIP3    H255613   2.717   0.666   1.326  0.7430 -0.6214 -2.0397
11400TIP3   OH255614   4.339   0.740   3.129 -0.7420 -0.6274 -0.5420
11400TIP3    H155615   4.345   0.682   3.205 -0.3397  0.5214  0.3257
11400TIP3    H255616   4.286   0.691   3.066 -1.0647 -1.6136  0.4617
11401TIP3   OH255617   3.843   2.195  13.643  0.5947  0.4255  0.7315
11401TIP3    H155618   3.930   2.155  13.649 -0.2995 -1.5341  1.9393
11401TIP3    H255619   3.814   2.201  13.734 -0.6517  0.7523  0.3278
11402TIP3   OH255620   4.416   2.081   5.680 -0.5665  0.2051  0.2520
11402TIP3    H155621   4.332   2.077   5.726 -0.7394  2.2889  0.2213
11402TIP3    H255622   4.418   2.169   5.641  1.2143 -0.1491 -0.5676
11403TIP3   OH255623   1.445   0.430   0.168 -0.4577 -0.1363 -0.2287
11403TIP3    H155624   1.484   0.447   0.254 -0.6904 -1.0524  0.0651
11403TIP3    H255625   1.358   0.395   0.187 -0.6363 -0.0380 -0.8455
11404TIP3   OH255626   6.071   1.123  15.756  0.7659  0.5539  0.1357
11404TIP3    H155627   6.032   1.070  15.826 -1.3990  1.9144  0.0748
11404TIP3    H255628   6.098   1.203  15.800  1.4867  0.5085 -0.2204
11405TIP3   OH255629   4.375   6.188   2.426 -0.1747  0.5150  0.6372
11405TIP3    H155630   4.299   6.145   2.463 -0.4743 -1.3954 -1.8953
11405TIP3    H255631   4.450   6.146   2.469 -0.5091  0.7457  1.4595
11406TIP3   OH255632   0.671   3.013   5.935 -0.1200  0.6068  0.0172
11406TIP3    H155633   0.710   2.992   5.850  2.0398  2.7887  0.3483
11406TIP3    H255634   0.693   2.939   5.991  2.0424  0.9007 -0.3454
11407TIP3   OH255635   6.520   5.584  17.291 -0.6448  0.2508  0.0817
11407TIP3    H155636   6.471   5.631  17.224  0.8781  1.1813 -0.4316
11407TIP3    H255637   6.522   5.493  17.261  1.5366  0.9420 -2.1485
11408TIP3   OH255638   6.451   2.087   3.717 -0.5599 -0.3743 -0.0636
11408TIP3    H155639   6.459   2.036   3.637 -1.0865 -2.1456  0.9659
11408TIP3    H255640   6.540   2.092   3.752 -0.4352 -0.1640 -0.4030
11409TIP3   OH255641   4.770   1.848  16.163  0.3892  0.2134 -0.3902
11409TIP3    H155642   4.829   1.893  16.223 -0.1907 -1.4450  1.5634
11409TIP3    H255643   4.824   1.779  16.124  0.3735  0.2879 -0.5438
11410TIP3   OH255644   1.209   0.212  17.235 -0.3853  0.6686 -0.2846
11410TIP3    H155645   1.182   0.242  17.148 -1.1473  1.7790  0.3066
11410TIP3    H255646   1.305   0.217  17.234 -0.4316  2.2036 -0.5732
11411TIP3   OH255647   6.100   3.139  11.954  0.0911 -0.2333  0.1204
11411TIP3    H155648   6.085   3.134  11.859 -1.1924  0.5066  0.2623
11411TIP3    H255649   6.188   3.103  11.966  1.2771  1.8274 -1.6293
11412TIP3   OH255650   3.774   3.502  14.820  0.0273 -0.6823  0.0020
11412TIP3    H155651   3.781   3.570  14.753  1.6802 -0.3888  0.4385
11412TIP3    H255652   3.738   3.426  14.772  0.7952 -0.3574 -1.1332
11413TIP3   OH255653   4.161   1.605  13.361  0.3429  0.4154 -0.0555
11413TIP3    H155654   4.129   1.611  13.271  0.1006  2.0729  0.1086
11413TIP3    H255655   4.256   1.596  13.352  0.1474 -1.7863 -0.4877
11414TIP3   OH255656   0.218   3.848   0.829 -0.0427 -0.3681 -0.4043
11414TIP3    H155657   0.148   3.901   0.792 -1.2103 -2.3788 -1.2560
11414TIP3    H255658   0.172   3.785   0.886  1.1578 -1.1779 -0.3059
11415TIP3   OH255659   6.103   4.228  13.174 -0.1209  0.2709 -0.1248
11415TIP3    H155660   6.011   4.207  13.185  0.2619 -1.1659  0.5075
11415TIP3    H255661   6.142   4.151  13.132  1.0472  0.2377  0.9396
11416TIP3   OH255662   1.523   6.164  16.891 -0.1055  0.5465 -0.2448
11416TIP3    H155663   1.588   6.129  16.952 -0.0276  1.6474  0.3376
11416TIP3    H255664   1.484   6.237  16.938 -1.5364  0.1103 -0.7276
11417TIP3   OH255665   5.453   4.526  15.868  0.9440 -0.0176 -0.3082
11417TIP3    H155666   5.435   4.523  15.962  0.2672 -0.0245 -0.4303
11417TIP3    H255667   5.381   4.578  15.832  1.3777  0.2609 -0.7831
11418TIP3   OH255668   4.152   3.426  16.972 -0.3055  0.6563  0.2866
11418TIP3    H155669   4.160   3.485  16.897  0.5875 -0.0914 -0.2298
11418TIP3    H255670   4.241   3.416  17.004 -0.3107 -0.9853 -0.1059
11419TIP3   OH255671   3.960   4.839  16.441  0.6510 -0.5274  0.1642
11419TIP3    H155672   3.957   4.910  16.377  1.9674  0.6660  1.3521
11419TIP3    H255673   3.875   4.795  16.433  0.5991 -0.1636 -2.0609
11420TIP3   OH255674   3.238   1.603  16.121 -0.3865  0.3569  0.3883
11420TIP3    H155675   3.299   1.545  16.166 -1.9160  0.0551  2.2309
11420TIP3    H255676   3.293   1.661  16.068  1.4489 -0.0840  1.7274
11421TIP3   OH255677   2.425   5.056   4.503  0.4405  0.0308 -0.6732
11421TIP3    H155678   2.359   4.993   4.477  0.3317 -0.8522  1.5446
11421TIP3    H255679   2.497   5.003   4.539  0.0813  1.0971  1.8392
11422TIP3   OH255680   5.188   2.401  15.842 -0.5848  0.2335  0.0247
11422TIP3    H155681   5.169   2.439  15.756  0.3287 -1.6757 -1.0767
11422TIP3    H255682   5.209   2.310  15.824 -0.2158 -0.1817  2.2783
11423TIP3   OH255683   5.358   0.436   6.140  0.0952  0.3554 -0.2778
11423TIP3    H155684   5.311   0.396   6.213  0.2174  0.2513 -0.2551
11423TIP3    H255685   5.386   0.521   6.172  1.5222 -0.3066  0.3531
11424TIP3   OH255686   1.587   0.821   5.754 -0.2772  0.2659  0.0060
11424TIP3    H155687   1.620   0.871   5.828  0.0366  1.6153 -1.0183
11424TIP3    H255688   1.501   0.789   5.783  0.6576 -0.9370  1.6604
11425TIP3   OH255689   0.203   4.237  15.825  0.1966 -0.0335 -0.3416
11425TIP3    H155690   0.250   4.177  15.883 -1.8009  1.4407  3.1214
11425TIP3    H255691   0.215   4.323  15.865 -1.7204  1.0314 -1.8733
11426TIP3   OH255692   1.364   2.978  16.441 -0.0677 -0.1874  0.3522
11426TIP3    H155693   1.308   3.056  16.444  1.4954  1.1651 -2.1736
11426TIP3    H255694   1.306   2.907  16.467 -2.3010  1.4542  0.2232
11427TIP3   OH255695   5.466   5.586  15.015  0.6351  0.1040  0.1717
11427TIP3    H155696   5.519   5.665  15.012  0.9992 -0.1090  0.8428
11427TIP3    H255697   5.409   5.597  15.091  0.1496  0.0566 -0.1797
11428TIP3   OH255698   2.458   0.081   2.848  0.0972 -0.4756  0.2280
11428TIP3    H155699   2.473   0.078   2.753  0.4687  1.2575  0.2000
11428TIP3    H255700   2.534   0.036   2.885  0.3516 -0.4709 -0.2768
11429TIP3   OH255701   1.629   4.000  11.456  0.7980 -0.2474  0.3059
11429TIP3    H155702   1.612   3.950  11.535  2.9956 -0.4085  0.7458
11429TIP3    H255703   1.628   3.934  11.386 -0.5920 -0.1894  0.2427
11430TIP3   OH255704   4.116   2.944   1.089 -0.2463  1.0664 -0.2078
11430TIP3    H155705   4.099   2.964   1.181 -1.0371  2.0327 -0.5492
11430TIP3    H255706   4.030   2.933   1.050  0.0298  1.9969 -1.1143
11431TIP3   OH255707   5.194   1.656  13.442  0.0271 -0.3761 -0.4517
11431TIP3    H155708   5.280   1.669  13.401  0.2299  0.2608  0.1498
11431TIP3    H255709   5.200   1.572  13.486  0.0299 -0.7579 -1.1691
11432TIP3   OH255710   4.105   5.814  14.187  0.6929  0.2311  0.3798
11432TIP3    H155711   4.194   5.841  14.161  0.7467  0.8303  1.1543
11432TIP3    H255712   4.115   5.725  14.220  0.7307 -0.3070 -1.0145
11433TIP3   OH255713   0.833   2.854   0.575 -1.0923 -0.3102 -0.1795
11433TIP3    H155714   0.823   2.759   0.583 -3.5810 -0.1028 -0.0329
11433TIP3    H255715   0.745   2.888   0.590 -0.2095  2.0465 -0.0534
11434TIP3   OH255716   0.655   4.283  17.366  0.1871 -0.0984 -0.3329
11434TIP3    H155717   0.596   4.345  17.323 -0.9779 -0.7480  0.2738
11434TIP3    H255718   0.643   4.201  17.317  1.0341 -0.0932 -0.5658
11435TIP3   OH255719   3.041   4.868   6.389 -0.5076  0.8754  0.4333
11435TIP3    H155720   3.123   4.884   6.435 -0.5967  0.6533  0.6759
11435TIP3    H255721   2.999   4.798   6.439 -0.9091  1.0832  0.3952
11436TIP3   OH255722   2.782   6.272   5.372  0.5801  0.6704 -0.1004
11436TIP3    H155723   2.826   6.258   5.289 -2.4188 -0.0982 -1.6985
11436TIP3    H255724   2.727   6.349   5.358 -2.6065 -1.4216 -0.1588
11437TIP3   OH255725   5.870   0.195   2.841 -0.0227 -0.2905 -0.1739
11437TIP3    H155726   5.901   0.129   2.779 -2.2768 -1.9320  0.3187
11437TIP3    H255727   5.883   0.155   2.927  0.2121  0.6675  0.2486
11438TIP3   OH255728   4.278   3.833   5.986  0.4570 -0.1578 -0.3220
11438TIP3    H155729   4.293   3.908   5.928  2.5072  0.2949  0.7095
11438TIP3    H255730   4.260   3.872   6.072  2.0270 -0.7939  0.3366
11439TIP3   OH255731   0.037   6.286  14.731 -0.0330  0.1981  0.2142
11439TIP3    H155732   0.053   6.295  14.637  1.6819  3.4448  0.6596
11439TIP3    H255733   0.020   6.376  14.761 -0.2539 -0.6949  3.0655
11440TIP3   OH255734   4.750   6.347  16.478  0.4025  0.4782  0.0959
11440TIP3    H155735   4.825   6.354  16.537  1.5456 -0.0758 -1.2158
11440TIP3    H255736   4.774   6.402  16.403  0.7457 -1.7415 -1.5342
11441TIP3   OH255737   0.632   3.009   4.074 -0.5807  0.4779 -0.2287
11441TIP3    H155738   0.679   3.092   4.073  0.2716 -0.0035 -0.7042
11441TIP3    H255739   0.636   2.980   4.165 -0.4371  0.7015 -0.1634
11442TIP3   OH255740   0.349   4.239   2.202 -0.0536  0.0100 -0.2950
11442TIP3    H155741   0.378   4.264   2.290  1.1068  1.3369 -1.0236
11442TIP3    H255742   0.417   4.179   2.171 -1.6293 -2.3678  0.5363
11443TIP3   OH255743   3.960   2.812  13.549 -0.0926 -0.0052  0.1214
11443TIP3    H155744   3.921   2.734  13.508  0.5339 -1.3745  2.0023
11443TIP3    H255745   3.954   2.795  13.643  0.5141  2.0273  0.5667
11444TIP3   OH255746   4.776   4.980   3.662 -0.4995 -0.0799 -0.0524
11444TIP3    H155747   4.791   5.069   3.694  1.2683 -0.4361  0.1924
11444TIP3    H255748   4.860   4.936   3.673 -1.4433 -1.8989  0.1797
11445TIP3   OH255749   3.745   5.849   0.042 -0.1668  0.2639 -0.3270
11445TIP3    H155750   3.781   5.836  -0.046  1.0629  0.8713  0.0703
11445TIP3    H255751   3.683   5.776   0.053  0.5297 -0.5005 -1.2550
11446TIP3   OH255752   4.233   3.789   4.351 -0.1167  0.5298  0.0382
11446TIP3    H155753   4.326   3.787   4.375  0.0831 -1.1302 -0.6649
11446TIP3    H255754   4.230   3.844   4.273  0.6675 -1.0008 -1.1434
11447TIP3   OH255755   0.800   4.874  15.220  0.1927  0.3153 -0.2759
11447TIP3    H155756   0.768   4.958  15.251 -0.6369  0.2538 -0.9630
11447TIP3    H255757   0.831   4.890  15.131  1.2966  0.1832  0.0650
11448TIP3   OH255758   1.575   5.601   5.501 -0.6331  0.1428  0.6957
11448TIP3    H155759   1.516   5.622   5.573 -1.2965  0.9366 -0.0541
11448TIP3    H255760   1.649   5.557   5.543 -1.6066 -0.5959  1.6862
11449TIP3   OH255761   5.442   3.203  15.137  0.0431  0.2226 -0.0217
11449TIP3    H155762   5.453   3.109  15.129  1.6896  0.4670 -0.9053
11449TIP3    H255763   5.423   3.217  15.230  2.1891 -0.7854  0.6214
11450TIP3   OH255764   4.979   3.031   4.344 -0.0415 -0.5121  0.3764
11450TIP3    H155765   4.907   3.011   4.404  0.5547  1.0624  1.6979
11450TIP3    H255766   4.960   2.980   4.265 -0.9942 -2.4499  1.7978
11451TIP3   OH255767   1.159   0.644   0.906  0.5818 -0.5805 -0.2776
11451TIP3    H155768   1.126   0.685   0.986 -0.3085  2.1953 -1.9276
11451TIP3    H255769   1.089   0.586   0.878 -0.4632  0.7756 -0.6080
11452TIP3   OH255770   6.580   0.745  16.073  0.4644  0.2977 -0.0437
11452TIP3    H155771   6.530   0.741  15.992  2.1506  0.6161 -1.1302
11452TIP3    H255772   6.652   0.684  16.062  0.8311  0.4710  1.1412
11453TIP3   OH255773   3.151   5.096   6.760 -0.0151 -0.8622 -0.5562
11453TIP3    H155774   3.105   5.056   6.833 -1.9902  1.7074 -0.2712
11453TIP3    H255775   3.199   5.170   6.798 -0.9022  0.3891 -1.7424
11454TIP3   OH255776   3.431   0.053  12.189 -0.3809  0.2379  0.2686
11454TIP3    H155777   3.456  -0.011  12.122 -0.1062  0.6814 -0.0529
11454TIP3    H255778   3.361   0.009  12.239 -1.0928  0.1795 -0.7542
11455TIP3   OH255779   6.684   5.779  13.847 -0.2935 -0.3205 -0.3536
11455TIP3    H155780   6.693   5.777  13.942 -1.1830  1.1362 -0.1966
11455TIP3    H255781   6.686   5.688  13.820  2.4417 -0.7031  0.7778
11456TIP3   OH255782   4.132   4.690   5.777  0.0585  0.1424  0.3548
11456TIP3    H155783   4.160   4.779   5.754 -0.6609  0.4735  0.7324
11456TIP3    H255784   4.051   4.703   5.827 -0.5672 -0.7869 -0.4076
11457TIP3   OH255785   6.376   3.746  16.742  0.0935  0.2733  0.3026
11457TIP3    H155786   6.408   3.706  16.822 -0.3418 -1.2996 -0.2722
11457TIP3    H255787   6.298   3.696  16.719 -1.2316  2.2700  0.1987
11458TIP3   OH255788   1.257   4.248   2.884  0.3630 -0.4081  0.1885
11458TIP3    H155789   1.288   4.228   2.972  1.9609 -2.2667 -0.7334
11458TIP3    H255790   1.168   4.211   2.882  1.1910 -2.5245  0.3168
11459TIP3   OH255791   6.508   0.832  11.821  0.3346 -0.2668 -0.0969
11459TIP3    H155792   6.462   0.748  11.828  0.1492 -0.1446  0.1215
11459TIP3    H255793   6.503   0.854  11.728  1.2712 -1.0028 -0.3377
11460TIP3   OH255794   5.505   5.940  11.217  0.0179  0.0442  0.0122
11460TIP3    H155795   5.600   5.935  11.212  0.1196 -1.9506  2.1945
11460TIP3    H255796   5.476   5.932  11.126  1.8776 -4.0571 -0.4594
11461TIP3   OH255797   5.134   6.317  16.444  0.5246 -0.2549  0.6014
11461TIP3    H155798   5.119   6.395  16.391 -1.0191 -0.4482  0.6943
11461TIP3    H255799   5.203   6.342  16.505  2.5386 -0.1088 -1.6169
11462TIP3   OH255800   4.381   2.697   4.727  0.2908 -0.4436  0.1649
11462TIP3    H155801   4.374   2.731   4.816  2.0530 -1.1514  0.6188
11462TIP3    H255802   4.311   2.633   4.719 -0.2058  0.0063  0.8477
11463TIP3   OH255803   0.867   1.342  15.407 -0.4642 -0.4657 -0.0283
11463TIP3    H155804   0.838   1.406  15.342 -2.2846  0.7653  1.8543
11463TIP3    H255805   0.796   1.341  15.472  1.4195 -1.3045  2.1495
11464TIP3   OH255806   2.573   4.562   5.987 -0.0073  0.1523  0.8323
11464TIP3    H155807   2.599   4.654   5.988 -1.5468  0.7834 -2.4594
11464TIP3    H255808   2.640   4.517   6.039  3.1516  2.6165 -0.7794
11465TIP3   OH255809   0.507   1.553   4.939  0.4931 -0.3381 -0.0396
11465TIP3    H155810   0.515   1.565   5.033 -1.3179  1.0798 -0.0116
11465TIP3    H255811   0.434   1.491   4.929  0.5381 -0.3221 -0.5033
11466TIP3   OH255812   5.528   5.339   1.871  0.1696  0.2495 -0.2554
11466TIP3    H155813   5.439   5.318   1.844 -0.0188  0.9003 -0.1652
11466TIP3    H255814   5.529   5.435   1.877  0.6074  0.1976  0.6514
11467TIP3   OH255815   0.300   6.414  16.092  0.1783 -0.7621  0.2427
11467TIP3    H155816   0.325   6.454  16.175  0.9288 -0.6767 -0.0117
11467TIP3    H255817   0.372   6.354  16.072  0.2018 -0.4865 -0.5315
11468TIP3   OH255818   1.602   3.767  15.906  0.4903 -0.5668  0.0339
11468TIP3    H155819   1.609   3.785  15.812  0.6858  0.0409  0.1632
11468TIP3    H255820   1.508   3.759  15.922  0.3541  0.9103  0.0760
11469TIP3   OH255821   1.067   0.282   4.011  0.8133 -0.1263 -0.4123
11469TIP3    H155822   1.086   0.360   3.958 -2.6298  1.3447  0.2174
11469TIP3    H255823   1.125   0.292   4.088 -0.3949  2.6341  0.2849
11470TIP3   OH255824   2.008   3.025  16.496 -0.0165  0.3173  0.4316
11470TIP3    H155825   1.941   2.983  16.442  0.9650 -0.6301 -0.0762
11470TIP3    H255826   2.033   3.103  16.446  2.6692 -1.8090 -1.8788
11471TIP3   OH255827   6.187   0.082   5.139  0.1458  0.0023 -0.3139
11471TIP3    H155828   6.193   0.036   5.055  2.6764 -2.2021  0.9101
11471TIP3    H255829   6.148   0.018   5.199 -1.4281  1.4636  0.3030
11472TIP3   OH255830   1.504   4.161   4.436 -0.2505 -0.6298 -0.4690
11472TIP3    H155831   1.590   4.171   4.395 -1.6337  1.0316 -3.2416
11472TIP3    H255832   1.469   4.080   4.400 -0.7558 -0.0838 -1.2384
11473TIP3   OH255833   0.692   4.745   6.170 -0.3706  0.5243 -0.7353
11473TIP3    H155834   0.648   4.829   6.157  0.8096  1.2205 -0.4013
11473TIP3    H255835   0.738   4.729   6.088  1.9715  1.8098  0.2414
11474TIP3   OH255836   2.808   6.671   1.884 -0.4324  0.0332 -0.5177
11474TIP3    H155837   2.748   6.728   1.933  0.5383 -1.2307  2.3522
11474TIP3    H255838   2.763   6.586   1.881  0.4132 -0.4482  0.0712
11475TIP3   OH255839   2.340   4.905  11.721  0.0752  0.4676  0.1969
11475TIP3    H155840   2.431   4.933  11.711 -0.1002  1.1485  0.4360
11475TIP3    H255841   2.288   4.982  11.700 -0.4198  0.3635  0.9734
11476TIP3   OH255842   4.202   5.232  12.272  0.2147 -0.0422 -0.2433
11476TIP3    H155843   4.209   5.327  12.281 -0.7294 -0.1815  2.7582
11476TIP3    H255844   4.277   5.198  12.321  0.0875 -0.8756 -0.6100
11477TIP3   OH255845   0.825   5.867  14.546 -0.0889 -0.2626  0.6051
11477TIP3    H155846   0.765   5.808  14.592 -0.4135 -2.3545 -2.2398
11477TIP3    H255847   0.911   5.825  14.553  0.2629  0.4873  0.9856
11478TIP3   OH255848   0.261   5.653   2.814  0.2356  0.6064 -0.4128
11478TIP3    H155849   0.316   5.664   2.892  2.0322 -0.9712 -1.3942
11478TIP3    H255850   0.222   5.566   2.825 -1.3200  1.2972 -0.2300
11479TIP3   OH255851   0.574   2.196   2.148  0.3583 -0.1454  0.2048
11479TIP3    H155852   0.553   2.105   2.165  1.1509 -0.8758 -2.3466
11479TIP3    H255853   0.652   2.213   2.202 -1.0020 -0.2454  2.3343
11480TIP3   OH255854   1.789   1.615  15.900 -0.2374 -0.1332 -0.4725
11480TIP3    H155855   1.748   1.650  15.980  0.8429  0.1050 -0.0109
11480TIP3    H255856   1.868   1.571  15.931 -0.6251 -1.4374 -1.2479
11481TIP3   OH255857   1.405   1.490  11.595 -0.3516 -0.4133  0.3428
11481TIP3    H155858   1.463   1.506  11.520  0.0402 -1.3996  0.4287
11481TIP3    H255859   1.459   1.443  11.658  0.1075  2.5369  2.3585
11482TIP3   OH255860   0.235   5.205   5.343  0.2653 -0.0345 -0.4628
11482TIP3    H155861   0.304   5.197   5.277  0.3401 -0.2398 -0.3580
11482TIP3    H255862   0.195   5.291   5.325  0.9207  0.3397 -0.1596
11483TIP3   OH255863   5.372   3.201   5.416 -0.0393  0.2709  0.2333
11483TIP3    H155864   5.406   3.203   5.505 -0.6867  0.4864  0.4850
11483TIP3    H255865   5.393   3.287   5.380 -0.1463  0.3336  0.3210
11484TIP3   OH255866   5.916   4.811  11.385  0.1781  0.2315 -0.0888
11484TIP3    H155867   5.915   4.899  11.347 -1.5981  0.3010  0.0188
11484TIP3    H255868   5.896   4.753  11.311  1.0030 -0.0643 -0.0904
11485TIP3   OH255869   2.187   5.357   4.446 -0.4608  0.1390 -0.3628
11485TIP3    H155870   2.208   5.451   4.450  0.3286 -0.0349 -0.4056
11485TIP3    H255871   2.128   5.349   4.371 -0.6703  0.6265 -0.2544
11486TIP3   OH255872   2.751   1.345   0.033 -0.3729 -0.3086 -0.6295
11486TIP3    H155873   2.742   1.250   0.044  1.7880 -0.4648  0.4836
11486TIP3    H255874   2.843   1.362   0.053 -0.7501  2.0619 -0.6456
11487TIP3   OH255875   6.625   1.995   4.239 -0.0844 -0.1183  0.6645
11487TIP3    H155876   6.629   2.082   4.280 -1.7854 -1.3196  3.7106
11487TIP3    H255877   6.706   1.952   4.266  1.7003  1.0082 -2.4397
11488TIP3   OH255878   2.921   1.773  17.168  0.8688  0.1680  0.3995
11488TIP3    H155879   2.988   1.710  17.193 -0.3943 -1.2896  0.2132
11488TIP3    H255880   2.842   1.745  17.215 -0.1074  0.6777 -0.8764
11489TIP3   OH255881   0.606   3.887   0.851 -0.4503  0.3031 -0.2599
11489TIP3    H155882   0.591   3.819   0.916  0.5464 -0.6384 -0.9859
11489TIP3    H255883   0.540   3.954   0.871 -1.4175 -0.8349  0.5122
11490TIP3   OH255884   4.953   5.519  12.413  0.2098 -0.6083  0.4717
11490TIP3    H155885   4.970   5.553  12.500  1.5306  2.1964 -0.7523
11490TIP3    H255886   4.890   5.580  12.374  1.4485 -0.3722 -1.3012
11491TIP3   OH255887   6.578   5.687   2.481 -0.0565  0.4580 -0.0690
11491TIP3    H155888   6.617   5.634   2.550  1.0833 -1.0172 -1.7858
11491TIP3    H255889   6.652   5.729   2.438 -0.6980  0.8139 -0.8415
11492TIP3   OH255890   5.107   3.085  10.777  0.4704 -0.0820  0.3847
11492TIP3    H155891   5.148   3.016  10.829 -1.5632 -1.1300  0.7037
11492TIP3    H255892   5.112   3.053  10.687 -2.0545 -1.6515  0.6874
11493TIP3   OH255893   3.864   2.283  15.259  0.4078 -0.5119  0.3782
11493TIP3    H155894   3.945   2.296  15.210 -0.8780 -1.7938 -2.2719
11493TIP3    H255895   3.849   2.367  15.302  0.3844  1.6722 -3.4462
11494TIP3   OH255896   4.193   1.089  10.873 -0.3707 -0.5325  0.6411
11494TIP3    H155897   4.139   1.122  10.801 -0.3033 -1.3090  0.2335
11494TIP3    H255898   4.136   1.096  10.950 -0.3132  0.6511  0.5930
11495TIP3   OH255899   5.859   5.867   2.759 -0.4565 -0.0527 -0.5160
11495TIP3    H155900   5.936   5.824   2.721  0.4740  0.6118  0.5479
11495TIP3    H255901   5.794   5.797   2.765 -0.2342 -0.4546 -2.1630
11496TIP3   OH255902   5.745   4.648  15.777  0.2110 -0.2930 -0.1071
11496TIP3    H155903   5.680   4.697  15.727 -0.5900 -1.7124 -0.5064
11496TIP3    H255904   5.793   4.597  15.712  0.8720 -0.2320  0.3192
11497TIP3   OH255905   2.042   5.491   5.319 -0.1615 -0.0011 -0.6166
11497TIP3    H155906   2.071   5.509   5.408 -1.2296  0.6435 -0.3755
11497TIP3    H255907   1.950   5.464   5.329 -0.4688  0.6550 -1.5662
11498TIP3   OH255908   4.397   4.582   5.728 -0.4306 -0.6294 -0.6583
11498TIP3    H155909   4.448   4.599   5.648  3.3985 -0.1625  1.5960
11498TIP3    H255910   4.307   4.602   5.704  0.7584  1.3045 -4.3157
11499TIP3   OH255911   2.389   1.649   2.918  0.2040 -0.0605 -0.0837
11499TIP3    H155912   2.321   1.695   2.868  0.8061  1.7382  0.6375
11499TIP3    H255913   2.457   1.716   2.932  1.3688 -1.3442  0.6179
11500TIP3   OH255914   1.345   2.536  12.027 -0.3391 -0.5777  0.0142
11500TIP3    H155915   1.257   2.507  12.004 -0.8709  0.9653  0.0191
11500TIP3    H255916   1.403   2.489  11.967 -1.1839 -1.3835 -0.1814
11501TIP3   OH255917   3.897   4.822   6.133  0.3397  0.4629 -0.1545
11501TIP3    H155918   3.876   4.729   6.130  0.2344  0.3852  1.9779
11501TIP3    H255919   3.865   4.852   6.218 -1.1311  2.8410 -1.4271
11502TIP3   OH255920   4.285   3.335  15.458 -0.5647 -0.6736  0.3645
11502TIP3    H155921   4.352   3.371  15.400 -1.2871  2.4831  1.2868
11502TIP3    H255922   4.329   3.322  15.542 -0.9689  1.1862  0.9066
11503TIP3   OH255923   5.626   0.414  13.795  0.1292  0.0101  0.3467
11503TIP3    H155924   5.698   0.353  13.808  1.1142  1.1410  0.4062
11503TIP3    H255925   5.600   0.441  13.883  0.5168  0.5792  0.2947
11504TIP3   OH255926   0.996   3.239   1.155 -0.1926 -0.0390  0.2274
11504TIP3    H155927   0.963   3.154   1.126  1.1797 -0.2189 -0.9067
11504TIP3    H255928   0.921   3.298   1.143 -0.9346 -0.9318  0.3168
11505TIP3   OH255929   3.051   6.724   2.007  0.5129  0.0523 -0.3621
11505TIP3    H155930   3.071   6.815   1.985  2.0340 -0.7819 -2.7972
11505TIP3    H255931   2.962   6.711   1.976  0.7342  0.3785 -1.1603
11506TIP3   OH255932   3.360   5.299  11.910  0.6941  0.0438 -0.0391
11506TIP3    H155933   3.383   5.255  11.993  0.5391  0.1744  0.0724
11506TIP3    H255934   3.420   5.373  11.905  1.0692 -0.2715 -0.3091
11507TIP3   OH255935   4.592   5.298   6.842  0.3003 -0.1147 -0.2778
11507TIP3    H155936   4.616   5.386   6.872  1.3645 -0.7010  0.6905
11507TIP3    H255937   4.638   5.288   6.758  1.0384 -0.1296  0.1236
11508TIP3   OH255938   2.087   1.799   5.095 -0.2283  0.1736  0.2618
11508TIP3    H155939   2.159   1.804   5.157 -0.0183 -0.2465  0.0565
11508TIP3    H255940   2.097   1.713   5.054  0.4829  0.9779 -1.3602
11509TIP3   OH255941   0.776   5.407   0.615 -0.2974 -0.0423 -0.1297
11509TIP3    H155942   0.779   5.312   0.630 -1.1823  0.0242  0.5913
11509TIP3    H255943   0.844   5.424   0.551  0.6493 -1.0157  0.5915
11510TIP3   OH255944   6.150   2.915   4.086 -0.1121  0.3509 -0.8985
11510TIP3    H155945   6.160   2.974   4.160  0.6154  3.5720 -3.3188
11510TIP3    H255946   6.211   2.844   4.102  0.9398  1.6126  0.9703
11511TIP3   OH255947   4.066   4.479   4.607  0.1997 -0.2225 -0.3732
11511TIP3    H155948   4.132   4.477   4.676 -0.0013 -1.9606 -0.1906
11511TIP3    H255949   4.092   4.553   4.552  1.2417  0.2478  0.6931
11512TIP3   OH255950   1.027   5.854  12.868  0.3170 -0.2461  0.3557
11512TIP3    H155951   0.993   5.808  12.944 -0.8923  0.6812  0.4060
11512TIP3    H255952   1.009   5.796  12.794 -0.8359 -0.0455  0.4639
11513TIP3   OH255953   5.925   6.738   1.375  0.0509  0.1126  0.4244
11513TIP3    H155954   5.945   6.746   1.281  0.5219  1.6685  0.6247
11513TIP3    H255955   5.906   6.645   1.387 -1.9589  0.1655 -1.5939
11514TIP3   OH255956   6.627   6.563   4.625 -0.1919  0.1454 -0.8786
11514TIP3    H155957   6.664   6.632   4.570  0.5431  1.4605  1.1617
11514TIP3    H255958   6.699   6.536   4.681 -1.5178  0.7806  1.2657
11515TIP3   OH255959   6.210   1.985   4.688 -0.9485  0.9676 -0.1290
11515TIP3    H155960   6.189   1.961   4.597 -0.2249 -0.7477  0.1144
11515TIP3    H255961   6.304   2.000   4.688 -0.4914 -1.4391  0.7562
11516TIP3   OH255962   0.606   5.004  13.830  0.1742 -0.2908  0.8064
11516TIP3    H155963   0.678   4.965  13.879  2.6601  3.8199  0.8595
11516TIP3    H255964   0.579   4.935  13.769  2.9608 -2.5956  1.9282
11517TIP3   OH255965   4.766   1.821   1.728 -0.0928  0.1589  0.3712
11517TIP3    H155966   4.800   1.910   1.741 -1.2950  0.6187  0.5190
11517TIP3    H255967   4.671   1.833   1.721 -0.4266 -1.2579  1.8350
11518TIP3   OH255968   3.609   6.720  11.675  0.2452 -0.1035  0.1035
11518TIP3    H155969   3.629   6.748  11.764 -0.6232  0.0143  0.2717
11518TIP3    H255970   3.615   6.800  11.623  0.2281 -0.0697  0.1528
11519TIP3   OH255971   0.584   2.628  16.852 -0.1982  0.0677  0.3420
11519TIP3    H155972   0.488   2.623  16.845 -0.0630 -1.3026 -0.9346
11519TIP3    H255973   0.610   2.677  16.774  0.2420 -1.1801 -0.3220
11520TIP3   OH255974   5.316   1.491  13.169  0.2140  0.1591 -0.1723
11520TIP3    H155975   5.239   1.450  13.208 -0.5739 -0.1016 -1.9405
11520TIP3    H255976   5.388   1.466  13.227 -0.5038 -2.3148 -0.2307
11521TIP3   OH255977   2.324   0.589  11.811 -0.2152 -0.4624  0.5618
11521TIP3    H155978   2.382   0.513  11.810  0.4646 -0.0120  1.8058
11521TIP3    H255979   2.337   0.627  11.899  0.2068  1.6193 -0.3393
11522TIP3   OH255980   3.732   0.222   0.090  0.0874 -0.3448  0.1983
11522TIP3    H155981   3.819   0.194   0.120 -0.0799 -0.6088  0.4372
11522TIP3    H255982   3.740   0.316   0.077  0.2288 -0.2691  0.8385
11523TIP3   OH255983   3.990   3.936  11.101 -0.5128  0.2038 -0.0717
11523TIP3    H155984   4.083   3.919  11.084 -0.5186 -0.8935  0.8317
11523TIP3    H255985   3.944   3.874  11.044 -0.8137  2.3116 -2.2646
11524TIP3   OH255986   3.652   4.447   5.622 -0.2398  0.1556 -0.3606
11524TIP3    H155987   3.650   4.497   5.540 -0.6789  1.4605  0.4354
11524TIP3    H255988   3.742   4.456   5.653 -0.3304  0.5031 -0.1936
11525TIP3   OH255989   2.879   5.895   4.767 -0.6336  0.6797  0.4956
11525TIP3    H155990   2.801   5.842   4.755 -0.6132  0.0903  2.5857
11525TIP3    H255991   2.933   5.876   4.690 -2.2978  0.7220 -0.7372
11526TIP3   OH255992   4.158   4.326  14.646 -0.3812 -0.4106 -0.5002
11526TIP3    H155993   4.189   4.289  14.729  1.1743  0.3121 -0.7125
11526TIP3    H255994   4.109   4.404  14.671  0.8329  0.2999 -0.2695
11527TIP3   OH255995   6.701   5.053  11.779  0.4549 -0.0408 -0.6469
11527TIP3    H155996   6.715   5.130  11.724 -0.8598  2.3315  2.1174
11527TIP3    H255997   6.615   5.021  11.753  0.0524  0.7636 -0.3271
11528TIP3   OH255998   0.409   0.743   5.084  0.6080 -0.1216  0.3908
11528TIP3    H155999   0.448   0.831   5.084 -2.2870  1.2820  1.5690
11528TIP3    H256000   0.478   0.687   5.119  1.8414  2.0572  1.6842
11529TIP3   OH256001   4.606   5.116   3.252  0.4207  0.1079 -0.3133
11529TIP3    H156002   4.576   5.122   3.343  0.2684 -0.7617 -0.3013
11529TIP3    H256003   4.683   5.060   3.255 -0.7806 -1.6411 -0.9677
11530TIP3   OH256004   0.383   5.456   0.841 -0.5687  0.3867 -0.0024
11530TIP3    H156005   0.460   5.438   0.894 -0.4452 -1.2694 -0.6974
11530TIP3    H256006   0.389   5.396   0.767 -2.7624 -0.1623  0.1761
11531TIP3   OH256007   3.178   3.003  16.421  0.0459  0.1310  0.7313
11531TIP3    H156008   3.271   3.025  16.430  0.1246 -0.2900  0.9518
11531TIP3    H256009   3.162   3.009  16.327  0.8224 -1.8563  0.4255
11532TIP3   OH256010   6.309   4.689   3.584 -0.3578 -0.0526  0.0738
11532TIP3    H156011   6.260   4.719   3.661  1.4582 -0.5977  1.5210
11532TIP3    H256012   6.367   4.762   3.564 -0.0490 -0.3460 -0.0849
11533TIP3   OH256013   5.165   3.439   6.333 -0.2351 -0.0853 -0.0666
11533TIP3    H156014   5.257   3.462   6.347  0.0273 -1.1239  0.0012
11533TIP3    H256015   5.125   3.446   6.419  0.3438 -1.9696  0.4121
11534TIP3   OH256016   3.853   5.704   1.536  0.2891 -0.0368 -0.2186
11534TIP3    H156017   3.800   5.758   1.594 -0.2405  1.1243 -1.7042
11534TIP3    H256018   3.917   5.661   1.593 -1.0586 -0.0183  1.3677
11535TIP3   OH256019   3.097   2.775  12.751  0.3384  0.2713 -0.1121
11535TIP3    H156020   3.165   2.709  12.764  0.5887  0.0594 -2.1764
11535TIP3    H256021   3.015   2.726  12.753  0.2957  0.3580  1.2216
11536TIP3   OH256022   5.316   6.643   3.017 -0.0764 -0.3268 -0.2706
11536TIP3    H156023   5.373   6.700   3.069 -0.6332 -0.2716  0.2868
11536TIP3    H256024   5.366   6.562   3.006 -0.8530 -1.2589  2.3785
11537TIP3   OH256025   1.604   3.727   0.212  0.2634  0.4387  0.3860
11537TIP3    H156026   1.660   3.755   0.139  0.0958  1.0257  0.4822
11537TIP3    H256027   1.550   3.657   0.175 -0.2032  1.1033 -0.2143
11538TIP3   OH256028   0.647   0.078   3.609 -0.3304  0.5085 -0.0766
11538TIP3    H156029   0.690   0.092   3.525  0.0336  0.7710  0.1501
11538TIP3    H256030   0.595   0.157   3.623 -1.3790 -0.0689 -0.6360
11539TIP3   OH256031   0.857   2.476  11.835 -0.1392  0.0562 -0.1178
11539TIP3    H156032   0.809   2.395  11.813 -2.7772  1.3227  0.5421
11539TIP3    H256033   0.836   2.491  11.927 -0.0614  1.7139 -0.3557
11540TIP3   OH256034   4.090   4.344   0.141 -0.0696  0.1140 -0.0774
11540TIP3    H156035   4.076   4.291   0.062 -0.7983  0.4757 -0.1922
11540TIP3    H256036   4.043   4.425   0.124  0.4105  0.5020  0.4187
11541TIP3   OH256037   5.372   6.665  11.410  0.4205  0.5835  0.8661
11541TIP3    H156038   5.297   6.634  11.360 -0.6415 -0.5366  2.9713
11541TIP3    H256039   5.366   6.761  11.406  0.0451  0.5204 -0.5901
11542TIP3   OH256040   4.659   0.815   0.366 -0.5479  0.5439 -0.2752
11542TIP3    H156041   4.648   0.877   0.438  0.4652  0.4699 -0.0475
11542TIP3    H256042   4.721   0.858   0.307 -0.0661 -0.1202 -0.2610
11543TIP3   OH256043   2.176   1.868   3.568  0.0534 -0.1583  0.0422
11543TIP3    H156044   2.228   1.949   3.566  0.5474 -0.4523  0.6006
11543TIP3    H256045   2.088   1.897   3.591 -0.0597  0.3603 -0.9952
11544TIP3   OH256046   3.165   5.984  14.488 -0.3846  0.5096 -0.4372
11544TIP3    H156047   3.176   5.919  14.418  1.8820  2.3714 -1.9450
11544TIP3    H256048   3.070   5.988  14.501 -0.6834 -2.3657 -0.9295
11545TIP3   OH256049   5.879   0.804  14.207 -0.1136  0.1501 -0.1239
11545TIP3    H156050   5.881   0.777  14.299  1.5447  0.6362  0.0189
11545TIP3    H256051   5.836   0.889  14.207 -1.6967 -0.6252 -0.0489
11546TIP3   OH256052   2.164   6.540  14.672  0.7585  0.1907 -0.3808
11546TIP3    H156053   2.127   6.614  14.719  0.5372 -0.4639  0.4902
11546TIP3    H256054   2.093   6.508  14.617  0.2559 -0.5542  0.6771
11547TIP3   OH256055   2.295   1.201  16.828  0.2087  0.1171  0.5436
11547TIP3    H156056   2.320   1.255  16.753  0.5230 -0.3648  0.2999
11547TIP3    H256057   2.371   1.201  16.885  0.0781  0.2307  0.7200
11548TIP3   OH256058   0.530   3.765  12.807  0.0636 -0.1876  0.1433
11548TIP3    H156059   0.619   3.785  12.778 -0.5227  0.7381 -1.0694
11548TIP3    H256060   0.543   3.710  12.885  1.6868  0.0526  0.0851
11549TIP3   OH256061   4.965   5.558  17.138  0.7561 -0.1884  0.1954
11549TIP3    H156062   4.981   5.647  17.107 -0.7285  0.3540  0.9135
11549TIP3    H256063   4.966   5.504  17.058  1.5450  0.4781 -0.2568
11550TIP3   OH256064   3.019   6.697  14.867  0.1538 -0.2592 -0.8128
11550TIP3    H156065   2.948   6.731  14.922 -1.2878 -0.5818 -2.3963
11550TIP3    H256066   3.065   6.634  14.923 -0.7038  0.0868  0.3030
11551TIP3   OH256067   6.480   3.009   2.087 -0.1973 -0.1942  0.2903
11551TIP3    H156068   6.475   3.017   2.182  0.1457  0.1126  0.2864
11551TIP3    H256069   6.540   3.079   2.061 -0.8821  0.2235 -0.2226
11552TIP3   OH256070   6.117   2.684  11.156  0.1380  0.5073 -0.4636
11552TIP3    H156071   6.163   2.611  11.115 -0.6937  1.4631 -3.3024
11552TIP3    H256072   6.172   2.760  11.140 -1.6075  1.4200 -2.6478
11553TIP3   OH256073   3.364   6.089  15.706  0.1030  0.2332 -0.2892
11553TIP3    H156074   3.401   6.029  15.642 -1.2858 -1.0699  0.0651
11553TIP3    H256075   3.385   6.049  15.791  0.4422  1.0337  0.0129
11554TIP3   OH256076   5.934   3.313  16.546  0.0310  0.2338  0.0015
11554TIP3    H156077   5.974   3.295  16.461  0.5308  0.3557  0.2108
11554TIP3    H256078   5.840   3.299  16.531  0.2315 -1.0150 -0.2431
11555TIP3   OH256079   1.427   1.618   2.863  0.4218  0.7851  0.4020
11555TIP3    H156080   1.333   1.599   2.869 -0.4038  3.0625 -2.3844
11555TIP3    H256081   1.468   1.534   2.843 -1.1971 -0.0660  0.4934
11556TIP3   OH256082   4.918   1.821  15.678  0.3282 -0.1732  0.0785
11556TIP3    H156083   4.919   1.868  15.594 -1.9492 -0.8069 -0.3844
11556TIP3    H256084   4.845   1.860  15.726 -1.2419 -2.7262 -0.0701
11557TIP3   OH256085   0.422   3.167  13.727  0.6349 -0.6495 -0.2696
11557TIP3    H156086   0.341   3.117  13.720  1.4463 -1.8908 -1.3826
11557TIP3    H256087   0.433   3.185  13.821 -1.3581  0.3472 -0.1864
11558TIP3   OH256088   6.399   6.576   2.123  0.1479 -0.2795 -0.1708
11558TIP3    H156089   6.377   6.624   2.042  1.2051 -0.5454 -0.6222
11558TIP3    H256090   6.393   6.484   2.098 -3.0847 -0.5201  1.0017
11559TIP3   OH256091   3.457   4.486  10.990 -0.4500 -0.1009 -0.0718
11559TIP3    H156092   3.385   4.545  10.967 -0.9943 -0.0618  1.6113
11559TIP3    H256093   3.535   4.540  10.987 -0.9269  0.7212  1.3206
11560TIP3   OH256094   6.004   1.914  13.760 -0.0610  0.4028 -0.0858
11560TIP3    H156095   5.922   1.942  13.801 -0.0066  0.9155 -0.3166
11560TIP3    H256096   5.978   1.886  13.672 -0.2487 -1.1460  0.4377
11561TIP3   OH256097   6.285   3.269  13.949  0.2289 -0.3588  0.5021
11561TIP3    H156098   6.349   3.213  13.992  0.1341  0.4656  1.7816
11561TIP3    H256099   6.337   3.328  13.895  0.6183  0.4249  1.6725
11562TIP3   OH256100   5.694   0.179  16.504  0.3031  0.3233  0.6599
11562TIP3    H156101   5.665   0.246  16.565 -1.3896 -0.1303  0.4088
11562TIP3    H256102   5.615   0.156  16.454  0.9053 -1.5844  0.5045
11563TIP3   OH256103   5.891   1.734   2.061  0.3641 -0.2483  0.6119
11563TIP3    H156104   5.885   1.687   2.144 -0.3917  0.8011  1.1721
11563TIP3    H256105   5.910   1.825   2.086  0.0675  0.0882 -0.3455
11564TIP3   OH256106   3.692   6.262  15.115 -0.5447 -0.2667  0.0865
11564TIP3    H156107   3.677   6.211  15.035  0.0455 -0.5264  0.1312
11564TIP3    H256108   3.745   6.336  15.086  0.3371 -0.7719  0.3465
11565TIP3   OH256109   5.516   2.035   4.911 -0.1225  0.0254 -0.3964
11565TIP3    H156110   5.532   2.071   4.998  0.9367 -1.0151 -0.1155
11565TIP3    H256111   5.423   2.013   4.910  0.0214 -0.7246  0.8016
11566TIP3   OH256112   1.435   1.530  13.937  0.0293 -0.3700 -0.4533
11566TIP3    H156113   1.356   1.574  13.968  0.6664  0.4272  0.0669
11566TIP3    H256114   1.416   1.436  13.948 -0.9530 -0.2086 -0.6367
11567TIP3   OH256115   6.506   3.456  14.907 -0.0393 -0.5254  0.1933
11567TIP3    H156116   6.506   3.436  15.000 -0.3579  1.3540  0.6533
11567TIP3    H256117   6.414   3.453  14.881 -0.3723  2.0873  0.7674
11568TIP3   OH256118   6.536   2.462   3.544 -0.2501 -0.1515 -0.0348
11568TIP3    H156119   6.517   2.546   3.501 -0.0838 -0.3516 -0.5093
11568TIP3    H256120   6.626   2.441   3.516 -0.7509 -1.1225 -0.9944
11569TIP3   OH256121   3.187   6.467   1.778 -0.5269  0.3575 -0.0262
11569TIP3    H156122   3.217   6.447   1.689  1.2427 -0.9428  0.8019
11569TIP3    H256123   3.095   6.491   1.768 -0.0673  1.4016 -2.3393
11570TIP3   OH256124   0.678   2.792  16.643  0.1015  0.4092 -0.2635
11570TIP3    H156125   0.755   2.839  16.674  1.1033 -1.7191  0.6697
11570TIP3    H256126   0.712   2.729  16.580 -0.4154 -2.2879  1.9847
11571TIP3   OH256127   0.320   5.272   3.880 -0.2739 -0.3195 -0.0038
11571TIP3    H156128   0.239   5.221   3.872 -0.0729 -0.7629  0.6893
11571TIP3    H256129   0.293   5.362   3.861 -1.2639 -0.2093  1.6775
11572TIP3   OH256130   1.128   0.873  13.562  0.2633  0.0977 -0.3158
11572TIP3    H156131   1.102   0.963  13.580  0.3268 -0.1780  1.2619
11572TIP3    H256132   1.139   0.870  13.467  0.5354  1.8163 -0.3626
11573TIP3   OH256133   2.411   1.388  15.038 -0.2326 -0.2075 -0.2883
11573TIP3    H156134   2.426   1.339  15.119  0.1595 -0.9585 -0.8040
11573TIP3    H256135   2.499   1.407  15.005 -0.3411  1.7498  0.4041
11574TIP3   OH256136   0.661   3.836   5.950 -0.3673  0.0583  0.2287
11574TIP3    H156137   0.573   3.857   5.918 -0.9309  0.1802  1.7801
11574TIP3    H256138   0.648   3.765   6.012  0.7812 -0.6396 -0.2995
11575TIP3   OH256139   0.419   0.858   1.297  0.6109  0.4730  0.3541
11575TIP3    H156140   0.433   0.931   1.357  2.5374 -1.0017  1.8279
11575TIP3    H256141   0.462   0.783   1.339  0.3655 -1.0961 -1.9742
11576TIP3   OH256142   4.396   2.842   2.797 -0.0168  0.0811  0.2411
11576TIP3    H156143   4.412   2.810   2.709  0.5994 -0.3873  0.5219
11576TIP3    H256144   4.305   2.819   2.815 -0.0291 -0.1562 -0.1238
11577TIP3   OH256145   4.662   2.388  15.802 -0.1380  0.3227 -0.3980
11577TIP3    H156146   4.663   2.483  15.791 -0.5945  0.3442 -0.3052
11577TIP3    H256147   4.595   2.358  15.740 -0.2701  0.1026 -0.1504
11578TIP3   OH256148   0.493   5.284  12.595 -0.3195 -0.5614  0.0684
11578TIP3    H156149   0.461   5.374  12.593 -1.7360 -1.0321 -1.2447
11578TIP3    H256150   0.552   5.280  12.670  1.0043  1.8444 -0.7523
11579TIP3   OH256151   4.874   6.536   2.350  0.1484  0.2870  0.0649
11579TIP3    H156152   4.817   6.459   2.355 -0.0843  0.3109 -1.6611
11579TIP3    H256153   4.915   6.541   2.436 -1.2481 -0.6656  0.8166
11580TIP3   OH256154   2.742   2.114   1.530  0.0860  0.6391 -0.2085
11580TIP3    H156155   2.736   2.136   1.437 -0.3957 -1.8697 -0.8269
11580TIP3    H256156   2.822   2.158   1.560 -1.4037  4.2065 -0.9030
11581TIP3   OH256157   3.602   0.919  11.816  0.2706 -0.4549  0.1218
11581TIP3    H156158   3.621   1.001  11.861  0.4320 -0.3030 -0.2223
11581TIP3    H256159   3.585   0.944  11.725 -1.6042 -0.5734  0.3965
11582TIP3   OH256160   5.131   5.672   2.489 -0.6989 -0.7640 -0.6979
11582TIP3    H156161   5.094   5.760   2.497 -0.7573 -0.8727  0.3426
11582TIP3    H256162   5.217   5.678   2.529 -1.0502 -1.3855  0.1670
11583TIP3   OH256163   6.582   4.538   4.195 -0.5371  0.3774  0.2172
11583TIP3    H156164   6.554   4.617   4.149 -2.6806 -0.0179  0.7386
11583TIP3    H256165   6.517   4.472   4.170  0.6707 -0.9681  0.5396
11584TIP3   OH256166   3.337   4.699   1.509  0.2254 -0.9235  0.0677
11584TIP3    H156167   3.257   4.658   1.476  0.3714 -1.4631  0.3682
11584TIP3    H256168   3.407   4.663   1.454  0.4483 -1.6834  0.8276
11585TIP3   OH256169   5.486   6.340   1.586 -0.4304  0.0517 -0.1525
11585TIP3    H156170   5.492   6.287   1.506  1.6728 -0.8431  0.4997
11585TIP3    H256171   5.405   6.312   1.628 -0.6266 -0.8178 -1.0706
11586TIP3   OH256172   1.366   6.157   1.745 -0.0838  0.1816  0.8348
11586TIP3    H156173   1.426   6.122   1.680 -3.2191 -0.6515 -1.8294
11586TIP3    H256174   1.368   6.252   1.730 -2.0296 -0.1014 -1.8404
11587TIP3   OH256175   2.821   3.004   4.677  0.0559  0.1918 -0.1330
11587TIP3    H156176   2.886   2.934   4.664  0.3418  0.2821  0.7493
11587TIP3    H256177   2.787   2.988   4.765  1.1677  1.9980  0.6774
11588TIP3   OH256178   2.485   4.205  16.726  0.1777  0.6318  0.1707
11588TIP3    H156179   2.494   4.287  16.775 -0.9818  0.0104  1.4926
11588TIP3    H256180   2.404   4.215  16.678 -0.2989  0.0302  0.8327
11589TIP3   OH256181   1.436   5.632   4.103  0.6961  0.5742  0.4350
11589TIP3    H156182   1.451   5.547   4.061  0.7122 -0.1596  1.8833
11589TIP3    H256183   1.425   5.692   4.029  2.2319 -0.3827 -0.6470
11590TIP3   OH256184   5.526   5.939   6.474 -0.2300 -0.2460  0.2059
11590TIP3    H156185   5.592   5.969   6.411 -0.2408  1.0406  0.7704
11590TIP3    H256186   5.558   5.972   6.559  0.5803 -3.1823  1.1753
11591TIP3   OH256187   1.149   4.665  16.173 -0.2083  0.1618  0.3010
11591TIP3    H156188   1.136   4.759  16.160 -0.1686  0.0234 -0.8195
11591TIP3    H256189   1.244   4.653  16.165 -0.2554 -0.0271  0.0146
11592TIP3   OH256190   6.000   2.116  11.040 -0.6155 -0.1642 -0.0562
11592TIP3    H156191   5.927   2.178  11.042 -2.0165 -1.7423  0.4434
11592TIP3    H256192   5.980   2.053  11.110  1.5766 -0.3018  0.5188
11593TIP3   OH256193   2.384   0.816   0.546  0.1840 -0.2600 -0.2319
11593TIP3    H156194   2.477   0.817   0.570 -0.0619  0.8837  0.7416
11593TIP3    H256195   2.380   0.757   0.471  1.7476 -0.1120 -0.4722
11594TIP3   OH256196   5.784   2.192  13.093 -0.0500 -0.4243 -0.0760
11594TIP3    H156197   5.815   2.153  13.175 -0.2994 -3.2927 -1.2107
11594TIP3    H256198   5.688   2.186  13.098 -0.0466 -1.8079 -1.0252
11595TIP3   OH256199   5.696   4.355  12.462 -0.4528 -0.1237 -0.7738
11595TIP3    H156200   5.684   4.337  12.555  1.3207 -1.0534 -0.6709
11595TIP3    H256201   5.657   4.442  12.449  1.5890  1.2805  1.4784
11596TIP3   OH256202   4.606   1.139  13.476  0.0583 -0.2797 -0.3738
11596TIP3    H156203   4.621   1.100  13.562 -1.4514  0.0640  0.0672
11596TIP3    H256204   4.521   1.105  13.449 -1.1886  2.4212 -0.0969
11597TIP3   OH256205   3.785   4.140   0.243  0.6782  0.4448  0.0844
11597TIP3    H156206   3.861   4.083   0.252  0.2274 -0.1920  0.0022
11597TIP3    H256207   3.818   4.217   0.198  0.8276 -0.8805 -2.2795
11598TIP3   OH256208   4.182   1.548   0.483  0.0054  0.2238 -0.3337
11598TIP3    H156209   4.221   1.581   0.402  0.1922  0.5336 -0.1190
11598TIP3    H256210   4.252   1.500   0.526 -0.5471 -1.3683 -1.1390
11599TIP3   OH256211   5.047   2.894   2.670  0.2326 -0.3969 -0.6277
11599TIP3    H156212   5.026   2.826   2.734 -0.2113  0.6126  0.3336
11599TIP3    H256213   4.968   2.947   2.664  0.8794  0.5908 -0.6369
11600TIP3   OH256214   0.344   0.108   0.488  0.0631 -0.1372  0.0345
11600TIP3    H156215   0.317   0.049   0.418 -2.2503 -0.4797  1.1427
11600TIP3    H256216   0.298   0.190   0.470 -1.9211 -0.7233  1.9414
11601TIP3   OH256217   0.212   5.390   2.752 -0.0553 -0.4311 -0.7281
11601TIP3    H156218   0.212   5.299   2.783  2.8681 -0.3759 -0.3613
11601TIP3    H256219   0.247   5.385   2.663  1.5690  0.4565 -0.1631
11602TIP3   OH256220   0.973   6.328  17.042  0.3255 -0.6517  0.6080
11602TIP3    H156221   1.033   6.319  16.968 -1.5717 -0.4974 -1.0375
11602TIP3    H256222   0.937   6.240  17.055  0.9459 -0.7653  1.6469
11603TIP3   OH256223   4.582   1.221   1.823  0.4960  0.1040 -0.1460
11603TIP3    H156224   4.669   1.189   1.799  0.7382  0.5647  0.1157
11603TIP3    H256225   4.567   1.297   1.766 -0.7180 -1.3270 -1.8740
11604TIP3   OH256226   0.861   3.260  11.157 -0.5283 -0.0448  0.4828
11604TIP3    H156227   0.836   3.274  11.066 -0.7337  0.1334  0.5652
11604TIP3    H256228   0.870   3.349  11.193 -0.7861 -0.1185  0.7272
11605TIP3   OH256229   3.163   2.018   2.802 -0.3201 -0.0081 -0.2579
11605TIP3    H156230   3.204   2.091   2.848  0.6587 -0.0715 -1.0130
11605TIP3    H256231   3.138   2.054   2.717  0.3433 -0.5991 -0.7081
11606TIP3   OH256232   5.039   3.969  11.568  0.0456  0.2247  0.3738
11606TIP3    H156233   5.115   4.021  11.591 -0.3212  0.8320  0.2547
11606TIP3    H256234   5.074   3.885  11.539  0.6553  0.4454  0.4733
11607TIP3   OH256235   6.466   4.257  13.907  0.1267 -0.2705 -0.7376
11607TIP3    H156236   6.390   4.199  13.900  1.4149 -2.0315 -1.0815
11607TIP3    H256237   6.493   4.273  13.817 -0.7851  1.7327 -0.6903
11608TIP3   OH256238   0.650   4.696  12.299 -0.2493  0.6250 -0.0864
11608TIP3    H156239   0.632   4.689  12.392  0.2764  1.5696  0.0975
11608TIP3    H256240   0.699   4.616  12.277 -0.8012  0.1678  0.3318
11609TIP3   OH256241   2.527   6.673   5.114 -0.0505 -0.2670 -0.3441
11609TIP3    H156242   2.507   6.670   5.020 -1.4716 -0.5742 -0.0461
11609TIP3    H256243   2.459   6.729   5.151 -0.0667 -0.9239  0.6513
11610TIP3   OH256244   6.411   4.881  15.545 -0.0046  0.2223  0.6078
11610TIP3    H156245   6.353   4.913  15.476 -1.2835  0.4394  1.7365
11610TIP3    H256246   6.421   4.955  15.605 -0.0078 -0.3594  1.3408
11611TIP3   OH256247   1.899   6.433  16.181 -0.1792  0.4692  0.2295
11611TIP3    H156248   1.876   6.377  16.256  0.0363  0.1212  0.0393
11611TIP3    H256249   1.815   6.461  16.145 -0.5186 -2.9496 -2.1112
11612TIP3   OH256250   4.861   2.466  13.974  0.2429  0.3267 -0.2183
11612TIP3    H156251   4.895   2.533  13.914 -3.3270  0.5873 -2.2629
11612TIP3    H256252   4.784   2.507  14.014 -1.5174 -2.1471 -0.8349
11613TIP3   OH256253   4.798   1.196  16.950 -0.3230  0.2721 -0.2635
11613TIP3    H156254   4.838   1.256  17.013 -2.3199  0.8992  0.5185
11613TIP3    H256255   4.713   1.236  16.931 -0.4114 -0.7265 -2.1821
11614TIP3   OH256256   5.107   1.439   5.042 -0.1231  0.1713 -0.2852
11614TIP3    H156257   5.146   1.374   5.100 -0.9102  0.2903  0.3921
11614TIP3    H256258   5.157   1.431   4.960  0.0637 -0.9886 -0.0759
11615TIP3   OH256259   3.154   6.299   4.372 -0.1978 -0.0184  0.5102
11615TIP3    H156260   3.185   6.355   4.301 -2.6837  0.2166 -0.4713
11615TIP3    H256261   3.083   6.247   4.333 -2.5571  1.0273  3.0681
11616TIP3   OH256262   3.097   0.124   4.522 -0.2843  0.2742 -0.6216
11616TIP3    H156263   3.081   0.030   4.533  0.0466  0.3857  1.1668
11616TIP3    H256264   3.042   0.149   4.448 -0.9903 -1.1828 -0.6318
11617TIP3   OH256265   6.708   6.711  16.055  0.1753  0.3421  0.4318
11617TIP3    H156266   6.705   6.617  16.034  1.4417  0.4318 -0.3175
11617TIP3    H256267   6.669   6.718  16.141 -0.1969 -0.8475  0.3767
11618TIP3   OH256268   0.637   0.923  10.776 -0.2818 -0.0628 -0.8475
11618TIP3    H156269   0.578   0.908  10.702 -0.4187  0.7019 -0.9013
11618TIP3    H256270   0.620   1.013  10.802  0.8300  0.1534 -0.8246
11619TIP3   OH256271   5.406   4.554  12.087 -0.0036  0.2680 -0.3062
11619TIP3    H156272   5.367   4.605  12.158 -1.3094 -0.2063 -0.6481
11619TIP3    H256273   5.437   4.474  12.129  0.0790  0.3920 -0.1276
11620TIP3   OH256274   6.674   3.922  15.376 -0.1794 -0.3323 -0.5782
11620TIP3    H156275   6.745   3.982  15.352  0.5323  0.6741  3.3203
11620TIP3    H256276   6.594   3.974  15.367 -0.0016 -0.1169 -0.9652
11621TIP3   OH256277   5.925   5.453  17.377  0.2996 -0.0371 -0.3510
11621TIP3    H156278   5.834   5.477  17.359  0.2059 -0.8262 -1.0285
11621TIP3    H256279   5.968   5.535  17.398 -0.4064  0.4509 -0.7665
11622TIP3   OH256280   6.608   4.868  17.057 -0.0178 -0.2316  0.0743
11622TIP3    H156281   6.692   4.837  17.024  0.8341  1.5985  0.4188
11622TIP3    H256282   6.543   4.819  17.006  1.2307 -1.5051 -0.3678
11623TIP3   OH256283   0.048   1.170   4.565  0.0793 -0.1816  0.2627
11623TIP3    H156284   0.054   1.166   4.469 -0.7726  2.3070  0.0371
11623TIP3    H256285   0.130   1.129   4.596  0.9297  0.0601 -1.5461
11624TIP3   OH256286   1.363   4.317  12.605 -0.0214  0.2597  0.6202
11624TIP3    H156287   1.277   4.275  12.609 -0.2090  0.4365 -0.8483
11624TIP3    H256288   1.345   4.409  12.624  0.1647 -0.0286  2.3196
11625TIP3   OH256289   5.522   4.884   3.095  0.2789 -0.2250 -0.0115
11625TIP3    H156290   5.582   4.851   3.162  2.3724  3.3173  0.0820
11625TIP3    H256291   5.570   4.955   3.053 -2.8439  0.9314 -1.9349
11626TIP3   OH256292   4.487   2.092  11.068  0.1322  0.1978 -0.2379
11626TIP3    H156293   4.506   2.109  11.160 -2.1729  0.2508  0.2710
11626TIP3    H256294   4.543   2.153  11.021 -0.0680  1.5625  1.2076
11627TIP3   OH256295   6.404   0.274   3.052  0.0941 -0.4244 -0.3645
11627TIP3    H156296   6.484   0.282   3.104 -0.5174  2.0973  0.3427
11627TIP3    H256297   6.338   0.241   3.112 -0.0171  0.0946 -0.1950
11628TIP3   OH256298   0.189   3.526   3.403 -0.2898  0.1875 -0.4493
11628TIP3    H156299   0.100   3.539   3.371 -0.6056 -1.1892 -0.1509
11628TIP3    H256300   0.185   3.447   3.456  0.9214  0.6246  0.3384
11629TIP3   OH256301   2.921   5.069  13.492  0.1061  0.2778  0.1229
11629TIP3    H156302   2.829   5.080  13.517  0.5853  1.9610  1.2844
11629TIP3    H256303   2.960   5.155  13.503  2.2155 -0.7480  1.2579
11630TIP3   OH256304   1.480   2.494   4.238  0.5207  0.2698 -0.2024
11630TIP3    H156305   1.567   2.533   4.238  0.5305  0.2527 -0.7243
11630TIP3    H256306   1.497   2.399   4.244  0.5508  0.2457 -0.6406
11631TIP3   OH256307   3.773   3.259   4.203 -0.1780 -0.1361  0.2138
11631TIP3    H156308   3.719   3.228   4.131 -2.4805  0.7937  1.4218
11631TIP3    H256309   3.757   3.353   4.207  1.4085  0.1422  0.7561
11632TIP3   OH256310   5.631   6.382   2.219  0.1273  0.8593 -0.1330
11632TIP3    H156311   5.707   6.384   2.278  0.8942  0.3299 -1.0788
11632TIP3    H256312   5.650   6.449   2.153 -0.2402  0.7376 -0.3660
11633TIP3   OH256313   1.955   0.904   3.373  0.1713 -0.4139  0.3717
11633TIP3    H156314   1.966   0.815   3.341 -2.0263 -0.9327  0.9322
11633TIP3    H256315   1.891   0.944   3.314  0.6127  0.5851  0.5366
11634TIP3   OH256316   4.595   1.687  14.130 -0.4302  0.0684 -0.0104
11634TIP3    H156317   4.614   1.658  14.219 -0.6268  2.3778  0.8625
11634TIP3    H256318   4.677   1.727  14.100 -0.7570  0.5037 -0.3394
11635TIP3   OH256319   4.971   1.828   4.450  0.0634  0.3095  0.5368
11635TIP3    H156320   4.894   1.885   4.446 -0.3967 -0.2498  1.0879
11635TIP3    H256321   5.032   1.873   4.508  1.8278  2.6629 -2.8231
11636TIP3   OH256322   2.571   6.151   5.503 -0.1252 -0.0666  0.4165
11636TIP3    H156323   2.650   6.185   5.462  2.3620 -2.8025  2.4718
11636TIP3    H256324   2.578   6.180   5.594  0.7151 -3.4381  1.5736
11637TIP3   OH256325   4.319   5.302   3.208  0.3294  0.2072  0.1698
11637TIP3    H156326   4.273   5.373   3.254 -1.4031 -0.4505 -0.4583
11637TIP3    H256327   4.318   5.229   3.270  1.5929  0.5204  0.5903
11638TIP3   OH256328   1.094   5.676  12.364  0.0099 -1.1363 -0.3785
11638TIP3    H156329   1.147   5.755  12.359  0.2519 -1.3457 -1.4928
11638TIP3    H256330   1.129   5.628  12.439  3.3106 -2.5487 -2.5558
11639TIP3   OH256331   5.029   1.288  14.328 -0.0307  0.1831 -0.1259
11639TIP3    H156332   4.951   1.235  14.342 -0.2567  0.4943 -0.1906
11639TIP3    H256333   4.995   1.375  14.304  0.3327  0.0812 -1.0663
11640TIP3   OH256334   2.208   4.625   0.476 -0.2494 -0.4851  0.3817
11640TIP3    H156335   2.203   4.560   0.406  1.2380 -0.5694  0.3277
11640TIP3    H256336   2.270   4.690   0.444 -2.5696  1.6517 -0.0784
11641TIP3   OH256337   4.905   6.242   2.786  0.1409  0.1786 -0.0926
11641TIP3    H156338   4.862   6.296   2.720 -0.7097 -0.5970 -0.1929
11641TIP3    H256339   4.847   6.166   2.796  0.8615 -0.2815  0.6853
11642TIP3   OH256340   4.145   2.290   2.743 -0.4884  0.3881 -0.0383
11642TIP3    H156341   4.166   2.270   2.834 -0.7603 -0.8488 -0.2198
11642TIP3    H256342   4.110   2.207   2.708  0.0407  0.7014 -1.3838
11643TIP3   OH256343   0.800   4.589  13.329 -0.4383  0.6149  0.6478
11643TIP3    H156344   0.879   4.638  13.307 -0.2656 -0.6954 -2.0231
11643TIP3    H256345   0.824   4.540  13.408  1.5829 -0.0355 -0.3076
11644TIP3   OH256346   0.722   1.999  12.936  0.1816 -0.5241  0.0056
11644TIP3    H156347   0.671   2.031  13.010  2.3264  0.2122  1.2788
11644TIP3    H256348   0.746   1.910  12.960  0.2696 -0.5381 -0.1334
11645TIP3   OH256349   2.460   2.766   1.470 -0.5223  0.0835  0.8150
11645TIP3    H156350   2.544   2.802   1.440 -0.4671  0.8036  1.7761
11645TIP3    H256351   2.442   2.814   1.551 -0.7812 -1.6216  1.8121
11646TIP3   OH256352   2.097   0.407   4.495 -0.4336  0.1631 -0.6171
11646TIP3    H156353   2.164   0.475   4.507 -0.5876  0.0381  1.2484
11646TIP3    H256354   2.037   0.419   4.569 -1.8194 -0.4771 -1.6051
11647TIP3   OH256355   6.721   1.564  13.407  0.9539 -0.3442  0.7199
11647TIP3    H156356   6.750   1.578  13.497 -0.8873 -0.1515  1.3116
11647TIP3    H256357   6.734   1.649  13.364  1.4093 -0.3099  0.9227
11648TIP3   OH256358   4.972   5.341   0.995 -0.3010 -0.6280  0.4096
11648TIP3    H156359   4.989   5.339   0.900 -0.7382  1.5760  0.2272
11648TIP3    H256360   4.920   5.262   1.011  1.1472 -1.9205 -0.8649
11649TIP3   OH256361   3.186   5.762   3.596 -0.0313 -0.7919 -0.2117
11649TIP3    H156362   3.162   5.676   3.562  0.7484 -0.6899 -1.0881
11649TIP3    H256363   3.243   5.744   3.670  0.5585 -1.0506 -0.7144
11650TIP3   OH256364   1.358   2.703   5.310  0.2563 -0.3700 -0.0510
11650TIP3    H156365   1.278   2.740   5.350 -0.2666  0.5863 -1.8830
11650TIP3    H256366   1.360   2.612   5.341 -0.9753 -0.1286  0.8464
11651TIP3   OH256367   6.694   5.298   1.410  0.2804 -0.1018  0.3664
11651TIP3    H156368   6.668   5.248   1.488 -1.3062  0.0495 -0.0345
11651TIP3    H256369   6.764   5.246   1.370 -1.4107 -2.1383 -0.1378
11652TIP3   OH256370   4.775   1.260  16.345  0.3465 -0.7155 -0.0135
11652TIP3    H156371   4.697   1.315  16.335 -0.5895 -1.3443  2.8929
11652TIP3    H256372   4.848   1.323  16.352 -0.1345 -0.0508 -0.8063
11653TIP3   OH256373   4.210   2.045  11.421 -0.3739 -0.4267 -0.2234
11653TIP3    H156374   4.185   2.010  11.335 -1.4863 -0.1053 -0.0413
11653TIP3    H256375   4.179   1.980  11.484 -2.5925  0.8757  0.1295
11654TIP3   OH256376   1.933   1.403  15.595  0.0011  0.3133 -0.4966
11654TIP3    H156377   2.021   1.382  15.627  0.4421  1.0578 -1.1838
11654TIP3    H256378   1.896   1.318  15.570  0.5162 -0.0119 -0.1721
11655TIP3   OH256379   1.304   5.992   2.281  0.0614 -0.1750 -0.1962
11655TIP3    H156380   1.331   5.914   2.232 -1.3751 -1.8063  1.4274
11655TIP3    H256381   1.316   6.065   2.220  1.6336 -1.6201 -1.7286
11656TIP3   OH256382   5.443   3.704  12.524 -0.6925  0.8582  0.2369
11656TIP3    H156383   5.488   3.732  12.604  0.4812 -0.6860  0.1568
11656TIP3    H256384   5.513   3.689  12.461 -1.5206  0.8794 -0.7032
11657TIP3   OH256385   5.429   1.941  17.373  0.2123  0.0785  0.0965
11657TIP3    H156386   5.458   1.857  17.337 -1.4314  0.1373 -1.4977
11657TIP3    H256387   5.497   2.003  17.346  0.8673 -0.5297  0.3171
11658TIP3   OH256388   2.979   4.185   2.005  0.3788 -0.2076 -0.3756
11658TIP3    H156389   2.895   4.157   1.969  1.4427 -2.4664 -1.3130
11658TIP3    H256390   2.991   4.130   2.082  1.3665 -0.5498 -0.7557
11659TIP3   OH256391   6.398   5.652  12.248  0.0655  0.4988 -0.7854
11659TIP3    H156392   6.407   5.605  12.331  0.6367  0.3385 -0.9392
11659TIP3    H256393   6.370   5.740  12.274  0.3677  0.4884 -0.4160
11660TIP3   OH256394   3.843   6.672   0.231  0.2374  0.4419 -0.8097
11660TIP3    H156395   3.889   6.752   0.207  1.4690 -0.1410 -0.4936
11660TIP3    H256396   3.901   6.601   0.201 -1.3986 -0.3635 -2.2109
11661TIP3   OH256397   4.902   3.318   1.861 -0.2033 -0.1029  0.5850
11661TIP3    H156398   4.931   3.366   1.939  4.0767 -0.7761 -0.3720
11661TIP3    H256399   4.943   3.364   1.788 -1.1046 -1.6245 -0.9371
11662TIP3   OH256400   4.284   4.240  16.038  0.1898 -0.6347  0.5151
11662TIP3    H156401   4.214   4.286  15.993 -0.0256 -0.0743  1.4066
11662TIP3    H256402   4.279   4.150  16.004 -0.3606 -0.3819 -0.0976
11663TIP3   OH256403   4.627   4.133   5.070  0.4068 -0.2437  0.1418
11663TIP3    H156404   4.575   4.073   5.017  1.4417  0.1277 -1.3458
11663TIP3    H256405   4.603   4.220   5.038  1.0869 -0.0116  0.2544
11664TIP3   OH256406   1.319   6.521  14.548  0.6026 -0.4537  0.0673
11664TIP3    H156407   1.407   6.485  14.551 -0.1803 -2.5839 -0.5618
11664TIP3    H256408   1.272   6.476  14.618 -0.4514 -0.8287 -0.8400
11665TIP3   OH256409   6.545   1.776   2.651 -0.4963 -0.5560 -0.4385
11665TIP3    H156410   6.635   1.776   2.683 -0.5606 -0.9646 -0.2561
11665TIP3    H256411   6.509   1.692   2.679 -0.9159 -0.4212 -0.5625
11666TIP3   OH256412   3.698   3.057   4.837  0.0192  0.6998 -0.4398
11666TIP3    H156413   3.661   3.054   4.749 -0.9539  3.8781 -0.2594
11666TIP3    H256414   3.624   3.038   4.895  0.7573 -1.8846 -0.2069
11667TIP3   OH256415   0.183   2.112  15.424  0.0903  0.2810  0.5077
11667TIP3    H156416   0.109   2.127  15.366  0.9563 -1.3575 -1.1090
11667TIP3    H256417   0.164   2.028  15.466  0.5239  0.3860  0.9229
11668TIP3   OH256418   3.995   6.675   0.793 -0.1263 -0.0351 -0.2949
11668TIP3    H156419   4.000   6.582   0.773 -0.6815  0.2109 -1.6411
11668TIP3    H256420   3.979   6.718   0.709 -0.7541  1.2005  0.4161
11669TIP3   OH256421   2.526   3.936   2.429  0.1246 -0.7463  0.5706
11669TIP3    H156422   2.533   4.004   2.496 -1.1066 -1.0502  1.0391
11669TIP3    H256423   2.574   3.972   2.354 -1.0325  0.9533  0.5661
11670TIP3   OH256424   3.216   0.174   5.173  0.5688 -0.6093 -0.5102
11670TIP3    H156425   3.142   0.176   5.113  1.1887 -0.3593 -1.2969
11670TIP3    H256426   3.254   0.262   5.167  0.2501 -0.3525  0.7822
11671TIP3   OH256427   0.466   0.178  11.917  0.1233 -0.4761 -0.3726
11671TIP3    H156428   0.521   0.130  11.979  0.1501  0.2655  0.1723
11671TIP3    H256429   0.392   0.210  11.968 -0.3442 -0.6554 -0.9153
11672TIP3   OH256430   3.862   1.345   1.258 -0.2988 -0.1386  0.2333
11672TIP3    H156431   3.790   1.403   1.284  0.4591  1.5395 -1.1674
11672TIP3    H256432   3.928   1.357   1.327 -1.5220 -2.1477  1.8460
11673TIP3   OH256433   3.130   6.489  11.930  0.1038 -0.4540  0.3090
11673TIP3    H156434   3.144   6.448  12.016  2.5974  0.3561  0.3697
11673TIP3    H256435   3.207   6.544  11.917 -1.4058  1.4261 -1.3680
11674TIP3   OH256436   5.491   3.773  12.089  0.1299 -0.5741 -0.3997
11674TIP3    H156437   5.489   3.768  11.993 -1.3053  0.3057 -0.4430
11674TIP3    H256438   5.564   3.831  12.109 -1.5080  1.9194 -1.1576
11675TIP3   OH256439   3.833   6.019   3.875 -0.3934 -0.3924  0.2956
11675TIP3    H156440   3.750   6.023   3.922 -0.0430 -0.3292  0.9180
11675TIP3    H256441   3.835   6.099   3.822  0.5318  1.0793  2.4426
11676TIP3   OH256442   0.682   2.142   3.772  0.0895 -0.2114  0.0778
11676TIP3    H156443   0.657   2.055   3.804  1.8410 -1.1439 -0.9009
11676TIP3    H256444   0.767   2.128   3.730  0.7047  2.1103  0.4134
11677TIP3   OH256445   4.263   5.849  16.879 -0.6066  0.4893 -0.1097
11677TIP3    H156446   4.171   5.824  16.891 -0.1484 -0.6209  1.3095
11677TIP3    H256447   4.295   5.791  16.811 -0.5120 -0.3665  0.6401
11678TIP3   OH256448   0.608   6.542   0.042 -0.2136  0.5438  0.9364
11678TIP3    H156449   0.544   6.570  -0.023 -1.5923 -1.6324  1.2534
11678TIP3    H256450   0.693   6.568   0.005 -1.0929  1.2788 -0.6707
11679TIP3   OH256451   0.532   3.597  11.568  0.2630 -0.0905  0.3816
11679TIP3    H156452   0.596   3.644  11.622 -0.1031 -0.3062  1.0129
11679TIP3    H256453   0.488   3.666  11.519 -0.0084  0.2043  1.0216
11680TIP3   OH256454   0.683   3.733  15.761 -0.1277 -0.5793 -0.0053
11680TIP3    H156455   0.752   3.756  15.824 -0.7587 -2.2401  1.3501
11680TIP3    H256456   0.631   3.813  15.753 -0.3953 -0.4882  2.0901
11681TIP3   OH256457   5.912   2.330   4.450  0.3112  0.3879  0.4519
11681TIP3    H156458   5.933   2.330   4.357  0.0666  0.4074  0.3962
11681TIP3    H256459   5.945   2.246   4.482 -0.2942  0.0462  0.1898
11682TIP3   OH256460   3.434   0.710   5.846 -0.2082 -0.1615 -0.0923
11682TIP3    H156461   3.371   0.772   5.809 -0.5500 -0.5793 -0.2253
11682TIP3    H256462   3.494   0.691   5.773  0.4751  0.7406  0.2225
11683TIP3   OH256463   4.919   4.211  17.240 -0.4767 -0.7051  0.3461
11683TIP3    H156464   4.932   4.306  17.243  0.0366 -0.5516 -3.0966
11683TIP3    H256465   4.829   4.198  17.270 -0.1177  0.6400  2.2320
11684TIP3   OH256466   6.656   5.347  14.762  0.4377 -0.1656  0.0367
11684TIP3    H156467   6.694   5.311  14.842 -0.4478 -0.0527  0.5231
11684TIP3    H256468   6.663   5.442  14.773  1.0257 -0.1565 -0.3792
11685TIP3   OH256469   6.659   0.419   6.447 -0.3499  0.0917 -0.0636
11685TIP3    H156470   6.691   0.406   6.537 -2.3226  1.6441  0.9545
11685TIP3    H256471   6.707   0.496   6.416 -0.6808  0.4149  0.2130
11686TIP3   OH256472   5.739   4.117  15.739  0.3696 -0.0829  0.4120
11686TIP3    H156473   5.747   4.212  15.752 -0.8268  0.0151  0.5507
11686TIP3    H256474   5.798   4.098  15.666 -1.5574  1.2874 -1.6501
11687TIP3   OH256475   5.583   2.176  17.363  0.1713 -0.3214  0.2314
11687TIP3    H156476   5.659   2.232  17.351 -1.3421  2.4034  2.1685
11687TIP3    H256477   5.576   2.165  17.458 -1.8245 -0.4844  0.1113
11688TIP3   OH256478   1.943   0.173  12.526 -0.0474 -0.3691 -0.0255
11688TIP3    H156479   1.867   0.230  12.519 -0.1764 -0.5139  0.1628
11688TIP3    H256480   1.948   0.151  12.619 -0.1258 -0.8306 -0.1249
11689TIP3   OH256481   6.711   4.120   4.976 -0.0138 -1.9164  0.3193
11689TIP3    H156482   6.642   4.053   4.967 -0.4893 -1.5242  0.9743
11689TIP3    H256483   6.728   4.147   4.886 -2.6075 -0.1658  0.2310
11690TIP3   OH256484   4.480   6.178   5.065  0.6466  0.1511  0.7107
11690TIP3    H156485   4.402   6.219   5.028  1.7129  1.2323 -0.4125
11690TIP3    H256486   4.452   6.151   5.153 -0.8208  1.0457  0.5692
11691TIP3   OH256487   3.356   5.573   0.075 -0.0764  0.2721  0.0571
11691TIP3    H156488   3.358   5.642   0.009 -0.1224  0.1685 -0.0521
11691TIP3    H256489   3.263   5.559   0.092 -0.0647  0.3093  0.1560
11692TIP3   OH256490   3.549   1.432   4.257  0.1746  0.3409 -0.1193
11692TIP3    H156491   3.635   1.404   4.289  1.4359 -0.9529 -4.0096
11692TIP3    H256492   3.567   1.507   4.201 -1.2438  0.1758 -0.8549
11693TIP3   OH256493   3.913   4.542   4.992  0.3652 -0.1170 -0.5296
11693TIP3    H156494   3.835   4.580   5.031 -0.1452 -1.5195 -0.1490
11693TIP3    H256495   3.934   4.601   4.919  0.4251  1.6585  0.8497
11694TIP3   OH256496   4.343   5.461   4.514  0.0728 -0.7593  0.2703
11694TIP3    H156497   4.407   5.402   4.552  0.6931 -0.2109  0.0806
11694TIP3    H256498   4.261   5.440   4.559  0.1045 -2.3041 -0.3275
11695TIP3   OH256499   6.124   4.012   1.801  0.3935 -0.0553 -0.1432
11695TIP3    H156500   6.145   3.951   1.872  0.9641  0.5357  0.2168
11695TIP3    H256501   6.116   3.958   1.723  0.9229 -0.5897  0.1636
11696TIP3   OH256502   3.487   2.514  13.936  0.3316 -0.4616 -0.0777
11696TIP3    H156503   3.472   2.462  13.857 -2.3249  0.6160 -0.3872
11696TIP3    H256504   3.476   2.452  14.008  1.3071 -1.1494 -0.4993
11697TIP3   OH256505   6.561   3.899  16.611 -0.6930  0.2278  0.2337
11697TIP3    H156506   6.496   3.913  16.680 -2.0190  0.3461 -0.9875
11697TIP3    H256507   6.569   3.983  16.567  0.5274  0.2894  0.5418
11698TIP3   OH256508   1.449   2.028  14.619 -0.4810  0.2574 -1.1370
11698TIP3    H156509   1.358   2.013  14.643 -0.6647 -0.1684 -2.0311
11698TIP3    H256510   1.473   1.950  14.568 -0.1100  1.0597 -2.2251
11699TIP3   OH256511   0.004   0.433   3.704 -0.2205  0.1304 -0.4387
11699TIP3    H156512   0.057   0.496   3.656  0.4305  0.7994  1.1119
11699TIP3    H256513   0.065   0.366   3.733 -0.1838  0.8334  1.2427
11700TIP3   OH256514   6.184   4.042   0.107  0.1228  0.0588 -0.5250
11700TIP3    H156515   6.250   3.983   0.143 -0.8449  0.4511  2.0795
11700TIP3    H256516   6.124   3.985   0.059 -1.0424 -1.2833  2.2812
11701TIP3   OH256517   2.257   4.665  11.599 -0.2070 -0.1774  0.0995
11701TIP3    H156518   2.289   4.747  11.635 -4.6011  1.2522  1.3657
11701TIP3    H256519   2.208   4.690  11.521  1.3229 -2.1792 -1.6398
11702TIP3   OH256520   2.838   0.821  12.162 -0.1063  0.8174  0.5052
11702TIP3    H156521   2.781   0.765  12.214 -1.5681 -0.6606 -2.4575
11702TIP3    H256522   2.925   0.783  12.172 -0.5543 -0.1227  0.9352
11703TIP3   OH256523   6.414   0.021  17.359  0.3769 -0.4248  0.2237
11703TIP3    H156524   6.507   0.001  17.362  0.9970  1.8705 -1.4146
11703TIP3    H256525   6.406   0.103  17.408 -0.5936 -0.0343 -0.5608
11704TIP3   OH256526   4.900   5.088   1.093 -0.0839  0.4766 -0.0234
11704TIP3    H156527   4.885   5.072   1.186 -1.5345 -0.1804 -0.3554
11704TIP3    H256528   4.843   5.027   1.048 -0.1670  1.4908 -1.3613
11705TIP3   OH256529   1.282   4.930   3.716  0.1678  0.3663 -0.2681
11705TIP3    H156530   1.234   4.947   3.797  0.7078 -0.3875  0.2179
11705TIP3    H256531   1.216   4.940   3.647 -0.8245 -1.1741  0.4158
11706TIP3   OH256532   2.006   1.540  16.328  0.5671 -0.0767 -0.1528
11706TIP3    H156533   1.954   1.495  16.395  0.4401 -1.0272 -0.8771
11706TIP3    H256534   1.942   1.593  16.280  0.9090  2.1004  1.5988
11707TIP3   OH256535   3.405   6.158   0.569  0.1249 -0.2438  0.0251
11707TIP3    H156536   3.366   6.234   0.612  0.3719 -0.1559  0.0945
11707TIP3    H256537   3.330   6.107   0.538 -0.0359  0.6275 -1.0839
11708TIP3   OH256538   0.978   5.546  16.400 -0.3743  0.0781  0.0000
11708TIP3    H156539   0.995   5.458  16.434 -2.5100 -0.1540  0.6303
11708TIP3    H256540   1.064   5.578  16.373  0.4411 -2.2652 -0.4341
11709TIP3   OH256541   2.612   6.342  17.124  0.1732 -0.2673 -0.2375
11709TIP3    H156542   2.552   6.277  17.088 -0.2009 -0.0435 -0.0277
11709TIP3    H256543   2.556   6.417  17.145  0.2406 -0.6670  1.5159
11710TIP3   OH256544   0.457   1.391  13.163  0.2216 -0.5341  0.0896
11710TIP3    H156545   0.519   1.324  13.194  0.9241  0.3103  0.5395
11710TIP3    H256546   0.386   1.389  13.226  0.6912 -0.2068  0.6354
11711TIP3   OH256547   6.400   1.050  11.268 -0.3524  0.0985  0.3317
11711TIP3    H156548   6.320   1.010  11.302 -0.4893  0.0734 -0.0139
11711TIP3    H256549   6.416   1.005  11.185 -0.4675  0.7042 -0.0284
11712TIP3   OH256550   3.990   6.288   5.170  0.1842 -0.5533 -0.7988
11712TIP3    H156551   3.908   6.242   5.186  0.1552 -0.8614 -1.8146
11712TIP3    H256552   3.969   6.355   5.106  0.9357 -1.3177 -1.8820
11713TIP3   OH256553   5.495   6.016   3.996 -0.0549 -0.5115 -0.3940
11713TIP3    H156554   5.483   5.963   4.074 -0.9276 -2.3074 -1.6666
11713TIP3    H256555   5.448   6.097   4.014 -0.1566 -0.8587  0.9687
11714TIP3   OH256556   6.394   6.100  11.819  0.0078  0.5582 -0.5145
11714TIP3    H156557   6.467   6.127  11.762  0.4897 -0.8565 -0.5936
11714TIP3    H256558   6.319   6.149  11.786  0.2971 -0.1409 -2.3259
11715TIP3   OH256559   5.918   0.497   6.747  0.3262 -0.3701 -0.2733
11715TIP3    H156560   5.999   0.500   6.696 -0.0497 -0.0492 -0.8561
11715TIP3    H256561   5.919   0.579   6.797 -1.1748  1.2547 -2.6937
11716TIP3   OH256562   4.935   3.517   2.110 -0.4766 -0.1388 -0.1243
11716TIP3    H156563   5.014   3.466   2.091 -0.5909 -0.1600 -0.5749
11716TIP3    H256564   4.868   3.450   2.126 -1.2636 -0.2807 -3.2301
11717TIP3   OH256565   3.940   1.820   5.803 -0.1968  0.3139 -0.3939
11717TIP3    H156566   4.034   1.817   5.786  0.2207  2.4416  1.1084
11717TIP3    H256567   3.901   1.847   5.720  0.7115  1.0186 -0.6146
11718TIP3   OH256568   6.284   3.231   4.542  0.3578  0.1871  0.1761
11718TIP3    H156569   6.344   3.156   4.536  0.5952  0.3649  0.2900
11718TIP3    H256570   6.335   3.298   4.589  0.1322  0.4031  0.1121
11719TIP3   OH256571   5.497   1.855  11.076 -0.1331 -0.4820  0.3189
11719TIP3    H156572   5.408   1.890  11.064 -0.3168 -0.4878  1.5146
11719TIP3    H256573   5.553   1.921  11.036 -0.7538 -1.5622 -2.5328
11720TIP3   OH256574   5.481   6.588   3.984  0.9529 -0.0958  0.0101
11720TIP3    H156575   5.535   6.596   4.063  0.8912 -0.1074  0.0536
11720TIP3    H256576   5.408   6.532   4.010  0.0889  1.1562  0.4067
11721TIP3   OH256577   3.345   4.755  14.778  0.4942  0.1577 -0.3042
11721TIP3    H156578   3.431   4.721  14.800  0.9107  1.4813  0.2292
11721TIP3    H256579   3.319   4.806  14.855  0.5713  2.2723 -1.6061
11722TIP3   OH256580   4.478   1.193  11.724  0.5346 -0.8250 -0.3311
11722TIP3    H156581   4.428   1.227  11.650  1.7172  0.2658 -0.6568
11722TIP3    H256582   4.450   1.246  11.798 -0.1909 -1.5023 -0.1110
11723TIP3   OH256583   6.687   2.870  12.633  0.6155 -0.0565  0.4899
11723TIP3    H156584   6.760   2.883  12.572  0.4921 -0.3092  0.2818
11723TIP3    H256585   6.687   2.948  12.688  1.7569 -0.5629  1.2587
11724TIP3   OH256586   4.040   5.111  13.847 -0.5843 -0.6024 -0.7795
11724TIP3    H156587   4.000   5.155  13.923  0.5610 -1.1235  0.1536
11724TIP3    H256588   4.025   5.171  13.774  0.8771  1.3428  0.4332
11725TIP3   OH256589   4.192   4.848   3.884  0.7662  0.3942 -0.1069
11725TIP3    H156590   4.115   4.890   3.846 -0.5434 -1.6902  0.0468
11725TIP3    H256591   4.216   4.904   3.958 -1.2966  0.5601  0.5009
11726TIP3   OH256592   2.260   1.051  12.853  0.8195 -0.4857  0.5739
11726TIP3    H156593   2.338   1.034  12.906  1.5701 -0.7604 -0.5705
11726TIP3    H256594   2.237   1.142  12.872  1.6578 -0.2740  0.6366
11727TIP3   OH256595   5.695   3.136   0.489 -0.3485  0.3237 -0.2855
11727TIP3    H156596   5.656   3.085   0.418  0.0329  0.3703 -0.5315
11727TIP3    H256597   5.788   3.141   0.466 -0.2149  0.2966  0.2450
11728TIP3   OH256598   5.966   4.037   1.139  0.1539 -0.0037 -0.6245
11728TIP3    H156599   5.887   4.012   1.091  0.6033 -0.3145 -1.2158
11728TIP3    H256600   6.038   4.020   1.078  0.7147 -0.1229  0.0529
11729TIP3   OH256601   2.407   5.599   3.211  0.0081 -0.4273 -0.4342
11729TIP3    H156602   2.342   5.617   3.143 -0.7380 -3.1303 -0.5589
11729TIP3    H256603   2.364   5.625   3.293  0.0413  0.7298 -0.7636
11730TIP3   OH256604   0.345   6.273  12.706  0.1801 -0.2658 -0.0346
11730TIP3    H156605   0.404   6.345  12.724  1.0273 -0.7766 -0.7066
11730TIP3    H256606   0.277   6.280  12.773 -0.2282  1.6482 -0.6040
11731TIP3   OH256607   5.264   3.975  13.169 -0.0072  0.1567 -0.7264
11731TIP3    H156608   5.231   3.957  13.258  1.7685  1.8342  0.3493
11731TIP3    H256609   5.222   4.058  13.145  0.8525  0.6117 -0.6951
11732TIP3   OH256610   1.668   5.744  13.101  0.0733 -0.0148  0.3231
11732TIP3    H156611   1.760   5.718  13.104  0.0021 -0.3242 -0.0452
11732TIP3    H256612   1.648   5.771  13.190  0.4318 -0.2554  0.4810
11733TIP3   OH256613   6.354   6.494  12.872 -0.0087  0.1469  0.6243
11733TIP3    H156614   6.330   6.530  12.958 -0.3655 -0.3646  0.7401
11733TIP3    H256615   6.272   6.463  12.835  0.1624  0.2721  0.1395
11734TIP3   OH256616   5.238   6.376   2.186 -0.1191  0.3229 -0.2872
11734TIP3    H156617   5.303   6.307   2.197 -0.4804  0.0374  0.0588
11734TIP3    H256618   5.231   6.417   2.272 -2.0152 -1.0897  0.2995
11735TIP3   OH256619   5.366   0.980  11.256  0.1336  0.7025 -0.3204
11735TIP3    H156620   5.448   1.023  11.236  0.0718  0.9486 -0.0582
11735TIP3    H256621   5.326   1.035  11.324  0.6590 -0.4646  0.9671
11736TIP3   OH256622   5.385   5.015  17.155 -0.4114  0.0893  0.2465
11736TIP3    H156623   5.358   5.106  17.164 -0.7286  0.0961 -0.7174
11736TIP3    H256624   5.478   5.015  17.177  0.4068  1.2267 -2.7757
11737TIP3   OH256625   0.873   6.494  12.589  0.2620  0.1766  0.1503
11737TIP3    H156626   0.796   6.457  12.631 -0.8599  1.1992 -0.9394
11737TIP3    H256627   0.847   6.509  12.498  1.4728  1.2747 -0.0525
11738TIP3   OH256628   3.947   0.589  13.825 -0.0328  0.3309  0.7749
11738TIP3    H156629   3.938   0.506  13.871  0.3665  0.0269  0.3155
11738TIP3    H256630   3.859   0.611  13.796 -0.4256  0.8893  2.2817
11739TIP3   OH256631   4.890   1.525  12.231  0.4809 -0.0511 -0.3448
11739TIP3    H156632   4.929   1.440  12.252  0.5342  0.5198  2.3003
11739TIP3    H256633   4.966   1.582  12.214  0.6785  0.1942  1.1798
11740TIP3   OH256634   3.857   4.343  13.234  0.2332 -0.2431 -0.6123
11740TIP3    H156635   3.794   4.304  13.174  1.0184 -0.2794 -1.4306
11740TIP3    H256636   3.834   4.435  13.237 -1.8453 -0.7230  1.5899
11741TIP3   OH256637   1.369   1.194   3.987  0.1719 -0.6005  0.3038
11741TIP3    H156638   1.396   1.166   3.900  0.3680 -1.4929  0.6471
11741TIP3    H256639   1.278   1.223   3.975  0.6919  0.8147 -0.5056
11742TIP3   OH256640   1.198   0.397  11.731  0.0090 -0.6229  0.6105
11742TIP3    H156641   1.190   0.302  11.731 -0.4647 -0.5932  1.8533
11742TIP3    H256642   1.255   0.417  11.805 -0.4967  0.1074  0.8147
11743TIP3   OH256643   3.033   0.428   6.195  0.3556 -0.3791 -0.1710
11743TIP3    H156644   3.111   0.381   6.224  0.0731 -0.5645  0.3017
11743TIP3    H256645   2.960   0.372   6.222 -0.0284  0.6542  1.0254
11744TIP3   OH256646   2.677   4.863  17.073 -0.3921 -0.2873  0.8063
11744TIP3    H156647   2.735   4.910  17.013 -1.9301  0.9992  0.2624
11744TIP3    H256648   2.696   4.770  17.057 -0.2347  0.0404 -1.1369
11745TIP3   OH256649   2.589   1.469   4.953  0.2255 -0.3142 -0.2686
11745TIP3    H156650   2.594   1.563   4.970 -1.1382 -0.4729  1.2120
11745TIP3    H256651   2.568   1.463   4.859 -3.5346  1.0500  0.3381
11746TIP3   OH256652   2.681   3.309   2.979 -0.2715  0.0042 -0.0907
11746TIP3    H156653   2.599   3.356   2.997 -0.0231 -0.0918  1.4937
11746TIP3    H256654   2.656   3.217   2.976 -0.3146  0.0201 -0.2131
11747TIP3   OH256655   4.957   4.026   2.241  0.4625  0.7144 -0.4736
11747TIP3    H156656   5.030   4.031   2.303  1.0792 -1.1252 -0.9739
11747TIP3    H256657   4.999   4.004   2.158 -0.6562 -0.4161 -0.7627
11748TIP3   OH256658   1.758   4.328   4.759 -0.9690 -0.2723  0.4532
11748TIP3    H156659   1.823   4.321   4.830 -0.8801 -1.4893  0.2655
11748TIP3    H256660   1.808   4.309   4.680 -1.2941  0.0554  0.1704
11749TIP3   OH256661   4.635   0.749   3.845  0.3615  0.5616  0.1715
11749TIP3    H156662   4.689   0.695   3.902 -1.9041 -0.9802  0.9934
11749TIP3    H256663   4.633   0.702   3.762 -0.0851  0.3612  0.2933
11750TIP3   OH256664   1.115   3.236   4.565  0.1139  0.4555 -0.5716
11750TIP3    H156665   1.148   3.310   4.515  0.6934  1.5931  1.3900
11750TIP3    H256666   1.174   3.230   4.640 -1.9555  0.2226  1.1345
11751TIP3   OH256667   2.077   6.215  14.297  0.2711  0.4878  0.3501
11751TIP3    H156668   2.064   6.122  14.314  0.4837 -0.0105 -1.8827
11751TIP3    H256669   2.092   6.220  14.202 -2.2182  3.0700 -0.0426
11752TIP3   OH256670   2.548   4.566   2.850  0.2959  0.3221  0.4394
11752TIP3    H156671   2.632   4.578   2.895  0.3119  0.0946  0.4723
11752TIP3    H256672   2.568   4.509   2.775 -0.1606 -1.3841  1.5428
11753TIP3   OH256673   0.262   5.137   4.910 -0.3298  0.1249 -0.0309
11753TIP3    H156674   0.294   5.076   4.844 -0.0536  2.3412 -2.1090
11753TIP3    H256675   0.174   5.104   4.932 -1.0629  0.0578 -2.6654
11754TIP3   OH256676   4.958   4.055  14.485 -0.4325  0.1064 -0.4526
11754TIP3    H156677   4.984   3.981  14.430 -0.1330 -0.5924  0.5888
11754TIP3    H256678   4.872   4.082  14.451  0.0090  0.0840 -1.6179
11755TIP3   OH256679   5.310   4.249  15.070  0.0683  0.5502  0.4289
11755TIP3    H156680   5.273   4.318  15.015 -0.1889  0.8159  0.9234
11755TIP3    H256681   5.254   4.173  15.054  1.4667 -0.1288 -1.5445
11756TIP3   OH256682   1.454   3.427  14.285  0.0583 -0.4321  0.2108
11756TIP3    H156683   1.505   3.347  14.300  0.4745  0.0786  1.7326
11756TIP3    H256684   1.363   3.399  14.292  0.1752 -0.9524 -0.2861
11757TIP3   OH256685   6.488   1.906  13.930 -0.4197 -0.3036  0.7121
11757TIP3    H156686   6.441   1.948  14.002 -0.7401  0.4774  0.0570
11757TIP3    H256687   6.439   1.931  13.851 -1.1224 -2.5942  0.3510
11758TIP3   OH256688   1.295   4.223  14.875  0.2719 -0.4414  0.0163
11758TIP3    H156689   1.345   4.305  14.879  0.7497 -0.6199 -1.6798
11758TIP3    H256690   1.361   4.156  14.858 -0.5173 -0.6289 -2.6875
11759TIP3   OH256691   5.276   5.567  14.770 -0.2546  0.2960  0.3246
11759TIP3    H156692   5.322   5.489  14.740 -0.0668  0.0488  1.2207
11759TIP3    H256693   5.345   5.625  14.802 -0.4945  0.2249  0.9986
11760TIP3   OH256694   5.986   0.896   1.156 -1.0745 -1.1639 -0.6638
11760TIP3    H156695   6.071   0.863   1.128 -1.6285 -2.8358 -0.5277
11760TIP3    H256696   5.929   0.882   1.080 -1.4471 -1.0019 -0.4153
11761TIP3   OH256697   4.306   5.946  10.746  0.7997 -0.1070  0.0550
11761TIP3    H156698   4.297   5.945  10.842  1.8028 -0.2465  0.1605
11761TIP3    H256699   4.236   6.004  10.716 -0.3545 -1.0913  0.7750
11762TIP3   OH256700   1.211   5.489   5.144  0.1609 -0.2502  0.3286
11762TIP3    H156701   1.294   5.526   5.175 -0.0254  0.1628  0.3328
11762TIP3    H256702   1.221   5.395   5.157  0.7408 -0.2284  0.0677
11763TIP3   OH256703   1.993   4.840  13.647  0.2399  0.4039  0.1192
11763TIP3    H156704   2.036   4.811  13.566  0.2419 -1.0751  0.6173
11763TIP3    H256705   1.920   4.778  13.659 -0.6175  1.4585  0.5158
11764TIP3   OH256706   5.675   2.091  15.830  0.1299 -0.4730  0.4536
11764TIP3    H156707   5.761   2.092  15.872 -0.5064  4.3798  2.3906
11764TIP3    H256708   5.686   2.146  15.752 -0.6268 -2.4703 -1.1456
11765TIP3   OH256709   5.644   0.871  13.342 -0.0050 -0.0185 -0.5011
11765TIP3    H156710   5.612   0.960  13.328 -0.9159 -0.1699  0.5098
11765TIP3    H256711   5.569   0.823  13.377  0.9524 -0.7227  0.6799
11766TIP3   OH256712   6.036   0.336   0.309 -0.2956  0.0202 -0.1732
11766TIP3    H156713   6.001   0.415   0.268  0.1845  0.8757  1.0092
11766TIP3    H256714   6.131   0.343   0.296 -0.3967 -1.6998 -2.3466
11767TIP3   OH256715   0.401   3.288   2.887  0.2689  0.0666 -0.7432
11767TIP3    H156716   0.334   3.328   2.832  0.1055 -0.3579 -0.8551
11767TIP3    H256717   0.368   3.300   2.976 -0.0069 -0.2215 -0.8022
11768TIP3   OH256718   1.960   6.513   3.604  0.0308 -0.1259  0.3989
11768TIP3    H156719   1.867   6.493   3.617 -0.0689  0.5243  0.7293
11768TIP3    H256720   2.005   6.430   3.621 -0.4796 -0.4185  0.3450
11769TIP3   OH256721   0.706   0.164   4.964 -0.3408 -0.0830  0.3982
11769TIP3    H156722   0.660   0.139   5.044  0.3102 -0.6668  0.6124
11769TIP3    H256723   0.765   0.234   4.992 -0.7998  0.3789  0.2154
11770TIP3   OH256724   6.529   2.212   1.325  0.0302 -0.1613 -1.0165
11770TIP3    H156725   6.493   2.278   1.266 -0.8480  0.5375  0.2672
11770TIP3    H256726   6.453   2.177   1.372  0.5089 -1.9250 -1.4884
11771TIP3   OH256727   3.115   2.119   5.572 -0.0049 -0.3870  0.1451
11771TIP3    H156728   3.170   2.191   5.604  1.9283 -2.2429  1.2882
11771TIP3    H256729   3.081   2.150   5.488  1.1327  1.6556  0.3680
11772TIP3   OH256730   3.904   0.633   2.960  0.3071 -0.0136 -0.4851
11772TIP3    H156731   3.897   0.598   2.871 -0.7045  2.2682 -1.3732
11772TIP3    H256732   3.997   0.652   2.971  0.1563  1.9025 -2.0243
11773TIP3   OH256733   2.394   4.668   1.696 -0.1986  0.2456  0.8847
11773TIP3    H156734   2.338   4.743   1.713  0.9150  1.3294 -0.0983
11773TIP3    H256735   2.459   4.699   1.633 -0.5541 -1.9123 -0.6589
11774TIP3   OH256736   2.297   0.059   6.061 -0.1282  0.0490 -0.4601
11774TIP3    H156737   2.224   0.057   5.999 -0.7025  1.8043  0.1002
11774TIP3    H256738   2.270   0.003   6.133  0.3603 -1.6578 -1.5467
11775TIP3   OH256739   6.044   4.751  12.314 -0.0447  0.2246 -0.3261
11775TIP3    H156740   6.105   4.815  12.349  0.3236  0.4425 -1.3235
11775TIP3    H256741   6.073   4.737  12.224 -0.7454 -0.5691 -0.4452
11776TIP3   OH256742   3.851   2.705   1.855 -0.4054 -0.0585 -1.4486
11776TIP3    H156743   3.846   2.618   1.815 -0.4021  0.0934 -1.7854
11776TIP3    H256744   3.779   2.708   1.918  1.6423 -1.6249  1.2061
11777TIP3   OH256745   2.261   2.242   6.355 -0.1332 -0.9230 -0.1414
11777TIP3    H156746   2.320   2.167   6.350 -0.4692 -1.4364  2.3737
11777TIP3    H256747   2.313   2.316   6.326  1.6052 -1.4443  1.5254
11778TIP3   OH256748   1.798   3.372  12.637 -0.2227 -0.4193  0.0162
11778TIP3    H156749   1.739   3.306  12.601  0.4626 -0.7258 -0.5603
11778TIP3    H256750   1.860   3.391  12.566 -0.0668  0.4290  0.3642
11779TIP3   OH256751   5.812   3.617   0.070  0.1240  0.1273 -0.0275
11779TIP3    H156752   5.808   3.531   0.029 -1.2329 -0.7342  1.7622
11779TIP3    H256753   5.722   3.637   0.093  0.5496  1.5596  0.4981
11780TIP3   OH256754   3.414   4.146   1.033  0.3082 -0.4690  0.2261
11780TIP3    H156755   3.491   4.104   0.995  0.6865 -1.7068  2.2133
11780TIP3    H256756   3.435   4.239   1.034  0.7717 -0.5306 -1.4039
11781TIP3   OH256757   2.380   6.355  14.716  0.6097 -0.2461  0.2204
11781TIP3    H156758   2.306   6.415  14.704 -0.5468 -1.7247 -0.3333
11781TIP3    H256759   2.348   6.290  14.778  1.1741 -1.3139 -0.5689
11782TIP3   OH256760   1.046   3.425   5.279  0.0074  0.3586  0.2919
11782TIP3    H156761   1.011   3.509   5.310  0.6619  1.3946 -1.6554
11782TIP3    H256762   1.140   3.431   5.296  0.5787  1.4326 -2.7269
11783TIP3   OH256763   0.030   5.314  15.017  0.1092  0.0091  0.3686
11783TIP3    H156764   0.118   5.350  15.017 -0.8866  2.7673  2.1524
11783TIP3    H256765   0.028   5.255  15.093  0.6682 -0.9121 -0.3105
11784TIP3   OH256766   2.516   1.899   3.740  0.4396 -0.0804  0.1853
11784TIP3    H156767   2.521   1.946   3.656  1.6875  0.6067  0.6240
11784TIP3    H256768   2.464   1.957   3.796  1.1511  0.3355  0.4282
11785TIP3   OH256769   6.614   1.264   3.842  0.0094 -0.1917 -0.3274
11785TIP3    H156770   6.531   1.217   3.850 -0.5823  0.7291 -0.8097
11785TIP3    H256771   6.589   1.349   3.804  1.1035  0.3071  0.0416
11786TIP3   OH256772   1.358   0.016   2.899  0.1970 -0.1068 -0.0767
11786TIP3    H156773   1.302   0.049   2.829 -0.7587 -0.7998  0.3413
11786TIP3    H256774   1.353   0.083   2.967  1.6466  0.8825 -0.8995
11787TIP3   OH256775   4.432   5.592   3.767 -0.5146  0.2180  0.0761
11787TIP3    H156776   4.370   5.654   3.729 -0.1560  0.6900  0.2492
11787TIP3    H256777   4.404   5.583   3.858 -1.5596 -1.1489 -0.3479
11788TIP3   OH256778   2.052   6.401   1.329  0.4032  0.2739  0.1226
11788TIP3    H156779   2.086   6.462   1.395  1.0284 -0.4005  0.4449
11788TIP3    H256780   1.957   6.413   1.331  0.5498  4.5430 -3.0018
11789TIP3   OH256781   0.774   1.492   3.446 -0.3315  0.2849  0.8784
11789TIP3    H156782   0.789   1.481   3.540  0.5332  1.6959  0.9285
11789TIP3    H256783   0.757   1.403   3.414  2.1283 -0.6638  1.9134
11790TIP3   OH256784   3.341   4.246  11.724 -0.3209  0.0648 -0.5472
11790TIP3    H156785   3.361   4.332  11.688  1.6680 -0.0159  0.2449
11790TIP3    H256786   3.377   4.185  11.659 -1.0000 -0.1650 -0.7130
11791TIP3   OH256787   3.665   5.523  14.783 -0.1570  0.0722  0.2380
11791TIP3    H156788   3.641   5.595  14.842 -1.3059 -0.5437  0.5623
11791TIP3    H256789   3.592   5.518  14.721 -0.4558 -1.2827  0.6720
11792TIP3   OH256790   4.099   6.239  12.777  0.2330  0.1850  0.0016
11792TIP3    H156791   4.178   6.191  12.753  0.5145  1.2499 -1.3070
11792TIP3    H256792   4.034   6.211  12.712 -0.1090  0.2233  0.3281
11793TIP3   OH256793   6.688   6.370   1.102 -0.2178 -0.0653 -0.5140
11793TIP3    H156794   6.605   6.417   1.104  0.6585  1.5627  2.0464
11793TIP3    H256795   6.747   6.427   1.053  0.0980  0.1071  0.0639
11794TIP3   OH256796   0.895   3.180  14.126  0.5407 -0.4915  0.7172
11794TIP3    H156797   0.845   3.109  14.167 -0.0813 -0.4416  0.0558
11794TIP3    H256798   0.887   3.164  14.032  1.0437  0.0163  0.5843
11795TIP3   OH256799   1.218   1.946   5.106  0.3447 -0.2164 -0.7726
11795TIP3    H156800   1.273   1.876   5.141 -0.4219 -0.6781 -0.4573
11795TIP3    H256801   1.134   1.903   5.089  0.2892  0.3176 -1.8954
11796TIP3   OH256802   5.691   6.429  12.920  0.0227  0.8216 -0.2828
11796TIP3    H156803   5.663   6.519  12.939 -0.5100  0.7390 -0.6519
11796TIP3    H256804   5.701   6.427  12.825 -1.9452 -0.0339 -0.5318
11797TIP3   OH256805   0.643   5.893   6.396  0.0543 -0.0001 -0.1751
11797TIP3    H156806   0.626   5.875   6.489 -1.1203 -2.1454 -0.7264
11797TIP3    H256807   0.696   5.973   6.396  1.1923 -0.6366  2.4157
11798TIP3   OH256808   3.838   4.661   6.830  0.0801 -0.0814 -0.0117
11798TIP3    H156809   3.792   4.591   6.783  0.5506 -0.7428  0.4968
11798TIP3    H256810   3.920   4.673   6.781  0.1344 -0.0981  0.0741
11799TIP3   OH256811   3.064   3.471   5.242  0.4483 -0.2546  0.1022
11799TIP3    H156812   3.010   3.538   5.201  1.6530  0.2907 -0.6406
11799TIP3    H256813   3.013   3.390   5.232 -0.8356  0.4470  0.6535
11800TIP3   OH256814   5.120   4.363  12.686  0.5098  0.2897 -0.7061
11800TIP3    H156815   5.129   4.378  12.592 -1.4276  0.4951 -0.9007
11800TIP3    H256816   5.029   4.385  12.706  0.5158 -0.9446  0.9890
11801TIP3   OH256817   6.333   4.254   3.141 -0.3880 -0.1041 -0.9556
11801TIP3    H156818   6.328   4.265   3.236  2.1066 -0.2854 -0.7511
11801TIP3    H256819   6.343   4.160   3.128 -0.3466 -0.0443 -1.3729
11802TIP3   OH256820   1.300   0.688  11.774  0.1669  0.0151  0.0470
11802TIP3    H156821   1.217   0.698  11.728  0.1207  0.1635  0.1580
11802TIP3    H256822   1.299   0.599  11.808  0.9255 -0.6681 -1.6297
11803TIP3   OH256823   5.731   0.822  15.869  0.3725  0.2357  0.4254
11803TIP3    H156824   5.676   0.899  15.883  1.0769  0.5598  1.4457
11803TIP3    H256825   5.690   0.777  15.794 -1.3160  0.4226  1.1952
11804TIP3   OH256826   5.556   2.996   1.345 -0.6574 -0.0478 -0.2152
11804TIP3    H156827   5.568   3.063   1.277  0.1671  0.5545  0.5169
11804TIP3    H256828   5.619   3.018   1.413 -1.6463 -0.5038  0.8750
11805TIP3   OH256829   5.006   3.164  15.462 -0.4164  0.3026 -0.7654
11805TIP3    H156830   4.933   3.117  15.503 -0.9522  1.8231  0.1167
11805TIP3    H256831   4.963   3.229  15.405  0.2295  1.0860 -0.3890
11806TIP3   OH256832   3.931   4.513   6.116 -0.0386 -0.1586 -0.3410
11806TIP3    H156833   4.019   4.496   6.150  0.4826 -0.8184 -1.9590
11806TIP3    H256834   3.875   4.513   6.194  1.6529  2.4798  1.0124
11807TIP3   OH256835   1.815   0.240   2.435  0.1350 -0.2699  0.0484
11807TIP3    H156836   1.811   0.158   2.484 -0.6329 -0.8561 -0.9674
11807TIP3    H256837   1.724   0.267   2.424  0.3663  0.5842  0.1321
11808TIP3   OH256838   4.122   3.503   3.782 -0.6190 -0.0712 -0.1841
11808TIP3    H156839   4.107   3.427   3.726  0.4100 -0.8944  0.6327
11808TIP3    H256840   4.199   3.546   3.745 -0.2587 -0.3152  0.2697
11809TIP3   OH256841   2.944   1.569   4.570  0.4492 -0.5125 -0.6977
11809TIP3    H156842   2.960   1.568   4.475  1.3088 -0.9746 -0.5604
11809TIP3    H256843   3.028   1.597   4.607 -0.0373  0.1719 -0.0962
11810TIP3   OH256844   0.926   3.720   1.019  0.1184  0.4092 -0.1228
11810TIP3    H156845   0.942   3.811   1.044 -1.1669  0.6008  0.0824
11810TIP3    H256846   1.006   3.674   1.043  0.8661  1.5191 -0.4253
11811TIP3   OH256847   6.043   4.320   5.683  0.2815  0.1915 -0.3499
11811TIP3    H156848   6.091   4.284   5.757 -1.0724 -1.5372 -0.2536
11811TIP3    H256849   5.984   4.385   5.721  0.3410  0.0762 -0.0628
11812TIP3   OH256850   4.998   1.060   4.395  0.2707  0.4329 -0.1842
11812TIP3    H156851   4.961   0.997   4.334 -1.2798 -0.1542  1.2873
11812TIP3    H256852   5.093   1.043   4.393  0.0909 -0.5172 -1.3396
11813TIP3   OH256853   0.196   6.289  11.597  0.0024  0.2003  0.0854
11813TIP3    H156854   0.216   6.347  11.669 -0.0746  2.4043 -1.5675
11813TIP3    H256855   0.197   6.345  11.519  0.0945 -2.0372 -1.6494
11814TIP3   OH256856   3.571   2.898   2.922  0.0047  0.1209  0.8585
11814TIP3    H156857   3.659   2.861   2.912  0.0573 -0.6060  3.3770
11814TIP3    H256858   3.526   2.873   2.842  1.3643 -1.6789  0.5873
11815TIP3   OH256859   2.187   0.275  12.064 -0.0309  0.5053  0.8520
11815TIP3    H156860   2.167   0.365  12.090 -0.4932  0.0439  2.1870
11815TIP3    H256861   2.102   0.238  12.040  0.1367  0.3709  0.4573
11816TIP3   OH256862   6.153   0.091  13.945 -0.1805  0.1833 -0.1081
11816TIP3    H156863   6.248   0.095  13.942 -0.1824 -0.2716 -2.1799
11816TIP3    H256864   6.133   0.052  14.031  1.5872 -1.7257 -0.5002
11817TIP3   OH256865   3.248   3.533   2.695 -0.5410 -0.0931  0.2136
11817TIP3    H156866   3.293   3.450   2.712  0.4364  0.2018 -0.8166
11817TIP3    H256867   3.155   3.510   2.692 -0.6832 -0.5030  3.7307
11818TIP3   OH256868   2.832   4.207  11.892  0.8424 -0.5600  0.1016
11818TIP3    H156869   2.874   4.141  11.837  0.4962 -0.8265  0.1536
11818TIP3    H256870   2.872   4.290  11.866  1.1056 -0.7620 -0.1330
11819TIP3   OH256871   6.027   0.577  16.678  0.1830 -0.1570  0.0620
11819TIP3    H156872   5.952   0.625  16.715 -0.0694 -0.5952  0.1331
11819TIP3    H256873   5.991   0.491  16.657 -0.0269  0.4845 -2.4830
11820TIP3   OH256874   0.519   2.278   0.357  0.1440 -0.5182 -0.0114
11820TIP3    H156875   0.479   2.207   0.407  0.0823 -0.9299 -0.6344
11820TIP3    H256876   0.592   2.236   0.310 -0.2617 -0.3114 -0.8534
11821TIP3   OH256877   1.869   5.209  15.965 -0.2039  0.6110  0.1970
11821TIP3    H156878   1.891   5.127  15.920  2.5763  0.5265  1.4840
11821TIP3    H256879   1.812   5.182  16.037 -0.8840  0.1105 -0.5124
11822TIP3   OH256880   0.781   6.604   0.893  0.5595  0.4237  0.2063
11822TIP3    H156881   0.834   6.662   0.838 -0.6010  1.2658 -0.0566
11822TIP3    H256882   0.825   6.519   0.887  1.9166  1.1004  0.0586
11823TIP3   OH256883   5.163   2.980  17.270  0.2778 -0.1744 -0.0658
11823TIP3    H156884   5.104   2.939  17.207  0.5134  0.3379 -0.6305
11823TIP3    H256885   5.177   2.913  17.338  2.9952 -2.2467 -2.3928
11824TIP3   OH256886   0.862   4.818  10.534  0.2530  0.3826  0.3374
11824TIP3    H156887   0.892   4.730  10.557  1.3105  0.8630  0.8907
11824TIP3    H256888   0.941   4.862  10.501 -0.5393  0.7257 -1.1871
11825TIP3   OH256889   3.007   0.161   2.310  0.3355 -0.1771 -0.2178
11825TIP3    H156890   2.954   0.238   2.290 -0.9606 -1.3804 -1.8556
11825TIP3    H256891   3.087   0.195   2.350 -1.1176  1.8265  1.1897
11826TIP3   OH256892   0.917   4.601   3.077 -0.4895  0.2058 -0.0568
11826TIP3    H156893   0.964   4.660   3.017 -1.7969 -0.1928 -1.5455
11826TIP3    H256894   0.983   4.536   3.103  0.8625  2.0210  1.2922
11827TIP3   OH256895   3.682   4.866  12.184  0.4438 -0.0140 -0.0046
11827TIP3    H156896   3.595   4.827  12.179  0.2144  0.5534 -0.7712
11827TIP3    H256897   3.724   4.825  12.259  0.5680 -2.4265 -1.2865
11828TIP3   OH256898   0.398   2.951   4.271 -0.1517  0.5418 -0.1200
11828TIP3    H156899   0.342   2.881   4.236  0.3887 -0.0420  0.1566
11828TIP3    H256900   0.378   3.027   4.217 -1.6332  0.5140  0.3207
11829TIP3   OH256901   0.178   1.396  11.572 -0.3319  0.0981  0.0773
11829TIP3    H156902   0.216   1.360  11.492 -1.7071 -2.0104  0.2619
11829TIP3    H256903   0.251   1.401  11.633  0.2028 -1.2372 -0.3969
11830TIP3   OH256904   0.201   1.770  11.651 -0.1866  0.2693 -0.1604
11830TIP3    H156905   0.169   1.735  11.734 -2.4574  0.8433 -0.7343
11830TIP3    H256906   0.218   1.863  11.669  1.0565  0.0238  0.0745
11831TIP3   OH256907   1.186   0.624   3.082 -0.3466  0.4091 -0.1284
11831TIP3    H156908   1.193   0.596   2.990 -1.6443 -1.2098  0.2006
11831TIP3    H256909   1.276   0.622   3.115 -0.0626 -0.7846 -0.9027
11832TIP3   OH256910   3.421   1.906   5.050  0.2332  0.4750  0.1530
11832TIP3    H156911   3.416   1.878   4.959  0.3912 -0.1260  0.3265
11832TIP3    H256912   3.491   1.853   5.088 -1.0129 -0.5580  1.0720
11833TIP3   OH256913   3.487   0.335   4.511 -0.3125  0.1489  0.1644
11833TIP3    H156914   3.568   0.323   4.560 -1.1445  0.3870  1.6690
11833TIP3    H256915   3.422   0.284   4.558 -1.0498 -0.0656 -1.0314
11834TIP3   OH256916   3.851   0.793  15.207 -0.0210  0.0362  0.4276
11834TIP3    H156917   3.864   0.737  15.130  0.5089  0.2734  0.3401
11834TIP3    H256918   3.835   0.732  15.279  0.4439 -0.2237  0.3122
11835TIP3   OH256919   6.198   5.118  17.043  0.0585 -0.5877  0.2563
11835TIP3    H156920   6.220   5.053  16.976  0.0831 -2.5302  2.0386
11835TIP3    H256921   6.138   5.073  17.102 -0.6066  1.3221  1.1257
11836TIP3   OH256922   3.924   0.894   1.587 -0.2377 -0.0348 -0.2827
11836TIP3    H156923   3.840   0.849   1.595  0.0504 -0.9110 -1.7845
11836TIP3    H256924   3.929   0.919   1.495  1.2321 -0.2182 -0.2739
11837TIP3   OH256925   5.109   3.105   5.049  0.9122 -0.1695 -0.5701
11837TIP3    H156926   5.111   3.011   5.032  1.0880  0.1641 -2.5374
11837TIP3    H256927   5.119   3.146   4.963  0.0662  1.6580  0.1504
11838TIP3   OH256928   4.870   3.010  10.974  0.5201  0.1312 -0.0762
11838TIP3    H156929   4.916   2.982  10.895  3.0913  0.5674  1.1418
11838TIP3    H256930   4.923   3.083  11.008 -0.6192  0.1224  1.9154
11839TIP3   OH256931   3.359   3.351  13.237  0.0003  0.1671 -0.6694
11839TIP3    H156932   3.282   3.398  13.204  0.7501  0.5266 -1.9590
11839TIP3    H256933   3.330   3.259  13.240 -1.9845  0.6955  3.3194
11840TIP3   OH256934   1.245   5.318   4.203 -0.6231  0.0115 -0.1019
11840TIP3    H156935   1.333   5.280   4.214 -0.3182  0.8501  0.4653
11840TIP3    H256936   1.258   5.412   4.217 -1.7027  0.0783  0.5349
11841TIP3   OH256937   0.712   1.116   2.298  0.2311  0.0796 -0.3243
11841TIP3    H156938   0.621   1.142   2.314  0.8039  1.4554  0.9267
11841TIP3    H256939   0.761   1.198   2.296  1.5218 -0.6636 -0.4908
11842TIP3   OH256940   6.255   4.615  15.217 -0.0540 -0.0829 -0.6062
11842TIP3    H156941   6.161   4.611  15.237  0.0917  0.2261  0.1787
11842TIP3    H256942   6.298   4.574  15.293  0.4604  0.0421 -0.8261
11843TIP3   OH256943   4.560   3.578  14.167 -0.2146 -0.3061 -0.1245
11843TIP3    H156944   4.528   3.493  14.137 -0.6216  0.6123 -2.5916
11843TIP3    H256945   4.481   3.626  14.192 -0.2014 -0.0343 -0.5801
11844TIP3   OH256946   2.845   1.454  17.169  0.3303  0.0075  0.1339
11844TIP3    H156947   2.939   1.468  17.163  0.0819  1.2383 -2.2064
11844TIP3    H256948   2.831   1.418  17.257  2.9425 -0.1495  0.5605
11845TIP3   OH256949   5.035   4.777   5.154  0.3787 -0.3141 -0.0126
11845TIP3    H156950   5.120   4.819   5.164 -0.4579  1.5401 -0.2027
11845TIP3    H256951   5.011   4.747   5.242  0.5256  0.6282  0.3585
11846TIP3   OH256952   2.717   3.801   3.103  0.4545  0.0345  0.4690
11846TIP3    H156953   2.720   3.743   3.028  0.3678 -0.3506  0.7626
11846TIP3    H256954   2.624   3.825   3.111  0.7407  1.8513 -0.8892
11847TIP3   OH256955   1.577   6.504  16.584  0.2291 -0.3180 -0.1762
11847TIP3    H156956   1.597   6.449  16.508 -0.5691 -1.6853  0.5526
11847TIP3    H256957   1.658   6.503  16.636 -0.2635 -2.3014  0.6712
11848TIP3   OH256958   2.379   4.371   0.109 -0.3729 -0.2693  1.0410
11848TIP3    H156959   2.410   4.455   0.144  0.5899 -0.7129  1.3028
11848TIP3    H256960   2.396   4.377   0.015 -0.9572  0.0967  0.9568
11849TIP3   OH256961   5.013   3.375   6.070  0.0784 -0.2717  0.3236
11849TIP3    H156962   5.081   3.318   6.034 -1.3347 -2.2483  0.5486
11849TIP3    H256963   5.018   3.361   6.165 -0.4862 -0.2748  0.3574
11850TIP3   OH256964   5.960   0.717   2.844 -0.6718  0.0023  0.3749
11850TIP3    H156965   6.018   0.681   2.776 -1.1812  1.5138 -0.9317
11850TIP3    H256966   5.941   0.806   2.814 -4.0933 -0.5590  0.4299
11851TIP3   OH256967   4.361   4.294  17.280 -0.5846 -0.7629  0.1749
11851TIP3    H156968   4.325   4.252  17.202  3.0590 -1.4745 -1.3207
11851TIP3    H256969   4.360   4.225  17.347 -1.7687 -0.8001  0.1344
11852TIP3   OH256970   4.610   1.619   5.892 -0.0439  0.7947 -0.4035
11852TIP3    H156971   4.545   1.603   5.823  1.2086  1.5333 -1.8012
11852TIP3    H256972   4.637   1.710   5.879  1.0245  0.6102  0.3788
11853TIP3   OH256973   5.100   5.566  12.893 -0.0614  0.0199 -0.5191
11853TIP3    H156974   5.074   5.631  12.957 -0.3559 -2.2015  1.7578
11853TIP3    H256975   5.180   5.602  12.853  0.5055  1.1924  1.5387
11854TIP3   OH256976   5.152   0.371  12.367  0.0521  0.4305 -0.2389
11854TIP3    H156977   5.203   0.432  12.315 -0.3607  1.6737  0.7654
11854TIP3    H256978   5.103   0.426  12.429  1.0074 -0.9845  1.9010
11855TIP3   OH256979   1.002   5.528   0.833 -1.1346  0.1239 -0.2934
11855TIP3    H156980   0.910   5.538   0.858 -1.4187  1.3232 -1.6534
11855TIP3    H256981   1.018   5.600   0.772  0.6427 -0.2230 -0.2922
11856TIP3   OH256982   0.045   4.944   1.502 -0.5912 -0.3618 -0.8016
11856TIP3    H156983   0.104   4.985   1.438 -0.8802 -0.7854 -1.3525
11856TIP3    H256984   0.073   4.853   1.505  1.3575  0.2298  1.9167
11857TIP3   OH256985   2.794   0.149   6.043  0.6400 -0.6746 -0.1386
11857TIP3    H156986   2.710   0.160   6.000  0.5505 -0.8072  0.0001
11857TIP3    H256987   2.859   0.165   5.975  0.5064 -0.1472 -0.1388
11858TIP3   OH256988   1.770   3.384   1.647  0.2775  0.3839 -0.2964
11858TIP3    H156989   1.827   3.375   1.723  0.2679 -1.3792 -0.4701
11858TIP3    H256990   1.716   3.461   1.667  2.4774  1.9644 -0.0143
11859TIP3   OH256991   4.757   0.517   1.524  0.2142 -0.0512  0.5373
11859TIP3    H156992   4.794   0.544   1.440 -0.5435 -2.3315 -0.6033
11859TIP3    H256993   4.727   0.598   1.564  0.8225  1.1240 -1.2762
11860TIP3   OH256994   5.249   3.141  12.890 -0.0105 -0.0252 -0.0412
11860TIP3    H156995   5.325   3.188  12.857  0.0162 -0.2390 -0.2867
11860TIP3    H256996   5.185   3.148  12.819 -0.1715  0.0366  0.1095
11861TIP3   OH256997   2.189   2.549  16.812 -0.1951  0.1993 -0.2761
11861TIP3    H156998   2.160   2.466  16.849  0.8796  0.3615  0.9979
11861TIP3    H256999   2.279   2.534  16.784 -0.6384  0.3824 -1.9552
11862TIP3   OH257000   3.029   0.425   3.928 -0.1009 -0.4198  0.2180
11862TIP3    H157001   3.035   0.332   3.906 -1.4633 -0.8631  1.5612
11862TIP3    H257002   3.120   0.453   3.941  0.4230 -1.1585 -1.6866
11863TIP3   OH257003   3.459   4.233  15.120 -0.1648  0.3622  0.1468
11863TIP3    H157004   3.399   4.241  15.194 -1.8479 -0.3824 -1.0661
11863TIP3    H257005   3.460   4.320  15.080 -1.5875  0.0573 -0.6253
11864TIP3   OH257006   4.842   6.516  12.913 -0.2000  0.3368  0.2110
11864TIP3    H157007   4.802   6.454  12.852  1.9573  0.6977 -1.6917
11864TIP3    H257008   4.794   6.598  12.899 -0.3794  0.1554 -0.2360
11865TIP3   OH257009   1.291   3.339   1.127  0.2676 -0.9811  0.4874
11865TIP3    H157010   1.237   3.260   1.130  0.4655 -1.0873  1.7443
11865TIP3    H257011   1.356   3.326   1.195  0.9691 -0.1906 -0.0129
11866TIP3   OH257012   0.584   6.350  15.020  0.0523  0.1379  0.1934
11866TIP3    H157013   0.537   6.434  15.019  1.4638  1.0490 -3.1442
11866TIP3    H257014   0.535   6.295  14.959  1.1621 -0.1767 -0.4332
11867TIP3   OH257015   1.123   5.220   1.692 -0.3727  0.1426  0.0347
11867TIP3    H157016   1.090   5.273   1.765 -1.7048  1.0485 -1.1836
11867TIP3    H257017   1.070   5.140   1.695 -0.6076  0.2919 -0.0827
11868TIP3   OH257018   0.198   2.147  13.347  0.2806  0.3099  0.2876
11868TIP3    H157019   0.287   2.179  13.362  0.5959 -0.1371 -0.5380
11868TIP3    H257020   0.196   2.123  13.254 -0.0789 -1.5394  0.7146
11869TIP3   OH257021   0.232   1.305  11.286  0.5598 -0.4786  0.4853
11869TIP3    H157022   0.160   1.276  11.230  0.0726  0.2438  0.7153
11869TIP3    H257023   0.292   1.350  11.227  1.2173 -1.7559  0.1627
11870TIP3   OH257024   0.537   0.605   0.397 -0.4932 -0.4241 -0.2650
11870TIP3    H157025   0.580   0.647   0.322  0.0374  0.5826  0.5627
11870TIP3    H257026   0.530   0.513   0.373 -0.3228 -0.1244 -1.5359
11871TIP3   OH257027   0.228   0.518   2.844 -0.2822 -0.0855 -0.4412
11871TIP3    H157028   0.153   0.565   2.808 -0.2960  0.2960  0.0823
11871TIP3    H257029   0.212   0.515   2.938  1.2396  1.6337 -0.0769
11872TIP3   OH257030   3.848   3.364   0.586 -1.0537  0.5338  0.3212
11872TIP3    H157031   3.847   3.390   0.494 -1.2449 -0.5281  0.0067
11872TIP3    H257032   3.880   3.441   0.633  0.6958  0.5365 -0.8073
11873TIP3   OH257033   4.957   2.679   4.793 -0.3187  0.0702  0.3612
11873TIP3    H157034   4.900   2.616   4.837 -1.7962  1.2480  0.2471
11873TIP3    H257035   5.040   2.673   4.838 -1.1020 -0.4016  1.7931
11874TIP3   OH257036   1.528   2.727   5.838  0.3489  0.2391 -0.0540
11874TIP3    H157037   1.506   2.787   5.909  0.5279  0.5824 -0.2844
11874TIP3    H257038   1.456   2.738   5.775  0.4540  0.3214 -0.1611
11875TIP3   OH257039   5.495   1.092   6.086  0.0480 -0.1916  0.3001
11875TIP3    H157040   5.528   1.178   6.111  0.7212  0.0513 -1.3242
11875TIP3    H257041   5.514   1.037   6.162  0.7622  0.8104  0.8745
11876TIP3   OH257042   2.970   4.414  14.876 -0.1374  0.6860  0.0831
11876TIP3    H157043   3.063   4.399  14.857 -0.4628 -0.4321 -0.7221
11876TIP3    H257044   2.933   4.445  14.793 -0.6264  0.4083  0.1960
11877TIP3   OH257045   5.775   1.636   5.484 -0.6000  0.3461  0.1133
11877TIP3    H157046   5.870   1.646   5.477 -0.7242  1.1479 -0.6306
11877TIP3    H257047   5.744   1.641   5.394 -1.2280 -1.4641  0.1841
11878TIP3   OH257048   3.486   5.071   4.118 -0.3844  0.0897  0.5134
11878TIP3    H157049   3.561   5.041   4.067 -1.6393 -3.7414  0.5932
11878TIP3    H257050   3.440   5.131   4.059  0.8283 -0.3204 -0.9206
11879TIP3   OH257051   2.497   1.187  13.585 -0.5989 -0.6378 -0.2978
11879TIP3    H157052   2.404   1.174  13.572 -0.3999 -0.9859 -1.5181
11879TIP3    H257053   2.539   1.118  13.533  0.3342 -0.2542 -0.0870
11880TIP3   OH257054   6.113   3.650  16.637  0.2416 -0.1247  0.1249
11880TIP3    H157055   6.087   3.564  16.672  1.8438 -0.6184  0.1642
11880TIP3    H257056   6.072   3.713  16.696 -0.0507 -0.8802  0.7520
11881TIP3   OH257057   6.049   0.115  11.072 -0.4910 -0.4565  0.3927
11881TIP3    H157058   6.009   0.188  11.119 -0.3826 -0.1704  0.0415
11881TIP3    H257059   6.143   0.128  11.083 -0.4404 -2.1974  2.8912
11882TIP3   OH257060   2.598   3.755   0.124 -0.1330  0.7673 -0.1940
11882TIP3    H157061   2.605   3.834   0.178  2.2508 -0.4150  1.3757
11882TIP3    H257062   2.599   3.683   0.186  2.9677 -0.6647 -1.7261
11883TIP3   OH257063   0.282   3.183  16.849  0.0521 -0.1138  0.1200
11883TIP3    H157064   0.241   3.171  16.934 -0.9189 -0.2304 -0.3553
11883TIP3    H257065   0.330   3.265  16.856  0.2800 -0.3060  0.8907
11884TIP3   OH257066   0.916   6.250  14.362  0.4165  0.7678 -0.5066
11884TIP3    H157067   0.875   6.333  14.388  1.2069  0.6394  1.2319
11884TIP3    H257068   0.970   6.273  14.286  0.7481  1.8977  0.0508
11885TIP3   OH257069   3.590   6.259   1.427 -0.0313  0.2992 -0.0154
11885TIP3    H157070   3.590   6.304   1.511  0.4069 -0.0709  0.1868
11885TIP3    H257071   3.676   6.276   1.390  0.2621 -0.6207  0.2059
11886TIP3   OH257072   0.601   4.572   5.556 -0.3265  0.0066 -0.0508
11886TIP3    H157073   0.683   4.523   5.555 -0.2186  0.2011 -1.0911
11886TIP3    H257074   0.627   4.662   5.577 -0.4698 -0.2528  1.3317
11887TIP3   OH257075   0.462   0.441   2.047  0.0278  0.1029  0.1791
11887TIP3    H157076   0.471   0.348   2.068  1.6872  0.2218  0.1621
11887TIP3    H257077   0.531   0.458   1.983 -0.7939  1.1719 -0.4501
11888TIP3   OH257078   5.048   6.469  14.153 -0.2696 -0.0201  0.4383
11888TIP3    H157079   4.962   6.510  14.145 -0.6070 -0.9426 -1.0188
11888TIP3    H257080   5.030   6.379  14.181 -0.0066 -0.8923 -1.9329
11889TIP3   OH257081   3.621   1.361  10.697  0.0423 -0.8050  0.2510
11889TIP3    H157082   3.701   1.334  10.743  0.3533 -1.7151 -0.7841
11889TIP3    H257083   3.600   1.446  10.735  1.3194 -0.6944  0.7863
11890TIP3   OH257084   5.377   0.321   0.256 -0.3493  0.7964 -0.4802
11890TIP3    H157085   5.430   0.362   0.324 -0.3487  2.0559 -1.2050
11890TIP3    H257086   5.438   0.266   0.207 -0.1715  0.5617  0.0018
11891TIP3   OH257087   0.246   3.744  13.891  0.2012 -0.1752 -0.7713
11891TIP3    H157088   0.182   3.673  13.883 -0.0682 -0.1091  0.6573
11891TIP3    H257089   0.193   3.823  13.894  0.4285 -0.0154 -0.9334
11892TIP3   OH257090   2.502   1.388   0.812  0.1968  0.3324  0.3292
11892TIP3    H157091   2.571   1.402   0.877 -0.6619 -0.4998  1.4479
11892TIP3    H257092   2.545   1.339   0.741  0.9612  0.6079  0.5914
11893TIP3   OH257093   6.743   5.568   2.690  0.0655  0.0592 -0.0066
11893TIP3    H157094   6.769   5.629   2.759  1.3118  0.2081 -0.5719
11893TIP3    H257095   6.813   5.503   2.687 -0.4906 -0.5362 -0.4375
11894TIP3   OH257096   3.755   3.388   3.578 -0.0712 -0.0620 -0.0444
11894TIP3    H157097   3.668   3.426   3.574 -0.5945 -1.2828 -0.9410
11894TIP3    H257098   3.794   3.404   3.492 -0.1149 -1.0624 -0.2686
11895TIP3   OH257099   1.471   1.897   5.323 -0.1050 -0.3761 -0.0484
11895TIP3    H157100   1.528   1.965   5.359 -0.2068 -0.6690  0.6677
11895TIP3    H257101   1.522   1.858   5.251 -0.7286  1.6447 -1.6881
11896TIP3   OH257102   6.398   1.192  14.070 -0.1378  0.0559  0.3467
11896TIP3    H157103   6.311   1.165  14.039  0.3502 -1.0376 -0.1294
11896TIP3    H257104   6.382   1.274  14.117 -1.3780  0.0495 -0.0133
11897TIP3   OH257105   2.947   2.698   3.284  0.5391 -0.2160  0.3760
11897TIP3    H157106   2.889   2.662   3.217 -0.9764 -0.2753  1.6527
11897TIP3    H257107   3.026   2.722   3.237 -0.8745  0.7905 -1.6450
11898TIP3   OH257108   0.052   1.713  11.892 -0.2307  0.2094  0.6414
11898TIP3    H157109   0.045   1.628  11.935  1.3506  0.3987  1.3227
11898TIP3    H257110  -0.037   1.749  11.896 -0.2396  0.1063  3.5736
11899TIP3   OH257111   4.908   6.048  13.966 -0.5005 -0.0031 -0.2898
11899TIP3    H157112   4.842   5.982  13.948 -0.7425 -0.3849  1.7666
11899TIP3    H257113   4.992   6.003  13.952 -0.6668 -0.7119  0.8479
11900TIP3   OH257114   6.631   5.658  12.622  0.6501 -0.1735 -0.9033
11900TIP3    H157115   6.571   5.674  12.695  2.3972  0.3781  0.4677
11900TIP3    H257116   6.599   5.716  12.553 -1.2774 -1.0026 -0.7837
11901TIP3   OH257117   4.589   2.144   1.507  0.3878  0.1513 -0.3804
11901TIP3    H157118   4.648   2.176   1.575 -0.5549  0.8789  0.1203
11901TIP3    H257119   4.640   2.150   1.426  1.5838 -0.8760  0.2579
11902TIP3   OH257120   4.066   0.466   5.960 -0.1995 -0.0627  0.0404
11902TIP3    H157121   4.082   0.492   6.050  0.1269  2.3258 -0.6454
11902TIP3    H257122   4.076   0.371   5.960 -1.3949 -0.2776  2.7376
11903TIP3   OH257123   0.894   6.508   5.369  0.1192 -0.9044 -0.1731
11903TIP3    H157124   0.918   6.556   5.448  0.1391  1.8434 -1.7173
11903TIP3    H257125   0.976   6.467   5.341  0.4845 -0.5780  0.3931
11904TIP3   OH257126   0.541   3.664   1.773  0.3530 -0.3817 -0.4565
11904TIP3    H157127   0.512   3.737   1.828 -0.2668 -0.5327 -0.5840
11904TIP3    H257128   0.478   3.595   1.789  0.2928 -0.5021 -1.1971
11905TIP3   OH257129   0.083   6.580   0.988 -0.2991  0.8407 -0.8349
11905TIP3    H157130   0.136   6.635   0.931  2.0970  1.7711  2.0521
11905TIP3    H257131   0.003   6.630   1.003  0.5617  2.2090 -0.6626
11906TIP3   OH257132   0.958   2.354  15.534 -0.6847  0.6430  0.5168
11906TIP3    H157133   0.916   2.438  15.513 -0.0269  0.6888 -0.7134
11906TIP3    H257134   0.913   2.291  15.477 -1.0614  0.1776  1.3184
11907TIP3   OH257135   3.580   6.265   4.484  0.1284  0.3532  0.3532
11907TIP3    H157136   3.585   6.308   4.398  2.3479  1.6863  1.0618
11907TIP3    H257137   3.486   6.258   4.501 -0.3605  0.7797 -1.8215
11908TIP3   OH257138   3.010   5.967  14.847 -0.3949  0.1069 -0.0171
11908TIP3    H157139   2.930   5.937  14.890 -0.8614  0.5321 -0.5802
11908TIP3    H257140   3.042   6.039  14.902 -1.0401  0.7105 -0.4146
11909TIP3   OH257141   4.767   5.447   6.291 -0.5686 -0.7026  0.0414
11909TIP3    H157142   4.794   5.518   6.349 -0.3344 -0.5879 -0.2009
11909TIP3    H257143   4.808   5.369   6.329 -0.0535 -0.5615 -0.2065
11910TIP3   OH257144   3.211   3.470  11.925 -0.2860  0.0088 -0.0672
11910TIP3    H157145   3.127   3.451  11.883 -0.8543 -0.1183  1.0921
11910TIP3    H257146   3.250   3.384  11.942  0.2336  0.0738 -0.8817
11911TIP3   OH257147   1.080   3.843  15.050 -0.3100  0.4504  0.8224
11911TIP3    H157148   1.020   3.783  15.005  0.2464 -0.1887  0.9128
11911TIP3    H257149   1.152   3.787  15.078  0.8091  1.3739 -0.1461
11912TIP3   OH257150   5.460   2.593  16.952 -0.6891  0.5685 -0.2476
11912TIP3    H157151   5.420   2.513  16.919  0.5929 -0.2690  0.1625
11912TIP3    H257152   5.404   2.621  17.024 -1.9664  0.8884 -1.3192
11913TIP3   OH257153   4.090   6.595   1.053  0.6283 -0.8857  0.0065
11913TIP3    H157154   4.075   6.649   0.976 -0.2305 -1.8797 -0.5504
11913TIP3    H257155   4.092   6.505   1.020 -1.1163 -1.4485  1.2632
11914TIP3   OH257156   3.395   6.156  17.346 -0.0896  0.3069  0.1190
11914TIP3    H157157   3.486   6.183  17.361  1.1449 -2.2690 -1.9468
11914TIP3    H257158   3.351   6.175  17.429  2.1373  2.1586  1.0205
11915TIP3   OH257159   2.663   0.717  14.853 -0.1011  0.4744 -0.4627
11915TIP3    H157160   2.677   0.771  14.775  2.0433 -1.3172 -1.4501
11915TIP3    H257161   2.641   0.630  14.818 -3.7543  0.6294  1.0639
11916TIP3   OH257162   0.487   4.620   1.556  0.3402  0.6948 -0.0482
11916TIP3    H157163   0.458   4.647   1.469  0.2666 -1.1173 -0.6359
11916TIP3    H257164   0.410   4.631   1.611  0.1700  1.1601 -0.3732
11917TIP3   OH257165   4.452   2.285   0.921 -0.0981 -0.1437 -0.8697
11917TIP3    H157166   4.516   2.221   0.889  0.6321  0.5132 -0.7496
11917TIP3    H257167   4.415   2.244   1.000 -1.7114 -1.6506 -2.3218
11918TIP3   OH257168   3.109   3.347   5.836  0.0215 -0.3770 -0.1702
11918TIP3    H157169   3.046   3.390   5.893 -0.0231 -0.5813 -0.0659
11918TIP3    H257170   3.159   3.289   5.894  0.0786 -0.4701 -0.3115
11919TIP3   OH257171   2.763   4.266   2.814 -0.5099 -0.1886  0.3985
11919TIP3    H157172   2.857   4.282   2.827 -0.5790  0.4025  0.2064
11919TIP3    H257173   2.737   4.215   2.890 -0.6250  2.1036  2.0128
11920TIP3   OH257174   2.279   3.310   4.659 -0.4043 -0.1777 -0.1068
11920TIP3    H157175   2.232   3.239   4.616 -0.2190 -0.4237  0.1009
11920TIP3    H257176   2.273   3.291   4.752 -0.4172  0.1159 -0.0452
11921TIP3   OH257177   3.704   2.758   0.268  0.1815 -0.9500  0.1048
11921TIP3    H157178   3.740   2.803   0.191 -1.6433  0.2275 -0.1200
11921TIP3    H257179   3.737   2.669   0.262  2.5926 -0.0995 -0.3425
11922TIP3   OH257180   4.234   1.472  12.250 -0.1533 -0.5385 -0.2666
11922TIP3    H157181   4.263   1.391  12.292  0.7549 -1.2150 -2.1151
11922TIP3    H257182   4.259   1.540  12.312  1.6416 -1.4533  0.0932
11923TIP3   OH257183   3.861   5.507  16.229 -0.4688  0.1385  0.2354
11923TIP3    H157184   3.823   5.420  16.215  0.2401  0.0990 -1.7900
11923TIP3    H257185   3.842   5.527  16.321 -2.0121 -1.4722  0.3230
11924TIP3   OH257186   2.104   1.549   0.767 -0.5003 -0.4003  0.7039
11924TIP3    H157187   2.147   1.595   0.839 -0.1484 -0.6364  0.6453
11924TIP3    H257188   2.012   1.543   0.794 -0.4709 -0.0339  0.9007
11925TIP3   OH257189   0.394   0.105  12.800  0.4545 -0.2528  0.1268
11925TIP3    H157190   0.335   0.111  12.725 -0.0202  2.9522  0.6477
11925TIP3    H257191   0.477   0.075  12.762 -0.6029 -1.8166 -1.1045
11926TIP3   OH257192   0.630   3.311  14.262 -0.5077 -0.3880  0.2345
11926TIP3    H157193   0.711   3.261  14.254 -1.4303 -2.1390  1.1890
11926TIP3    H257194   0.561   3.247  14.247 -1.7544  0.8919  0.2541
11927TIP3   OH257195   4.341   0.539  13.663 -0.1369  0.1037 -0.5484
11927TIP3    H157196   4.369   0.489  13.739  1.3856 -0.2281 -1.2897
11927TIP3    H257197   4.393   0.620  13.667 -0.7983  0.5442 -0.6817
11928TIP3   OH257198   3.269   4.797  14.462 -0.6355 -0.2533 -0.1904
11928TIP3    H157199   3.327   4.856  14.512 -0.1708  0.0885 -1.1172
11928TIP3    H257200   3.275   4.713  14.508  2.9752 -1.1267 -1.8903
11929TIP3   OH257201   1.852   4.746  12.445  0.1597  0.5316 -0.7870
11929TIP3    H157202   1.763   4.710  12.447  0.7020 -1.2086 -3.0827
11929TIP3    H257203   1.900   4.696  12.510 -0.0634 -0.0347 -1.0508
11930TIP3   OH257204   6.462   5.448   5.654  0.1150  0.2180  0.3032
11930TIP3    H157205   6.370   5.464   5.630  0.2828  0.5711 -0.1096
11930TIP3    H257206   6.493   5.532   5.689  0.7806  0.6095 -1.1710
11931TIP3   OH257207   3.679   5.169   2.396  0.5436  0.4925 -0.4572
11931TIP3    H157208   3.648   5.079   2.389  1.2370  0.1619  0.5395
11931TIP3    H257209   3.758   5.171   2.342  1.3803  0.0797  0.7121
11932TIP3   OH257210   2.400   3.786   4.736  0.0271  0.1477 -0.0455
11932TIP3    H157211   2.407   3.727   4.811  1.5539 -1.7189 -1.5323
11932TIP3    H257212   2.434   3.735   4.663 -0.1561  2.3489 -1.7683
11933TIP3   OH257213   6.205   1.515   0.309 -0.0562 -0.1818 -0.2000
11933TIP3    H157214   6.279   1.456   0.321  1.4890  1.3790 -1.4261
11933TIP3    H257215   6.154   1.506   0.390  0.6178 -2.4079  0.0515
11934TIP3   OH257216   1.991   2.302  11.691 -0.6665 -0.0318  0.0908
11934TIP3    H157217   2.017   2.228  11.636  1.3572  0.4843  0.2566
11934TIP3    H257218   1.939   2.358  11.633  0.2552 -0.1813 -0.9189
11935TIP3   OH257219   0.150   2.355   0.349 -0.0224 -0.5962 -0.7947
11935TIP3    H157220   0.204   2.376   0.273  0.1371  0.9834 -0.2955
11935TIP3    H257221   0.087   2.428   0.353 -1.0808 -1.5124 -0.3688
11936TIP3   OH257222   2.958   1.542  13.152 -0.3715  0.3399  0.0451
11936TIP3    H157223   2.885   1.604  13.154 -0.7571 -0.1338  1.3619
11936TIP3    H257224   3.032   1.590  13.191 -0.8087 -0.1675  1.5557
11937TIP3   OH257225   3.140   3.163   2.807  0.0883  0.3060  0.2366
11937TIP3    H157226   3.070   3.223   2.781  0.1256  0.4327  0.4264
11937TIP3    H257227   3.111   3.077   2.775  0.3959  0.5407 -0.7230
11938TIP3   OH257228   0.283   6.546  12.542 -0.3435  0.1953  0.3595
11938TIP3    H157229   0.288   6.470  12.483 -1.7004 -0.5779  1.1773
11938TIP3    H257230   0.347   6.527  12.610 -1.4955 -0.8572  1.2083
11939TIP3   OH257231   3.868   5.350   0.218 -0.3373  0.0736  0.4471
11939TIP3    H157232   3.774   5.337   0.213 -0.3296  0.2047 -0.1755
11939TIP3    H257233   3.881   5.404   0.296 -0.9209  1.2475 -0.2334
11940TIP3   OH257234   5.043   4.155  11.970  0.3324 -0.2619 -0.7291
11940TIP3    H157235   4.950   4.176  11.968 -0.0707 -1.8545 -0.4489
11940TIP3    H257236   5.086   4.228  11.926 -0.7008  2.1042  1.9050
11941TIP3   OH257237   5.961   1.977   2.182  0.1922  0.1682  0.2580
11941TIP3    H157238   6.045   1.983   2.135 -0.2177  1.6120 -0.3419
11941TIP3    H257239   5.986   1.966   2.274  1.0506  0.7025  0.1033
11942TIP3   OH257240   5.732   6.008  11.462  0.3668 -0.5385 -0.2514
11942TIP3    H157241   5.766   5.990  11.374 -0.2730  0.3689 -0.6981
11942TIP3    H257242   5.722   6.103  11.465 -0.0590 -0.6006  0.6435
11943TIP3   OH257243   3.064   0.411  11.869  0.2762  0.0068 -0.2348
11943TIP3    H157244   3.118   0.333  11.878 -0.6285 -0.7955 -1.4376
11943TIP3    H257245   3.026   0.424  11.957  1.3197 -0.2129  0.2632
11944TIP3   OH257246   6.614   0.923   3.459  0.1845 -0.4262 -0.2142
11944TIP3    H157247   6.695   0.973   3.452 -0.3406  0.3577 -0.8936
11944TIP3    H257248   6.555   0.982   3.506 -0.3121 -0.5688 -0.6537
11945TIP3   OH257249   6.037   6.038  10.918 -0.1608 -0.2091  0.0730
11945TIP3    H157250   5.991   5.976  10.862 -0.0713  1.4073 -1.9019
11945TIP3    H257251   6.113   6.065  10.867  0.2035  0.9403  1.1767
11946TIP3   OH257252   6.485   5.177   2.848 -0.3206  0.2243 -0.0858
11946TIP3    H157253   6.444   5.251   2.804 -0.9723 -0.4704 -0.6736
11946TIP3    H257254   6.418   5.109   2.847  0.5701 -0.6632 -0.3201
11947TIP3   OH257255   1.988   6.541   0.119 -0.1146  0.1795 -0.1042
11947TIP3    H157256   1.953   6.533   0.208  1.0566  0.6459  0.4243
11947TIP3    H257257   2.036   6.460   0.105  0.3449  0.4269  0.0004
11948TIP3   OH257258   2.730   1.674   1.261  0.1536  0.8078  0.3044
11948TIP3    H157259   2.764   1.742   1.320 -1.8146  0.7368  1.6218
11948TIP3    H257260   2.704   1.603   1.320 -0.1359 -0.0485 -0.8313
11949TIP3   OH257261   6.680   3.640   4.649 -0.3789 -0.4960  0.1322
11949TIP3    H157262   6.660   3.733   4.666 -0.3130 -0.4458 -0.0654
11949TIP3    H257263   6.741   3.642   4.575 -0.3228 -0.6946  0.1745
11950TIP3   OH257264   4.957   3.464  12.939  0.1586 -0.1318  0.2808
11950TIP3    H157265   4.897   3.481  13.011  1.2241  2.5843  0.6461
11950TIP3    H257266   4.904   3.472  12.860 -0.2833  0.5861  0.6463
11951TIP3   OH257267   4.800   1.330   3.001  0.1272  0.0290  0.0156
11951TIP3    H157268   4.769   1.304   2.913 -1.0710 -1.1753  0.7490
11951TIP3    H257269   4.807   1.247   3.049 -0.5268  0.7657  1.4383
11952TIP3   OH257270   4.077   0.760   3.249  0.8110  0.4107  0.2655
11952TIP3    H157271   4.119   0.846   3.254  0.0771  0.8769 -1.1083
11952TIP3    H257272   4.102   0.726   3.163 -1.6234  0.7655 -0.6681
11953TIP3   OH257273   5.325   0.550   0.890  0.1328  0.0974  0.3871
11953TIP3    H157274   5.309   0.584   0.977 -2.5977 -0.6165  0.2655
11953TIP3    H257275   5.266   0.475   0.882  2.4409 -1.7247 -1.0390
11954TIP3   OH257276   3.038   3.844   5.396  0.1155  0.0749  0.2095
11954TIP3    H157277   3.093   3.844   5.317 -1.2029  1.1922 -0.7458
11954TIP3    H257278   2.980   3.919   5.385 -1.1115 -0.6329  1.5517
11955TIP3   OH257279   5.345   1.591   1.232  0.0656 -0.9230  0.1601
11955TIP3    H157280   5.369   1.499   1.244  1.3334 -0.5819  0.3884
11955TIP3    H257281   5.405   1.622   1.163 -1.8617 -0.8351 -1.5663
11956TIP3   OH257282   6.712   2.142   4.644  0.4926  0.2671  0.4417
11956TIP3    H157283   6.699   2.219   4.699 -1.1824 -0.2909  0.9057
11956TIP3    H257284   6.706   2.176   4.554  1.4832  0.9219  0.6153
11957TIP3   OH257285   5.355   5.022  15.810  0.4498  0.4646  0.4379
11957TIP3    H157286   5.418   5.085  15.844  0.4398  0.6039  0.2001
11957TIP3    H257287   5.302   4.998  15.886  0.4251  0.7757  0.5208
11958TIP3   OH257288   2.726   0.882   6.002  0.0318 -0.5161  0.1620
11958TIP3    H157289   2.738   0.816   6.070  0.0007 -0.9579 -0.2505
11958TIP3    H257290   2.712   0.831   5.922  0.5024 -0.0067 -0.2502
11959TIP3   OH257291   5.797   5.856   5.914  0.1769 -0.6089  0.1226
11959TIP3    H157292   5.802   5.833   6.006 -1.6779 -2.9458 -0.2379
11959TIP3    H257293   5.705   5.875   5.899  0.5559  0.3746 -1.1383
11960TIP3   OH257294   1.390   4.352   2.520  0.5597  0.0383  0.0876
11960TIP3    H157295   1.317   4.415   2.519  2.4447  2.3631 -1.1367
11960TIP3    H257296   1.362   4.285   2.582 -2.3496  1.1298  0.1344
11961TIP3   OH257297   2.636   2.530   2.881 -0.1002  0.5178  0.0977
11961TIP3    H157298   2.557   2.562   2.837  0.1140 -1.1422 -1.6339
11961TIP3    H257299   2.708   2.579   2.841 -0.0674  0.4255  0.0436
11962TIP3   OH257300   1.805   6.267  12.768  0.7233  0.3240  0.1994
11962TIP3    H157301   1.815   6.273  12.863  1.1104  0.4319  0.1551
11962TIP3    H257302   1.889   6.232  12.737  0.9476  1.1682 -0.1881
11963TIP3   OH257303   2.962   4.803   3.425 -0.0554  0.1063 -0.4989
11963TIP3    H157304   2.915   4.882   3.452  2.4111  1.6519 -0.4261
11963TIP3    H257305   2.932   4.735   3.487 -2.3835  0.8603 -0.6921
11964TIP3   OH257306   0.962   1.080  17.267  0.4727 -0.2061 -0.0282
11964TIP3    H157307   0.942   0.993  17.233 -2.0026  0.0300  0.6056
11964TIP3    H257308   0.876   1.122  17.277  1.5250  1.9170  0.7194
11965TIP3   OH257309   3.684   4.966   3.396  0.0781  0.4311  0.2457
11965TIP3    H157310   3.604   5.017   3.387 -1.0762 -0.9044  2.2125
11965TIP3    H257311   3.712   4.947   3.307 -2.1489  0.4025 -0.4893
11966TIP3   OH257312   0.954   3.079  15.841 -0.5305  0.0094 -0.1320
11966TIP3    H157313   0.864   3.110  15.829 -0.3335 -0.0014 -1.8898
11966TIP3    H257314   0.967   3.080  15.936 -1.9747  1.1524  0.0940
11967TIP3   OH257315   1.527   0.362  14.227 -0.1005  0.1757 -0.8762
11967TIP3    H157316   1.501   0.364  14.319  0.0475  0.1024 -0.8320
11967TIP3    H257317   1.539   0.269  14.207 -1.9574  0.0242 -1.4945
11968TIP3   OH257318   6.216   6.627   4.214  0.3810  0.3321 -0.2065
11968TIP3    H157319   6.276   6.571   4.264  0.3234 -1.9446 -2.5012
11968TIP3    H257320   6.133   6.578   4.213  0.5031  0.0515 -2.7973
11969TIP3   OH257321   5.302   0.965   5.036  0.1016 -0.5747  0.2542
11969TIP3    H157322   5.295   1.053   4.999  1.3168  0.0398  1.4072
11969TIP3    H257323   5.235   0.963   5.105  0.4510 -0.3485  0.6029
11970TIP3   OH257324   0.684   0.478  14.863  0.6504 -0.8449  0.2083
11970TIP3    H157325   0.682   0.389  14.898 -0.5187 -0.8493  0.1893
11970TIP3    H257326   0.730   0.470  14.780  0.4846 -1.4553  0.1707
11971TIP3   OH257327   3.434   5.364  14.901  0.2753 -0.0117 -0.1883
11971TIP3    H157328   3.482   5.427  14.954 -0.8215  1.0000 -0.3742
11971TIP3    H257329   3.375   5.320  14.963 -2.2860  2.3930 -0.7536
11972TIP3   OH257330   6.594   1.987  16.728  0.0106 -0.4815  0.6524
11972TIP3    H157331   6.524   1.952  16.782  0.5269 -0.9877  0.9990
11972TIP3    H257332   6.673   1.939  16.755  0.7369  0.9265  1.1337
11973TIP3   OH257333   2.897   6.155   2.073 -0.1916 -0.3134 -0.0561
11973TIP3    H157334   2.956   6.193   2.138  0.4277 -1.9438  0.3972
11973TIP3    H257335   2.824   6.120   2.125 -0.9075  0.4887 -0.4916
11974TIP3   OH257336   5.115   1.291   2.639  0.6454 -0.2569 -0.6920
11974TIP3    H157337   5.048   1.286   2.570 -1.3769 -2.9474  1.2229
11974TIP3    H257338   5.086   1.363   2.695  1.7805  1.3238 -2.0403
11975TIP3   OH257339   6.144   3.490   5.934  0.0138 -0.2628  0.1773
11975TIP3    H157340   6.179   3.460   6.018 -2.4351 -0.0396  1.3396
11975TIP3    H257341   6.049   3.487   5.944 -0.3754 -0.2628 -2.6187
11976TIP3   OH257342   0.192   1.189  14.946 -0.4747 -0.9162 -0.3625
11976TIP3    H157343   0.200   1.102  14.985 -0.4793 -0.9483 -0.4336
11976TIP3    H257344   0.101   1.194  14.916 -0.1619 -1.3217 -1.3982
11977TIP3   OH257345   0.706   5.351   6.475  0.0085 -0.0305 -0.0019
11977TIP3    H157346   0.795   5.372   6.504  0.1386 -1.7630  0.9928
11977TIP3    H257347   0.677   5.429   6.428  0.4793  2.3514  3.3048
11978TIP3   OH257348   2.566   3.543   0.301  0.2613  0.3805 -0.1780
11978TIP3    H157349   2.524   3.464   0.264  2.2212 -0.2811 -1.1509
11978TIP3    H257350   2.565   3.528   0.395  1.0792 -1.1381 -0.3608
11979TIP3   OH257351   6.399   0.623   1.778 -0.0722 -0.3475 -0.0635
11979TIP3    H157352   6.402   0.532   1.749  1.7933 -0.9754  1.8786
11979TIP3    H257353   6.309   0.634   1.809 -0.1383 -1.7868  0.3616
11980TIP3   OH257354   4.646   6.062  13.711  0.2275 -0.2334  0.3236
11980TIP3    H157355   4.569   6.047  13.657  0.3420 -0.5526  0.2414
11980TIP3    H257356   4.683   5.974  13.724  0.9276 -0.0212 -0.1579
11981TIP3   OH257357   1.305   4.975   1.069  0.1124 -0.6958  0.0258
11981TIP3    H157358   1.389   4.931   1.073  0.8701  0.6026 -0.9303
11981TIP3    H257359   1.324   5.066   1.090 -1.4102 -0.7459  1.9737
11982TIP3   OH257360   5.062   4.861   3.720  0.5807 -0.4771 -0.0431
11982TIP3    H157361   5.083   4.908   3.800 -1.1937  0.0414  0.1566
11982TIP3    H257362   5.147   4.841   3.681  1.5149 -1.2734  2.2388
11983TIP3   OH257363   6.233   4.004  11.324 -0.3452  0.3373 -0.2502
11983TIP3    H157364   6.329   4.000  11.322 -0.3263  0.4221  0.4471
11983TIP3    H257365   6.211   4.058  11.248  0.1381 -0.0187 -0.6495
11984TIP3   OH257366   6.005   4.541  12.479 -0.6203 -0.7659  0.9456
11984TIP3    H157367   6.017   4.618  12.423  0.3907 -0.3393  1.7084
11984TIP3    H257368   6.022   4.573  12.568  3.5133 -2.5143  1.0185
11985TIP3   OH257369   3.419   2.697   0.679 -0.4767  0.5313  0.2179
11985TIP3    H157370   3.464   2.722   0.759 -1.1551  1.0965  0.4349
11985TIP3    H257371   3.489   2.690   0.614  0.0259  0.5119  0.7477
11986TIP3   OH257372   3.400   6.542  15.529  0.2832 -0.1596 -0.0677
11986TIP3    H157373   3.447   6.623  15.512  0.7498 -0.1027  1.4050
11986TIP3    H257374   3.310   6.561  15.504  0.4099  0.7701  0.1591
11987TIP3   OH257375   4.647   4.743   3.727  0.0833  0.1598 -0.0090
11987TIP3    H157376   4.686   4.825   3.695  1.2648 -0.2488  0.3425
11987TIP3    H257377   4.620   4.763   3.816  1.6667 -0.1999  0.5905
11988TIP3   OH257378   0.452   5.175   2.306  0.3644  0.4887 -0.2105
11988TIP3    H157379   0.414   5.236   2.242  0.1775  1.4800  0.8213
11988TIP3    H257380   0.423   5.088   2.276 -3.2371  1.1971  0.8114
11989TIP3   OH257381   2.219   0.148   4.384  0.2341  0.0487  0.1654
11989TIP3    H157382   2.209   0.200   4.305 -1.2098 -1.4155 -0.6586
11989TIP3    H257383   2.168   0.195   4.450 -2.7749 -1.2321 -1.0686
11990TIP3   OH257384   2.269   4.680  16.609 -0.1469 -0.1558 -0.7667
11990TIP3    H157385   2.305   4.679  16.520 -1.5263  0.7941 -1.3815
11990TIP3    H257386   2.326   4.738  16.658 -0.6632  1.1677 -1.6646
11991TIP3   OH257387   5.928   0.496  14.283  0.1375  0.3629  0.2362
11991TIP3    H157388   5.946   0.409  14.246  2.3213  0.8324  0.0687
11991TIP3    H257389   5.934   0.556  14.209 -1.5777  0.6636  0.3136
11992TIP3   OH257390   2.764   6.541   4.320 -0.0356 -0.2126  0.1226
11992TIP3    H157391   2.762   6.619   4.376 -1.1983  0.7227 -1.1490
11992TIP3    H257392   2.687   6.491   4.346  0.7353 -0.9751  0.9682
11993TIP3   OH257393   6.699   5.142  17.012 -0.2968  0.2071 -0.1634
11993TIP3    H157394   6.791   5.132  16.987 -0.4982 -0.0964 -0.7822
11993TIP3    H257395   6.667   5.052  17.021 -0.2655  0.2978  1.0766
11994TIP3   OH257396   0.039   4.423   5.232  0.3933 -0.5407 -0.2510
11994TIP3    H157397   0.104   4.487   5.203 -0.0857  0.2656  0.4074
11994TIP3    H257398   0.079   4.381   5.308  0.8911 -1.3487 -0.9511
11995TIP3   OH257399   0.423   2.178   0.945 -0.1080 -0.3992  0.5516
11995TIP3    H157400   0.354   2.237   0.915 -0.5340 -1.0726  0.1677
11995TIP3    H257401   0.502   2.209   0.901 -0.6685 -1.1985 -1.0935
11996TIP3   OH257402   5.928   1.421   1.889 -0.3280 -0.0251 -0.3951
11996TIP3    H157403   5.916   1.421   1.984  0.9232  1.7142 -0.1876
11996TIP3    H257404   5.840   1.432   1.854 -1.0078 -2.1787  0.4607
11997TIP3   OH257405   1.709   3.506  15.818  0.1066  0.5303  0.6993
11997TIP3    H157406   1.632   3.454  15.844  0.3545  0.1965  0.7659
11997TIP3    H257407   1.676   3.596  15.813 -0.1857  0.4536  1.1785
11998TIP3   OH257408   1.050   2.028  14.495  0.4342  0.1859 -0.2124
11998TIP3    H157409   1.123   1.983  14.539  0.9736  1.2235 -0.0094
11998TIP3    H257410   0.975   1.969  14.507  0.7381  0.0813  1.4368
11999TIP3   OH257411   0.281   0.808  17.090  0.1635 -0.3719 -0.4633
11999TIP3    H157412   0.336   0.877  17.126 -0.3040 -0.7471  1.0854
11999TIP3    H257413   0.333   0.768  17.021  0.0065  2.2470 -2.2319
12000TIP3   OH257414   2.672   3.216  13.022 -0.2386  0.5339 -0.1930
12000TIP3    H157415   2.684   3.123  13.004  0.2381  0.3129  1.1012
12000TIP3    H257416   2.583   3.223  13.056  0.0477  0.3798  0.6145
12001TIP3   OH257417   0.588   6.021   3.247  0.2010 -0.3611  0.3066
12001TIP3    H157418   0.540   5.992   3.170  0.2948 -0.9312  0.4604
12001TIP3    H257419   0.680   6.002   3.227  0.0180 -3.0508  1.6128
12002TIP3   OH257420   0.891   4.255   1.884  0.2181 -0.7790  0.1267
12002TIP3    H157421   0.809   4.296   1.911  0.8591  0.7277 -0.1121
12002TIP3    H257422   0.911   4.194   1.955 -1.4076 -1.6387 -0.1095
12003TIP3   OH257423   1.983   3.200   0.215 -0.2090  0.5108  0.1138
12003TIP3    H157424   1.920   3.262   0.251 -0.2372  1.1985 -1.0507
12003TIP3    H257425   1.953   3.186   0.125  0.8165  0.2024 -0.1924
12004TIP3   OH257426   4.592   1.300  11.429 -0.4507  0.0387  0.2261
12004TIP3    H157427   4.627   1.328  11.345 -0.4440  0.0980  0.2482
12004TIP3    H257428   4.500   1.324  11.426 -0.3265  0.5514  0.4567
12005TIP3   OH257429   4.490   3.842  15.834 -0.5561 -0.7018  0.1592
12005TIP3    H157430   4.530   3.908  15.891 -1.7224  0.7378 -0.6104
12005TIP3    H257431   4.432   3.892  15.777  1.6754 -1.8096 -3.3987
12006TIP3   OH257432   5.408   0.185  12.977 -0.6049  0.9636 -0.5245
12006TIP3    H157433   5.468   0.114  12.999 -0.2618  0.5645 -2.5628
12006TIP3    H257434   5.446   0.226  12.900 -1.5445  2.4856 -0.2253
12007TIP3   OH257435   4.817   1.302  13.476 -0.1548  0.3911  0.3574
12007TIP3    H157436   4.776   1.370  13.528 -2.1456 -0.4803  0.0102
12007TIP3    H257437   4.749   1.236  13.463  1.5084 -1.4130  0.1945
12008TIP3   OH257438   5.654   6.177  11.795 -0.1626  0.3296  0.6208
12008TIP3    H157439   5.620   6.107  11.739 -1.0837  1.0494  0.2359
12008TIP3    H257440   5.641   6.257  11.743 -1.3434  1.0680  1.9615
12009TIP3   OH257441   1.888   1.303  17.370  0.1825 -0.5581 -0.4593
12009TIP3    H157442   1.809   1.292  17.317  0.5955 -0.4859 -1.0993
12009TIP3    H257443   1.909   1.215  17.400  1.1980 -0.9932 -2.2655
12010TIP3   OH257444   5.427   1.979   5.751 -0.1651  0.2592  0.7261
12010TIP3    H157445   5.483   1.904   5.731 -0.8686 -0.4272  1.2143
12010TIP3    H257446   5.377   1.951   5.828 -0.7125  1.0925  0.6908
12011TIP3   OH257447   4.843   5.244   3.502 -0.1956  0.3927 -0.0795
12011TIP3    H157448   4.806   5.171   3.453  0.0844  0.8889 -1.0690
12011TIP3    H257449   4.828   5.320   3.446  1.0752  0.8119  0.1070
12012TIP3   OH257450   1.986   0.094  15.486  0.3818 -0.5535 -0.7646
12012TIP3    H157451   1.957   0.171  15.536  1.5708 -0.1313 -0.6891
12012TIP3    H257452   1.980   0.021  15.548  0.1545 -0.3468 -0.5417
12013TIP3   OH257453   2.370   3.108   0.830  0.2277  0.0501  0.1688
12013TIP3    H157454   2.395   3.120   0.738  1.5101  2.9060  0.7610
12013TIP3    H257455   2.453   3.111   0.878 -0.4316 -1.2607  1.4555
12014TIP3   OH257456   5.794   3.162   4.953 -0.1258 -0.2843  0.0538
12014TIP3    H157457   5.797   3.233   4.888  1.8257  1.6836  2.1211
12014TIP3    H257458   5.873   3.111   4.935 -0.6730 -0.9883 -0.3900
12015TIP3   OH257459   5.826   6.248  14.421 -0.1245  0.4434 -0.3391
12015TIP3    H157460   5.899   6.286  14.470 -0.8667 -0.3696  1.4847
12015TIP3    H257461   5.757   6.238  14.486 -0.8261 -1.6290 -1.3396
12016TIP3   OH257462   5.961   6.173  17.264 -0.1498  0.7752 -0.0523
12016TIP3    H157463   6.025   6.225  17.312  1.2366  0.7370 -1.7782
12016TIP3    H257464   5.983   6.082  17.284 -0.4788  0.7696  0.3190
12017TIP3   OH257465   3.858   5.541  12.661 -0.5854  0.0949  0.2244
12017TIP3    H157466   3.836   5.631  12.686 -1.2946  0.2599 -0.9263
12017TIP3    H257467   3.952   5.535  12.675 -0.8634  0.2227  2.6838
12018TIP3   OH257468   4.321   0.121   4.364  0.1921  0.4155 -0.6529
12018TIP3    H157469   4.347   0.035   4.397 -0.0661  1.2480  1.9180
12018TIP3    H257470   4.393   0.179   4.389 -0.3859  1.2516 -0.8949
12019TIP3   OH257471   5.689   3.537  15.831 -0.0654  0.7348  0.2603
12019TIP3    H157472   5.775   3.496  15.831  0.4383  1.7670 -0.1491
12019TIP3    H257473   5.630   3.469  15.796  0.8503  0.5545 -1.0165
12020TIP3   OH257474   5.873   1.527   0.852 -0.0805  0.2625 -0.2834
12020TIP3    H157475   5.848   1.552   0.941  1.2188  0.1700  0.1229
12020TIP3    H257476   5.930   1.598   0.822  1.7971 -1.0562  0.0382
12021TIP3   OH257477   6.449   1.626  14.455  0.2580 -0.9718 -0.4074
12021TIP3    H157478   6.412   1.622  14.543 -1.8309  1.9332 -0.9925
12021TIP3    H257479   6.508   1.702  14.457  2.5757 -2.6592 -0.8108
12022TIP3   OH257480   1.187   1.551  15.466  0.0229 -0.0265 -0.4361
12022TIP3    H157481   1.270   1.511  15.440  0.3996 -0.1582  0.8699
12022TIP3    H257482   1.197   1.643  15.442 -0.5232 -0.5103 -2.7006
12023TIP3   OH257483   3.502   5.152   1.158 -0.3055  0.1752  0.2421
12023TIP3    H157484   3.592   5.159   1.126 -0.1770  0.3436  0.6393
12023TIP3    H257485   3.453   5.117   1.083 -0.1835  1.4151 -0.4361
12024TIP3   OH257486   6.652   4.301  16.705  0.6234 -0.7669 -0.3208
12024TIP3    H157487   6.572   4.265  16.742  0.5224  1.1176  1.5305
12024TIP3    H257488   6.635   4.395  16.698  1.8078 -0.6458 -2.2933
12025TIP3   OH257489   3.953   3.764   3.515 -0.0460  0.2059 -0.6723
12025TIP3    H157490   3.996   3.793   3.435  0.8524  0.5252 -0.0807
12025TIP3    H257491   3.874   3.817   3.520 -0.6423 -0.5242 -1.8755
12026TIP3   OH257492   0.050   0.156  16.338  0.2150  0.5070  0.0260
12026TIP3    H157493   0.136   0.113  16.345  0.6800  1.3271 -0.4272
12026TIP3    H257494  -0.013   0.087  16.358  0.8403 -0.8444 -2.2406
12027TIP3   OH257495   0.150   2.477  15.584  0.7463 -0.0561 -0.0019
12027TIP3    H157496   0.079   2.514  15.638  0.8740 -0.4582  0.4472
12027TIP3    H257497   0.190   2.411  15.640  0.5070 -0.8982 -0.7968
12028TIP3   OH257498   6.169   3.120  16.592  0.1280  0.5307  0.2337
12028TIP3    H157499   6.118   3.171  16.528 -0.4888 -1.5569 -1.0190
12028TIP3    H257500   6.229   3.068  16.539 -0.2115 -1.0680  1.3401
12029TIP3   OH257501   0.233   2.175   1.315  0.6303 -0.1160 -0.6785
12029TIP3    H157502   0.159   2.151   1.261 -0.2646  0.5652  0.1981
12029TIP3    H257503   0.245   2.269   1.300 -1.7963  0.9443  2.6562
12030TIP3   OH257504   4.122   2.061  12.478  0.0130  0.4276  0.6082
12030TIP3    H157505   4.197   2.067  12.536  0.2820 -0.3149  0.3483
12030TIP3    H257506   4.145   2.116  12.403  0.1873  0.4145  0.6529
12031TIP3   OH257507   1.649   3.628   2.597  0.1555  0.0029  0.3068
12031TIP3    H157508   1.739   3.654   2.576  0.3721 -0.1561  1.0267
12031TIP3    H257509   1.624   3.684   2.670 -0.1728 -0.2601  0.3983
12032TIP3   OH257510   5.594   3.349  17.196  0.3427  0.0979 -0.3294
12032TIP3    H157511   5.550   3.434  17.208  1.8507  0.6861  1.4286
12032TIP3    H257512   5.522   3.288  17.177 -0.9483  1.4846 -0.1361
12033TIP3   OH257513   2.711   5.227  15.152 -0.0042 -0.1579  0.2546
12033TIP3    H157514   2.685   5.299  15.095  2.9626  0.1256 -0.9268
12033TIP3    H257515   2.692   5.148  15.100  0.6945  0.0004 -0.2560
12034TIP3   OH257516   0.311   0.509   2.495 -0.3544  0.1969  0.5701
12034TIP3    H157517   0.326   0.602   2.509  0.4929  0.0677  0.5934
12034TIP3    H257518   0.357   0.489   2.414  0.3928 -0.4124  1.1288
12035TIP3   OH257519   3.760   4.677   0.199 -0.1494 -0.1081  0.1012
12035TIP3    H157520   3.812   4.597   0.188 -1.3922 -0.8763 -0.3978
12035TIP3    H257521   3.679   4.647   0.241 -0.3078  1.0266  0.6402
12036TIP3   OH257522   4.519   2.325  11.596 -0.3155 -0.8386 -0.3995
12036TIP3    H157523   4.486   2.306  11.683 -0.7974  2.7230  0.3601
12036TIP3    H257524   4.443   2.317  11.539 -0.2297 -2.1640 -0.3434
12037TIP3   OH257525   4.538   0.870   4.069  0.3244 -0.4108 -0.2201
12037TIP3    H157526   4.449   0.905   4.055  0.3991 -0.1847 -0.1389
12037TIP3    H257527   4.568   0.846   3.981  0.9636  1.4281 -0.5481
12038TIP3   OH257528   3.118   4.270   6.392 -0.4451  0.2871  0.0688
12038TIP3    H157529   3.086   4.354   6.359 -0.7191 -0.7952 -2.6915
12038TIP3    H257530   3.058   4.206   6.355  0.5719 -1.2359  0.9675
12039TIP3   OH257531   0.116   4.335   0.261 -0.0941 -0.2904  0.5288
12039TIP3    H157532   0.127   4.374   0.174  0.1450  2.2678  1.6098
12039TIP3    H257533   0.028   4.361   0.288  0.7233  1.1456  2.0053
12040TIP3   OH257534   2.682   1.833  12.737 -0.8720 -0.2633 -0.5672
12040TIP3    H157535   2.689   1.922  12.772  0.3219 -1.0922  1.4918
12040TIP3    H257536   2.739   1.833  12.661  0.3731  0.3569  0.3241
12041TIP3   OH257537   2.560   0.521   4.456 -0.1953 -0.7701 -0.2968
12041TIP3    H157538   2.572   0.431   4.486  0.1372 -1.3517 -2.0421
12041TIP3    H257539   2.646   0.561   4.466 -0.0183 -1.0400 -0.7112
12042TIP3   OH257540   4.198   6.652   4.122 -0.0272  0.7995  0.4676
12042TIP3    H157541   4.215   6.744   4.139 -1.5291  1.1617  0.1533
12042TIP3    H257542   4.150   6.621   4.199 -0.6962  0.6434  0.0045
12043TIP3   OH257543   3.228   5.072  16.663  0.5983  0.2436  0.2363
12043TIP3    H157544   3.195   5.121  16.738 -0.7047 -3.1584  2.1450
12043TIP3    H257545   3.300   5.020  16.699  0.2551 -1.1114 -0.9701
12044TIP3   OH257546   6.457   3.116  14.222  0.3294 -0.7632 -0.3475
12044TIP3    H157547   6.486   3.069  14.301  2.6012  0.3598 -0.4303
12044TIP3    H257548   6.443   3.046  14.157  0.3623 -1.5641  0.4798
12045TIP3   OH257549   4.486   2.928   0.071 -0.0330  0.4189  0.3832
12045TIP3    H157550   4.433   2.999   0.106  0.0939  0.8613 -0.3073
12045TIP3    H257551   4.537   2.897   0.146 -0.4351  0.7396  0.7924
12046TIP3   OH257552   0.825   5.851   0.706  0.3953  0.1781  0.2484
12046TIP3    H157553   0.794   5.858   0.616 -0.5369 -0.2477  0.5257
12046TIP3    H257554   0.912   5.812   0.699  0.4684  0.4620 -0.4804
12047TIP3   OH257555   4.772   0.756   6.507 -0.5857  0.0895 -0.3113
12047TIP3    H157556   4.765   0.673   6.459  3.3550 -0.9664  0.5767
12047TIP3    H257557   4.747   0.734   6.597  0.8475 -0.3298  0.0144
12048TIP3   OH257558   5.676   5.069   2.954  0.3749  0.1627 -0.2068
12048TIP3    H157559   5.617   5.135   2.917 -2.0828 -1.3622  0.7555
12048TIP3    H257560   5.698   5.013   2.879  1.2710  1.1852 -0.7305
12049TIP3   OH257561   6.116   1.306  17.381  0.1129 -0.1942  0.2994
12049TIP3    H157562   6.117   1.218  17.342 -2.3014  0.2042 -0.8125
12049TIP3    H257563   6.026   1.319  17.409  0.9929  0.9482  2.9331
12050TIP3   OH257564   5.137   4.743   6.198  0.6230 -0.2504  0.0189
12050TIP3    H157565   5.140   4.682   6.124  1.1686  0.0149 -0.1850
12050TIP3    H257566   5.167   4.826   6.161  1.6393 -0.2978  0.7161
12051TIP3   OH257567   6.720   2.415   4.740  0.8907  0.1605  0.4240
12051TIP3    H157568   6.786   2.476   4.707  2.4877 -1.3123  0.7786
12051TIP3    H257569   6.638   2.447   4.702  1.8337  1.8305 -0.3342
12052TIP3   OH257570   0.098   2.552   5.102  0.1134  0.4000  0.5036
12052TIP3    H157571   0.124   2.534   5.193  1.2089 -1.3488 -0.1044
12052TIP3    H257572   0.086   2.647   5.099  2.1251  0.7640  1.9750
12053TIP3   OH257573   4.589   6.515   1.668  0.1598 -0.0557  0.0194
12053TIP3    H157574   4.562   6.602   1.638 -1.1165 -0.0238  1.1780
12053TIP3    H257575   4.652   6.533   1.739 -0.4768 -0.0468  0.5952
12054TIP3   OH257576   3.977   0.785  13.117  0.0893  0.2847 -0.1012
12054TIP3    H157577   3.888   0.814  13.136 -0.1849  1.0330 -2.2887
12054TIP3    H257578   3.976   0.763  13.024  1.9542 -0.6816  0.0583
12055TIP3   OH257579   2.374   3.642   4.373 -0.5087  0.2451 -0.1318
12055TIP3    H157580   2.320   3.663   4.297 -1.0688  1.4698  0.5643
12055TIP3    H257581   2.318   3.589   4.429 -0.1129 -0.6167 -0.5377
12056TIP3   OH257582   4.839   4.809   0.204 -0.4242 -0.2288 -0.3908
12056TIP3    H157583   4.896   4.785   0.130  0.5092 -0.3263  0.3411
12056TIP3    H257584   4.755   4.770   0.183  0.5604 -2.6554 -0.1078
12057TIP3   OH257585   1.902   4.864   4.612 -0.1775  0.4910  0.4518
12057TIP3    H157586   1.811   4.871   4.584 -0.5302  0.9697  1.6532
12057TIP3    H257587   1.953   4.869   4.531 -1.2841 -2.3941 -0.5611
12058TIP3   OH257588   4.558   2.836  15.185  0.0875  0.1061 -0.9946
12058TIP3    H157589   4.626   2.896  15.216 -1.4547  1.4783 -0.1394
12058TIP3    H257590   4.531   2.873  15.101  1.2369 -1.1612 -1.9621
12059TIP3   OH257591   3.121   2.444  15.545  0.3277 -0.0165 -0.6676
12059TIP3    H157592   3.163   2.418  15.627 -2.7728  1.1445  1.4342
12059TIP3    H257593   3.072   2.367  15.517 -2.1548  0.8250  1.0685
12060TIP3   OH257594   5.500   0.295   3.743  0.4115 -0.1668 -0.2562
12060TIP3    H157595   5.458   0.226   3.794  1.0111 -0.5518 -0.2772
12060TIP3    H257596   5.516   0.365   3.807  2.1780 -1.0830  0.3693
12061TIP3   OH257597   5.369   1.240  12.975 -0.2800 -0.3199 -0.1095
12061TIP3    H157598   5.425   1.313  12.950  0.1338 -0.7990 -0.6256
12061TIP3    H257599   5.372   1.239  13.071 -0.6628  0.6090 -0.0850
12062TIP3   OH257600   0.111   0.316  14.742  0.3779  0.0740 -0.3629
12062TIP3    H157601   0.186   0.350  14.693  0.7889 -0.7751 -0.3420
12062TIP3    H257602   0.085   0.237  14.694 -0.5116  0.3653 -0.3754
12063TIP3   OH257603   2.578   2.094  17.228  0.2228  0.3232 -0.7134
12063TIP3    H157604   2.575   2.007  17.189  0.0568  0.1552 -0.3297
12063TIP3    H257605   2.671   2.112  17.241  0.2630  0.2589 -0.9190
12064TIP3   OH257606   5.521   3.334  15.737 -0.2350  0.2821  0.9678
12064TIP3    H157607   5.459   3.276  15.782 -0.1232  0.2745  1.1136
12064TIP3    H257608   5.467   3.387  15.679 -0.1918 -1.0560 -0.3726
12065TIP3   OH257609   6.226   1.250   0.900  0.1058 -0.2707 -0.1384
12065TIP3    H157610   6.145   1.275   0.945  0.6216  1.2831 -0.0074
12065TIP3    H257611   6.229   1.155   0.907 -0.3819 -0.1798  2.2212
12066TIP3   OH257612   5.384   4.020  12.909 -0.0993  0.3795 -0.0509
12066TIP3    H157613   5.294   4.051  12.912 -0.6508 -1.2006  1.2842
12066TIP3    H257614   5.377   3.925  12.900  1.4804  0.3456 -1.7324
12067TIP3   OH257615   4.938   2.084  16.943  0.3608  0.0606 -0.2125
12067TIP3    H157616   4.908   1.995  16.923  1.5052 -0.5688  0.7442
12067TIP3    H257617   4.858   2.136  16.945 -0.4610 -1.1823  0.3761
12068TIP3   OH257618   5.285   1.378  14.287 -0.2404 -0.1894 -0.7403
12068TIP3    H157619   5.260   1.470  14.290  3.1144  0.8242  0.0473
12068TIP3    H257620   5.211   1.332  14.327 -1.6412  2.2416 -0.3338
12069TIP3   OH257621   3.183   5.319  15.767  0.4542 -0.4370  0.2319
12069TIP3    H157622   3.169   5.383  15.838  0.3159  0.4061 -0.5314
12069TIP3    H257623   3.133   5.242  15.794  0.5452 -0.1959  1.1309
12070TIP3   OH257624   5.365   1.195   5.780 -0.3762 -0.3606 -0.2501
12070TIP3    H157625   5.361   1.139   5.702 -1.3827 -1.0127  0.2387
12070TIP3    H257626   5.334   1.139   5.851 -0.2055  0.4514  0.4855
12071TIP3   OH257627   6.522   0.709  12.957  0.0184 -0.1379 -0.3986
12071TIP3    H157628   6.496   0.719  13.048  1.9075  1.0328  0.0717
12071TIP3    H257629   6.463   0.765  12.908 -0.0719  0.3862  0.2949
12072TIP3   OH257630   4.223   0.950  15.245 -0.7578  0.0593 -0.1050
12072TIP3    H157631   4.278   0.930  15.321 -1.1822 -3.2118 -0.5127
12072TIP3    H257632   4.281   0.943  15.170 -0.8894  0.8073 -0.2938
12073TIP3   OH257633   6.354   0.194  15.646 -0.3079  0.2399 -0.0208
12073TIP3    H157634   6.412   0.148  15.707 -0.9141  1.0678  1.2214
12073TIP3    H257635   6.311   0.124  15.597 -0.5328 -0.4994  1.1941
12074TIP3   OH257636   0.490   3.718   3.655 -0.1295  0.1935  0.1570
12074TIP3    H157637   0.444   3.647   3.609  1.2030  0.5758 -1.8785
12074TIP3    H257638   0.539   3.763   3.587 -2.2326  4.2473  0.9886
12075TIP3   OH257639   6.337   3.472   3.256 -0.2669 -0.6889  0.7314
12075TIP3    H157640   6.401   3.426   3.202  0.0986  0.2583  0.3255
12075TIP3    H257641   6.259   3.477   3.201  0.7359  2.0943 -0.6442
12076TIP3   OH257642   0.415   4.049   0.900 -0.0256  0.1394 -0.4188
12076TIP3    H157643   0.380   4.084   0.981 -1.2012 -2.2568  0.1970
12076TIP3    H257644   0.346   4.064   0.835 -0.3164 -0.5207 -0.2716
12077TIP3   OH257645   1.566   0.216  16.654 -0.1595 -0.7147 -0.0277
12077TIP3    H157646   1.610   0.217  16.739  0.1429 -1.4606 -0.1599
12077TIP3    H257647   1.477   0.248  16.672 -0.0334 -0.6705  0.5282
12078TIP3   OH257648   0.098   0.387  10.950  0.1880  0.1454  0.2010
12078TIP3    H157649   0.071   0.479  10.945  0.6853  0.3311  0.9837
12078TIP3    H257650   0.137   0.370  10.864 -1.0918  0.2785 -0.4390
12079TIP3   OH257651   3.984   2.113   3.615  0.4109 -0.2861  0.2340
12079TIP3    H157652   3.985   2.049   3.544  0.6322  0.2705 -0.2767
12079TIP3    H257653   4.042   2.077   3.681  2.6514  0.5920 -1.1548
12080TIP3   OH257654   1.545   4.223   5.073 -0.1144  0.0679  0.2716
12080TIP3    H157655   1.469   4.165   5.080 -1.1038  1.2171 -0.4234
12080TIP3    H257656   1.620   4.167   5.093 -0.8503 -1.8701 -1.8231
12081TIP3   OH257657   3.016   3.307  13.432 -0.1202  0.6466 -0.0708
12081TIP3    H157658   2.962   3.285  13.356  0.7550 -0.5125 -0.3889
12081TIP3    H257659   3.072   3.379  13.401  2.1765 -1.5826 -1.5334
12082TIP3   OH257660   4.201   4.393   4.363 -0.1785 -0.2076 -0.4704
12082TIP3    H157661   4.268   4.373   4.428 -0.6184 -0.1628  0.0065
12082TIP3    H257662   4.226   4.478   4.328  0.6540 -0.7228 -1.1368
12083TIP3   OH257663   3.751   0.872  15.717  0.3005  0.1448  0.0753
12083TIP3    H157664   3.807   0.899  15.790 -0.7888  0.0978  0.9521
12083TIP3    H257665   3.672   0.926  15.725 -0.5015 -0.9466 -0.1267
12084TIP3   OH257666   0.031   6.093   1.548  0.3350 -0.0692  0.1804
12084TIP3    H157667   0.068   6.138   1.472 -0.0996  1.6249  0.8996
12084TIP3    H257668   0.010   6.005   1.517  0.0797  0.6005 -1.6743
12085TIP3   OH257669   6.209   2.757   3.425 -0.7220  0.0035 -0.7820
12085TIP3    H157670   6.195   2.850   3.406  0.2887  0.4324  0.4199
12085TIP3    H257671   6.231   2.755   3.518  0.0958 -1.3580 -0.9804
12086TIP3   OH257672   1.769   3.481   2.134  0.2081 -0.3593 -0.0058
12086TIP3    H157673   1.847   3.427   2.123  0.4468 -0.0938  0.3480
12086TIP3    H257674   1.716   3.433   2.198 -0.2030 -0.8461 -0.7118
12087TIP3   OH257675   5.866   5.845  14.002 -0.0396 -0.2177 -0.6491
12087TIP3    H157676   5.827   5.772  13.955 -0.5950 -0.0074 -0.5197
12087TIP3    H257677   5.792   5.894  14.038  0.3499 -0.0892  0.0182
12088TIP3   OH257678   1.768   4.642   3.545 -0.3593  0.1759  0.6252
12088TIP3    H157679   1.746   4.606   3.460 -0.2940 -4.5033  2.2874
12088TIP3    H257680   1.851   4.688   3.532 -0.1294 -0.8087 -1.7462
12089TIP3   OH257681   0.600   5.512   1.948 -0.4257  0.1056  0.3704
12089TIP3    H157682   0.663   5.564   1.998  0.5643  0.2617 -1.0087
12089TIP3    H257683   0.558   5.574   1.890 -0.2190 -0.3830 -0.3107
12090TIP3   OH257684   4.082   6.286   2.223  0.3790 -0.1573 -0.2892
12090TIP3    H157685   3.990   6.279   2.245  0.5770 -1.3069  0.2543
12090TIP3    H257686   4.085   6.344   2.147 -0.6738  0.7883  0.3771
12091TIP3   OH257687   5.718   5.239   4.028 -0.5360  0.3817 -0.4826
12091TIP3    H157688   5.754   5.270   3.945  2.2837 -0.9183  0.1419
12091TIP3    H257689   5.760   5.154   4.042 -0.3310  0.8857  2.6018
12092TIP3   OH257690   1.166   1.369   3.180  0.2744  0.4281 -0.3505
12092TIP3    H157691   1.260   1.365   3.199 -0.1130  0.0257  1.7911
12092TIP3    H257692   1.126   1.309   3.243 -1.5562  1.8256 -0.0787
12093TIP3   OH257693   6.682   5.498  13.746 -0.0309  0.7060 -0.5036
12093TIP3    H157694   6.743   5.434  13.710 -0.3413  0.3352 -0.3764
12093TIP3    H257695   6.596   5.469  13.715 -0.2319  0.7479  0.0109
12094TIP3   OH257696   0.438   3.784  11.398  0.3719 -0.6641  0.0128
12094TIP3    H157697   0.446   3.880  11.390  0.9120 -0.8039 -1.4225
12094TIP3    H257698   0.476   3.750  11.317  0.1960 -2.1099  0.5086
12095TIP3   OH257699   5.526   0.970  14.888 -0.3024 -0.1926  0.7566
12095TIP3    H157700   5.569   0.886  14.876  2.6737  1.4441 -1.8942
12095TIP3    H257701   5.570   1.009  14.964 -0.5545 -0.3983  1.0096
12096TIP3   OH257702   4.719   2.415   0.582  0.0867 -0.0606  0.2923
12096TIP3    H157703   4.672   2.497   0.600  0.4131 -0.0530  1.1627
12096TIP3    H257704   4.767   2.397   0.663 -0.7625 -1.6487  0.4878
12097TIP3   OH257705   5.112   4.858  15.276 -0.2612 -0.0037  0.2063
12097TIP3    H157706   5.104   4.779  15.222 -0.6132 -0.9985  1.6497
12097TIP3    H257707   5.204   4.884  15.266  0.5365 -2.0632  1.6075
12098TIP3   OH257708   4.576   6.648  10.801  0.0772  0.1898  0.2848
12098TIP3    H157709   4.641   6.593  10.757 -1.3033 -0.5746 -0.8817
12098TIP3    H257710   4.606   6.653  10.892  0.3318 -2.4401  0.4172
12099TIP3   OH257711   1.974   0.689   5.551 -0.0520 -0.4390 -0.0478
12099TIP3    H157712   2.018   0.605   5.566 -1.6314 -1.5758 -1.3872
12099TIP3    H257713   2.037   0.740   5.500  1.0759 -0.6199  1.1063
12100TIP3   OH257714   3.001   1.553   5.653 -0.0142 -0.3350 -0.3510
12100TIP3    H157715   3.020   1.638   5.692  0.6340 -0.4877 -0.3108
12100TIP3    H257716   2.973   1.572   5.564 -1.8684  0.0470  0.2787
12101TIP3   OH257717   1.619   3.942   5.376 -0.3641 -0.6780 -0.4889
12101TIP3    H157718   1.636   3.862   5.425  1.6720  0.0433  0.0932
12101TIP3    H257719   1.667   3.929   5.294 -2.5284 -1.2580 -1.7466
12102TIP3   OH257720   1.518   5.075  16.023 -0.1741  0.2082 -0.2310
12102TIP3    H157721   1.548   5.159  16.058  1.0018 -0.1281 -0.3810
12102TIP3    H257722   1.493   5.094  15.933  0.0931  0.3939 -0.2651
12103TIP3   OH257723   5.688   3.181   3.991  0.0925  0.5050 -0.0790
12103TIP3    H157724   5.611   3.170   3.936  0.3191  1.7655 -0.6872
12103TIP3    H257725   5.719   3.092   4.007 -0.3441  0.0778 -1.4787
12104TIP3   OH257726   4.256   5.467  10.536 -0.0357  0.9287 -0.0502
12104TIP3    H157727   4.276   5.553  10.574 -0.2469  0.5457  0.9379
12104TIP3    H257728   4.312   5.462  10.458 -1.0430  2.5442 -0.9475
12105TIP3   OH257729   0.509   2.848  15.783  0.0074 -0.3835 -0.4679
12105TIP3    H157730   0.479   2.759  15.802 -0.4530  0.0702  1.0759
12105TIP3    H257731   0.604   2.842  15.785 -0.0068 -0.6457  0.8580
12106TIP3   OH257732   4.122   4.971   1.360  0.1015 -0.2271  0.2086
12106TIP3    H157733   4.198   5.019   1.328  0.0843  0.4143  1.1172
12106TIP3    H257734   4.050   5.033   1.355  0.0271 -0.2245  1.1433
12107TIP3   OH257735   4.493   3.466  15.365 -0.3900  0.1770 -0.1397
12107TIP3    H157736   4.517   3.414  15.288  0.4893  0.6753 -0.2131
12107TIP3    H257737   4.483   3.555  15.332  0.7663  0.5396  0.4403
12108TIP3   OH257738   3.006   5.495  12.474  0.4045  0.2503 -0.5382
12108TIP3    H157739   3.036   5.566  12.417  1.3627  0.1271 -0.2135
12108TIP3    H257740   3.030   5.524  12.562  0.6578 -0.4038 -0.3890
12109TIP3   OH257741   3.566   3.629   2.433  0.4213 -0.0745 -0.2268
12109TIP3    H157742   3.586   3.536   2.447 -0.2148 -0.3967 -1.3332
12109TIP3    H257743   3.625   3.655   2.361  0.0112  0.1498 -0.4846
12110TIP3   OH257744   2.287   6.723  15.656  0.5620  0.2514  0.6790
12110TIP3    H157745   2.194   6.709  15.670  0.5325  0.3342  0.5626
12110TIP3    H257746   2.303   6.813  15.685  0.6427  0.1709  0.8831
12111TIP3   OH257747   4.791   1.449   0.855  0.0805  0.3502  0.5517
12111TIP3    H157748   4.805   1.451   0.761  0.7289  1.2148  0.6540
12111TIP3    H257749   4.848   1.380   0.887 -0.0480  0.1399  0.3279
12112TIP3   OH257750   5.671   0.828   3.716 -0.0228  0.3665  0.5555
12112TIP3    H157751   5.586   0.785   3.718 -0.1709  0.6645  0.8794
12112TIP3    H257752   5.650   0.921   3.703  0.1450  0.6999  2.3633
12113TIP3   OH257753   4.064   4.817  15.489 -0.0501 -0.8475  0.7191
12113TIP3    H157754   3.972   4.846  15.484 -0.0991 -1.0574  0.3482
12113TIP3    H257755   4.114   4.891  15.456 -0.0712 -0.6668  1.0843
12114TIP3   OH257756   5.303   4.136   5.576  0.0125 -0.2429 -0.3836
12114TIP3    H157757   5.374   4.194   5.549  0.6477 -0.6769  0.3218
12114TIP3    H257758   5.342   4.049   5.576 -0.7485 -0.5964 -0.7670
12115TIP3   OH257759   0.921   4.393   0.194 -0.0936  0.6320  0.7245
12115TIP3    H157760   0.986   4.346   0.247 -0.7327 -1.6519 -0.3759
12115TIP3    H257761   0.905   4.335   0.119 -2.1375  1.9201  0.0898
12116TIP3   OH257762   1.176   6.030   1.576  0.2832 -0.2138  0.5622
12116TIP3    H157763   1.134   6.100   1.526  1.2756 -0.3407 -0.4811
12116TIP3    H257764   1.239   6.076   1.633  1.6158 -0.2733 -0.7962
12117TIP3   OH257765   3.533   4.535  13.711  0.5180  0.3984  0.4793
12117TIP3    H157766   3.440   4.555  13.722  0.3767 -1.3935  3.5108
12117TIP3    H257767   3.576   4.580  13.784  1.8213 -0.1685  0.0901
12118TIP3   OH257768   1.711   3.900  12.385  0.1989  0.0818 -0.1109
12118TIP3    H157769   1.719   3.822  12.330 -0.8381 -1.3971  1.7172
12118TIP3    H257770   1.789   3.952  12.365  0.4545 -0.9575 -2.0367
12119TIP3   OH257771   6.472   3.704  12.757 -0.1597  0.3476 -0.3701
12119TIP3    H157772   6.526   3.755  12.697  0.2908  0.0607 -0.2139
12119TIP3    H257773   6.529   3.686  12.832 -0.1227 -0.8089 -0.6430
12120TIP3   OH257774   2.529   2.600  13.005 -0.2895 -0.4749 -0.2676
12120TIP3    H157775   2.474   2.616  12.928  0.1820  0.0107 -0.5142
12120TIP3    H257776   2.481   2.535  13.056 -1.7084  0.8313  0.1444
12121TIP3   OH257777   2.577   5.479  12.324  0.2496  0.1427 -0.0345
12121TIP3    H157778   2.658   5.463  12.275  1.2517  1.7251  0.9774
12121TIP3    H257779   2.561   5.398  12.372  1.7079  0.0525  0.3518
12122TIP3   OH257780   5.104   3.672  13.238  0.0371  0.2915 -0.3404
12122TIP3    H157781   5.124   3.672  13.144  2.4640 -1.2293  0.0861
12122TIP3    H257782   5.009   3.659  13.242  0.0816 -1.2968 -2.5837
12123TIP3   OH257783   4.982   6.714  13.252 -0.8374 -0.8165  0.1567
12123TIP3    H157784   5.041   6.640  13.235 -0.5029 -0.4369 -0.3667
12123TIP3    H257785   4.995   6.773  13.178 -0.3181  0.2830  1.0964
12124TIP3   OH257786   1.380   2.259   1.107 -0.0012 -0.2761 -0.6976
12124TIP3    H157787   1.441   2.199   1.064 -1.0864 -1.7514 -0.2689
12124TIP3    H257788   1.294   2.234   1.074 -0.9844 -1.9229  2.6715
12125TIP3   OH257789   4.021   2.475   1.337 -0.0715 -0.3270  0.1382
12125TIP3    H157790   4.059   2.429   1.262  1.6490  0.5398  0.4428
12125TIP3    H257791   4.070   2.557   1.343 -2.2761  1.0525  0.3340
12126TIP3   OH257792   0.902   3.045  10.732 -0.1981  0.5502  0.2860
12126TIP3    H157793   0.962   3.038  10.658  0.5613 -3.0608  1.0814
12126TIP3    H257794   0.824   2.997  10.705  0.4367 -1.6166  2.0403
12127TIP3   OH257795   3.918   2.668  10.602  0.3505 -0.0948  0.8120
12127TIP3    H157796   3.907   2.604  10.532 -0.8506 -0.1933  1.0563
12127TIP3    H257797   3.941   2.616  10.679  0.7202 -0.0866  0.7081
12128TIP3   OH257798   4.048   5.008   4.362 -0.1391 -0.1852  0.2267
12128TIP3    H157799   4.117   5.046   4.416  0.0226 -0.1493 -0.0011
12128TIP3    H257800   3.970   5.060   4.380  0.2081  0.6028 -0.4885
12129TIP3   OH257801   1.640   3.636   0.959 -0.3431  0.4415 -0.3407
12129TIP3    H157802   1.693   3.565   0.922 -1.2287 -0.3465 -0.1249
12129TIP3    H257803   1.632   3.613   1.052  0.6407  1.6395  0.0650
12130TIP3   OH257804   0.581   3.623  14.724  0.3120 -0.0986  0.4281
12130TIP3    H157805   0.600   3.577  14.643 -0.1973  0.1296  0.1726
12130TIP3    H257806   0.538   3.704  14.696 -1.2706 -0.7036  0.9557
12131TIP3   OH257807   5.377   5.520  16.535  0.7895  0.3458 -0.3480
12131TIP3    H157808   5.400   5.565  16.454  0.0660  1.4722  0.0466
12131TIP3    H257809   5.351   5.432  16.507  2.0430  0.2066 -1.1550
12132TIP3   OH257810   1.387   0.067  14.488  0.5865 -0.3583  0.1407
12132TIP3    H157811   1.343  -0.011  14.522 -1.1100 -0.4960 -2.1313
12132TIP3    H257812   1.474   0.064  14.527 -0.2274 -2.0112  2.0624
12133TIP3   OH257813   1.339   6.660   1.316  0.1458  0.3463 -0.2659
12133TIP3    H157814   1.262   6.631   1.267  0.4634  0.9919 -1.1936
12133TIP3    H257815   1.386   6.580   1.337 -0.1684  0.0300 -0.7411
12134TIP3   OH257816   2.673   5.340  16.697  0.3249 -0.0096 -0.0717
12134TIP3    H157817   2.677   5.428  16.734  0.2005 -0.6378  1.4817
12134TIP3    H257818   2.714   5.349  16.611  0.0278  1.6237 -0.0696
12135TIP3   OH257819   2.149   4.360   1.880 -0.3859 -0.8493 -0.3265
12135TIP3    H157820   2.130   4.422   1.809 -0.5901 -0.6872 -0.1292
12135TIP3    H257821   2.079   4.374   1.944 -0.4688 -1.3273 -0.3109
12136TIP3   OH257822   6.423   2.643  17.146 -0.0770  0.1473  0.0565
12136TIP3    H157823   6.487   2.653  17.076 -0.1001 -0.6411 -0.0905
12136TIP3    H257824   6.473   2.601  17.217 -0.6956 -1.6507 -0.5118
12137TIP3   OH257825   6.125   4.832  15.692  0.1741 -0.6385 -0.2422
12137TIP3    H157826   6.080   4.806  15.611 -1.7195 -1.0858  0.8992
12137TIP3    H257827   6.158   4.920  15.674 -1.4131 -0.1701 -1.0639
12138TIP3   OH257828   3.279   5.874  11.497  0.0491 -0.4172 -0.1242
12138TIP3    H157829   3.240   5.903  11.414  1.4839  0.0406 -0.6689
12138TIP3    H257830   3.227   5.917  11.564 -1.1109 -0.7526 -0.7716
12139TIP3   OH257831   2.429   0.427   3.650  0.3866  0.1261 -0.1314
12139TIP3    H157832   2.377   0.508   3.647 -0.7514 -0.6040 -1.6395
12139TIP3    H257833   2.367   0.358   3.627  1.5485 -1.0789  0.2113
12140TIP3   OH257834   0.975   2.652  15.580 -0.2032 -0.2568 -0.1605
12140TIP3    H157835   1.013   2.641  15.492  1.7588 -1.7070  0.7792
12140TIP3    H257836   1.035   2.713  15.624 -0.3115 -0.6918  0.6085
12141TIP3   OH257837   3.816   1.273  16.253 -0.4259 -0.7549  0.2801
12141TIP3    H157838   3.791   1.324  16.175  0.0094 -0.3503  0.3977
12141TIP3    H257839   3.736   1.266  16.304  0.0499  2.3981  1.7256
12142TIP3   OH257840   6.745   1.487   4.553 -0.2535 -0.6098  0.1395
12142TIP3    H157841   6.835   1.478   4.523  0.0196 -0.4111  0.8843
12142TIP3    H257842   6.707   1.551   4.493 -0.4590 -2.0379 -1.3436
12143TIP3   OH257843   0.515   0.265   0.687 -0.2097 -0.3984 -0.3484
12143TIP3    H157844   0.540   0.174   0.672 -1.0561 -1.0846  2.0316
12143TIP3    H257845   0.419   0.263   0.688 -0.2280  0.4902 -0.1271
12144TIP3   OH257846   0.116   1.783   4.958 -0.1033 -0.2151 -0.0981
12144TIP3    H157847   0.203   1.818   4.973  0.0035 -0.4548 -0.1440
12144TIP3    H257848   0.095   1.809   4.868  1.2732 -2.8944 -1.3048
12145TIP3   OH257849   4.983   5.398   1.594  0.0463 -0.4857 -0.2192
12145TIP3    H157850   5.065   5.377   1.550 -0.7889 -0.5641 -1.7922
12145TIP3    H257851   4.936   5.454   1.532 -1.0910 -0.4383  0.6590
12146TIP3   OH257852   3.754   4.070   2.386 -0.2313 -0.2890  0.0666
12146TIP3    H157853   3.804   4.094   2.464 -0.6820  0.7181  0.0667
12146TIP3    H257854   3.691   4.142   2.375 -0.8559 -0.9242 -0.6342
12147TIP3   OH257855   3.277   2.925  10.466  0.2006  0.0127 -0.4405
12147TIP3    H157856   3.371   2.936  10.450  0.0092  0.6738 -1.1477
12147TIP3    H257857   3.267   2.831  10.484  1.0588  0.0094  0.0987
12148TIP3   OH257858   2.977   0.479  12.558  0.5776 -0.1658 -0.1843
12148TIP3    H157859   2.908   0.470  12.624  0.1532  0.0395 -0.5914
12148TIP3    H257860   2.959   0.409  12.496  1.4147 -0.8227  0.2903
12149TIP3   OH257861   4.891   1.084  14.461 -0.2818 -0.5350 -0.1520
12149TIP3    H157862   4.804   1.071  14.500 -0.9462  0.3189 -1.3043
12149TIP3    H257863   4.911   1.000  14.420 -0.7207 -0.6293 -0.1833
12150TIP3   OH257864   2.234   3.689   5.490 -0.2001  0.0873 -0.7370
12150TIP3    H157865   2.203   3.671   5.401 -1.0241  1.6454 -0.8049
12150TIP3    H257866   2.320   3.729   5.477  0.6543 -1.6786 -0.6960
12151TIP3   OH257867   1.975   4.324  11.942 -0.3383 -0.0539 -0.5600
12151TIP3    H157868   2.003   4.396  11.886  0.8139 -1.4827 -1.8879
12151TIP3    H257869   2.056   4.286  11.976 -0.9301 -0.5708  0.3212
12152TIP3   OH257870   6.721   4.706   0.986 -0.0216  0.6698  0.6323
12152TIP3    H157871   6.673   4.756   0.921 -0.6417 -0.5887  0.0881
12152TIP3    H257872   6.785   4.655   0.936  0.0018  0.2477  1.0788
12153TIP3   OH257873   2.727   0.880   4.749 -0.4716 -0.6056 -0.1247
12153TIP3    H157874   2.678   0.962   4.738 -0.7469 -0.2579  2.8791
12153TIP3    H257875   2.753   0.856   4.660 -0.3486  2.7346 -1.1357
12154TIP3   OH257876   5.618   1.348  16.154 -0.3655 -0.1799  0.1234
12154TIP3    H157877   5.634   1.256  16.133  0.2334 -0.1354  0.3655
12154TIP3    H257878   5.539   1.347  16.208 -1.1235 -0.4237 -0.9767
12155TIP3   OH257879   6.706   4.400  16.111 -0.7770  0.5430  0.3572
12155TIP3    H157880   6.614   4.421  16.096 -0.9697  0.3322  1.2151
12155TIP3    H257881   6.722   4.422  16.203 -0.1254  0.0342  0.3807
12156TIP3   OH257882   4.150   6.301   1.595  0.5097 -0.7166  0.2003
12156TIP3    H157883   4.198   6.220   1.614  0.8559 -0.8583 -1.1067
12156TIP3    H257884   4.219   6.367   1.583  0.5182 -1.0552 -2.3161
12157TIP3   OH257885   0.091   4.418  14.193  0.4580  0.2909  0.0081
12157TIP3    H157886   0.064   4.340  14.144  0.2325  0.9086 -0.8721
12157TIP3    H257887   0.172   4.392  14.237 -0.3981 -0.9129  0.9527
12158TIP3   OH257888   1.701   5.949  15.950  0.1719 -0.1107  0.2716
12158TIP3    H157889   1.771   5.887  15.970 -0.1038 -0.3050  0.6449
12158TIP3    H257890   1.710   6.017  16.016  1.6208  1.2380 -1.1995
12159TIP3   OH257891   0.904   0.121   3.030  0.0521  0.2551  0.6599
12159TIP3    H157892   0.981   0.128   2.973 -0.3581  0.5722  0.1405
12159TIP3    H257893   0.941   0.107   3.117  0.6925 -2.2797  0.0821
12160TIP3   OH257894   5.315   2.809  13.959  0.2616 -0.3964 -0.4181
12160TIP3    H157895   5.262   2.780  13.885  3.0747 -0.6789 -2.4646
12160TIP3    H257896   5.315   2.904  13.954  0.6469 -0.4221 -0.9488
12161TIP3   OH257897   4.248   3.029  11.250  0.5809 -0.1198 -0.2205
12161TIP3    H157898   4.261   3.074  11.167  0.1372 -1.3486 -0.9787
12161TIP3    H257899   4.178   3.078  11.294  0.0577 -0.0955 -1.0616
12162TIP3   OH257900   4.223   1.974  13.988  0.4340  0.4550 -0.4692
12162TIP3    H157901   4.245   1.907  14.053  1.5135  0.8042 -0.4532
12162TIP3    H257902   4.307   2.014  13.966 -0.1461  1.5319 -0.7778
12163TIP3   OH257903   6.344   0.269   4.168 -0.0347 -0.1673 -0.2467
12163TIP3    H157904   6.290   0.215   4.109  1.3380 -1.1775 -0.6402
12163TIP3    H257905   6.388   0.205   4.224 -0.1653  0.7121  0.8851
12164TIP3   OH257906   4.302   0.054   5.821  0.1095  0.5200 -0.3190
12164TIP3    H157907   4.373   0.090   5.768  0.7518 -0.5566 -0.2088
12164TIP3    H257908   4.232   0.037   5.759 -0.3361  2.1896 -0.3396
12165TIP3   OH257909   5.076   6.097  15.870 -0.7196  0.3373  0.6220
12165TIP3    H157910   5.033   6.175  15.835 -0.5787 -0.2374 -0.9347
12165TIP3    H257911   5.068   6.032  15.799 -1.5873 -1.3548  2.1833
12166TIP3   OH257912   2.126   2.486  11.332  0.4775  0.2772 -0.4445
12166TIP3    H157913   2.134   2.554  11.399  1.1068 -0.0413 -0.1844
12166TIP3    H257914   2.164   2.525  11.253  2.2265 -0.2492  0.0763
12167TIP3   OH257915   4.409   5.465   6.204  0.1326  0.2525 -0.3443
12167TIP3    H157916   4.353   5.392   6.233  0.2271  0.4655  0.4097
12167TIP3    H257917   4.358   5.544   6.226 -0.5140  0.4296 -2.2707
12168TIP3   OH257918   5.477   5.631   3.386 -0.0026  0.3539 -0.2053
12168TIP3    H157919   5.529   5.576   3.444 -1.7520 -0.1582  0.9583
12168TIP3    H257920   5.445   5.572   3.318 -0.4309  0.2992  0.0399
12169TIP3   OH257921   6.526   4.028   2.935 -0.0202  0.7295  0.0445
12169TIP3    H157922   6.465   4.085   2.887 -1.1167  0.6753  1.3221
12169TIP3    H257923   6.576   4.088   2.991  0.4331  0.6690 -0.2899
12170TIP3   OH257924   5.142   5.731   1.833  0.3397 -0.1307 -0.0767
12170TIP3    H157925   5.134   5.774   1.748 -0.2557  0.4238  0.2479
12170TIP3    H257926   5.215   5.777   1.876  1.1414 -0.9226 -0.5779
12171TIP3   OH257927   6.066   2.022  12.914  0.1282 -0.3660 -0.3619
12171TIP3    H157928   6.019   1.953  12.960  1.0624 -0.8731 -0.1381
12171TIP3    H257929   5.999   2.086  12.891 -0.6374 -1.0001  0.0674
12172TIP3   OH257930   0.851   1.780  17.166  0.3499  0.1368 -0.1810
12172TIP3    H157931   0.771   1.767  17.218  0.0935 -0.8111 -0.7725
12172TIP3    H257932   0.901   1.846  17.214 -0.4965  0.2709  0.5429
12173TIP3   OH257933   2.766   2.200  11.708 -0.3831  0.3451  0.2857
12173TIP3    H157934   2.835   2.176  11.770 -0.9089 -0.9649  0.4008
12173TIP3    H257935   2.813   2.234  11.632  0.3161  0.9257  0.9549
12174TIP3   OH257936   3.676   0.656  14.538  0.6432 -0.3488  0.4737
12174TIP3    H157937   3.717   0.615  14.614 -0.1008  0.2596  1.2281
12174TIP3    H257938   3.584   0.629  14.544  0.5572 -0.1892 -0.1381
12175TIP3   OH257939   1.937   2.440  12.776  0.3285  0.3600 -0.4008
12175TIP3    H157940   1.935   2.398  12.690 -0.6944 -0.3193 -0.0630
12175TIP3    H257941   1.870   2.394  12.827  0.6578  1.0039  0.6432
12176TIP3   OH257942   5.654   0.675   5.656  0.5130  0.3715 -0.3393
12176TIP3    H157943   5.680   0.630   5.736  1.0350 -0.1815 -0.8030
12176TIP3    H257944   5.587   0.737   5.683  0.4168 -0.0727  0.4591
12177TIP3   OH257945   2.212   1.515   5.965  0.1921  0.0755 -0.3284
12177TIP3    H157946   2.145   1.510   5.897  0.4236 -1.0169 -0.4929
12177TIP3    H257947   2.225   1.609   5.979 -2.4548  0.3710  0.7793
12178TIP3   OH257948   6.329   2.410  14.174 -0.2383  0.0164  0.0298
12178TIP3    H157949   6.367   2.464  14.243  0.3818 -1.0050  0.5221
12178TIP3    H257950   6.372   2.325  14.184 -2.9145 -1.3480  0.8589
12179TIP3   OH257951   6.473   2.647   1.311 -0.0210  0.5194  0.2732
12179TIP3    H157952   6.429   2.659   1.395  1.0226 -0.6399  1.0107
12179TIP3    H257953   6.566   2.657   1.331  0.2489  0.0521 -0.7107
12180TIP3   OH257954   5.604   4.036   4.810  0.1264  0.1669  0.5896
12180TIP3    H157955   5.549   3.970   4.768  2.2744  0.0721 -2.3261
12180TIP3    H257956   5.620   4.000   4.898 -2.4279 -0.8954  0.7188
12181TIP3   OH257957   4.332   2.023  13.145  1.0224 -0.1436  0.5563
12181TIP3    H157958   4.330   1.930  13.167  1.0016  0.5604  4.0388
12181TIP3    H257959   4.402   2.060  13.199  2.2994  1.6703 -2.0798
12182TIP3   OH257960   1.111   5.669  12.083  0.0693  0.0525 -0.1492
12182TIP3    H157961   1.072   5.670  12.171 -2.9345  0.6954 -1.3706
12182TIP3    H257962   1.081   5.749  12.042  2.1086  0.1788 -1.5660
12183TIP3   OH257963   0.165   3.197   3.282 -0.3683 -0.3146  0.2033
12183TIP3    H157964   0.180   3.243   3.365 -0.5770 -0.8053  0.5194
12183TIP3    H257965   0.246   3.148   3.268 -0.4210 -0.4107  0.2352
12184TIP3   OH257966   5.396   6.195   6.261  0.2011 -0.1606  0.2040
12184TIP3    H157967   5.465   6.175   6.198 -0.9933 -1.0104 -0.8762
12184TIP3    H257968   5.426   6.154   6.342  0.5763 -1.2860 -0.4704
12185TIP3   OH257969   2.665   5.796   2.569 -0.4439  0.1612 -0.1154
12185TIP3    H157970   2.747   5.834   2.601 -0.8808  0.7933  0.2791
12185TIP3    H257971   2.671   5.703   2.589  0.6156  0.0142 -1.0178
12186TIP3   OH257972   0.535   3.573  13.575 -0.1866 -0.0672  0.0822
12186TIP3    H157973   0.508   3.485  13.550  0.9353  0.4414 -3.5203
12186TIP3    H257974   0.625   3.580  13.544 -0.9443  2.9905 -1.9718
12187TIP3   OH257975   6.231   2.767   4.929 -0.1643  0.0200 -0.0630
12187TIP3    H157976   6.150   2.727   4.960 -0.4757 -2.1000 -3.1096
12187TIP3    H257977   6.202   2.834   4.867  0.4476  1.2813  0.9671
12188TIP3   OH257978   3.915   0.566   5.734  0.2879 -0.1124  0.0310
12188TIP3    H157979   3.979   0.534   5.798 -0.8360  0.3494  1.4324
12188TIP3    H257980   3.931   0.661   5.731 -1.4103  0.2810  1.7077
12189TIP3   OH257981   5.133   4.670  11.680 -0.2637  0.1089 -0.0814
12189TIP3    H157982   5.136   4.683  11.585  0.6474  0.5480 -0.0014
12189TIP3    H257983   5.224   4.653  11.705 -0.6000 -0.7121  0.6249
12190TIP3   OH257984   2.893   6.729  13.618  0.1859  0.6475  0.0036
12190TIP3    H157985   2.906   6.818  13.650 -0.5591  0.5066  0.7212
12190TIP3    H257986   2.903   6.674  13.695 -1.2062  0.2648 -0.0646
12191TIP3   OH257987   2.024   5.270  14.597 -0.2848  0.2645 -0.2280
12191TIP3    H157988   1.946   5.221  14.569  0.1493 -0.3912 -0.3096
12191TIP3    H257989   1.993   5.327  14.667 -0.7899 -0.1762 -0.0845
12192TIP3   OH257990   5.568   1.080   3.702 -0.1905 -0.1737 -0.3399
12192TIP3    H157991   5.630   1.152   3.715  0.4049 -0.3443 -1.9708
12192TIP3    H257992   5.500   1.117   3.645 -0.3181 -0.6562 -0.5051
12193TIP3   OH257993   2.371   5.080   4.771 -0.3480 -1.0277 -0.4681
12193TIP3    H157994   2.280   5.051   4.779 -1.0810  1.2014  0.0070
12193TIP3    H257995   2.383   5.095   4.677 -0.6852 -0.7794 -0.4754
12194TIP3   OH257996   5.787   5.455   0.574  0.1862 -0.3264  0.5230
12194TIP3    H157997   5.723   5.518   0.542 -2.2775 -1.5424  2.6942
12194TIP3    H257998   5.840   5.505   0.636  0.4461  0.3604 -0.2359
12195TIP3   OH257999   3.519   5.756  11.478 -0.5735 -0.0729 -0.3889
12195TIP3    H158000   3.551   5.807  11.404  0.4158 -0.7405 -0.4367
12195TIP3    H258001   3.438   5.800  11.504  0.1077  1.3533 -0.5953
12196TIP3   OH258002   3.476   4.365  14.428  0.2439  0.0605  0.0771
12196TIP3    H158003   3.571   4.365  14.420  0.1323  0.3308 -1.4047
12196TIP3    H258004   3.458   4.300  14.496  1.6161  2.0558  2.5270
12197TIP3   OH258005   2.796   2.222  14.661  0.5794  0.7064  0.1153
12197TIP3    H158006   2.862   2.155  14.680 -0.2553 -0.4476 -0.9363
12197TIP3    H258007   2.847   2.299  14.637  1.5522  0.1139  0.2289
12198TIP3   OH258008   5.807   0.837   0.929 -0.2858  0.0252 -0.7012
12198TIP3    H158009   5.827   0.920   0.884  0.7738 -0.2682 -0.7973
12198TIP3    H258010   5.796   0.774   0.858 -1.3885  0.1291 -0.6401
12199TIP3   OH258011   4.514   0.061   4.749 -0.1472 -0.2219 -0.3450
12199TIP3    H158012   4.439   0.117   4.768  0.8637  1.7756 -1.8903
12199TIP3    H258013   4.585   0.099   4.800  0.4290 -0.4379 -0.9843
12200TIP3   OH258014   4.102   3.973   1.340 -0.1782 -0.6473 -0.3234
12200TIP3    H158015   4.012   3.996   1.359 -1.2667 -2.1154 -3.0607
12200TIP3    H258016   4.142   3.956   1.426 -2.2239  0.8392  0.9919
12201TIP3   OH258017   1.664   0.142  16.934  0.0448 -0.1287  0.0778
12201TIP3    H158018   1.731   0.207  16.913 -0.5414  0.3037 -0.4934
12201TIP3    H258019   1.707   0.081  16.994  0.4733  1.0364  0.9924
12202TIP3   OH258020   6.402   2.391   1.927 -0.1722 -0.3057  0.2428
12202TIP3    H158021   6.447   2.345   1.998 -1.4615 -0.2090  1.1667
12202TIP3    H258022   6.450   2.366   1.848 -0.5120 -2.8928  0.7583
12203TIP3   OH258023   0.998   2.564   5.366  0.4695  0.0656  0.0694
12203TIP3    H158024   0.937   2.625   5.323 -0.3065 -0.4085  0.4747
12203TIP3    H258025   1.036   2.615   5.437 -1.2138 -0.2960  1.2842
12204TIP3   OH258026   3.382   0.188   2.548  0.4878  0.1719 -0.9398
12204TIP3    H158027   3.476   0.210   2.553  0.5157 -0.1410  0.5051
12204TIP3    H258028   3.381   0.092   2.541  0.2890 -0.0981  1.8185
12205TIP3   OH258029   1.376   1.447   4.747 -0.2678  0.1779 -0.2348
12205TIP3    H158030   1.329   1.456   4.665 -0.4881 -1.6730 -0.3489
12205TIP3    H258031   1.307   1.441   4.814 -0.1025  1.0637  0.0246
12206TIP3   OH258032   4.969   4.828  12.003  0.2817 -0.0000 -0.1733
12206TIP3    H158033   5.064   4.837  11.994  0.1720  0.6478 -0.7710
12206TIP3    H258034   4.938   4.808  11.915 -0.8975  7.1073 -1.9952
12207TIP3   OH258035   6.558   1.788  13.258 -0.3510  0.3690 -0.0534
12207TIP3    H158036   6.520   1.704  13.286 -2.0951  1.4722  1.1239
12207TIP3    H258037   6.487   1.852  13.271  0.5905  1.8922 -1.8690
12208TIP3   OH258038   1.907   1.587  15.077 -0.1976  0.5365  1.1808
12208TIP3    H158039   1.832   1.542  15.116 -1.6465  2.0973  0.3169
12208TIP3    H258040   1.911   1.555  14.987  0.7776 -0.1990  1.4552
12209TIP3   OH258041   3.007   0.542  15.541  0.4264  0.6152  0.5554
12209TIP3    H158042   3.051   0.613  15.494 -0.1255  1.3920  1.1902
12209TIP3    H258043   3.061   0.465  15.524  1.3982  1.3170  0.3883
12210TIP3   OH258044   4.474   6.037   4.776 -1.0838 -0.1918 -0.5065
12210TIP3    H158045   4.450   5.968   4.837 -1.3737 -0.1456 -0.5693
12210TIP3    H258046   4.454   6.119   4.822  0.4722 -0.1050  0.0883
12211TIP3   OH258047   3.968   3.255   5.633 -0.3018 -0.1132  0.1457
12211TIP3    H158048   3.974   3.294   5.546  0.0117 -0.4443  0.0174
12211TIP3    H258049   4.058   3.229   5.654  0.0143  1.6939  1.3688
12212TIP3   OH258050   6.076   2.586   4.440 -0.3960  0.3162 -0.2796
12212TIP3    H158051   5.993   2.633   4.446 -0.0580  0.8542  0.3274
12212TIP3    H258052   6.139   2.641   4.488  0.4867  0.2832 -1.3558
12213TIP3   OH258053   1.932   5.947   2.175  0.4389 -0.3947 -0.2255
12213TIP3    H158054   1.864   5.975   2.236  1.3315 -2.1403  1.6987
12213TIP3    H258055   1.883   5.905   2.103 -0.5830  0.2194  0.0932
12214TIP3   OH258056   0.156   0.548  12.162  0.1127  0.8335  0.4067
12214TIP3    H158057   0.104   0.543  12.242 -2.7259  0.1081 -1.3362
12214TIP3    H258058   0.155   0.640  12.138  1.9647  1.2515  1.7205
12215TIP3   OH258059   4.774   1.883  14.650  0.2735 -0.0748  0.1330
12215TIP3    H158060   4.831   1.837  14.588  1.1607 -1.2924  1.7665
12215TIP3    H258061   4.741   1.814  14.708 -1.0772  0.9291  0.6278
12216TIP3   OH258062   3.125   0.234  16.990 -0.7894  0.1561  0.0476
12216TIP3    H158063   3.138   0.268  17.078 -2.4935  0.2963  0.2872
12216TIP3    H258064   3.095   0.310  16.939  2.7498  0.7677 -1.4201
12217TIP3   OH258065   5.144   6.179   4.708  0.1812  0.3791 -0.4892
12217TIP3    H158066   5.075   6.121   4.739  0.0825  1.4189  1.3956
12217TIP3    H258067   5.166   6.146   4.621 -1.3079 -1.1692 -0.3307
12218TIP3   OH258068   4.708   5.554   3.728  0.3899  0.0460 -0.2264
12218TIP3    H158069   4.755   5.501   3.793  2.6981  2.0282 -0.1029
12218TIP3    H258070   4.638   5.595   3.778  1.7360  1.0254  0.9554
12219TIP3   OH258071   4.650   1.915  13.124  0.1840  0.1372 -0.6119
12219TIP3    H158072   4.723   1.962  13.083 -0.0471  2.0161  0.9521
12219TIP3    H258073   4.662   1.932  13.218 -1.1878 -1.1502 -0.1769
12220TIP3   OH258074   3.141   2.980  17.345 -0.1835 -0.2409  0.5148
12220TIP3    H158075   3.229   3.013  17.327 -0.8624  0.9944 -0.7325
12220TIP3    H258076   3.089   3.009  17.270 -2.0149  0.4776  1.9958
12221TIP3   OH258077   5.153   4.631  15.532  0.2447 -0.5636  0.3450
12221TIP3    H158078   5.207   4.633  15.453 -1.9308 -2.0365 -1.2941
12221TIP3    H258079   5.071   4.672  15.507 -0.5006 -1.0253  1.8544
12222TIP3   OH258080   1.577   1.275  15.760 -0.1404 -0.2356  0.0282
12222TIP3    H158081   1.635   1.217  15.712  0.6372 -0.0166  0.6722
12222TIP3    H258082   1.601   1.363  15.731  0.5552 -0.0831  1.0322
12223TIP3   OH258083   3.871   0.770   6.913  0.1502  0.1075 -0.2957
12223TIP3    H158084   3.787   0.768   6.867 -0.2577  1.6258  0.3459
12223TIP3    H258085   3.934   0.739   6.848 -0.9277 -1.4369 -0.6746
12224TIP3   OH258086   3.410   3.452  14.481 -0.7492 -0.4123 -0.4357
12224TIP3    H158087   3.454   3.474  14.400 -1.8650  0.4420 -0.8386
12224TIP3    H258088   3.401   3.535  14.528 -1.8075 -0.5767 -0.3176
12225TIP3   OH258089   2.206   2.011   2.266 -0.3177 -0.8900 -0.2463
12225TIP3    H158090   2.156   2.051   2.336 -1.2660 -1.1491 -0.7483
12225TIP3    H258091   2.257   1.942   2.308 -1.3684 -1.4699  0.1022
12226TIP3   OH258092   5.555   3.004   5.306 -0.2437  0.0505  0.2241
12226TIP3    H158093   5.523   3.081   5.352  0.7165  0.5044  0.1406
12226TIP3    H258094   5.535   3.021   5.214 -3.7292 -1.5857  0.4821
12227TIP3   OH258095   2.747   2.927  13.750 -0.0672 -0.4911  0.4097
12227TIP3    H158096   2.780   2.996  13.692 -0.3159 -1.6978 -1.2324
12227TIP3    H258097   2.791   2.944  13.833  1.3599  0.5189 -0.4912
12228TIP3   OH258098   3.397   6.426  13.556  0.5860  0.5051  0.1925
12228TIP3    H158099   3.302   6.415  13.557  0.8765 -3.6398 -0.1109
12228TIP3    H258100   3.428   6.360  13.495  3.7521  1.0517  1.0271
12229TIP3   OH258101   1.036   5.729   2.071 -0.0548  0.4006  0.2244
12229TIP3    H158102   1.119   5.687   2.046  0.2796  0.3462  1.3306
12229TIP3    H258103   1.023   5.797   2.006  0.9345  0.4916  0.0982
12230TIP3   OH258104   2.961   2.436   4.939 -0.0882 -0.0704  0.2237
12230TIP3    H158105   2.890   2.490   4.975  0.0958 -0.3496  1.0280
12230TIP3    H258106   2.927   2.346   4.945 -0.2610 -0.0785 -0.7911
12231TIP3   OH258107   1.989   1.133  11.786 -0.3854 -0.0190 -0.8818
12231TIP3    H158108   2.058   1.068  11.777 -1.2700 -0.9834 -0.9249
12231TIP3    H258109   2.004   1.195  11.714  0.1474 -0.4784 -1.1696
12232TIP3   OH258110   4.716   0.497  15.050 -0.4066 -0.2805  0.0001
12232TIP3    H158111   4.723   0.439  15.126  1.4444 -0.9424 -0.5987
12232TIP3    H258112   4.804   0.535  15.042 -0.8759  0.6010 -1.1593
12233TIP3   OH258113   5.709   6.110  12.478 -0.4015  0.3365  0.0574
12233TIP3    H158114   5.617   6.099  12.453  0.4294 -1.9119 -2.5090
12233TIP3    H258115   5.715   6.066  12.563 -1.1620 -2.4474 -1.2103
12234TIP3   OH258116   4.911   5.994   4.634 -0.0668 -0.0077 -0.0464
12234TIP3    H158117   4.892   6.055   4.563 -2.2836 -1.5495 -0.8877
12234TIP3    H258118   4.825   5.965   4.664  0.8883 -1.4009  1.4819
12235TIP3   OH258119   3.096   0.777  14.695  0.3005  0.2516 -0.3129
12235TIP3    H158120   3.091   0.695  14.646  0.8019  0.9523 -1.5839
12235TIP3    H258121   3.188   0.803  14.688  0.2305  0.7335  0.4213
12236TIP3   OH258122   1.461   1.542   5.984  0.3599  0.4980  0.6673
12236TIP3    H158123   1.544   1.575   6.018  0.2141 -0.5124  2.0923
12236TIP3    H258124   1.465   1.559   5.890  3.0831 -1.3669  0.3571
12237TIP3   OH258125   4.640   0.448  11.580  0.3654  0.8322  0.3721
12237TIP3    H158126   4.662   0.442  11.673  0.4916 -2.2950  0.2389
12237TIP3    H258127   4.725   0.449  11.535  0.3351 -0.6934  0.2319
12238TIP3   OH258128   1.680   5.437  15.405 -0.5820 -1.3663  0.1968
12238TIP3    H158129   1.746   5.480  15.351  0.4195 -1.5258  1.2570
12238TIP3    H258130   1.628   5.508  15.441  0.9389 -0.9954  1.7817
12239TIP3   OH258131   2.345   3.768  12.202 -0.0419 -0.3210 -0.4172
12239TIP3    H158132   2.423   3.715  12.221  1.4248  2.0576  0.7535
12239TIP3    H258133   2.343   3.774  12.106 -1.1737 -3.6168 -0.7142
12240TIP3   OH258134   0.990   5.992  14.221  0.8877 -0.0535 -0.3511
12240TIP3    H158135   0.940   5.913  14.201 -1.2169  1.4283 -1.4176
12240TIP3    H258136   1.017   6.026  14.135 -0.7779  1.8313 -0.2297
12241TIP3   OH258137   1.557   2.499   3.562  0.2623 -0.8487 -0.1246
12241TIP3    H158138   1.653   2.492   3.560  0.3724  0.6651 -1.2674
12241TIP3    H258139   1.529   2.479   3.473 -0.6694 -3.0117  0.5958
12242TIP3   OH258140   4.514   0.550   0.364  0.4029 -0.1345  0.0982
12242TIP3    H158141   4.559   0.485   0.309  1.8243 -0.6104  1.7175
12242TIP3    H258142   4.567   0.629   0.357  0.4939 -0.1430  0.6052
12243TIP3   OH258143   3.966   1.222   2.787 -0.1000  0.2882 -0.2819
12243TIP3    H158144   3.879   1.192   2.762 -0.2885  0.7801 -0.2301
12243TIP3    H258145   3.955   1.316   2.804 -0.6583 -0.4088  4.6132
12244TIP3   OH258146   1.351   6.002  17.053  0.1317 -0.1315 -0.7147
12244TIP3    H158147   1.301   5.921  17.050  1.1226 -0.8412  0.6268
12244TIP3    H258148   1.422   5.989  16.990  0.0135 -0.0985 -0.8557
12245TIP3   OH258149   4.621   5.152  11.387  0.1851  0.0639 -0.3044
12245TIP3    H158150   4.542   5.160  11.332 -0.4347 -0.0949  0.5382
12245TIP3    H258151   4.589   5.113  11.469  1.0364  0.5998  0.2945
12246TIP3   OH258152   5.742   5.536  13.428  0.5596 -0.4237  0.3520
12246TIP3    H158153   5.806   5.543  13.498  1.0965  2.6852 -0.2790
12246TIP3    H258154   5.790   5.558  13.348 -0.8306  0.0741 -0.4017
12247TIP3   OH258155   4.433   3.611  16.004 -0.0397 -0.0704 -0.1390
12247TIP3    H158156   4.459   3.672  15.935 -0.5029 -2.5347 -2.7214
12247TIP3    H258157   4.507   3.551  16.012 -0.9057 -1.2059 -0.2566
12248TIP3   OH258158   0.300   4.057   3.985 -0.0873  0.5667  0.3485
12248TIP3    H158159   0.252   3.982   3.950 -0.1525  0.5149  0.5507
12248TIP3    H258160   0.388   4.049   3.947 -0.0119  0.2319  0.5962
12249TIP3   OH258161   6.469   4.198  15.598 -0.1408 -0.5349 -0.0994
12249TIP3    H158162   6.508   4.174  15.514  0.6491 -1.4962  0.5069
12249TIP3    H258163   6.543   4.231  15.650 -0.3089 -1.4072  0.7247
12250TIP3   OH258164   0.447   2.821  11.699  0.1911 -0.0984  0.2439
12250TIP3    H158165   0.497   2.873  11.762  0.5278 -0.3620  0.1945
12250TIP3    H258166   0.412   2.749  11.751 -2.5401  1.5830  0.9292
12251TIP3   OH258167   1.363   2.105  15.447  0.3163 -0.0378 -0.0305
12251TIP3    H158168   1.372   2.073  15.357  1.7080 -2.3053  0.8304
12251TIP3    H258169   1.445   2.150  15.464 -0.3285  1.2283 -0.1603
12252TIP3   OH258170   4.939   1.854  13.515  0.2844  0.0133 -0.4436
12252TIP3    H158171   5.003   1.782  13.523 -0.2613 -0.3206  1.1349
12252TIP3    H258172   4.920   1.879  13.605 -2.2916 -0.3219 -0.8355
12253TIP3   OH258173   1.829   1.089   3.145 -0.5074 -0.1731 -0.2448
12253TIP3    H158174   1.792   1.130   3.223 -0.4122  0.0146 -0.2968
12253TIP3    H258175   1.907   1.141   3.125  0.1313 -0.9194  0.2148
12254TIP3   OH258176   2.018   1.275  11.541  0.5519  0.2257  0.2064
12254TIP3    H158177   2.032   1.339  11.470  0.0011  0.1173 -0.0107
12254TIP3    H258178   1.950   1.217  11.507 -0.8767  1.1078  1.4243
12255TIP3   OH258179   0.600   0.094  15.928 -0.6321  0.9271  0.4128
12255TIP3    H158180   0.659   0.084  15.854  0.8412 -2.1439  1.8394
12255TIP3    H258181   0.637   0.168  15.977  2.7150 -1.2728  1.6123
12256TIP3   OH258182   4.974   2.516  17.308 -0.1532 -0.4393  0.5284
12256TIP3    H158183   4.933   2.602  17.301  1.2488  0.1362 -1.4350
12256TIP3    H258184   4.994   2.506  17.401 -1.3669  0.8341  0.9581
12257TIP3   OH258185   5.011   5.577   4.458  0.1160 -0.3409 -0.4659
12257TIP3    H158186   5.076   5.584   4.388  2.2527 -0.0751  1.3783
12257TIP3    H258187   5.020   5.660   4.506  1.7504 -2.0167  2.4416
12258TIP3   OH258188   4.128   4.729   4.481 -0.4400 -0.2387  0.4440
12258TIP3    H158189   4.104   4.821   4.480  0.0577 -0.0907 -0.9774
12258TIP3    H258190   4.137   4.706   4.388 -0.1887 -1.6193  0.7841
12259TIP3   OH258191   4.659   2.771   5.251  0.5337  0.0306 -0.0764
12259TIP3    H158192   4.638   2.858   5.283  1.2491  0.3841 -0.5414
12259TIP3    H258193   4.574   2.730   5.234  0.1920  0.9630 -0.7215
12260TIP3   OH258194   3.590   6.195  14.603  0.2369  1.0531  0.2990
12260TIP3    H158195   3.498   6.168  14.602  0.1401  1.3833  0.1784
12260TIP3    H258196   3.593   6.273  14.548  0.7684  0.4794 -0.5066
12261TIP3   OH258197   4.408   3.597  15.672 -0.6888  0.2422 -0.0737
12261TIP3    H158198   4.423   3.622  15.581 -3.9914  2.4288 -0.1818
12261TIP3    H258199   4.461   3.658  15.723  1.6342 -1.3627 -0.4045
12262TIP3   OH258200   1.226   0.018   3.476  1.0852  0.3892  0.0081
12262TIP3    H158201   1.153   0.047   3.422  1.0484  0.2198 -0.0358
12262TIP3    H258202   1.192  -0.060   3.521  1.0559  0.6291  0.4093
12263TIP3   OH258203   3.184   1.984  14.573  0.4521  0.4669  0.4253
12263TIP3    H158204   3.266   1.974  14.524 -0.0303 -2.2058  0.0366
12263TIP3    H258205   3.118   2.003  14.506  0.5166  1.2219  0.5732
12264TIP3   OH258206   5.583   3.040  12.476  0.0076  0.2218 -0.0006
12264TIP3    H158207   5.652   3.049  12.410 -1.0256  1.3634 -0.9477
12264TIP3    H258208   5.597   3.113  12.535 -0.0738  0.1442  0.1149
12265TIP3   OH258209   3.101   4.229   4.673 -0.1687  0.1079  0.3912
12265TIP3    H158210   3.063   4.185   4.598 -1.0626  1.0397  0.2708
12265TIP3    H258211   3.192   4.245   4.649 -0.1807 -0.5114 -0.0716
12266TIP3   OH258212   5.759   3.278  11.779 -0.1507  0.2827  0.6653
12266TIP3    H158213   5.716   3.204  11.821 -2.2809  1.8169  1.3559
12266TIP3    H258214   5.837   3.295  11.832 -1.6817  0.8773  2.8524
12267TIP3   OH258215   5.410   1.869   0.281  0.4838 -0.4497  0.0047
12267TIP3    H158216   5.366   1.907   0.204  0.4377 -1.1128 -0.2996
12267TIP3    H258217   5.493   1.837   0.247  0.8252  0.0073  0.4052
12268TIP3   OH258218   5.167   4.253  12.374  0.0040 -0.1100 -0.1353
12268TIP3    H158219   5.254   4.225  12.403  0.7705  1.6004 -0.6283
12268TIP3    H258220   5.133   4.179  12.323  2.1818  0.0267 -1.9465
12269TIP3   OH258221   6.451   5.228   0.560 -0.8674 -0.1372  0.3706
12269TIP3    H158222   6.375   5.170   0.557 -0.0414 -1.2135 -1.6058
12269TIP3    H258223   6.443   5.283   0.483  1.2388 -1.5365 -0.9502
12270TIP3   OH258224   5.335   6.461  14.935 -0.0297  0.1759  0.8111
12270TIP3    H158225   5.403   6.480  15.000  0.1382  0.1490  0.6426
12270TIP3    H258226   5.378   6.474  14.851  0.3555 -1.8611  0.6551
12271TIP3   OH258227   1.655   1.955  16.526  0.4904  0.0368 -0.2424
12271TIP3    H158228   1.638   2.042  16.564  2.1635  0.0380  0.6476
12271TIP3    H258229   1.615   1.958  16.440 -0.7551  1.1711  0.3318
12272TIP3   OH258230   3.488   1.928   1.610 -0.0630 -0.0303  0.3628
12272TIP3    H158231   3.496   1.915   1.515  0.2659 -0.3564  0.4327
12272TIP3    H258232   3.398   1.958   1.623  0.4582  1.9677 -0.2566
12273TIP3   OH258233   4.694   3.254  16.514  0.4259 -0.2138  0.4426
12273TIP3    H158234   4.701   3.294  16.428 -3.2911 -2.5506 -1.1984
12273TIP3    H258235   4.665   3.326  16.571  2.1659  1.1819 -0.3095
12274TIP3   OH258236   0.970   3.903  17.198 -0.9196  0.3479  0.2604
12274TIP3    H158237   1.006   3.878  17.284  0.6206 -1.0765 -0.7317
12274TIP3    H258238   1.037   3.961  17.160 -0.3425 -1.0675 -0.9734
12275TIP3   OH258239   3.385   1.979  12.588 -0.7883 -0.8727 -0.1768
12275TIP3    H158240   3.455   2.017  12.642  0.4610  0.7684 -2.7383
12275TIP3    H258241   3.409   1.887  12.580 -0.7537 -1.0545  1.5912
12276TIP3   OH258242   0.469   6.294   5.202  0.5494 -0.5016  0.7090
12276TIP3    H158243   0.374   6.283   5.212  0.4653 -2.5171 -1.3441
12276TIP3    H258244   0.504   6.205   5.203  1.8342 -0.2097 -2.7294
12277TIP3   OH258245   1.726   5.422  15.791 -0.0691  0.2015 -0.2944
12277TIP3    H158246   1.769   5.379  15.864 -1.6670  0.7180  1.0100
12277TIP3    H258247   1.736   5.361  15.718 -0.9549 -1.7052  1.1042
12278TIP3   OH258248   2.942   4.959   2.677 -0.6485  0.0498 -0.4021
12278TIP3    H158249   3.034   4.957   2.702 -0.1733  1.3481 -1.8600
12278TIP3    H258250   2.930   4.883   2.621 -0.7831 -0.7866  0.7392
12279TIP3   OH258251   3.517   3.036  15.974 -0.5478 -0.4437 -0.6586
12279TIP3    H158252   3.552   2.948  15.957  0.2175 -0.3127  0.1699
12279TIP3    H258253   3.561   3.092  15.910  0.5975 -0.3291  0.1840
12280TIP3   OH258254   4.272   6.024  12.205  0.1939 -0.3007 -0.2760
12280TIP3    H158255   4.337   6.052  12.140 -0.7767 -1.1199 -1.6483
12280TIP3    H258256   4.199   6.086  12.194 -0.5156 -1.2245 -0.9039
12281TIP3   OH258257   2.377   6.415  16.217 -0.4957  0.6548 -0.1304
12281TIP3    H158258   2.438   6.373  16.278  0.2948  0.3477 -1.0958
12281TIP3    H258259   2.429   6.484  16.176 -0.7925  0.3729 -0.9860
12282TIP3   OH258260   6.628   2.584   4.267  0.2889  0.8432  0.0054
12282TIP3    H158261   6.590   2.556   4.184  2.2730  0.7360 -0.9060
12282TIP3    H258262   6.573   2.542   4.333  0.6206 -1.8054 -1.2642
12283TIP3   OH258263   4.864   0.826  16.267  0.6793 -0.5243  0.3124
12283TIP3    H158264   4.898   0.775  16.193 -0.0176  0.4493 -0.7233
12283TIP3    H258265   4.784   0.781  16.293 -0.4086  0.4673 -1.1679
12284TIP3   OH258266   1.236   1.222  14.575 -0.1156 -0.3366 -0.6262
12284TIP3    H158267   1.291   1.300  14.582 -2.6856  1.5426  0.5659
12284TIP3    H258268   1.296   1.149  14.588  2.2162  1.4800 -0.4225
12285TIP3   OH258269   4.461   3.340   5.176 -0.2284  0.3191  0.3551
12285TIP3    H158270   4.488   3.385   5.096  0.3854 -2.1381 -0.9117
12285TIP3    H258271   4.373   3.308   5.158  0.2266 -0.9649  0.2944
12286TIP3   OH258272   0.859   0.853   5.322  0.2940  0.5884 -0.1374
12286TIP3    H158273   0.949   0.841   5.353  0.6409 -0.0309 -1.3093
12286TIP3    H258274   0.867   0.919   5.253  0.2927 -1.2766 -2.0162
12287TIP3   OH258275   4.600   1.411   2.259 -0.0892  0.2160 -0.2030
12287TIP3    H158276   4.516   1.456   2.253 -2.2678 -3.3457  0.1785
12287TIP3    H258277   4.592   1.357   2.338  1.6524 -1.8519 -1.3298
12288TIP3   OH258278   0.421   2.214  15.968  0.3302 -0.1754 -0.4218
12288TIP3    H158279   0.516   2.230  15.970  0.0243  1.8323 -0.6793
12288TIP3    H258280   0.409   2.143  16.031  1.8924  0.1938  0.3581
12289TIP3   OH258281   1.717   3.740   1.786 -0.0672 -0.7918 -0.2215
12289TIP3    H158282   1.717   3.832   1.761  0.0678 -1.0525 -1.2453
12289TIP3    H258283   1.624   3.717   1.791 -0.0982 -0.6706 -0.2265
12290TIP3   OH258284   5.641   5.424   4.440  0.1972 -0.4504 -0.5489
12290TIP3    H158285   5.663   5.408   4.532  0.2699  0.8319 -0.3266
12290TIP3    H258286   5.570   5.362   4.421 -0.2119 -0.3374  0.5504
12291TIP3   OH258287   4.154   4.760   2.426  0.2498 -0.3500 -0.2038
12291TIP3    H158288   4.102   4.694   2.381  0.1970 -0.0062 -0.6442
12291TIP3    H258289   4.181   4.717   2.508 -1.4333 -0.2422  0.4439
12292TIP3   OH258290   4.892   1.670   1.922 -0.1173 -0.0431  0.0291
12292TIP3    H158291   4.872   1.582   1.890  1.8937 -0.8891  0.9126
12292TIP3    H258292   4.885   1.727   1.845 -1.7538 -0.8881 -0.4906
12293TIP3   OH258293   1.616   3.866  11.233 -0.6755 -0.0582  0.2456
12293TIP3    H158294   1.581   3.778  11.227 -2.5534  0.6336  0.6169
12293TIP3    H258295   1.679   3.871  11.160 -1.7224 -1.1755 -0.7808
12294TIP3   OH258296   6.382   3.794  15.973 -0.1127  0.1381 -0.0259
12294TIP3    H158297   6.406   3.707  15.944 -0.8489 -0.2623  0.5163
12294TIP3    H258298   6.425   3.803  16.058  0.5435  0.5867 -0.4016
12295TIP3   OH258299   5.588   6.695  12.968  0.3279  0.3297  0.2278
12295TIP3    H158300   5.579   6.697  13.063 -0.9911  1.7528  0.1297
12295TIP3    H258301   5.664   6.751  12.950  1.7145 -1.4015  0.4944
12296TIP3   OH258302   2.644   4.762  15.834 -0.2017 -0.2557  0.5465
12296TIP3    H158303   2.729   4.797  15.860 -0.2139  0.6824 -0.6210
12296TIP3    H258304   2.599   4.745  15.917  0.6478  0.4226  1.1624
12297TIP3   OH258305   2.903   3.220  12.692 -0.2772 -0.2494 -0.1151
12297TIP3    H158306   2.900   3.289  12.758 -1.1842  0.0032 -0.4049
12297TIP3    H258307   2.932   3.142  12.740  0.6466  0.3031  0.2335
12298TIP3   OH258308   4.531   4.613   2.618  0.0653  0.3161  0.6384
12298TIP3    H158309   4.470   4.601   2.546  1.6038 -0.1510 -0.6639
12298TIP3    H258310   4.518   4.538   2.674  2.1578 -2.0853 -1.7802
12299TIP3   OH258311   1.827   4.375  14.710 -0.4494 -0.0752 -0.4184
12299TIP3    H158312   1.826   4.300  14.769 -0.6945 -1.2575 -1.8742
12299TIP3    H258313   1.846   4.338  14.624 -0.0514  1.6031 -1.0950
12300TIP3   OH258314   1.836   4.589   6.057  0.2759 -0.0634  0.3679
12300TIP3    H158315   1.895   4.647   6.009  0.0771  1.4983  1.9032
12300TIP3    H258316   1.893   4.523   6.097  0.8641  0.7300  0.8686
12301TIP3   OH258317   2.132   3.603   5.214  0.2268  0.7013 -0.2321
12301TIP3    H158318   2.189   3.604   5.137  0.5045 -0.2186 -0.0440
12301TIP3    H258319   2.090   3.517   5.212 -0.2617  0.9193  0.2915
12302TIP3   OH258320   3.230   1.913  11.509 -0.1805 -0.1714 -0.1564
12302TIP3    H158321   3.244   1.923  11.603  1.1909  1.0459 -0.4538
12302TIP3    H258322   3.197   1.823  11.499 -2.9365  0.4937  1.7014
12303TIP3   OH258323   4.581   2.770   4.291  0.4534  0.9875 -0.1676
12303TIP3    H158324   4.604   2.862   4.308  1.6803  0.4125  1.5105
12303TIP3    H258325   4.662   2.731   4.259  0.1105  0.3441 -0.2581
12304TIP3   OH258326   5.417   4.405  12.790  0.3173  0.1170  0.0719
12304TIP3    H158327   5.343   4.363  12.746  0.9216 -1.6489  0.6761
12304TIP3    H258328   5.448   4.471  12.727  0.9200 -2.0748 -2.0577
12305TIP3   OH258329   0.088   1.879  16.736  0.3153  0.7155 -0.2227
12305TIP3    H158330   0.107   1.790  16.766 -0.7476  0.8845  1.0728
12305TIP3    H258331   0.130   1.885  16.651  3.1565  0.0362  1.0111
12306TIP3   OH258332   2.035   0.402  11.447  0.5652 -0.1184 -0.3672
12306TIP3    H158333   2.087   0.332  11.408  0.4860 -0.8769  0.8450
12306TIP3    H258334   1.945   0.382  11.423  0.5095 -0.6226  0.2467
12307TIP3   OH258335   4.748   4.256   5.572  0.0621 -0.0084 -0.1846
12307TIP3    H158336   4.838   4.276   5.598  0.5778 -0.4050 -1.5937
12307TIP3    H258337   4.753   4.168   5.535 -1.1995 -0.6615  1.0830
12308TIP3   OH258338   2.334   3.186  11.726  0.7016  0.4501  0.0718
12308TIP3    H158339   2.257   3.138  11.755  0.7181 -1.2246 -2.3820
12308TIP3    H258340   2.333   3.267  11.778 -2.2314  0.1296  0.6874
12309TIP3   OH258341   0.869   4.666   4.627 -0.2203  0.2734 -0.2307
12309TIP3    H158342   0.811   4.721   4.575  0.5792 -0.2982 -1.8126
12309TIP3    H258343   0.932   4.631   4.563  0.5427 -0.8209  1.0631
12310TIP3   OH258344   1.346   6.480  17.175  0.3321 -0.7905 -0.2829
12310TIP3    H158345   1.358   6.390  17.205 -0.5345 -0.9544 -0.4027
12310TIP3    H258346   1.284   6.518  17.236  0.8411 -0.2012 -0.1135
12311TIP3   OH258347   0.498   2.969  17.364  0.1338 -0.1974  0.6057
12311TIP3    H158348   0.525   3.026  17.293  0.3002 -1.2098 -0.1720
12311TIP3    H258349   0.417   3.008  17.397 -0.1808  0.0584 -0.4284
12312TIP3   OH258350   6.739   6.311  11.186  0.5274  0.0257  0.0044
12312TIP3    H158351   6.696   6.363  11.118  0.3885 -0.9119 -0.6378
12312TIP3    H258352   6.779   6.376  11.244  1.7007  0.8329 -1.6476
12313TIP3   OH258353   2.233   5.950  17.300 -0.6128  1.1765 -0.1332
12313TIP3    H158354   2.243   5.966  17.206 -1.6102 -4.4164 -1.5656
12313TIP3    H258355   2.138   5.951  17.314 -0.6716 -0.9829 -0.0381
12314TIP3   OH258356   0.679   6.108  13.210 -0.1163  0.2369 -0.1390
12314TIP3    H158357   0.742   6.141  13.145 -1.0927  2.2341 -0.1379
12314TIP3    H258358   0.678   6.174  13.278  0.0761 -1.3127  1.4548
12315TIP3   OH258359   0.627   5.483   3.232  0.6734 -0.0128 -0.1049
12315TIP3    H158360   0.699   5.428   3.263  0.6260  0.6716  1.2761
12315TIP3    H258361   0.664   5.534   3.160  1.6911  0.6183  0.8480
12316TIP3   OH258362   1.588   2.488  12.228 -0.6541 -0.5545  0.2045
12316TIP3    H158363   1.509   2.465  12.179 -0.7731  0.7221 -0.2203
12316TIP3    H258364   1.563   2.564  12.281  0.4612  0.2882 -0.4354
12317TIP3   OH258365   1.394   1.059   3.240  0.3153  0.2075  0.2551
12317TIP3    H158366   1.311   1.038   3.197  1.0779  1.4360 -1.9728
12317TIP3    H258367   1.436   0.973   3.252  0.1059 -0.2192 -1.6445
12318TIP3   OH258368   6.315   5.339   0.163 -0.0511 -0.1607  0.2674
12318TIP3    H158369   6.405   5.329   0.133  0.6862 -0.7238  2.4501
12318TIP3    H258370   6.281   5.414   0.115  2.1962  1.1907  0.6853
12319TIP3   OH258371   4.794   2.987   0.798  0.6293  0.0418 -0.1781
12319TIP3    H158372   4.787   3.081   0.782 -1.4360 -0.1703 -0.7842
12319TIP3    H258373   4.709   2.962   0.833  1.5940 -1.3969  1.3026
12320TIP3   OH258374   1.440   2.522   2.967  0.2066 -0.0768 -0.5649
12320TIP3    H158375   1.368   2.504   3.028 -0.4709  1.0438 -1.0000
12320TIP3    H258376   1.412   2.485   2.884  0.1644  0.2995 -0.7189
12321TIP3   OH258377   4.100   3.353   4.461  0.5895 -0.0473 -0.0356
12321TIP3    H158378   4.096   3.271   4.510 -0.1348 -0.6779 -1.0998
12321TIP3    H258379   4.033   3.409   4.502  0.6830 -0.1969  0.3257
12322TIP3   OH258380   2.619   3.073   0.902 -0.2686 -0.7685  0.2736
12322TIP3    H158381   2.670   3.121   0.966  0.1149 -0.0986 -0.5204
12322TIP3    H258382   2.676   3.002   0.873  0.1128 -0.1996 -0.3918
12323TIP3   OH258383   5.150   2.518   3.774  0.7076  0.1504 -0.3149
12323TIP3    H158384   5.219   2.562   3.824  2.4593 -1.9119 -0.7539
12323TIP3    H258385   5.112   2.455   3.835  0.4081  0.0637 -0.5863
12324TIP3   OH258386   5.476   1.346   1.334 -0.0411 -0.1368  0.0649
12324TIP3    H158387   5.571   1.355   1.345  0.1980 -2.7377  0.7984
12324TIP3    H258388   5.450   1.285   1.403 -2.0577 -0.4367 -0.9037
12325TIP3   OH258389   0.542   4.455  14.545 -0.3771  0.2386 -0.0752
12325TIP3    H158390   0.553   4.550  14.551  1.6474 -0.0279  1.0023
12325TIP3    H258391   0.551   4.424  14.635  0.2995 -1.0935 -0.5779
12326TIP3   OH258392   1.145   3.964  10.970  0.0744  0.0477 -0.2587
12326TIP3    H158393   1.215   3.949  10.906  0.5139 -1.7368  0.5677
12326TIP3    H258394   1.177   4.038  11.023  0.2817  0.7068 -1.2661
12327TIP3   OH258395   1.452   3.767   1.868 -0.0678  0.6011  0.3792
12327TIP3    H158396   1.422   3.698   1.928 -0.7750  0.1100 -0.5249
12327TIP3    H258397   1.376   3.787   1.814  0.8230  0.3444 -1.0175
12328TIP3   OH258398   3.264   1.440  12.403 -0.7000 -0.1990 -1.0765
12328TIP3    H158399   3.272   1.347  12.385  1.0670 -0.2546 -0.2518
12328TIP3    H258400   3.276   1.447  12.498  0.7473  0.9782 -1.3137
12329TIP3   OH258401   0.121   5.027  15.792 -0.4852 -0.7581  0.5195
12329TIP3    H158402   0.098   5.119  15.782  0.5904 -0.5100  0.2163
12329TIP3    H258403   0.181   5.025  15.867 -1.6311 -1.4283  1.4679
12330TIP3   OH258404   6.146   2.546  13.640  0.0856  0.7578 -0.2398
12330TIP3    H158405   6.068   2.497  13.615  0.3786 -0.2303  0.7424
12330TIP3    H258406   6.218   2.484  13.630  0.5836  1.2619  0.1526
12331TIP3   OH258407   0.726   0.171  14.708  0.0397 -0.0971  0.1970
12331TIP3    H158408   0.785   0.203  14.777 -0.1667 -1.0697  0.8407
12331TIP3    H258409   0.683   0.250  14.675 -0.1293  0.3470  1.4433
12332TIP3   OH258410   5.133   1.001   5.253  0.4090  0.1621  0.4941
12332TIP3    H158411   5.186   0.921   5.263 -0.8795 -0.6412  1.1410
12332TIP3    H258412   5.102   1.019   5.342  0.8125  1.5050  0.3857
12333TIP3   OH258413   5.172   5.794   3.402  0.2925  0.7833  0.2936
12333TIP3    H158414   5.173   5.705   3.368 -0.3032  1.0637 -0.4925
12333TIP3    H258415   5.256   5.804   3.448  0.0114 -0.4443  1.1109
12334TIP3   OH258416   2.614   3.535  13.489  0.0620 -0.0404  0.0823
12334TIP3    H158417   2.532   3.573  13.458  1.0940  0.7713 -1.8226
12334TIP3    H258418   2.593   3.444  13.507 -1.4455  0.3528  0.4724
12335TIP3   OH258419   6.481   5.569  16.467  0.4027  1.1717  0.1551
12335TIP3    H158420   6.468   5.663  16.449  1.1011  1.7050  2.1803
12335TIP3    H258421   6.576   5.557  16.462  0.2277  0.2112 -1.5149
12336TIP3   OH258422   5.606   6.754   2.232 -0.4207 -0.1233  0.1106
12336TIP3    H158423   5.574   6.779   2.319  0.5721  0.8740  0.1953
12336TIP3    H258424   5.697   6.728   2.246 -0.4027 -0.4501 -0.5561
12337TIP3   OH258425   2.873   5.940   5.933 -0.3506 -0.2353  0.0162
12337TIP3    H158426   2.960   5.902   5.921  0.2017  0.9323  0.3056
12337TIP3    H258427   2.888   6.028   5.966 -1.6973 -0.9573  2.8553
12338TIP3   OH258428   0.734   2.877   3.071 -0.2502 -0.5215  0.2123
12338TIP3    H158429   0.650   2.898   3.030 -0.5659 -1.2220  0.4815
12338TIP3    H258430   0.711   2.831   3.152  0.3861 -0.3917  0.4743
12339TIP3   OH258431   0.948   2.929   0.339 -0.2664  0.1461  0.4661
12339TIP3    H158432   0.903   2.893   0.416  0.4391  1.9044  1.7755
12339TIP3    H258433   0.959   3.022   0.359  2.6063  0.1000 -0.4289
12340TIP3   OH258434   2.667   0.853   2.584  0.2122 -0.2965  0.8369
12340TIP3    H158435   2.620   0.800   2.648 -0.6553 -0.9749 -0.3103
12340TIP3    H258436   2.757   0.857   2.616  0.2472 -2.3072  1.0780
12341TIP3   OH258437   1.096   3.325  13.799  0.2673 -0.7984  0.5183
12341TIP3    H158438   1.015   3.375  13.789 -0.2504 -1.9615 -1.4652
12341TIP3    H258439   1.162   3.391  13.819 -1.2515  0.0867  3.1663
12342TIP3   OH258440   2.371   1.231   5.902 -0.0414  0.1501 -0.2927
12342TIP3    H158441   2.416   1.276   5.973 -1.2772 -1.8533  1.9144
12342TIP3    H258442   2.401   1.140   5.908 -2.0813 -0.6078 -0.5993
12343TIP3   OH258443   6.709   2.421  15.407 -0.1069 -0.4708  0.2456
12343TIP3    H158444   6.786   2.438  15.461 -0.0720 -0.9536  0.3484
12343TIP3    H258445   6.710   2.327  15.393 -0.7085 -0.4806  0.2789
12344TIP3   OH258446   5.261   4.811  12.883  0.3169  0.0329 -0.0214
12344TIP3    H158447   5.224   4.897  12.900  1.8661  1.2105 -2.1199
12344TIP3    H258448   5.285   4.777  12.969 -0.0529  1.8250  0.8307
12345TIP3   OH258449   3.789   2.109   1.500 -0.3383  0.3692  0.5559
12345TIP3    H158450   3.724   2.178   1.485  0.7830  1.1955 -0.8327
12345TIP3    H258451   3.860   2.153   1.548 -0.5423 -0.3904  1.5991
12346TIP3   OH258452   6.543   1.413   3.337 -0.3653 -0.1779  0.3677
12346TIP3    H158453   6.608   1.394   3.404 -0.8837 -1.7783  0.4797
12346TIP3    H258454   6.505   1.327   3.316 -2.4851  0.6923  0.3724
12347TIP3   OH258455   3.662   3.212   0.130  0.1043  0.1162 -0.3861
12347TIP3    H158456   3.683   3.183   0.041 -2.2081  1.9368 -1.6208
12347TIP3    H258457   3.615   3.138   0.168  0.6188 -0.4734 -0.8742
12348TIP3   OH258458   3.058   5.614   4.783  0.4855  0.4170 -0.4803
12348TIP3    H158459   3.136   5.630   4.835  2.0569 -1.6638 -2.0066
12348TIP3    H258460   2.992   5.584   4.847  1.6490  0.0392  0.5769
12349TIP3   OH258461   3.278   6.358  15.718  0.0202 -0.3276  0.3113
12349TIP3    H158462   3.307   6.268  15.702  1.6483 -0.2203  2.3226
12349TIP3    H258463   3.309   6.406  15.642  0.4712 -1.1986 -0.0765
12350TIP3   OH258464   2.415   5.874  15.678 -0.1960 -0.6304  0.6206
12350TIP3    H158465   2.326   5.849  15.703  0.0596 -2.9044 -0.4923
12350TIP3    H258466   2.466   5.866  15.758 -0.5690 -1.6067  0.7710
12351TIP3   OH258467   2.390   4.585   5.550 -0.1136  0.1332 -0.7948
12351TIP3    H158468   2.395   4.679   5.569 -1.5790  0.1403 -0.3660
12351TIP3    H258469   2.377   4.581   5.455  2.4597  0.2379 -1.2403
12352TIP3   OH258470   6.647   0.211  15.026  0.4991  0.1384 -0.3384
12352TIP3    H158471   6.674   0.241  15.113 -1.7228 -0.3764  0.5865
12352TIP3    H258472   6.578   0.272  15.001 -1.8695 -2.1784  0.1775
12353TIP3   OH258473   1.458   2.446   0.027 -0.3738  0.0416  0.0296
12353TIP3    H158474   1.446   2.352   0.043  1.1587  0.1139  1.8135
12353TIP3    H258475   1.440   2.487   0.111 -0.6873  1.3487 -0.6530
12354TIP3   OH258476   1.435   6.041   3.927  0.1343 -0.5934 -0.1915
12354TIP3    H158477   1.450   5.972   3.992  0.2999  0.4226  0.8850
12354TIP3    H258478   1.522   6.064   3.895  0.1942 -0.1012  0.3042
12355TIP3   OH258479   2.898   6.729   1.648 -0.1835 -0.0192  0.0732
12355TIP3    H158480   2.847   6.709   1.726 -2.1246 -1.2264 -1.4028
12355TIP3    H258481   2.947   6.808   1.670 -0.4414 -0.4750  2.5604
12356TIP3   OH258482   1.744   3.736  14.186  0.0365 -0.3701  0.0946
12356TIP3    H158483   1.781   3.648  14.184  1.0757  0.0573 -0.1578
12356TIP3    H258484   1.820   3.794  14.176 -0.3280  0.6335  2.4077
12357TIP3   OH258485   1.937   4.921   2.068  0.5847  0.5458  0.2792
12357TIP3    H158486   1.853   4.912   2.112 -0.5039 -0.9628 -1.9650
12357TIP3    H258487   1.993   4.965   2.133 -1.6122  0.7271  2.1762
12358TIP3   OH258488   2.727   2.860   1.408 -0.5608  0.1377  0.2068
12358TIP3    H158489   2.686   2.885   1.325  0.3982 -1.1089 -0.6827
12358TIP3    H258490   2.820   2.852   1.387 -0.3698 -0.6901  1.2892
12359TIP3   OH258491   1.848   2.438   2.539  0.4406  0.3326  0.0563
12359TIP3    H158492   1.772   2.382   2.553  1.7782 -1.4489  0.6400
12359TIP3    H258493   1.821   2.499   2.470 -0.7879 -1.6877 -1.3643
12360TIP3   OH258494   1.319   6.183  11.920 -0.3218 -0.2367  0.0872
12360TIP3    H158495   1.361   6.229  11.993 -0.5633  0.2421 -0.0754
12360TIP3    H258496   1.272   6.251  11.872  3.1038  0.2767 -2.9450
12361TIP3   OH258497   0.565   1.659  15.394  0.1035 -0.0364 -0.7225
12361TIP3    H158498   0.585   1.744  15.353  3.3900 -0.8388 -1.1204
12361TIP3    H258499   0.598   1.595  15.331  0.5079 -1.4923  0.8998
12362TIP3   OH258500   5.385   0.349  16.197 -0.1450 -0.2808  0.4035
12362TIP3    H158501   5.316   0.415  16.186 -0.0360 -0.2111  0.1388
12362TIP3    H258502   5.347   0.284  16.256 -0.5067 -0.3360  0.1110
12363TIP3   OH258503   0.716   2.536   4.809 -0.4291 -0.4360  0.0132
12363TIP3    H158504   0.670   2.498   4.884  0.4575 -0.1051  0.7478
12363TIP3    H258505   0.787   2.587   4.848 -0.7441  0.8338 -1.0090
12364TIP3   OH258506   0.702   4.003   5.666  0.4228  0.2294  0.0529
12364TIP3    H158507   0.627   4.013   5.607 -3.0496 -1.6430  3.6367
12364TIP3    H258508   0.695   3.914   5.698  3.3618  0.4815  1.7350
12365TIP3   OH258509   5.468   4.833   4.472  0.0968  0.9943 -0.2839
12365TIP3    H158510   5.400   4.874   4.526 -0.5419 -0.3757 -0.0167
12365TIP3    H258511   5.427   4.823   4.386 -0.3164 -0.4925  0.0689
12366TIP3   OH258512   4.130   4.274   1.825 -0.4002  0.3517  0.3984
12366TIP3    H158513   4.114   4.329   1.748 -1.1736 -1.7429 -1.0034
12366TIP3    H258514   4.224   4.257   1.823 -0.5395 -0.3961 -0.6180
12367TIP3   OH258515   4.846   6.183   3.816  0.0523  0.1566  0.4410
12367TIP3    H158516   4.848   6.126   3.739  1.2534 -1.7761  1.8326
12367TIP3    H258517   4.784   6.141   3.875  1.2635  0.0219  1.6590
12368TIP3   OH258518   1.165   3.921  15.954  0.7575 -0.3843 -0.4923
12368TIP3    H158519   1.176   3.963  16.039  0.7218 -0.6621 -0.3481
12368TIP3    H258520   1.171   3.827  15.972 -0.9650 -0.5342 -0.5242
12369TIP3   OH258521   0.392   5.568  13.072  0.2575  0.2957  0.1198
12369TIP3    H158522   0.309   5.601  13.105  0.5039 -0.6448  1.8439
12369TIP3    H258523   0.398   5.479  13.108  0.5877 -0.8543 -2.5502
12370TIP3   OH258524   5.249   5.698  11.528  0.1542  0.3275 -0.1694
12370TIP3    H158525   5.196   5.772  11.556  1.4465  1.0827  0.3435
12370TIP3    H258526   5.298   5.672  11.606  0.3017 -0.5821 -0.5437
12371TIP3   OH258527   5.832   2.352   2.994  0.2253 -0.4271  0.2735
12371TIP3    H158528   5.808   2.338   3.086 -0.7603  0.0137  0.1034
12371TIP3    H258529   5.782   2.430   2.968  0.9913 -0.1632 -0.4557
12372TIP3   OH258530   2.684   4.085   2.993  0.0692  0.0978 -0.3265
12372TIP3    H158531   2.662   4.096   3.086  1.6589 -0.7621  0.1840
12372TIP3    H258532   2.774   4.052   2.993 -0.4537 -1.4980 -2.1296
12373TIP3   OH258533   0.415   2.624  10.431  0.9070 -0.2256 -0.1039
12373TIP3    H158534   0.509   2.631  10.414  0.8676  0.6398  0.0068
12373TIP3    H258535   0.374   2.671  10.359  0.5478 -0.7124 -0.2213
12374TIP3   OH258536   1.410   2.603   2.130  0.3629  0.2770 -0.0054
12374TIP3    H158537   1.352   2.537   2.092 -0.2591 -0.3149  1.8736
12374TIP3    H258538   1.495   2.559   2.136  0.5440  0.4790 -0.9489
12375TIP3   OH258539   4.944   2.646   6.202  0.5257 -0.4093  0.8350
12375TIP3    H158540   4.934   2.578   6.268 -0.4973 -1.0874  0.0131
12375TIP3    H258541   4.865   2.638   6.147  2.2269 -1.2264 -1.6834
12376TIP3   OH258542   1.521   1.236   6.083  0.0855  0.1163 -0.0201
12376TIP3    H158543   1.586   1.235   6.153  0.3617 -0.4591 -0.2779
12376TIP3    H258544   1.528   1.323   6.044  0.7905  0.0108 -0.1284
12377TIP3   OH258545   6.049   1.474  13.411 -0.2297  0.3793  0.2989
12377TIP3    H158546   6.039   1.439  13.499  0.0623  1.5074  0.8043
12377TIP3    H258547   6.125   1.428  13.375  0.9195  1.3292  1.4083
12378TIP3   OH258548   2.288   4.254   2.351  0.2037  0.6387  0.1755
12378TIP3    H158549   2.257   4.164   2.341  2.2270 -0.3789  2.0350
12378TIP3    H258550   2.377   4.253   2.316  0.5540  1.6996  0.9773
12379TIP3   OH258551   3.457   5.143  14.718  0.5463  0.0524  0.1154
12379TIP3    H158552   3.465   5.234  14.746  0.1793  0.0967  0.0827
12379TIP3    H258553   3.492   5.093  14.792 -0.8694  0.1495  0.8936
12380TIP3   OH258554   2.286   6.195  10.780 -0.1277  0.0683 -0.0372
12380TIP3    H158555   2.270   6.201  10.686 -2.1848 -0.6539  0.2137
12380TIP3    H258556   2.376   6.165  10.788 -0.5747 -1.9687 -1.8535
12381TIP3   OH258557   3.153   6.513   4.731 -0.0761  0.1345  0.1650
12381TIP3    H158558   3.248   6.516   4.740 -0.1526 -0.5037  1.3031
12381TIP3    H258559   3.121   6.581   4.791 -0.3697 -0.2517  0.4498
12382TIP3   OH258560   0.085   3.341   0.046  0.6691 -0.7367  0.5181
12382TIP3    H158561   0.063   3.338   0.139 -0.2223  0.2370  0.3554
12382TIP3    H258562   0.127   3.257   0.029  1.4972 -0.6435  1.9459
12383TIP3   OH258563   6.425   3.576   1.062  0.1020  0.5219 -0.0143
12383TIP3    H158564   6.432   3.540   0.973  1.3694  3.6925 -1.3227
12383TIP3    H258565   6.460   3.506   1.118  0.7595 -0.9763 -2.1487
12384TIP3   OH258566   2.236   4.574  17.344  0.3377  0.1228 -0.1351
12384TIP3    H158567   2.245   4.491  17.298 -0.8938  0.1784 -0.5044
12384TIP3    H258568   2.303   4.571  17.413 -0.3727 -1.6398  0.5461
12385TIP3   OH258569   2.749   0.627  14.546  0.3293 -0.4652  0.2232
12385TIP3    H158570   2.724   0.562  14.611  1.7678 -0.9997  0.2566
12385TIP3    H258571   2.722   0.589  14.462  0.8616 -0.9556  0.2729
12386TIP3   OH258572   5.238   4.134  11.657 -0.7883 -0.8326  0.3996
12386TIP3    H158573   5.316   4.184  11.681 -0.0731 -0.5701 -2.2154
12386TIP3    H258574   5.248   4.051  11.704  1.7003 -1.2546 -0.7395
12387TIP3   OH258575   5.824   3.431  15.480  0.4841 -0.3527 -0.2879
12387TIP3    H158576   5.874   3.435  15.562 -1.0781 -2.3015  0.8662
12387TIP3    H258577   5.786   3.518  15.470  1.5614  0.2212  0.4793
12388TIP3   OH258578   2.196   4.388  14.085  0.2683  0.2127  0.0332
12388TIP3    H158579   2.250   4.319  14.048 -0.7828 -0.5581 -0.1126
12388TIP3    H258580   2.180   4.361  14.176 -1.7764 -0.8154 -0.5613
12389TIP3   OH258581   1.143   1.498  16.838  0.1218 -0.6957  0.1487
12389TIP3    H158582   1.238   1.488  16.831  0.2466  0.3391  0.1908
12389TIP3    H258583   1.111   1.481  16.749  0.6221  1.5004 -0.4996
12390TIP3   OH258584   2.393   1.320   2.164 -0.4730  0.2945 -0.2932
12390TIP3    H158585   2.467   1.373   2.194 -0.2158 -0.6658  0.8244
12390TIP3    H258586   2.432   1.238   2.136 -1.1009 -0.1892  0.2206
12391TIP3   OH258587   6.229   3.388   6.162 -0.0838  0.1477 -0.5964
12391TIP3    H158588   6.298   3.340   6.207 -0.2824  1.2655  1.0056
12391TIP3    H258589   6.149   3.366   6.211 -0.1814  2.0277  0.1768
12392TIP3   OH258590   6.253   3.164  10.990  0.2638 -0.0864  0.0485
12392TIP3    H158591   6.181   3.169  10.927  0.2674 -3.0701 -0.3274
12392TIP3    H258592   6.331   3.152  10.936  0.5298 -0.6265  0.5419
12393TIP3   OH258593   4.423   0.337   1.463  0.3646  0.4509 -0.1579
12393TIP3    H158594   4.400   0.331   1.370 -3.4350  2.9645  0.3950
12393TIP3    H258595   4.502   0.391   1.465  0.2378  0.7606 -1.8908
12394TIP3   OH258596   2.392   3.332  12.422  0.5025  0.0701  0.0571
12394TIP3    H158597   2.424   3.269  12.357  1.3638 -0.3622  0.8779
12394TIP3    H258598   2.380   3.280  12.501 -3.1723 -0.0037 -0.3965
12395TIP3   OH258599   3.959   0.539   3.839 -0.5922 -0.1693 -0.1981
12395TIP3    H158600   3.982   0.535   3.932 -2.9178  2.9223  0.6548
12395TIP3    H258601   4.000   0.619   3.808 -0.3667 -0.8474 -1.7220
12396TIP3   OH258602   1.183   3.153  14.775 -0.0686  0.3977  0.4263
12396TIP3    H158603   1.109   3.097  14.799  0.7323 -1.2067 -0.6708
12396TIP3    H258604   1.259   3.110  14.811  0.4042  1.8527  1.2354
12397TIP3   OH258605   6.144   1.795   3.580  0.0285  0.5462 -0.2141
12397TIP3    H158606   6.226   1.746   3.582 -1.0246 -1.3182 -0.6428
12397TIP3    H258607   6.170   1.884   3.554  1.9470  0.1535  0.1723
12398TIP3   OH258608   4.381   4.850   2.699  0.3224  0.1364  0.2107
12398TIP3    H158609   4.416   4.825   2.785 -0.0294 -1.0283  0.0383
12398TIP3    H258610   4.322   4.778   2.676  0.7197  0.2373 -1.1894
12399TIP3   OH258611   6.435   6.276  15.752 -0.3220  0.2299  0.7948
12399TIP3    H158612   6.363   6.254  15.694  0.9701  0.6199 -1.0431
12399TIP3    H258613   6.490   6.197  15.753  0.7003  0.9037 -0.1659
12400TIP3   OH258614   1.309   4.785   2.778 -0.1548 -0.3503  0.3527
12400TIP3    H158615   1.325   4.698   2.741 -0.4822 -0.0389 -0.5356
12400TIP3    H258616   1.378   4.840   2.740 -1.0456  0.1736 -0.5349
12401TIP3   OH258617   3.393   1.562   4.434  0.2057  0.0701  0.3430
12401TIP3    H158618   3.444   1.630   4.477  0.5829  0.1452 -0.2026
12401TIP3    H258619   3.439   1.547   4.351 -1.0917  0.6998 -0.5196
12402TIP3   OH258620   3.347   4.472   3.274 -0.1172 -0.0834  0.1233
12402TIP3    H158621   3.379   4.449   3.361 -0.4101 -1.1878 -0.0424
12402TIP3    H258622   3.404   4.543   3.245  1.4990 -1.2631  0.2719
12403TIP3   OH258623   4.423   4.617   2.253 -0.4696  0.5526  0.6324
12403TIP3    H158624   4.395   4.579   2.170 -0.8857  0.1188  0.9672
12403TIP3    H258625   4.519   4.614   2.249 -0.4930 -0.4848  0.6230
12404TIP3   OH258626   6.058   0.296   1.843 -0.5727 -0.0873  0.0231
12404TIP3    H158627   5.967   0.268   1.848 -0.6067  0.2084  1.6496
12404TIP3    H258628   6.074   0.340   1.927  0.6442  1.1645 -0.8245
12405TIP3   OH258629   0.502   2.770   1.437 -0.3667  0.4981 -0.6202
12405TIP3    H158630   0.476   2.680   1.415 -1.1538  1.0693 -2.1415
12405TIP3    H258631   0.445   2.796   1.509  0.5703 -0.5477  0.5607
12406TIP3   OH258632   0.063   3.674   0.967  0.0203  0.1148 -0.4179
12406TIP3    H158633   0.096   3.593   1.005  0.7436 -0.1157 -1.5365
12406TIP3    H258634   0.026   3.721   1.042  0.6908 -0.6927  0.4406
12407TIP3   OH258635   0.949   5.028  17.060  0.0722  0.4161  0.1324
12407TIP3    H158636   0.928   4.935  17.051  2.0592  0.0312 -1.2329
12407TIP3    H258637   0.943   5.045  17.154 -2.9442 -0.3602  0.1746
12408TIP3   OH258638   0.615   5.864  11.928  0.5291 -0.1182  0.0739
12408TIP3    H158639   0.659   5.827  12.005 -0.9580  1.2101  1.6691
12408TIP3    H258640   0.588   5.952  11.956 -2.5016 -0.5858 -0.9467
12409TIP3   OH258641   3.635   1.183   2.194 -0.0614  0.2791 -0.0135
12409TIP3    H158642   3.697   1.251   2.167 -0.9863  0.8158 -0.8833
12409TIP3    H258643   3.619   1.201   2.286  0.1631  0.8768 -0.0840
12410TIP3   OH258644   1.101   2.946   4.671  0.3912 -0.3158  0.0932
12410TIP3    H158645   1.183   2.911   4.638  1.9861  1.5791  1.7147
12410TIP3    H258646   1.097   3.035   4.636  0.2846  0.4446  1.9224
12411TIP3   OH258647   1.510   5.689   1.456 -0.1232  0.0859 -0.3369
12411TIP3    H158648   1.540   5.780   1.467  1.4130 -0.4193 -0.0650
12411TIP3    H258649   1.462   5.690   1.374 -2.1886  1.6160  0.8086
12412TIP3   OH258650   5.957   5.712  10.975  0.1625  0.3151  0.1329
12412TIP3    H158651   6.053   5.709  10.980  0.2004  1.3690  0.2029
12412TIP3    H258652   5.931   5.621  10.958  1.1846  0.0479 -0.0601
12413TIP3   OH258653   1.433   5.211   1.925 -0.0086 -0.1433 -0.1298
12413TIP3    H158654   1.447   5.267   1.849  2.8690 -1.2362 -0.5169
12413TIP3    H258655   1.431   5.271   2.000 -2.2796  0.8831 -0.8914
12414TIP3   OH258656   2.651   0.036   4.490  0.1320  0.3956 -0.5305
12414TIP3    H158657   2.681   0.018   4.579  0.0011  0.9473 -0.3729
12414TIP3    H258658   2.590  -0.034   4.471 -0.7368  0.9133  0.2556
12415TIP3   OH258659   0.170   5.938  13.840  0.2834 -0.2287  0.1984
12415TIP3    H158660   0.087   5.906  13.803  0.5971  0.0731 -0.7931
12415TIP3    H258661   0.201   5.866  13.896 -0.9143 -0.1254  1.0394
12416TIP3   OH258662   3.669   6.337  13.245 -0.3087  0.3519 -0.3774
12416TIP3    H158663   3.604   6.296  13.302  1.1180 -2.9670 -0.9146
12416TIP3    H258664   3.734   6.374  13.305 -1.0944  0.9514  0.1224
12417TIP3   OH258665   6.368   2.325  14.784  0.1112 -0.3733 -0.5234
12417TIP3    H158666   6.462   2.339  14.782  0.2976 -1.2348  0.7845
12417TIP3    H258667   6.344   2.306  14.694  1.3253 -0.9262 -0.7479
12418TIP3   OH258668   0.676   4.315  11.534  0.1275 -0.2096 -0.1542
12418TIP3    H158669   0.749   4.283  11.481  0.2491 -2.1346  1.0933
12418TIP3    H258670   0.708   4.397  11.573  1.2644 -0.5319 -0.3812
12419TIP3   OH258671   1.863   2.328  14.527  0.3038  0.3619 -0.4753
12419TIP3    H158672   1.788   2.304  14.581  0.4427  0.7928 -0.0818
12419TIP3    H258673   1.866   2.261  14.459 -1.2795  1.0726 -1.3132
12420TIP3   OH258674   6.132   2.304  17.268 -0.4804 -0.0457 -0.2913
12420TIP3    H158675   6.108   2.270  17.182  0.5277  1.2148 -1.1084
12420TIP3    H258676   6.219   2.268  17.284 -0.9756 -0.9089  0.5897
12421TIP3   OH258677   2.884   4.968  15.227  0.8279  0.4372  0.3401
12421TIP3    H158678   2.795   4.950  15.197  1.5207 -0.4984 -1.2714
12421TIP3    H258679   2.873   5.036  15.294 -0.9808  1.3838 -0.8183
12422TIP3   OH258680   3.812   1.263  12.764 -0.6762 -0.0314  0.1716
12422TIP3    H158681   3.813   1.175  12.801  0.5944 -0.6211 -1.1868
12422TIP3    H258682   3.739   1.262  12.702 -2.2371  0.6848  1.8939
12423TIP3   OH258683   3.344   0.944  12.863 -0.1660  0.1149 -0.2914
12423TIP3    H158684   3.418   0.995  12.896 -1.0550  1.8396 -0.8764
12423TIP3    H258685   3.377   0.854  12.861  0.9404  0.3542  2.2754
12424TIP3   OH258686   6.575   0.598   5.242 -0.2381 -0.8639 -0.4847
12424TIP3    H158687   6.505   0.538   5.218  0.5317 -1.4737 -1.2746
12424TIP3    H258688   6.607   0.632   5.158 -1.2771  1.4064 -0.0367
12425TIP3   OH258689   0.261   6.421   2.408  0.6812 -0.5720  0.2356
12425TIP3    H158690   0.219   6.357   2.466 -0.4981 -0.3993 -0.3973
12425TIP3    H258691   0.254   6.504   2.454 -0.3073 -0.4248 -0.1416
12426TIP3   OH258692   4.362   3.274   3.464  0.0481  0.3993 -0.4172
12426TIP3    H158693   4.370   3.368   3.449  0.1475  0.4224 -0.2087
12426TIP3    H258694   4.427   3.235   3.406  2.5065  0.6242  2.0096
12427TIP3   OH258695   1.954   0.920  12.163  0.6953 -0.4244  0.1999
12427TIP3    H158696   1.925   0.993  12.217  0.9833  0.4768 -0.8270
12427TIP3    H258697   2.003   0.863  12.223 -0.0038 -0.0693  1.1263
12428TIP3   OH258698   2.891   2.741  16.973 -0.3848  0.3098 -0.2869
12428TIP3    H158699   2.852   2.706  17.053 -0.0767 -2.8586 -1.3676
12428TIP3    H258700   2.983   2.714  16.977  0.4657  2.9932 -0.2574
12429TIP3   OH258701   3.103   5.733  16.265  0.4812  0.2312  0.1697
12429TIP3    H158702   3.108   5.748  16.171  2.7900  2.1057  0.4792
12429TIP3    H258703   3.110   5.638  16.275 -1.2881 -0.1289 -1.5568
12430TIP3   OH258704   4.189   6.514   5.276 -0.5168 -0.1918  0.0491
12430TIP3    H158705   4.261   6.452   5.279 -1.1490 -1.0312 -1.0615
12430TIP3    H258706   4.111   6.462   5.295 -0.9175  0.5447  0.4857
12431TIP3   OH258707   2.283   1.156  16.241 -0.2044  0.0327  0.7469
12431TIP3    H158708   2.241   1.236  16.271 -0.3204 -0.1297  1.0192
12431TIP3    H258709   2.277   1.160  16.145 -1.5939 -0.3767  0.7855
12432TIP3   OH258710   6.075   0.949  12.582 -0.4783  0.3592  0.0370
12432TIP3    H158711   6.131   1.013  12.626  0.8204 -0.7693  0.0881
12432TIP3    H258712   6.086   0.968  12.489 -0.6477  0.6492  0.0746
12433TIP3   OH258713   5.375   6.380  16.060  0.0048  0.5616  0.7421
12433TIP3    H158714   5.286   6.369  16.027  0.5685 -0.4853 -0.5182
12433TIP3    H258715   5.374   6.467  16.101 -1.6449  0.4721  0.9793
12434TIP3   OH258716   3.863   4.916   4.154  0.1745 -0.2659  0.5486
12434TIP3    H158717   3.911   4.863   4.091  1.5983  2.0137 -0.4316
12434TIP3    H258718   3.925   4.931   4.225  0.9629  2.4312 -0.5767
12435TIP3   OH258719   2.731   1.076   0.041 -0.1927  0.0673 -0.1991
12435TIP3    H158720   2.688   1.060   0.124  1.5307  0.4159  0.8238
12435TIP3    H258721   2.790   1.002   0.030  1.1821  1.0721  0.0261
12436TIP3   OH258722   4.649   4.632  10.992 -0.0490  0.6462  0.1987
12436TIP3    H158723   4.634   4.539  11.012  0.4606  0.6443  0.6027
12436TIP3    H258724   4.674   4.670  11.076  0.4697  0.9998 -0.1114
12437TIP3   OH258725   2.248   5.909  14.622 -0.8583  0.1896 -0.2028
12437TIP3    H158726   2.207   5.979  14.571 -0.8470 -0.1186 -0.6492
12437TIP3    H258727   2.186   5.890  14.692  0.0186  1.9941  1.1270
12438TIP3   OH258728   1.982   0.763   4.923  0.5873 -0.2613 -0.3037
12438TIP3    H158729   2.048   0.716   4.872  0.1217 -0.2727 -0.9048
12438TIP3    H258730   1.954   0.700   4.990 -0.7796 -1.2465 -1.7329
12439TIP3   OH258731   4.906   3.014  12.866  0.3748 -0.2418 -0.3431
12439TIP3    H158732   4.871   2.927  12.884  0.8805 -0.2894  0.4824
12439TIP3    H258733   4.989   2.998  12.820 -1.2460 -0.1118 -3.5637
12440TIP3   OH258734   5.313   2.269  13.446 -0.3650 -0.1496 -0.1503
12440TIP3    H158735   5.276   2.185  13.475 -1.3900  0.3670  0.0870
12440TIP3    H258736   5.264   2.335  13.496  0.8366  0.5728  0.1090
12441TIP3   OH258737   4.572   1.561   6.266  0.2457 -0.0898 -0.3570
12441TIP3    H158738   4.600   1.471   6.276  1.4046  0.2915 -0.0372
12441TIP3    H258739   4.569   1.596   6.356  1.1014  0.5591 -0.5717
12442TIP3   OH258740   6.112   6.398  12.525 -0.0775  0.2076  0.4791
12442TIP3    H158741   6.045   6.423  12.588  0.1259  0.6799  0.5145
12442TIP3    H258742   6.131   6.479  12.477  0.0490 -0.0552  0.0771
12443TIP3   OH258743   0.145   3.503  13.559 -0.1300 -0.1980  0.2830
12443TIP3    H158744   0.078   3.542  13.615 -0.9835 -1.7716  0.4331
12443TIP3    H258745   0.165   3.570  13.494 -0.4144  1.0194  1.4079
12444TIP3   OH258746   0.468   0.233   1.588  0.0020  0.2482 -0.4058
12444TIP3    H158747   0.375   0.211   1.587 -0.1989  0.8627 -2.8996
12444TIP3    H258748   0.512   0.150   1.603 -0.9239  0.0429  1.4326
12445TIP3   OH258749   1.892   3.518  14.193  0.2557 -0.4675  0.4103
12445TIP3    H158750   1.875   3.449  14.257  1.0457 -1.4102 -0.3489
12445TIP3    H258751   1.976   3.554  14.219  1.0029 -1.4360 -0.5364
12446TIP3   OH258752   6.354   6.152   5.541 -0.0476 -0.2536  0.7852
12446TIP3    H158753   6.319   6.218   5.482  0.0188  0.1069  1.1387
12446TIP3    H258754   6.366   6.074   5.487  1.7854  0.5948 -0.1322
12447TIP3   OH258755   1.474   0.153   3.467 -0.2622 -0.2845  0.0587
12447TIP3    H158756   1.486   0.122   3.377 -1.1982 -0.6700  0.0585
12447TIP3    H258757   1.401   0.101   3.501 -1.6515  1.6323  0.1910
12448TIP3   OH258758   4.017   2.046   2.646 -0.1870 -0.1350  0.5602
12448TIP3    H158759   4.010   2.009   2.558 -0.3392 -1.4248  1.0905
12448TIP3    H258760   3.947   2.004   2.695  1.0861 -0.8911  1.7921
12449TIP3   OH258761   1.130   5.693  15.326  0.2579 -0.5843  0.6090
12449TIP3    H158762   1.091   5.701  15.239  2.2001 -0.3145 -0.2864
12449TIP3    H258763   1.069   5.740  15.384 -1.3509 -1.2570 -0.4819
12450TIP3   OH258764   1.271   4.068   4.199 -0.2437  0.0586 -0.7623
12450TIP3    H158765   1.309   3.998   4.251 -1.4063  0.8676  1.3019
12450TIP3    H258766   1.196   4.098   4.250  1.1254  3.9221 -0.6442
12451TIP3   OH258767   1.508   4.349   1.602 -0.0250  0.2713  0.6385
12451TIP3    H158768   1.503   4.296   1.682 -1.5567  0.1779  0.5173
12451TIP3    H258769   1.588   4.320   1.559 -0.8713 -2.1112  0.4917
12452TIP3   OH258770   0.594   2.158  12.106  0.1679  0.0766  0.2716
12452TIP3    H158771   0.503   2.172  12.130 -0.2087 -1.2745 -0.2991
12452TIP3    H258772   0.643   2.176  12.186 -0.6610  0.0488  0.7958
12453TIP3   OH258773   1.967   4.988   5.881  0.1517 -0.2931 -0.1653
12453TIP3    H158774   1.977   5.050   5.809  1.3712 -0.4668 -0.1664
12453TIP3    H258775   1.982   5.040   5.960 -1.9240  0.0639  0.0596
12454TIP3   OH258776   6.597   5.196  11.532 -0.3539  0.0853  0.3073
12454TIP3    H158777   6.532   5.266  11.525 -1.5248 -1.0770 -0.9134
12454TIP3    H258778   6.609   5.166  11.442  0.8757 -0.6328  0.6878
12455TIP3   OH258779   5.925   2.726  16.409 -0.4357  0.2986 -0.3905
12455TIP3    H158780   5.901   2.725  16.316  0.2284 -0.1607 -0.5625
12455TIP3    H258781   5.858   2.781  16.450  0.6886  2.6334 -1.4963
12456TIP3   OH258782   2.661   2.516   0.695 -0.8925  0.2215  0.0777
12456TIP3    H158783   2.636   2.520   0.603  0.9257 -0.0010 -0.4711
12456TIP3    H258784   2.592   2.465   0.737 -1.5575  0.0183 -1.2239
12457TIP3   OH258785   4.213   6.595   2.284  0.3984 -0.2043  0.1967
12457TIP3    H158786   4.262   6.592   2.202 -1.6271 -0.8589 -1.0570
12457TIP3    H258787   4.263   6.539   2.343  0.7407 -1.5481 -1.2855
12458TIP3   OH258788   1.918   5.731   5.588  0.0631 -0.2473 -0.8236
12458TIP3    H158789   1.928   5.787   5.511 -0.1476  0.6139 -0.2268
12458TIP3    H258790   1.841   5.765   5.633  1.4018  0.6447  0.9187
12459TIP3   OH258791   1.130   6.082   0.935 -0.2820 -0.6230 -0.3616
12459TIP3    H158792   1.069   6.091   0.863 -0.1672 -2.1131 -0.6645
12459TIP3    H258793   1.120   5.992   0.965 -0.9953  0.1868  2.0999
12460TIP3   OH258794   4.599   2.554  13.547 -1.0097 -0.5134  0.0341
12460TIP3    H158795   4.521   2.500  13.536 -0.6741 -0.6448 -2.2297
12460TIP3    H258796   4.588   2.625  13.484  1.6086 -1.6970 -1.9395
12461TIP3   OH258797   0.770   5.074  14.902  0.2600  0.3972 -0.6122
12461TIP3    H158798   0.782   4.981  14.921  0.5054  0.3083 -1.1933
12461TIP3    H258799   0.850   5.115  14.936 -0.8527  0.7506  1.8568
12462TIP3   OH258800   5.284   5.061  13.239 -0.1215 -0.4441 -0.3486
12462TIP3    H158801   5.207   5.022  13.280 -0.0909  0.9419  1.0991
12462TIP3    H258802   5.288   5.020  13.152 -1.3401 -1.9850  0.2727
12463TIP3   OH258803   3.111   5.308   4.105 -0.0248 -0.5125  0.0586
12463TIP3    H158804   3.060   5.361   4.043 -0.9815  0.1158  1.3369
12463TIP3    H258805   3.073   5.220   4.098  1.1828 -0.9587 -1.6407
12464TIP3   OH258806   0.600   0.339  16.984  0.6636 -0.4987 -0.0906
12464TIP3    H158807   0.605   0.431  17.008 -1.4723 -0.2867 -0.2104
12464TIP3    H258808   0.690   0.312  16.968  1.3125  1.5865 -0.1205
12465TIP3   OH258809   1.421   1.513  12.836 -0.1305  0.1408  0.0255
12465TIP3    H158810   1.459   1.425  12.843  0.4431  0.3481 -0.3381
12465TIP3    H258811   1.328   1.499  12.823 -0.3239 -0.3704  1.7513
12466TIP3   OH258812   1.451   0.255  13.839  0.1508 -0.4581  0.3154
12466TIP3    H158813   1.481   0.246  13.748 -0.5719  0.2570 -0.0018
12466TIP3    H258814   1.407   0.340  13.841 -0.1386 -0.6270  1.2555
12467TIP3   OH258815   4.065   2.425   0.154 -0.0112 -0.3981  0.1864
12467TIP3    H158816   4.116   2.354   0.116  0.2572 -0.0145 -0.1805
12467TIP3    H258817   4.114   2.504   0.132 -1.1875  0.0592 -0.8796
12468TIP3   OH258818   6.488   1.245   4.170  0.5943  0.4207  0.0656
12468TIP3    H158819   6.450   1.332   4.154  0.7668  0.2509 -1.4493
12468TIP3    H258820   6.468   1.196   4.090  1.6044 -0.5321  0.3840
12469TIP3   OH258821   4.794   1.112   1.699  0.8655  0.5262 -0.4276
12469TIP3    H158822   4.822   1.109   1.608  0.9028 -1.1656 -0.3881
12469TIP3    H258823   4.812   1.024   1.733 -0.6727  0.6170  0.7509
12470TIP3   OH258824   2.422   1.340   3.145 -0.2649  0.1731  0.1362
12470TIP3    H158825   2.442   1.425   3.182  1.0086  0.9160 -2.0389
12470TIP3    H258826   2.502   1.315   3.098 -2.0038 -0.1237 -2.9621
12471TIP3   OH258827   6.015   2.312  16.593  0.0493 -0.6126  0.1085
12471TIP3    H158828   5.955   2.387  16.588 -1.4683 -1.7461  0.4825
12471TIP3    H258829   6.059   2.311  16.508  0.3404  0.8825  0.2189
12472TIP3   OH258830   5.905   5.571  14.918  0.3424  0.1748 -0.2475
12472TIP3    H158831   5.937   5.503  14.977 -3.2119 -1.7304 -0.2283
12472TIP3    H258832   5.921   5.653  14.964 -0.6315 -1.1142  2.5736
12473TIP3   OH258833   5.110   4.646  16.181 -0.3053  0.1218  0.2144
12473TIP3    H158834   5.035   4.704  16.166  0.2371  0.7213 -0.2955
12473TIP3    H258835   5.075   4.574  16.233 -1.6769 -0.6254 -1.6391
12474TIP3   OH258836   1.018   2.407   3.934 -0.4854 -0.1326  0.3583
12474TIP3    H158837   0.997   2.382   3.844  2.2370 -0.2662 -0.3240
12474TIP3    H258838   1.079   2.340   3.964  2.1029  2.2058  0.6856
12475TIP3   OH258839   3.273   3.926  12.088  0.0855  0.1349  0.0440
12475TIP3    H158840   3.197   3.868  12.091 -0.7107  1.1848  0.7818
12475TIP3    H258841   3.249   3.995  12.026  0.7920 -0.0011 -0.3899
12476TIP3   OH258842   4.558   1.676   3.992 -0.9159 -0.1316 -0.2707
12476TIP3    H158843   4.596   1.759   3.962  0.1519 -0.3979  0.2747
12476TIP3    H258844   4.521   1.636   3.913  2.4218 -1.1278 -1.5103
12477TIP3   OH258845   3.953   1.682   4.582  0.3687 -0.2808  0.0530
12477TIP3    H158846   4.020   1.627   4.622 -1.0561 -2.1753 -0.0094
12477TIP3    H258847   3.900   1.713   4.656 -0.7457 -1.7110 -0.0865
12478TIP3   OH258848   0.783   0.616  15.110 -0.0441 -0.1357  0.2036
12478TIP3    H158849   0.874   0.585  15.119 -0.4573 -1.3056  0.5387
12478TIP3    H258850   0.743   0.554  15.049 -0.2991  1.1216 -0.9569
12479TIP3   OH258851   1.982   1.652   2.928  0.2612 -0.0352  0.3174
12479TIP3    H158852   1.905   1.703   2.955  0.0340 -0.9871  1.5501
12479TIP3    H258853   1.998   1.679   2.838 -0.7122  1.1646  0.4804
12480TIP3   OH258854   2.406   4.219  12.174 -0.3699  0.4338  0.2673
12480TIP3    H158855   2.383   4.311  12.169 -1.3751  0.2360  0.8567
12480TIP3    H258856   2.485   4.217  12.229 -0.7879  0.8888  0.9039
12481TIP3   OH258857   1.947   3.470  16.253  0.5758  0.9782 -0.6817
12481TIP3    H158858   1.941   3.548  16.198  0.1131  0.9293 -0.7054
12481TIP3    H258859   1.864   3.467  16.301 -0.0194 -0.2398 -1.6988
12482TIP3   OH258860   4.106   0.726   4.335 -0.2690  0.8535  0.3950
12482TIP3    H158861   4.161   0.727   4.414  0.4145  0.0424 -0.0644
12482TIP3    H258862   4.168   0.716   4.263 -0.9456  0.9696 -0.2101
12483TIP3   OH258863   2.093   6.256   1.561 -0.2517  0.2350  0.0996
12483TIP3    H158864   2.094   6.285   1.470 -0.4020  2.9387  0.8609
12483TIP3    H258865   2.173   6.205   1.571 -0.1054  0.1076 -1.4814
12484TIP3   OH258866   5.241   2.407   1.863 -0.1018  0.1013 -0.1983
12484TIP3    H158867   5.181   2.426   1.791  0.1157  0.6266 -0.2447
12484TIP3    H258868   5.321   2.455   1.840  0.0066  0.1778  0.3364
12485TIP3   OH258869   0.828   2.628   5.028  0.3731 -0.2808 -0.5767
12485TIP3    H158870   0.755   2.686   5.049  0.8024  0.1371 -0.2089
12485TIP3    H258871   0.815   2.551   5.084  1.3178  0.6726  1.0374
12486TIP3   OH258872   4.488   4.965  14.883 -0.1381 -0.4013 -0.1314
12486TIP3    H158873   4.514   4.912  14.807 -2.0212 -1.1499 -0.2997
12486TIP3    H258874   4.393   4.961  14.883 -0.2001  0.3766  1.7414
12487TIP3   OH258875   5.452   6.390   3.016  0.5325  0.4002  0.3161
12487TIP3    H158876   5.526   6.383   3.076 -0.8548 -0.1125  2.0356
12487TIP3    H258877   5.470   6.324   2.948  0.9769 -0.6985  1.4705
12488TIP3   OH258878   0.802   3.903   1.908 -0.1155 -0.8199  0.2091
12488TIP3    H158879   0.846   3.955   1.841 -0.7606 -2.2661 -1.4077
12488TIP3    H258880   0.855   3.823   1.915 -1.1631 -1.5682 -0.1046
12489TIP3   OH258881   0.522   2.520  16.428 -0.3463 -0.1234  0.7056
12489TIP3    H158882   0.560   2.503  16.514  0.0100 -0.0288  0.5656
12489TIP3    H258883   0.437   2.560  16.447 -0.8539 -1.3215  1.0274
12490TIP3   OH258884   3.862   6.707  13.706  0.1530 -0.5554 -0.0262
12490TIP3    H158885   3.938   6.754  13.741  0.9061 -1.3699 -0.5246
12490TIP3    H258886   3.792   6.772  13.703  0.7778  0.1566  0.6321
12491TIP3   OH258887   5.646   2.669  15.753  0.7365 -0.0928 -0.1807
12491TIP3    H158888   5.652   2.749  15.805  0.0283 -0.6429  0.7863
12491TIP3    H258889   5.715   2.677  15.687  1.0702  1.0259  0.2967
12492TIP3   OH258890   4.897   2.279  15.933  0.1393  0.1519 -0.2728
12492TIP3    H158891   4.848   2.257  15.854 -1.0558 -2.2358  1.0091
12492TIP3    H258892   4.988   2.281  15.906 -0.1803 -1.4461 -1.5732
12493TIP3   OH258893   2.210   4.008  15.849 -0.6701  0.1218 -0.1088
12493TIP3    H158894   2.243   4.014  15.760  1.1597  2.1534  0.6112
12493TIP3    H258895   2.287   4.015  15.904 -1.9990  2.9204  1.6548
12494TIP3   OH258896   6.535   4.872   6.028  0.4070  0.6655 -0.4539
12494TIP3    H158897   6.544   4.777   6.033 -0.2043  0.6266 -0.0129
12494TIP3    H258898   6.622   4.903   6.002  0.5611 -0.0258 -0.7718
12495TIP3   OH258899   0.172   3.234  16.595  0.4762  0.3932  0.3944
12495TIP3    H158900   0.250   3.273  16.555  0.4673  0.7830  0.7501
12495TIP3    H258901   0.204   3.197  16.678  0.2166  0.8697  0.7110
12496TIP3   OH258902   6.535   1.298  16.744 -0.0382 -0.2014 -0.3970
12496TIP3    H158903   6.548   1.204  16.735 -0.2208 -0.2442 -0.2432
12496TIP3    H258904   6.571   1.335  16.664  0.8232 -0.3218 -0.0749
12497TIP3   OH258905   2.189   1.518  13.944 -0.0779  0.0434 -0.4398
12497TIP3    H158906   2.100   1.552  13.940  0.0097  0.4156  0.3881
12497TIP3    H258907   2.183   1.444  14.004  0.0243 -0.4348 -1.0148
12498TIP3   OH258908   6.102   3.888   1.561  0.1374 -0.1970 -0.5113
12498TIP3    H158909   6.024   3.892   1.505 -1.3122 -0.4639  1.4129
12498TIP3    H258910   6.094   3.805   1.608  1.0573  0.2344  0.4520
12499TIP3   OH258911   5.952   1.552   1.484  0.9092 -0.2937 -0.3006
12499TIP3    H158912   6.026   1.500   1.516  1.6772  0.0803 -1.3969
12499TIP3    H258913   5.992   1.615   1.424 -0.3803 -0.4645 -1.3613
12500TIP3   OH258914   6.614   1.438   2.478 -0.4079 -0.2655  0.0668
12500TIP3    H158915   6.579   1.484   2.554 -0.8624 -0.0359 -0.2774
12500TIP3    H258916   6.580   1.349   2.487 -0.6948 -0.1657 -0.0145
12501TIP3   OH258917   6.576   0.890  14.846 -0.2563  0.2860 -0.0147
12501TIP3    H158918   6.576   0.888  14.751  0.8841  0.7971 -0.0483
12501TIP3    H258919   6.606   0.803  14.872  0.5437  0.5075 -0.1641
12502TIP3   OH258920   4.640   0.597   3.622  0.1302 -0.1022  0.3086
12502TIP3    H158921   4.646   0.618   3.528  2.0987 -0.1561  0.3850
12502TIP3    H258922   4.727   0.567   3.645 -0.6122 -1.1296  1.9493
12503TIP3   OH258923   5.157   6.517   0.851 -0.2656  0.1880 -0.6582
12503TIP3    H158924   5.137   6.611   0.849  1.7389  0.6539 -0.9344
12503TIP3    H258925   5.167   6.494   0.759  1.0229  0.1483 -0.5257
12504TIP3   OH258926   2.656   5.062  13.259 -0.2765  0.4281  0.4074
12504TIP3    H158927   2.707   5.112  13.194 -0.9746 -2.0876 -2.3141
12504TIP3    H258928   2.586   5.122  13.286  0.5257  1.8472 -0.5218
12505TIP3   OH258929   2.499   2.710   5.178 -0.3192 -0.2084  0.2030
12505TIP3    H158930   2.529   2.667   5.098 -3.2977 -1.8751 -0.1626
12505TIP3    H258931   2.452   2.641   5.226 -1.7352  1.6353  1.6190
12506TIP3   OH258932   0.231   5.255   4.423  0.7743  0.6774  0.3980
12506TIP3    H158933   0.322   5.256   4.394  0.6722 -0.0590  0.0418
12506TIP3    H258934   0.230   5.310   4.501  1.0723  2.6451 -0.9122
12507TIP3   OH258935   1.791   2.298   2.812  0.3701  0.0823 -0.1907
12507TIP3    H158936   1.722   2.240   2.779  1.1752  0.2680 -2.3427
12507TIP3    H258937   1.745   2.379   2.835 -0.4314 -0.5833  0.6411
12508TIP3   OH258938   6.260   3.028   3.438 -0.4423 -0.4409 -0.4249
12508TIP3    H158939   6.282   3.046   3.529  0.8822 -0.6464 -0.6889
12508TIP3    H258940   6.211   3.105   3.409  0.0661  0.1037  0.1460
12509TIP3   OH258941   5.150   2.065  12.719  0.4808  0.1066  0.2859
12509TIP3    H158942   5.159   2.093  12.810  0.8531 -0.1914  0.3417
12509TIP3    H258943   5.210   1.991  12.710  1.4530  0.9730 -0.5628
12510TIP3   OH258944   4.614   2.690  15.761 -0.1046  0.3634 -0.2479
12510TIP3    H158945   4.585   2.766  15.811  1.6532  0.9291 -0.0234
12510TIP3    H258946   4.580   2.705  15.672  0.4484  1.5440 -0.2707
12511TIP3   OH258947   0.397   6.221   1.935  0.3811 -0.2257 -0.2608
12511TIP3    H158948   0.454   6.296   1.915  0.8827 -0.6137 -0.2926
12511TIP3    H258949   0.331   6.222   1.867  0.1186  0.4594 -0.0087
12512TIP3   OH258950   2.201   0.134   0.964  0.0629 -0.1899 -0.4677
12512TIP3    H158951   2.200   0.204   1.030 -1.1020 -0.4121 -0.2358
12512TIP3    H258952   2.269   0.074   0.996 -0.7340 -0.4843  0.7627
12513TIP3   OH258953   6.406   2.781  12.639 -0.3061 -0.2386  0.4863
12513TIP3    H158954   6.489   2.826  12.625 -0.4948 -0.3515 -1.1478
12513TIP3    H258955   6.405   2.761  12.733  1.7185 -0.6453  0.4588
12514TIP3   OH258956   6.102   1.459   1.685 -0.0333 -0.0862  0.0583
12514TIP3    H158957   6.040   1.413   1.741  2.3645 -2.8357  0.6640
12514TIP3    H258958   6.159   1.505   1.746  0.0712  0.3491 -0.3652
12515TIP3   OH258959   2.380   4.159  16.368 -0.5116 -0.3732 -0.6985
12515TIP3    H158960   2.334   4.146  16.450 -1.7309  2.1042 -0.9003
12515TIP3    H258961   2.430   4.078  16.355 -0.1981 -0.8089  2.4896
12516TIP3   OH258962   1.837   5.153  15.024  0.6225 -0.3095  0.1509
12516TIP3    H158963   1.752   5.190  15.000 -0.2777 -2.0587  0.5221
12516TIP3    H258964   1.896   5.229  15.026 -0.9023  0.9358 -0.1428
12517TIP3   OH258965   3.037   3.246   4.606 -0.5619  0.0199 -0.1537
12517TIP3    H158966   2.963   3.222   4.662  0.1184 -1.0394  0.3513
12517TIP3    H258967   3.114   3.217   4.656  0.3677  3.0115  0.3274
12518TIP3   OH258968   1.765   4.502  11.734 -0.1353  0.1305 -0.1262
12518TIP3    H158969   1.750   4.449  11.812  1.6927  0.7702  0.7144
12518TIP3    H258970   1.682   4.548  11.720 -1.0466 -1.2967  0.3848
12519TIP3   OH258971   4.795   2.081   5.976 -0.2778 -0.2232  0.2203
12519TIP3    H158972   4.764   2.159   6.022  1.1104  0.0840  0.6724
12519TIP3    H258973   4.803   2.015   6.045  0.0080 -0.3130  0.0997
12520TIP3   OH258974   1.134   2.495  16.623  0.2340  0.1639 -0.0808
12520TIP3    H158975   1.168   2.414  16.661  2.2320  0.8138 -0.3767
12520TIP3    H258976   1.118   2.473  16.531  1.4462  0.2664 -0.3295
12521TIP3   OH258977   1.193   3.562   2.852 -0.2585 -0.0262  0.5150
12521TIP3    H158978   1.142   3.584   2.930 -0.5106 -1.9041  0.9332
12521TIP3    H258979   1.127   3.538   2.787  0.0364 -1.4241  0.7139
12522TIP3   OH258980   0.675   3.306  15.400  0.3427  0.2619  0.0556
12522TIP3    H158981   0.751   3.289  15.457  1.3427  0.1535 -1.2665
12522TIP3    H258982   0.623   3.369  15.449  1.1433  0.1364  1.1239
12523TIP3   OH258983   6.300   1.351   3.758  0.0727  0.1601  0.0402
12523TIP3    H158984   6.234   1.318   3.818  2.8206 -0.8467  2.7420
12523TIP3    H258985   6.301   1.287   3.686 -2.2993  0.6391 -0.5270
12524TIP3   OH258986   4.493   0.622  16.035 -0.2655  0.2763  0.7564
12524TIP3    H158987   4.467   0.530  16.023  0.0101  0.1482  1.0857
12524TIP3    H258988   4.426   0.673  15.989  0.2002 -0.1336 -0.4323
12525TIP3   OH258989   5.175   0.609  11.822  0.3786  0.8090 -0.9791
12525TIP3    H158990   5.202   0.611  11.730  0.3791  2.4203 -0.9746
12525TIP3    H258991   5.152   0.700  11.842 -1.3458  0.1895  0.1127
12526TIP3   OH258992   5.770   4.201  16.588 -0.2146  0.0270  0.0432
12526TIP3    H158993   5.707   4.138  16.622 -0.3374  1.0609  1.8226
12526TIP3    H258994   5.806   4.244  16.665 -0.0069  2.0266 -1.0971
12527TIP3   OH258995   1.775   6.020  16.570 -0.1785 -0.4763 -0.7157
12527TIP3    H158996   1.804   5.935  16.602  1.4544  0.9314  1.9214
12527TIP3    H258997   1.841   6.046  16.506 -2.1059 -2.2208 -3.6007
12528TIP3   OH258998   1.005   0.179   2.330  0.1756  0.3413 -0.9630
12528TIP3    H158999   0.941   0.178   2.401 -0.9054  0.5385 -1.9183
12528TIP3    H259000   1.001   0.091   2.292  0.0142  0.5437 -1.4223
12529TIP3   OH259001   1.437   4.091   0.366 -0.4420 -0.0306 -0.0188
12529TIP3    H159002   1.344   4.085   0.388 -0.3422 -0.2272  0.3507
12529TIP3    H259003   1.482   4.045   0.437 -0.0903 -0.3167 -0.4201
12530TIP3   OH259004   2.120   5.285   3.551  0.5031 -0.1140  0.0048
12530TIP3    H159005   2.180   5.360   3.550  0.6352 -0.2141  0.3377
12530TIP3    H259006   2.076   5.289   3.467  1.2685 -0.2648 -0.4178
12531TIP3   OH259007   5.065   5.757  13.429  0.0550 -0.6339  0.1966
12531TIP3    H159008   5.051   5.745  13.335  0.2474 -0.8962  0.2000
12531TIP3    H259009   5.135   5.822  13.435 -0.6124  0.1060  0.1706
12532TIP3   OH259010   1.919   2.512   6.002 -0.1475  0.0619  0.2838
12532TIP3    H159011   1.867   2.502   5.922  1.6812  1.4142 -1.1606
12532TIP3    H259012   1.873   2.459   6.067 -2.4292 -0.0410 -1.3046
12533TIP3   OH259013   6.248   6.149  15.590 -0.1117  0.0536  0.4753
12533TIP3    H159014   6.154   6.165  15.579 -0.0744 -0.6808 -1.2017
12533TIP3    H259015   6.271   6.090  15.518  1.4721 -0.4657  1.3623
12534TIP3   OH259016   1.342   4.041   0.905  0.0601 -0.1467  0.8526
12534TIP3    H159017   1.365   4.134   0.895  0.1905 -0.1879  0.7777
12534TIP3    H259018   1.410   3.994   0.857 -1.0443 -0.2009 -0.7205
12535TIP3   OH259019   5.612   0.581  13.392 -0.3570 -0.0680  0.2358
12535TIP3    H159020   5.549   0.515  13.421 -0.7811 -0.4392 -1.4399
12535TIP3    H259021   5.631   0.632  13.471 -1.2427 -1.1822  1.2067
12536TIP3   OH259022   5.125   0.664   3.362  0.3863  0.3910 -0.0008
12536TIP3    H159023   5.058   0.596   3.358 -0.4768  1.0264  2.1824
12536TIP3    H259024   5.201   0.620   3.400 -0.2464  0.6399  1.6314
12537TIP3   OH259025   0.704   6.565   3.429 -0.1571  0.3209 -0.0102
12537TIP3    H159026   0.769   6.511   3.474  0.8628  0.8981 -0.7595
12537TIP3    H259027   0.624   6.553   3.480  0.7113  0.1684  1.3623
12538TIP3   OH259028   5.090   5.134  14.801 -0.0849  0.1243  0.3075
12538TIP3    H159029   5.054   5.116  14.714  1.3192 -0.9274 -0.0899
12538TIP3    H259030   5.061   5.223  14.820  1.4917  1.3293 -2.2991
12539TIP3   OH259031   1.425   0.436  16.929  0.1875  0.5418 -0.6412
12539TIP3    H159032   1.521   0.440  16.926  0.3122  0.4746  1.3950
12539TIP3    H259033   1.396   0.527  16.920  0.4919  0.6608 -0.4286
12540TIP3   OH259034   1.429   2.003   4.279  0.0747 -0.1248  0.2976
12540TIP3    H159035   1.344   2.046   4.272  0.1137  0.3549  2.3488
12540TIP3    H259036   1.416   1.919   4.235 -0.6493  0.9975 -1.7805
12541TIP3   OH259037   2.859   6.197   5.715  0.0831  0.2763  0.1291
12541TIP3    H159038   2.924   6.128   5.699 -1.2195 -0.9335 -0.1266
12541TIP3    H259039   2.912   6.274   5.735  1.6986  0.0392 -2.6016
12542TIP3   OH259040   6.641   0.639  14.919 -0.4395  0.3147 -0.0621
12542TIP3    H159041   6.573   0.571  14.926  0.0184 -0.2249 -0.6813
12542TIP3    H259042   6.723   0.592  14.932 -0.1760  0.9808  0.7567
12543TIP3   OH259043   5.881   2.528  12.838 -0.1734 -0.6299  0.1500
12543TIP3    H159044   5.791   2.495  12.832  0.5109 -2.7635  0.8931
12543TIP3    H259045   5.930   2.458  12.881  1.7653  0.6889  0.2251
12544TIP3   OH259046   4.529   4.027   2.244  0.0298  0.0873  0.0280
12544TIP3    H159047   4.607   4.035   2.299 -0.1474 -0.2507  0.3323
12544TIP3    H259048   4.514   3.933   2.238 -0.1129  0.1358 -0.3776
12545TIP3   OH259049   1.492   5.862  12.510  0.6263  0.2991 -0.4477
12545TIP3    H159050   1.523   5.951  12.526  0.1549  0.0761  2.0619
12545TIP3    H259051   1.402   5.873  12.480  1.3072  0.7032 -2.5490
12546TIP3   OH259052   6.612   1.529  15.636 -0.3782  0.3834 -0.1656
12546TIP3    H159053   6.629   1.624  15.634 -0.6439  0.4288 -1.4127
12546TIP3    H259054   6.606   1.505  15.544 -1.4352 -0.6550  0.1594
12547TIP3   OH259055   1.553   0.113   3.169  0.2073  0.1349 -0.5035
12547TIP3    H159056   1.459   0.118   3.150 -0.0621 -0.8555  0.4671
12547TIP3    H259057   1.582   0.032   3.125  0.4015 -0.0712 -0.0003
12548TIP3   OH259058   3.232   2.194  11.920 -0.6738  0.1134  0.6862
12548TIP3    H159059   3.297   2.152  11.977  0.0813  0.1055 -0.1454
12548TIP3    H259060   3.278   2.269  11.883 -0.6399 -0.6822 -1.0057
12549TIP3   OH259061   0.762   2.333  17.049  0.4352  0.1929  0.2407
12549TIP3    H159062   0.749   2.416  17.096 -0.6849 -0.4254  1.0567
12549TIP3    H259063   0.813   2.358  16.971  0.0068  1.6679  0.3995
12550TIP3   OH259064   2.861   2.483   2.315  0.1550 -0.0136  0.2638
12550TIP3    H159065   2.797   2.427   2.270 -0.2964 -1.1541  2.2330
12550TIP3    H259066   2.843   2.470   2.408  2.2449  0.8734  0.8334
12551TIP3   OH259067   4.900   3.959   4.369  0.2206  0.4656 -0.0481
12551TIP3    H159068   4.982   3.944   4.415  0.7433  1.3900 -0.6657
12551TIP3    H259069   4.876   4.049   4.390 -1.5473 -0.2956  1.5202
12552TIP3   OH259070   6.022   5.775   4.205  0.4120  0.2263 -0.2088
12552TIP3    H159071   6.081   5.764   4.130  0.1856  0.3078 -0.4028
12552TIP3    H259072   5.993   5.686   4.226  0.9621  0.1384  0.1818
12553TIP3   OH259073   2.687   4.358   4.226  0.0783 -0.9705  0.1135
12553TIP3    H159074   2.682   4.339   4.132  1.9886  0.8623 -0.4119
12553TIP3    H259075   2.713   4.449   4.231 -0.5612 -0.8499  2.4765
12554TIP3   OH259076   0.385   4.848   0.800 -0.1875  0.5635  0.4174
12554TIP3    H159077   0.369   4.916   0.735 -2.1367 -2.3142 -2.4366
12554TIP3    H259078   0.480   4.839   0.802 -0.0194  1.6501 -1.0479
12555TIP3   OH259079   2.283   3.836   3.753 -0.1464 -0.2038  0.0067
12555TIP3    H159080   2.325   3.859   3.670 -0.3394  0.8573  0.1909
12555TIP3    H259081   2.351   3.850   3.819 -0.4755  0.5216  0.1961
12556TIP3   OH259082   2.624   1.469  16.961 -0.3116 -0.9519 -0.1517
12556TIP3    H159083   2.689   1.505  17.021 -0.2876 -0.8992 -0.2092
12556TIP3    H259084   2.668   1.467  16.876 -0.2683 -1.2415 -0.1215
12557TIP3   OH259085   1.288   1.189   1.729 -0.1722 -0.5550 -0.0554
12557TIP3    H159086   1.233   1.259   1.765 -1.1362 -0.7426 -1.1046
12557TIP3    H259087   1.354   1.234   1.677  0.0001 -0.3759  0.3146
12558TIP3   OH259088   5.532   0.185   0.513 -0.0792 -0.3661  0.1778
12558TIP3    H159089   5.484   0.149   0.587  0.0994 -0.6086  0.1772
12558TIP3    H259090   5.531   0.280   0.527  1.0648 -0.4834  1.1956
12559TIP3   OH259091   4.280   3.440   2.161 -0.4367 -0.8335 -0.2912
12559TIP3    H159092   4.252   3.459   2.071 -0.1889 -1.8409 -0.5912
12559TIP3    H259093   4.228   3.500   2.215  0.6595  1.0295 -1.1974
12560TIP3   OH259094   1.677   4.725   1.816  0.3662 -0.7854 -1.0701
12560TIP3    H159095   1.689   4.764   1.729 -0.9551  0.8495 -0.5697
12560TIP3    H259096   1.604   4.773   1.854 -0.3049 -2.7285  0.2548
12561TIP3   OH259097   2.454   5.276   4.273 -0.3181 -0.3556  0.5206
12561TIP3    H159098   2.387   5.212   4.296 -1.2677 -0.1621 -1.4966
12561TIP3    H259099   2.506   5.233   4.205 -1.7075  1.3186 -1.7530
12562TIP3   OH259100   2.862   0.458   2.841  0.1036 -0.2823  0.3497
12562TIP3    H159101   2.865   0.541   2.889  2.9661  0.0253 -0.2056
12562TIP3    H259102   2.782   0.416   2.873 -0.5556  1.9275  1.8986
12563TIP3   OH259103   4.929   1.054   1.462  0.2672 -0.4783  0.4319
12563TIP3    H159104   5.011   1.104   1.456  0.9016 -1.6069 -1.2742
12563TIP3    H259105   4.947   0.986   1.526 -0.2746  0.8084  2.0325
12564TIP3   OH259106   1.542   5.965   3.447  0.0535  0.2321 -0.1915
12564TIP3    H159107   1.545   5.973   3.352  1.6110 -0.7363 -0.2564
12564TIP3    H259108   1.493   5.884   3.462  0.8732 -0.2929 -0.2454
12565TIP3   OH259109   4.307   2.413  17.198  0.1727 -0.0280 -0.6953
12565TIP3    H159110   4.401   2.428  17.203 -0.0399  1.2977 -0.3266
12565TIP3    H259111   4.281   2.393  17.287  0.0778 -0.2806 -0.7787
12566TIP3   OH259112   5.149   3.454   5.667 -0.2945 -0.3074 -0.6994
12566TIP3    H159113   5.210   3.445   5.740 -0.5240  1.0231 -0.3206
12566TIP3    H259114   5.149   3.368   5.626  2.1061 -0.2825 -0.9243
12567TIP3   OH259115   3.948   3.181  12.056 -0.4496 -0.1838  0.3137
12567TIP3    H159116   3.931   3.087  12.057 -0.9702 -0.1079 -0.3106
12567TIP3    H259117   4.020   3.192  11.995 -0.6355 -0.1486  0.0964
12568TIP3   OH259118   4.394   2.722  16.824  0.0572 -0.3638  0.1728
12568TIP3    H159119   4.321   2.772  16.788  1.8546  1.0331 -1.7084
12568TIP3    H259120   4.452   2.788  16.862  0.3117 -1.4667  1.8044
12569TIP3   OH259121   6.467   3.387  12.420 -0.2045  0.3340 -0.0291
12569TIP3    H159122   6.528   3.460  12.411  0.9491 -0.4906  0.7831
12569TIP3    H259123   6.429   3.398  12.507  0.4584 -0.3698  0.3612
12570TIP3   OH259124   3.558   0.370   5.655  0.1923  0.8126 -0.1381
12570TIP3    H159125   3.558   0.370   5.559 -2.7400 -1.1539 -0.2718
12570TIP3    H259126   3.490   0.433   5.679 -0.0970  0.2389  0.5802
12571TIP3   OH259127   5.933   5.168  17.327  0.4594  0.3523 -0.3744
12571TIP3    H159128   5.966   5.254  17.356 -1.9935  0.7045  1.7451
12571TIP3    H259129   5.931   5.116  17.407 -0.4283 -0.8664 -1.1674
12572TIP3   OH259130   5.597   2.494   0.206  0.1205 -0.3866 -0.1586
12572TIP3    H159131   5.634   2.407   0.220  0.7878  0.3391  3.4402
12572TIP3    H259132   5.672   2.548   0.182  0.4727 -0.0527  1.5831
12573TIP3   OH259133   1.859   1.131  12.296  0.0616  0.0843  0.1819
12573TIP3    H159134   1.833   1.223  12.305 -1.1282 -0.1140 -0.8677
12573TIP3    H259135   1.918   1.116  12.369 -1.1148  1.2134  1.4402
12574TIP3   OH259136   0.173   2.369   0.002 -0.2403 -0.4302  0.5367
12574TIP3    H159137   0.126   2.291   0.030  1.0759 -1.3705  0.2141
12574TIP3    H259138   0.233   2.338  -0.066 -0.2640  1.0140 -0.1852
12575TIP3   OH259139   1.151   4.498  15.323 -0.0553  0.8359  0.3866
12575TIP3    H159140   1.154   4.500  15.227 -0.1978  0.1617  0.3600
12575TIP3    H259141   1.166   4.406  15.345 -0.0740  0.9789  1.0131
12576TIP3   OH259142   5.469   2.413  12.391 -0.3642  0.1293 -0.4677
12576TIP3    H159143   5.475   2.358  12.469 -1.4117 -0.3331 -0.6946
12576TIP3    H259144   5.536   2.481  12.404  0.2533 -0.5995  0.2875
12577TIP3   OH259145   4.108   4.012   0.699 -0.0077 -0.0359 -0.0888
12577TIP3    H159146   4.188   4.065   0.695 -1.1054  1.8702  1.5515
12577TIP3    H259147   4.116   3.963   0.781 -1.6983  2.3539  1.6396
12578TIP3   OH259148   0.512   5.939  17.234 -0.1979 -0.0608 -0.3113
12578TIP3    H159149   0.588   5.898  17.275  0.4520  1.1146 -0.3261
12578TIP3    H259150   0.495   5.885  17.157 -0.1954 -1.0981  0.3964
12579TIP3   OH259151   2.567   3.165  16.135  0.5272  0.2561  0.0142
12579TIP3    H159152   2.636   3.226  16.110  0.6391 -0.3847 -1.3204
12579TIP3    H259153   2.583   3.087  16.081 -2.6977  0.9865 -2.2997
12580TIP3   OH259154   5.150   5.539  16.379 -0.3931 -0.6828 -0.1405
12580TIP3    H159155   5.064   5.503  16.357 -1.8875  1.3243  1.9629
12580TIP3    H259156   5.176   5.495  16.460 -0.6546  0.4556  0.5914
12581TIP3   OH259157   1.373   6.196   0.784 -0.2313 -0.7790  0.0782
12581TIP3    H159158   1.288   6.183   0.828  1.0729 -2.8215  2.2644
12581TIP3    H259159   1.351   6.205   0.691 -2.9881  1.4469  0.8044
12582TIP3   OH259160   2.918   3.885   4.360  0.4963  0.7495  0.4517
12582TIP3    H159161   2.883   3.962   4.405  1.1965  1.6116 -0.4189
12582TIP3    H259162   2.846   3.822   4.360 -0.5128  1.8585  0.1195
12583TIP3   OH259163   3.833   4.236  13.908 -0.0713  0.4933  0.2734
12583TIP3    H159164   3.831   4.209  14.000  0.6512 -0.8612 -0.0819
12583TIP3    H259165   3.922   4.268  13.894  0.0502 -0.0109 -0.1395
12584TIP3   OH259166   3.713   0.703   4.017 -0.4164 -0.4185  0.1200
12584TIP3    H159167   3.806   0.684   4.028 -0.4432  0.1519  1.6136
12584TIP3    H259168   3.680   0.712   4.107 -2.0901 -1.4068 -0.3670
12585TIP3   OH259169   4.169   3.587  17.298  0.2760  0.4398  0.3246
12585TIP3    H159170   4.122   3.670  17.286 -0.0179 -0.0057 -2.1538
12585TIP3    H259171   4.187   3.583  17.391  0.8096  3.5707  0.4569
12586TIP3   OH259172   2.219   3.584  15.754 -0.0685 -0.4190  0.3905
12586TIP3    H159173   2.266   3.503  15.732  0.6809 -0.1444  0.9303
12586TIP3    H259174   2.265   3.618  15.831 -1.3614 -0.2947  1.1388
12587TIP3   OH259175   2.877   2.982  13.083  0.1170  0.4578 -0.0876
12587TIP3    H159176   2.955   3.025  13.119  1.7102 -1.1487 -1.3988
12587TIP3    H259177   2.872   2.899  13.131  0.0577 -0.0550 -0.9563
12588TIP3   OH259178   3.212   6.594   2.703  0.0782 -0.0963 -0.0701
12588TIP3    H159179   3.136   6.599   2.761  2.2028  2.3648  2.9060
12588TIP3    H259180   3.258   6.514   2.730  0.2495  0.2268  0.6393
12589TIP3   OH259181   3.732   5.274  16.556 -0.2980 -0.2877 -0.0680
12589TIP3    H159182   3.694   5.187  16.543 -0.7115  0.1603 -2.2786
12589TIP3    H259183   3.823   5.264  16.528  0.1734 -0.3946  1.4027
12590TIP3   OH259184   2.388   5.167   3.856 -0.7418  0.3247 -0.4967
12590TIP3    H159185   2.464   5.216   3.823 -0.2173  0.6672  1.1357
12590TIP3    H259186   2.342   5.230   3.911 -2.7960  0.4183 -2.1994
12591TIP3   OH259187   6.649   6.101  15.707 -0.0993  0.0920 -0.2132
12591TIP3    H159188   6.715   6.166  15.731  0.8635 -0.6567 -0.7686
12591TIP3    H259189   6.693   6.044  15.643 -1.2709 -0.4472 -0.5716
12592TIP3   OH259190   3.047   5.689   2.837 -0.6493 -0.2378 -0.5684
12592TIP3    H159191   3.135   5.650   2.833 -0.5793 -0.0576 -0.8194
12592TIP3    H259192   3.020   5.678   2.928  0.4547  1.4942  0.0194
12593TIP3   OH259193   5.726   0.013  15.831  0.8426  0.4263  0.4049
12593TIP3    H159194   5.721  -0.078  15.860  2.0356  0.0136 -0.5800
12593TIP3    H259195   5.731   0.064  15.912  3.9758 -0.6638  1.0413
12594TIP3   OH259196   1.549   4.503   5.814 -0.1858 -0.4650 -0.3479
12594TIP3    H159197   1.538   4.536   5.904  0.1547  1.6526 -1.0283
12594TIP3    H259198   1.463   4.515   5.774  0.4845  1.8932 -1.2620
12595TIP3   OH259199   4.874   3.018  14.850 -0.4253  0.7901 -0.2446
12595TIP3    H159200   4.930   3.013  14.772 -0.3014 -1.8595 -0.0542
12595TIP3    H259201   4.787   3.035  14.816 -0.2784  0.1917 -0.9374
12596TIP3   OH259202   2.876   4.014  10.610 -0.3913  0.2517  0.3469
12596TIP3    H159203   2.907   3.928  10.638 -0.5393 -0.5532 -1.7435
12596TIP3    H259204   2.941   4.075  10.645  0.5977 -0.8815  0.5786
12597TIP3   OH259205   0.652   5.626  16.869  0.1432  0.0097  0.0366
12597TIP3    H159206   0.732   5.623  16.816  0.3901  2.4441  0.1456
12597TIP3    H259207   0.665   5.560  16.937  1.9144  0.1048 -0.1565
12598TIP3   OH259208   5.088   4.558  14.438 -0.2367  0.0107 -0.6282
12598TIP3    H159209   5.108   4.607  14.359  1.8609 -0.6761 -0.5839
12598TIP3    H259210   5.093   4.466  14.412 -0.7119 -0.2181  0.0400
12599TIP3   OH259211   0.778   1.328   0.878  0.1561 -0.5966 -0.3862
12599TIP3    H159212   0.818   1.329   0.965  0.9245 -2.0088 -0.6959
12599TIP3    H259213   0.699   1.383   0.887  0.7188  0.0347  0.9348
12600TIP3   OH259214   5.548   3.641  14.304 -0.3443  0.0111  0.4125
12600TIP3    H159215   5.584   3.669  14.388  1.0069 -0.8236  0.1304
12600TIP3    H259216   5.586   3.701  14.240 -1.7327  0.9455  0.4045
12601TIP3   OH259217   4.315   1.343  11.490  0.4875 -0.6234 -0.1913
12601TIP3    H159218   4.245   1.278  11.495 -0.7644  0.6839  0.0465
12601TIP3    H259219   4.270   1.425  11.469  1.7006  0.6136  1.7070
12602TIP3   OH259220   5.805   6.582   0.834 -0.0553 -0.7384 -0.1979
12602TIP3    H159221   5.838   6.556   0.748  0.1220 -2.5450  0.3720
12602TIP3    H259222   5.719   6.620   0.816 -0.2973 -1.6679 -1.1256
12603TIP3   OH259223   3.963   5.852   5.887 -0.4530  0.0658  0.2869
12603TIP3    H159224   3.894   5.824   5.947 -1.4787  2.1663  0.1723
12603TIP3    H259225   4.033   5.883   5.943 -1.2450  1.6424  0.4441
12604TIP3   OH259226   0.605   0.134   5.627  0.6100 -0.1037 -0.0687
12604TIP3    H159227   0.523   0.102   5.591  1.7675 -0.7643 -2.3179
12604TIP3    H259228   0.585   0.223   5.658 -1.0485 -0.4527 -0.0488
12605TIP3   OH259229   1.609   0.510  13.462  0.2071 -0.0144 -0.2280
12605TIP3    H159230   1.641   0.601  13.464 -1.0367  0.4652 -1.1074
12605TIP3    H259231   1.516   0.517  13.442 -0.0186 -1.4790  0.1735
12606TIP3   OH259232   1.012   4.048   6.069 -0.0938 -0.6054  0.1970
12606TIP3    H159233   0.995   4.141   6.082 -1.8395 -1.1659  2.7432
12606TIP3    H259234   1.107   4.042   6.058 -0.1884  1.6970 -3.3101
12607TIP3   OH259235   1.350   2.751  16.102  0.2062 -0.4399  0.0084
12607TIP3    H159236   1.441   2.763  16.126  0.7754 -2.8043 -0.7393
12607TIP3    H259237   1.349   2.757  16.006 -0.6217  0.5508  0.0546
12608TIP3   OH259238   4.574   0.997   3.657 -0.0481 -0.0507 -0.0574
12608TIP3    H159239   4.585   0.921   3.600 -0.3790 -0.3347  0.2540
12608TIP3    H259240   4.611   1.070   3.607  0.8302 -0.5180 -0.1023
12609TIP3   OH259241   0.619   1.112   6.281 -0.5425 -0.0832  0.4692
12609TIP3    H159242   0.715   1.114   6.285 -0.4696 -2.5290  1.8893
12609TIP3    H259243   0.594   1.203   6.265  2.0155  0.4847 -0.8807
12610TIP3   OH259244   1.356   0.466   3.717 -0.5439 -0.9083  0.1625
12610TIP3    H159245   1.349   0.437   3.626  0.2327 -2.2164  0.5004
12610TIP3    H259246   1.406   0.548   3.712  1.0472 -1.8642 -0.4657
12611TIP3   OH259247   4.573   5.105  17.094  0.3499  0.2673  0.0400
12611TIP3    H159248   4.486   5.095  17.055  0.5796 -2.5910  0.0936
12611TIP3    H259249   4.633   5.062  17.033  1.6756  1.6186  0.3286
12612TIP3   OH259250   0.947   3.079   6.264  0.1841  0.0014 -0.0927
12612TIP3    H159251   0.974   3.047   6.178 -1.6880 -0.8314 -0.4349
12612TIP3    H259252   1.019   3.056   6.323  0.5873 -1.3418 -1.0733
12613TIP3   OH259253   0.524   1.659   5.975  0.4801  0.0137  0.0677
12613TIP3    H159254   0.451   1.700   5.928  1.0506 -0.1052 -0.9622
12613TIP3    H259255   0.504   1.565   5.972  0.5055  0.0082  0.0660
12614TIP3   OH259256   5.386   2.155   0.643 -0.5357  0.3151  0.1701
12614TIP3    H159257   5.431   2.164   0.728  0.1999 -1.2177 -0.0311
12614TIP3    H259258   5.456   2.133   0.581 -1.2840 -0.0812 -0.5525
12615TIP3   OH259259   0.855   1.394  11.739  0.0612  0.7405 -0.0294
12615TIP3    H159260   0.847   1.404  11.834  0.6631  0.3216  0.0773
12615TIP3    H259261   0.827   1.478  11.703 -2.6545  0.0720  0.3575
12616TIP3   OH259262   3.088   4.539  16.186 -0.4187 -0.8823 -0.2792
12616TIP3    H159263   3.108   4.608  16.124 -2.2698 -2.2611 -2.5687
12616TIP3    H259264   3.110   4.458  16.140 -1.6713 -1.9608  0.9159
12617TIP3   OH259265   2.789   1.839   5.786  0.0391 -0.1739  0.0545
12617TIP3    H159266   2.787   1.745   5.799  0.6998 -0.3542 -1.0043
12617TIP3    H259267   2.702   1.861   5.754  0.3136 -0.6684 -1.0930
12618TIP3   OH259268   1.181   1.523   2.777  0.3363 -0.5228  0.5434
12618TIP3    H159269   1.226   1.440   2.764  1.1183 -0.6308  3.4221
12618TIP3    H259270   1.096   1.512   2.733  0.9731 -2.3073 -0.2986
12619TIP3   OH259271   0.390   0.435  16.828  0.0253  0.3386  0.4153
12619TIP3    H159272   0.308   0.395  16.858 -0.4409  1.2617  0.3906
12619TIP3    H259273   0.458   0.390  16.878 -0.4206 -0.9826 -0.1247
12620TIP3   OH259274   6.525   2.995   3.390 -0.3375 -0.0993 -0.8586
12620TIP3    H159275   6.444   3.024   3.432  0.2253  0.7154 -0.3208
12620TIP3    H259276   6.582   3.072   3.391  0.3922 -0.6174 -1.3802
12621TIP3   OH259277   1.208   0.636   2.803 -0.1370  0.1267 -0.9423
12621TIP3    H159278   1.135   0.699   2.809 -0.9855 -0.9081  0.2241
12621TIP3    H259279   1.286   0.688   2.822 -0.6618  1.0872 -1.3434
12622TIP3   OH259280   4.858   2.699  14.936  0.2985 -0.3470  0.0344
12622TIP3    H159281   4.843   2.661  15.022  3.1877 -0.3722  0.6163
12622TIP3    H259282   4.851   2.793  14.950 -1.3319 -0.4038 -0.2108
12623TIP3   OH259283   6.267   1.603   4.457 -0.1976  0.4028 -0.0142
12623TIP3    H159284   6.273   1.643   4.370 -0.4949 -0.3491 -0.3955
12623TIP3    H259285   6.293   1.672   4.517  0.0840  0.9178 -0.7081
12624TIP3   OH259286   1.472   6.328  12.087 -0.2127 -0.1991 -0.4211
12624TIP3    H159287   1.541   6.394  12.078 -0.3565  0.3970  2.2878
12624TIP3    H259288   1.457   6.321  12.181 -3.2203 -0.9886 -0.8631
12625TIP3   OH259289   3.119   4.595   3.648  0.3432 -0.2189  0.1400
12625TIP3    H159290   3.146   4.525   3.707  1.6025 -0.1391 -0.3224
12625TIP3    H259291   3.186   4.597   3.580  0.1626  1.2405 -0.0279
12626TIP3   OH259292   4.621   4.034   5.785  0.7423  0.7031  0.2381
12626TIP3    H159293   4.697   4.075   5.826  0.7252 -0.8208  1.9206
12626TIP3    H259294   4.649   3.945   5.763 -0.6500 -0.0704  1.3807
12627TIP3   OH259295   0.458   1.399  16.884  0.4527 -0.0064  0.6904
12627TIP3    H159296   0.420   1.480  16.918  0.6644  0.5057 -0.2719
12627TIP3    H259297   0.448   1.406  16.789 -0.3561 -1.5169  0.6336
12628TIP3   OH259298   4.953   4.437  13.216 -0.1938 -0.2193 -0.0476
12628TIP3    H159299   5.026   4.479  13.261 -0.9620  0.6182  0.4659
12628TIP3    H259300   4.960   4.465  13.125  0.6238 -0.8683 -0.1948
12629TIP3   OH259301   4.377   4.379   4.019  0.3659 -0.2123 -0.2331
12629TIP3    H159302   4.305   4.392   4.080  0.1138  0.0922 -0.5885
12629TIP3    H259303   4.452   4.423   4.060 -0.3013  1.8590 -1.0888
12630TIP3   OH259304   3.773   4.524   0.440  0.5718 -0.4673 -0.2629
12630TIP3    H159305   3.722   4.463   0.387  0.0387 -1.6476  1.5584
12630TIP3    H259306   3.711   4.561   0.502  1.4295  0.0033  0.3376
12631TIP3   OH259307   2.473   0.893   5.092 -0.2152  0.0210  0.2166
12631TIP3    H159308   2.554   0.842   5.097  1.6808  2.7827  0.7064
12631TIP3    H259309   2.459   0.908   4.999  0.5071  0.4042  0.1597
12632TIP3   OH259310   3.253   2.265   4.960  0.0692 -0.0129  0.8311
12632TIP3    H159311   3.199   2.320   4.903  0.6371  0.3389  0.6290
12632TIP3    H259312   3.331   2.317   4.978  0.2936 -0.4726  1.2115
12633TIP3   OH259313   4.984   2.765   2.190  0.0511 -0.6876 -0.2918
12633TIP3    H159314   4.891   2.772   2.213 -0.7194 -0.7062 -3.0376
12633TIP3    H259315   5.016   2.856   2.191 -0.6685 -0.3890 -1.6276
12634TIP3   OH259316   0.119   3.002  15.585  0.2905  0.6730  0.5493
12634TIP3    H159317   0.134   2.934  15.650  1.5689 -0.6494 -1.0385
12634TIP3    H259318   0.193   3.062  15.594  0.4988  0.4575  0.2835
12635TIP3   OH259319   2.772   5.023   3.429 -0.8997  0.0377  0.3722
12635TIP3    H159320   2.795   5.115   3.416  0.4838 -0.4301 -0.6516
12635TIP3    H259321   2.745   4.993   3.342 -1.6577 -0.4559  0.7672
12636TIP3   OH259322   2.095   4.243   0.076  0.1925  0.3342  0.4045
12636TIP3    H159323   2.144   4.168   0.111 -1.3578  0.4138  3.0455
12636TIP3    H259324   2.152   4.318   0.091  0.2460  0.1381  1.2167
12637TIP3   OH259325   0.603   4.695  13.001 -0.0420 -0.4075  0.2558
12637TIP3    H159326   0.586   4.759  12.931 -1.1939 -0.8745  0.0909
12637TIP3    H259327   0.521   4.692  13.050  0.2550 -1.2224  0.7040
12638TIP3   OH259328   1.565   3.092  13.423  0.0282  0.1699  0.0422
12638TIP3    H159329   1.616   3.055  13.495 -0.1822  1.8656  1.1261
12638TIP3    H259330   1.514   3.162  13.463 -1.8004 -0.2669 -1.3552
12639TIP3   OH259331   1.506   4.178  16.958 -0.1047  0.8657 -0.0216
12639TIP3    H159332   1.496   4.232  17.037 -1.9840  1.1451 -0.4089
12639TIP3    H259333   1.529   4.091  16.992  0.4542  1.2935  0.7405
12640TIP3   OH259334   6.455   6.405   4.497  0.4976 -1.1235 -0.0831
12640TIP3    H159335   6.371   6.368   4.525 -2.0080  3.0725 -1.2121
12640TIP3    H259336   6.485   6.455   4.573  0.4517 -0.2736 -0.6164
12641TIP3   OH259337   1.710   3.935   2.407  0.1500  0.3171 -0.1097
12641TIP3    H159338   1.791   3.891   2.382 -0.0434  0.3158 -0.7329
12641TIP3    H259339   1.669   3.876   2.470 -0.0973 -0.3894 -0.9194
12642TIP3   OH259340   1.732   2.701  11.326  0.3802 -0.1317  0.0120
12642TIP3    H159341   1.737   2.606  11.325  0.9725 -0.1034  0.1113
12642TIP3    H259342   1.820   2.731  11.302  0.6907  0.3864  1.6608
12643TIP3   OH259343   5.978   2.366  13.038  0.1480 -0.3436 -0.6290
12643TIP3    H159344   5.896   2.320  13.057 -0.5579  1.2247  0.3966
12643TIP3    H259345   6.022   2.312  12.973 -1.8113 -1.1365 -1.3617
12644TIP3   OH259346   1.142   3.732   3.074 -0.4380  0.7155 -0.3966
12644TIP3    H159347   1.202   3.753   3.146 -0.5201  0.2667 -0.1984
12644TIP3    H259348   1.108   3.817   3.046 -2.1738  0.7646  1.6058
12645TIP3   OH259349   1.474   6.536   3.248  0.3004  0.5621 -0.7078
12645TIP3    H159350   1.551   6.591   3.238  1.2946 -0.9032 -1.3974
12645TIP3    H259351   1.435   6.533   3.161  0.4253 -0.0524 -0.7468
12646TIP3   OH259352   3.662   5.646   0.410  0.2774 -0.2982  0.5884
12646TIP3    H159353   3.614   5.574   0.370  0.7231 -1.4013  1.9634
12646TIP3    H259354   3.728   5.604   0.465  2.7136  1.1285 -1.0434
12647TIP3   OH259355   4.675   6.653  14.507 -0.3772 -0.5162  0.3833
12647TIP3    H159356   4.664   6.672  14.414  0.3784 -1.4772  0.0753
12647TIP3    H259357   4.711   6.734  14.544  0.5631 -0.5478 -0.4270
12648TIP3   OH259358   2.040   3.117  15.655 -0.8204  0.7457  0.0114
12648TIP3    H159359   2.035   3.205  15.693  0.7818  0.7592  0.2831
12648TIP3    H259360   1.987   3.063  15.714  0.4729  1.0297  1.5207
12649TIP3   OH259361   0.015   5.595  15.642  0.0498  0.4926 -0.4699
12649TIP3    H159362   0.103   5.561  15.630  0.1398  0.0444  1.1952
12649TIP3    H259363  -0.030   5.574  15.560  1.5804  1.1210 -1.5213
12650TIP3   OH259364   2.689   5.396   4.735 -0.3133 -0.6016  0.1824
12650TIP3    H159365   2.632   5.446   4.676  0.4591  0.0080 -0.0636
12650TIP3    H259366   2.629   5.340   4.785 -1.2209  0.6663  0.5628
12651TIP3   OH259367   5.428   3.980  13.707 -0.4152 -0.0926  0.3847
12651TIP3    H159368   5.515   3.945  13.687 -0.7531  0.3179 -2.1455
12651TIP3    H259369   5.431   3.999  13.801  1.1521 -2.9669  1.0309
12652TIP3   OH259370   4.765   1.178   6.545  0.1591  0.5870 -0.0482
12652TIP3    H159371   4.756   1.259   6.495  0.0952  1.0406  0.6853
12652TIP3    H259372   4.728   1.198   6.631 -1.8412 -0.8609 -0.4962
12653TIP3   OH259373   4.919   0.315   2.268  0.1087 -0.1933  0.2812
12653TIP3    H159374   4.855   0.366   2.219 -0.4160  0.0494  1.1951
12653TIP3    H259375   4.963   0.379   2.323  1.2272 -0.3432 -0.4162
12654TIP3   OH259376   3.844   0.230  15.891  0.2385  0.0822 -0.0317
12654TIP3    H159377   3.869   0.278  15.812  0.2164 -0.2623 -0.2498
12654TIP3    H259378   3.925   0.224  15.942  0.0385  1.1674  0.4372
12655TIP3   OH259379   2.560   1.045   0.902 -0.0375  0.2055  0.1141
12655TIP3    H159380   2.534   1.042   0.810 -1.6863 -1.1469  0.5818
12655TIP3    H259381   2.607   0.963   0.916  1.0979  0.8519  0.2802
12656TIP3   OH259382   4.673   5.707  16.401  0.7249  0.0866 -0.0156
12656TIP3    H159383   4.690   5.707  16.495  1.0197  0.0533 -0.0670
12656TIP3    H259384   4.673   5.800  16.377 -0.0418  0.1354  0.1359
12657TIP3   OH259385   1.002   4.585   4.382 -0.0919  0.0858 -0.0191
12657TIP3    H159386   0.991   4.597   4.288 -1.6121 -1.3366 -0.0650
12657TIP3    H259387   0.977   4.493   4.397  2.5426 -0.5077  1.4111
12658TIP3   OH259388   0.817   0.586   2.002 -0.2231  0.4603  0.0033
12658TIP3    H159389   0.765   0.641   2.060 -0.8474  0.3914 -0.4843
12658TIP3    H259390   0.839   0.509   2.056 -0.8006  0.3947  0.1534
12659TIP3   OH259391   5.464   3.076  15.461  0.0357 -0.2377  0.0364
12659TIP3    H159392   5.457   3.027  15.542  1.1806 -0.4776  0.0179
12659TIP3    H259393   5.450   3.011  15.392  1.3042 -0.5180  0.0169
12660TIP3   OH259394   2.446   2.161   3.252 -0.0080  0.2593  0.3780
12660TIP3    H159395   2.360   2.177   3.212 -0.4154 -0.3609  1.0020
12660TIP3    H259396   2.429   2.155   3.345  0.7966  0.6312  0.5585
12661TIP3   OH259397   6.676   3.578  12.489 -0.0912 -0.4762 -0.3556
12661TIP3    H159398   6.713   3.491  12.472  1.0745 -1.0677  3.9144
12661TIP3    H259399   6.746   3.639  12.469  0.5801 -0.9402  0.5004
12662TIP3   OH259400   2.220   0.239   3.630  0.2935 -0.0234  0.0395
12662TIP3    H159401   2.156   0.220   3.562 -0.6182  1.3969  0.4454
12662TIP3    H259402   2.223   0.160   3.683 -1.9835  0.2295  0.6587
12663TIP3   OH259403   2.831   2.884   5.774 -0.5903 -0.0466  0.3721
12663TIP3    H159404   2.758   2.924   5.822 -1.4964  0.6811 -1.5026
12663TIP3    H259405   2.791   2.852   5.693  1.3348  1.3500 -1.2148
12664TIP3   OH259406   4.141   0.872  13.668 -0.2903  0.1175  0.0352
12664TIP3    H159407   4.223   0.875  13.716  0.3655  0.4440 -1.0744
12664TIP3    H259408   4.077   0.912  13.727  1.0507  3.1482 -0.4103
12665TIP3   OH259409   2.531   1.991   4.182 -0.4864  0.5711 -0.0922
12665TIP3    H159410   2.530   2.087   4.186 -0.6300  0.6182 -1.0641
12665TIP3    H259411   2.561   1.971   4.093  0.3853 -0.2955  0.3683
12666TIP3   OH259412   0.259   1.605   0.963  0.0015  0.1781 -0.0893
12666TIP3    H159413   0.315   1.679   0.941 -0.2663  0.2617 -0.5022
12666TIP3    H259414   0.253   1.606   1.059  2.3960 -1.0565  0.1565
12667TIP3   OH259415   3.835   1.169   5.926  0.1432  0.4032  0.0082
12667TIP3    H159416   3.800   1.182   6.014  0.8665 -0.4485  0.4363
12667TIP3    H259417   3.778   1.221   5.870 -2.0051 -1.1541  0.6304
12668TIP3   OH259418   1.523   0.229   3.776  0.1879 -0.1426  0.3236
12668TIP3    H159419   1.490   0.170   3.708 -1.3374  0.2450  0.7017
12668TIP3    H259420   1.462   0.303   3.776  0.7073  0.3087  1.4720
12669TIP3   OH259421   6.090   2.971  14.601  0.3668 -0.0075 -0.0178
12669TIP3    H159422   6.180   2.997  14.619  0.8393 -2.8812  2.6273
12669TIP3    H259423   6.098   2.889  14.551 -0.7766 -0.1338 -0.0249
12670TIP3   OH259424   5.106   6.682   2.836 -0.7168  0.3815  0.3546
12670TIP3    H159425   5.176   6.635   2.881 -0.7712  0.9361  1.0489
12670TIP3    H259426   5.093   6.634   2.755 -0.2537 -0.3473  0.6965
12671TIP3   OH259427   2.071   3.143  16.067  0.1725 -0.3871 -0.1174
12671TIP3    H159428   2.040   3.067  16.116  0.4936  0.3206  1.2234
12671TIP3    H259429   1.995   3.170  16.014 -0.1598 -1.2055 -0.0681
12672TIP3   OH259430   0.373   6.406   4.787  0.3569  0.1935 -0.0794
12672TIP3    H159431   0.412   6.467   4.724 -0.3965  0.2834 -0.4793
12672TIP3    H259432   0.408   6.433   4.872  1.3953  0.0654 -0.4524
12673TIP3   OH259433   3.387   3.329  14.147  0.4120 -0.5578  0.3425
12673TIP3    H159434   3.426   3.375  14.221  1.6194  0.5961 -0.9532
12673TIP3    H259435   3.296   3.360  14.145  0.4611 -0.3355  1.1194
12674TIP3   OH259436   5.029   5.966  15.311 -0.1039  0.4652 -0.1853
12674TIP3    H159437   5.006   5.905  15.241 -2.6776  1.9717 -0.7860
12674TIP3    H259438   4.947   5.981  15.358  1.3531  0.2438  2.6363
12675TIP3   OH259439   5.560   6.099  14.332 -0.1223 -0.2333  0.2854
12675TIP3    H159440   5.617   6.103  14.255 -0.4080  1.1023  0.1180
12675TIP3    H259441   5.549   6.006  14.349  1.9310 -0.5364  0.2002
12676TIP3   OH259442   4.639   5.922  15.824  0.5741 -0.5145 -0.3716
12676TIP3    H159443   4.607   5.947  15.737 -0.8268  2.8860  0.9500
12676TIP3    H259444   4.563   5.882  15.867  0.6253 -0.2780 -0.0545
12677TIP3   OH259445   4.711   6.537  13.172  0.3929  0.1159  0.0636
12677TIP3    H159446   4.791   6.572  13.131  0.3119  0.2592  0.0255
12677TIP3    H259447   4.674   6.478  13.106 -1.1419  2.3204 -1.1818
12678TIP3   OH259448   3.070   5.127   3.325 -0.0169 -0.5194 -0.1271
12678TIP3    H159449   3.058   5.218   3.298  2.4246 -0.4618 -1.2359
12678TIP3    H259450   3.074   5.078   3.243  0.8987 -1.3002  0.3614
12679TIP3   OH259451   1.895   1.473   3.535 -0.2465 -0.1595 -0.7445
12679TIP3    H159452   1.955   1.497   3.465  0.2565  0.8113 -0.0002
12679TIP3    H259453   1.828   1.541   3.533  0.8934  1.0666  1.0374
12680TIP3   OH259454   4.937   4.731   5.413 -0.0032  0.5548  0.3527
12680TIP3    H159455   4.851   4.766   5.434 -0.1959  0.1923  0.1811
12680TIP3    H259456   4.992   4.757   5.486 -0.2244  0.9156  0.3905
12681TIP3   OH259457   3.795   4.865  16.866  0.6954  0.2429  0.3031
12681TIP3    H159458   3.829   4.850  16.954  0.1000 -1.1244  0.3397
12681TIP3    H259459   3.755   4.781  16.842  0.3411  0.7720 -1.0413
12682TIP3   OH259460   1.383   0.022  16.795 -0.1071 -0.1939  0.5584
12682TIP3    H159461   1.445   0.025  16.868 -0.3066  1.9647  0.7204
12682TIP3    H259462   1.353   0.113  16.785 -1.5151 -0.7634 -0.9993
12683TIP3   OH259463   1.983   0.054  12.283 -0.3150  0.5687  0.0981
12683TIP3    H159464   2.074   0.032  12.266  0.1861  3.3900 -1.5424
12683TIP3    H259465   1.982   0.092  12.371  0.4374  1.8708 -0.4225
12684TIP3   OH259466   3.398   4.548  11.354  0.0328  0.0745 -0.1507
12684TIP3    H159467   3.359   4.611  11.293  1.0951  1.0020  0.0783
12684TIP3    H259468   3.361   4.464  11.330 -1.2178  0.7434 -0.6621
12685TIP3   OH259469   4.538   5.885  11.908 -0.2634  0.1888 -0.0334
12685TIP3    H159470   4.498   5.810  11.950  0.6716 -2.1569 -2.9564
12685TIP3    H259471   4.484   5.901  11.830  1.3633  0.4040 -1.1798
12686TIP3   OH259472   5.345   2.558  13.329 -0.2667  0.2564  0.7788
12686TIP3    H159473   5.378   2.641  13.294  0.5887 -1.1570 -2.0939
12686TIP3    H259474   5.420   2.520  13.375  0.6010 -0.5714 -1.2054
12687TIP3   OH259475   4.335   0.840   3.593  0.0578 -0.0079 -0.3770
12687TIP3    H159476   4.362   0.899   3.664 -1.2285  1.6406 -1.1868
12687TIP3    H259477   4.405   0.845   3.529 -0.1241  0.7830 -0.5161
12688TIP3   OH259478   4.999   4.045   5.738  0.7343 -0.2309 -0.2183
12688TIP3    H159479   5.012   4.129   5.693 -0.3039  0.0976  0.0785
12688TIP3    H259480   4.934   4.063   5.805  0.2513 -1.3556 -0.3626
12689TIP3   OH259481   1.526   1.051  11.843 -0.0554 -0.1954  0.2473
12689TIP3    H159482   1.434   1.049  11.869 -0.7940 -0.1895 -2.1036
12689TIP3    H259483   1.569   1.099  11.913 -1.9372  0.2860  1.1555
12690TIP3   OH259484   0.218   1.885  13.710  0.1420 -0.4159  0.0338
12690TIP3    H159485   0.139   1.937  13.726  0.0623 -0.9213  1.3744
12690TIP3    H259486   0.286   1.951  13.695 -0.4393  0.0315 -0.6911
12691TIP3   OH259487   5.827   0.698  15.196  0.0682 -0.2592 -0.7827
12691TIP3    H159488   5.917   0.731  15.200  0.6980 -1.8926 -0.7704
12691TIP3    H259489   5.782   0.742  15.267  1.2103 -0.3763  0.0354
12692TIP3   OH259490   1.302   2.848  11.384  0.0143 -0.8584  0.0614
12692TIP3    H159491   1.224   2.798  11.408 -0.1050 -1.6232 -1.8216
12692TIP3    H259492   1.353   2.789  11.328  2.1461 -0.5136  1.4775
12693TIP3   OH259493   6.031   5.913   1.534 -0.6317  0.2342  0.1717
12693TIP3    H159494   6.064   5.958   1.612 -0.2759  0.3244 -0.0274
12693TIP3    H259495   5.943   5.949   1.521 -1.2038 -0.7172  1.2690
12694TIP3   OH259496   2.409   3.830  12.671 -0.5992  0.1946 -0.6917
12694TIP3    H159497   2.366   3.746  12.654  0.9164 -0.3804 -1.9592
12694TIP3    H259498   2.464   3.814  12.748  0.6641 -0.4077 -1.6747
12695TIP3   OH259499   2.602   6.311   3.859  0.1515 -0.2462 -0.0143
12695TIP3    H159500   2.520   6.311   3.810 -0.2241  0.0720  0.6062
12695TIP3    H259501   2.653   6.240   3.820 -0.7550 -1.0127  0.1464
12696TIP3   OH259502   4.975   0.199  16.009  0.2047 -0.3404 -0.5300
12696TIP3    H159503   4.970   0.192  15.913 -2.3643 -0.5268 -0.4349
12696TIP3    H259504   4.916   0.270  16.032  1.4353  0.2773  0.9158
12697TIP3   OH259505   5.851   3.896   0.414  0.1434  0.3758  0.7307
12697TIP3    H159506   5.761   3.900   0.381 -0.4275  4.0248  2.2190
12697TIP3    H259507   5.899   3.957   0.358  1.0788  0.3343  1.4728
12698TIP3   OH259508   1.358   2.887  12.869 -0.2845  0.6211 -0.4017
12698TIP3    H159509   1.343   2.799  12.905 -2.6231  1.9673  2.3313
12698TIP3    H259510   1.452   2.899  12.873 -0.1384 -0.7036  2.1143
12699TIP3   OH259511   0.839   4.572  12.948 -0.5399  0.1500 -0.6085
12699TIP3    H159512   0.815   4.520  12.872 -3.0571  0.4980 -0.1350
12699TIP3    H259513   0.774   4.643  12.950  0.4788  1.1072  0.9293
12700TIP3   OH259514   2.482   0.478   1.662  0.0315 -0.0908  0.0479
12700TIP3    H159515   2.390   0.473   1.634 -0.0513 -0.7080  0.4191
12700TIP3    H259516   2.527   0.415   1.606  0.5761  1.5304 -1.4304
12701TIP3   OH259517   6.437   1.995  11.420  0.2610 -0.6423  0.3652
12701TIP3    H159518   6.417   2.089  11.421  1.3919 -0.3017 -2.1859
12701TIP3    H259519   6.378   1.958  11.355  0.9853 -1.3846  0.1121
12702TIP3   OH259520   6.358   4.342  16.202 -0.1555 -0.4536 -0.5107
12702TIP3    H159521   6.291   4.273  16.202  0.5438 -1.1751  1.0589
12702TIP3    H259522   6.408   4.327  16.282  1.1473  0.8050 -1.0475
12703TIP3   OH259523   0.139   1.628   6.093  0.4812  0.4201  0.7095
12703TIP3    H159524   0.144   1.721   6.070  2.8186 -0.1357 -1.4878
12703TIP3    H259525   0.128   1.584   6.009 -1.8749 -1.2905  1.8210
12704TIP3   OH259526   3.086   6.582   5.168 -0.4449  0.6395 -0.4587
12704TIP3    H159527   3.153   6.530   5.124 -0.0765  0.6590  0.0729
12704TIP3    H259528   3.008   6.528   5.166 -0.1515  0.2059 -0.2039
12705TIP3   OH259529   6.556   2.025  11.034 -0.1171  0.3601  0.0263
12705TIP3    H159530   6.628   1.984  11.083 -0.2676  0.6959  0.5319
12705TIP3    H259531   6.572   1.999  10.943  0.9235  0.8052  0.0556
12706TIP3   OH259532   3.955   0.594   4.111 -0.0026 -0.5553 -0.0901
12706TIP3    H159533   4.005   0.645   4.175  0.0369 -1.8601  0.9618
12706TIP3    H259534   3.958   0.505   4.145 -2.1801 -0.8432 -0.5523
12707TIP3   OH259535   6.587   6.416   0.438 -0.1115  0.4122  0.1994
12707TIP3    H159536   6.596   6.334   0.486 -0.3350  0.2398 -0.0512
12707TIP3    H259537   6.498   6.445   0.459 -0.1899  0.3639 -0.0670
12708TIP3   OH259538   3.361   0.672  15.747  0.1558  0.1199 -0.2463
12708TIP3    H159539   3.383   0.736  15.679 -0.0239 -0.7554 -1.1561
12708TIP3    H259540   3.425   0.688  15.817 -0.9612  2.4352  0.3422
12709TIP3   OH259541   3.808   4.893   0.049  0.5394  0.0345  0.5305
12709TIP3    H159542   3.723   4.931   0.071  0.0885 -0.4150 -0.3975
12709TIP3    H259543   3.812   4.812   0.101  1.1805  0.9153  1.9278
12710TIP3   OH259544   6.117   2.702  16.864  0.3542  0.1615 -0.0657
12710TIP3    H159545   6.179   2.734  16.929  0.8759  0.4940 -0.7138
12710TIP3    H259546   6.155   2.620  16.833 -0.0986 -0.2032  0.3393
12711TIP3   OH259547   3.820   6.503  15.012  0.4074  0.0108  0.2642
12711TIP3    H159548   3.904   6.479  14.972  0.8482 -0.8279  1.6255
12711TIP3    H259549   3.821   6.599  15.011  1.2709  0.0156  0.0299
12712TIP3   OH259550   4.965   0.993   1.170  0.2443  0.7680  0.8323
12712TIP3    H159551   4.955   0.926   1.238 -3.1296 -0.0917 -0.2930
12712TIP3    H259552   4.935   1.074   1.211 -1.2955  0.3558  0.5620
12713TIP3   OH259553   0.506   6.684   1.127  0.4221 -0.4599  0.0877
12713TIP3    H159554   0.509   6.602   1.077  0.7989 -0.1291 -0.4396
12713TIP3    H259555   0.474   6.749   1.065  0.2801 -0.1684  0.4599
12714TIP3   OH259556   5.296   1.177   4.882  0.7539  0.8048  0.4123
12714TIP3    H159557   5.364   1.145   4.823  0.4578  1.6079 -0.3908
12714TIP3    H259558   5.312   1.271   4.889  0.5225  0.7858  1.2815
12715TIP3   OH259559   3.241   5.767  13.251  0.3014  0.0678  0.2832
12715TIP3    H159560   3.202   5.688  13.215 -1.2407  0.6458  0.5751
12715TIP3    H259561   3.334   5.760  13.231  0.1042 -1.5294 -0.1999
12716TIP3   OH259562   1.826   0.224  13.352  0.6313 -0.1550 -0.1176
12716TIP3    H159563   1.793   0.312  13.337  1.3321  0.1427  0.0431
12716TIP3    H259564   1.852   0.224  13.444  0.6923 -0.5122 -0.1341
12717TIP3   OH259565   5.783   1.963   5.358 -0.1128 -0.0072 -0.0367
12717TIP3    H159566   5.840   1.932   5.429  0.0300 -0.6267 -0.4085
12717TIP3    H259567   5.759   1.883   5.311 -0.2690  0.3879 -0.6401
12718TIP3   OH259568   6.316   4.491   5.969 -0.5385 -0.0877  0.0916
12718TIP3    H159569   6.286   4.494   6.060  1.9196  0.8207  0.9506
12718TIP3    H259570   6.407   4.521   5.972  0.7938 -3.3223 -2.2154
12719TIP3   OH259571   1.943   1.162   4.036  0.4302 -0.1650  0.1201
12719TIP3    H159572   1.906   1.105   3.968  1.1495 -0.8163  0.2556
12719TIP3    H259573   2.008   1.215   3.990  0.6943 -0.3845  0.2401
12720TIP3   OH259574   3.492   0.556  15.007 -0.6087  0.3315  0.3443
12720TIP3    H159575   3.491   0.549  15.103 -0.4269  1.1263  0.4070
12720TIP3    H259576   3.512   0.648  14.990 -2.8317  0.7138 -0.4567
12721TIP3   OH259577   0.714   4.182   1.272 -0.0205 -0.1032 -0.1561
12721TIP3    H159578   0.747   4.098   1.303 -0.5225 -0.3232 -0.2057
12721TIP3    H259579   0.783   4.215   1.214  0.2086 -0.4486 -0.0805
12722TIP3   OH259580   1.473   0.623  13.176  0.2762  0.2261 -0.2025
12722TIP3    H159581   1.409   0.640  13.245 -1.3445  0.5706 -1.7304
12722TIP3    H259582   1.484   0.528  13.177  1.8726  0.3545  1.8467
12723TIP3   OH259583   4.170   6.047  11.776  0.6217  0.4415  0.0889
12723TIP3    H159584   4.160   5.963  11.822  0.0885  0.1571 -0.5215
12723TIP3    H259585   4.189   6.022  11.685 -1.3961  0.9390 -0.5257
12724TIP3   OH259586   6.123   1.411  15.219  0.2789  0.4220 -0.1665
12724TIP3    H159587   6.193   1.418  15.153  0.2673  1.8172 -0.0681
12724TIP3    H259588   6.061   1.480  15.195 -0.0725  0.4954  0.9041
12725TIP3   OH259589   4.854   3.014  16.237 -0.1767 -0.1391  0.1593
12725TIP3    H159590   4.926   3.001  16.300  0.4660 -0.7006 -0.6662
12725TIP3    H259591   4.830   3.106  16.247  1.7189  0.5117 -0.6074
12726TIP3   OH259592   1.328   2.678  14.907  0.0897 -0.3070 -0.3859
12726TIP3    H159593   1.422   2.666  14.921  0.2228  1.8819  1.0358
12726TIP3    H259594   1.293   2.589  14.903  1.9861 -1.1763  0.8947
12727TIP3   OH259595   4.652   1.175  12.039  0.7316  0.4484 -0.1198
12727TIP3    H159596   4.678   1.158  12.129 -0.8361  0.1694  0.3088
12727TIP3    H259597   4.651   1.270  12.032  0.4290  0.4771  0.2932
12728TIP3   OH259598   0.232   2.823   4.775  0.3062 -0.3544 -0.1984
12728TIP3    H159599   0.157   2.812   4.833 -1.2244 -0.4186 -2.1028
12728TIP3    H259600   0.239   2.917   4.761  1.3592 -0.2421  0.8806
12729TIP3   OH259601   2.664   4.245  11.153  0.2662  0.6370 -0.4443
12729TIP3    H159602   2.730   4.270  11.218 -1.4771  0.5585  1.4663
12729TIP3    H259603   2.687   4.155  11.130  0.4853  0.3876  0.6745
12730TIP3   OH259604   6.236   2.579  13.978  0.1726 -0.2022  0.1292
12730TIP3    H159605   6.252   2.654  14.034  1.1259  0.0828 -0.5044
12730TIP3    H259606   6.256   2.503  14.033  0.8820  0.0671  0.2543
12731TIP3   OH259607   2.235   2.207   0.842 -0.1633  0.2983  0.1946
12731TIP3    H159608   2.221   2.301   0.837  2.0057  0.7639  1.2980
12731TIP3    H259609   2.221   2.186   0.934  1.0277 -0.0940  0.3070
12732TIP3   OH259610   3.795   1.368   4.345 -0.0929 -0.0481  0.5926
12732TIP3    H159611   3.819   1.275   4.346  1.9105  0.4186  1.5353
12732TIP3    H259612   3.850   1.407   4.413  0.5158  2.1395 -1.0400
12733TIP3   OH259613   3.827   0.327   5.635 -0.1366 -0.1753  0.0052
12733TIP3    H159614   3.733   0.328   5.650  0.2574  1.7539  3.5073
12733TIP3    H259615   3.844   0.399   5.575 -0.7736  0.8800  1.0547
12734TIP3   OH259616   4.017   1.279  11.492  0.6695 -0.0260 -0.4144
12734TIP3    H159617   4.020   1.369  11.458 -0.7804  0.8380  1.6066
12734TIP3    H259618   3.983   1.228  11.419  0.5276  1.2299 -1.2728
12735TIP3   OH259619   0.516   6.240  16.031 -0.5816  0.1892 -0.0781
12735TIP3    H159620   0.481   6.185  15.962 -0.5365 -0.5658  0.4897
12735TIP3    H259621   0.590   6.286  15.991 -0.9624  0.2537 -0.7082
12736TIP3   OH259622   0.494   2.737   4.720  0.3391 -0.3671  0.2602
12736TIP3    H159623   0.405   2.737   4.753  0.5000 -0.4068  0.7099
12736TIP3    H259624   0.525   2.647   4.734  0.3159 -0.4578 -0.2633
12737TIP3   OH259625   2.521   2.511   1.336  0.2113 -0.3536 -0.1730
12737TIP3    H159626   2.452   2.482   1.276 -0.9139  0.2550  0.7994
12737TIP3    H259627   2.580   2.562   1.281 -0.3490 -0.5064 -0.9360
12738TIP3   OH259628   5.522   0.252  14.475 -0.0023 -0.1074  0.3108
12738TIP3    H159629   5.581   0.319  14.442  1.0091 -1.1556 -0.0645
12738TIP3    H259630   5.459   0.238  14.403  1.1168 -1.1035 -0.5135
12739TIP3   OH259631   2.409   5.989  14.326 -0.0963  0.0664 -0.4493
12739TIP3    H159632   2.399   6.078  14.293 -0.1654  0.6737  1.1351
12739TIP3    H259633   2.500   5.983  14.356 -0.1593 -0.3165 -0.3161
12740TIP3   OH259634   0.125   6.083   0.313  0.0015 -0.1672  0.1529
12740TIP3    H159635   0.192   6.065   0.378  1.3946 -1.1987 -1.5157
12740TIP3    H259636   0.076   6.001   0.305  1.1197 -0.7073 -1.5081
12741TIP3   OH259637   4.282   6.328  12.377  0.0541  0.3542  0.1235
12741TIP3    H159638   4.251   6.397  12.436  1.0079  1.0621 -0.1818
12741TIP3    H259639   4.238   6.249  12.409  0.5678  0.7040  1.8278
12742TIP3   OH259640   5.682   0.782  16.634  0.2717 -0.6356 -0.3746
12742TIP3    H159641   5.710   0.769  16.544  0.4899  0.9689 -0.5820
12742TIP3    H259642   5.609   0.844  16.628  0.7241  0.0281  0.5736
12743TIP3   OH259643   5.821   0.381  12.010 -0.3939 -0.8434  0.1802
12743TIP3    H159644   5.778   0.382  12.096 -0.5519  0.2713  0.1079
12743TIP3    H259645   5.818   0.472  11.982  1.2043 -0.9021 -0.2471
12744TIP3   OH259646   0.892   4.288  15.767  0.3139 -0.0042 -0.0293
12744TIP3    H159647   0.918   4.326  15.683  0.1361 -0.7903 -0.4476
12744TIP3    H259648   0.916   4.354  15.832 -0.7827  1.2222 -0.8113
12745TIP3   OH259649   2.788   1.958  14.432  0.2688  0.1798  0.1140
12745TIP3    H159650   2.877   1.936  14.404  1.0940  2.4740  0.7066
12745TIP3    H259651   2.783   1.927  14.522  0.2553 -0.4535 -0.0989
12746TIP3   OH259652   4.497   0.333   2.166  0.0017 -0.2389 -0.8324
12746TIP3    H159653   4.472   0.424   2.149 -1.3365 -1.1319 -4.6145
12746TIP3    H259654   4.487   0.323   2.261 -2.2020  2.8677 -0.5815
12747TIP3   OH259655   4.400   0.170  13.118 -0.8127 -0.3909 -0.5095
12747TIP3    H159656   4.428   0.171  13.210  2.0469  1.5961 -1.2890
12747TIP3    H259657   4.348   0.249  13.108  0.3708  0.3589 -0.9513
12748TIP3   OH259658   3.284   6.260   2.699  0.9216  0.7124  0.3600
12748TIP3    H159659   3.332   6.190   2.655  1.5167 -0.2080  2.3269
12748TIP3    H259660   3.206   6.274   2.645  1.5229 -0.4432 -0.8567
12749TIP3   OH259661   4.662   5.178   2.967  0.4367 -0.4846 -0.0814
12749TIP3    H159662   4.622   5.265   2.953  0.9777 -0.0393  1.0632
12749TIP3    H259663   4.619   5.144   3.045  3.3138  0.6936  2.1992
12750TIP3   OH259664   3.841   5.780   0.634  0.0276 -0.2302  0.2525
12750TIP3    H159665   3.747   5.788   0.650  0.1567  1.6367  0.2888
12750TIP3    H259666   3.861   5.849   0.571  1.6728  0.6899  1.6685
12751TIP3   OH259667   5.815   6.432   2.406 -0.3836 -0.2532 -0.1924
12751TIP3    H159668   5.892   6.489   2.398 -0.1798 -0.7955 -3.0588
12751TIP3    H259669   5.818   6.401   2.497  1.4758  1.4986  0.4308
12752TIP3   OH259670   5.450   0.399   3.182 -0.0087  0.7718 -0.0354
12752TIP3    H159671   5.407   0.351   3.253  2.5128 -0.5600  0.7123
12752TIP3    H259672   5.409   0.365   3.102  0.1082 -0.9753  0.6022
12753TIP3   OH259673   2.693   5.519  13.179 -0.5062 -0.3487  1.1813
12753TIP3    H159674   2.702   5.603  13.134  0.4168 -0.6695  0.7518
12753TIP3    H259675   2.755   5.523  13.252 -0.2761 -0.7531  1.0119
12754TIP3   OH259676   4.532   1.056  16.548  0.3428 -0.6422  0.0753
12754TIP3    H159677   4.513   0.983  16.606 -1.4285 -0.3668 -0.1044
12754TIP3    H259678   4.452   1.108  16.547  1.8141  1.8141  0.9071
12755TIP3   OH259679   5.615   0.357   1.172  0.1352 -0.1376 -0.1884
12755TIP3    H159680   5.629   0.269   1.207  2.2614 -0.8723 -2.5095
12755TIP3    H259681   5.643   0.415   1.242 -1.2866 -1.2496  1.3885
12756TIP3   OH259682   0.866   0.818  17.328 -0.5952 -0.4791 -0.0203
12756TIP3    H159683   0.890   0.726  17.315 -0.3578 -0.4268  0.0555
12756TIP3    H259684   0.922   0.848  17.399  0.3026  0.1148 -0.9611
12757TIP3   OH259685   0.660   4.057   4.372  0.2398  0.9109 -0.2618
12757TIP3    H159686   0.580   4.025   4.329 -1.3782  4.0233  0.1354
12757TIP3    H259687   0.687   3.985   4.429 -3.3477  0.2758  0.9267
12758TIP3   OH259688   6.407   6.671  14.154 -0.8222 -0.2504 -0.4092
12758TIP3    H159689   6.495   6.633  14.150 -1.3126 -1.3839 -0.9035
12758TIP3    H259690   6.354   6.615  14.098 -2.0424 -0.0540  0.5039
12759TIP3   OH259691   0.606   0.195   5.346  0.3099 -0.7626  0.5341
12759TIP3    H159692   0.634   0.180   5.436  1.2202  1.3767  0.6627
12759TIP3    H259693   0.657   0.271   5.317 -2.1782  0.5431 -0.7538
12760TIP3   OH259694   0.699   3.885  13.815 -0.2684  0.7524  0.0553
12760TIP3    H159695   0.765   3.899  13.747  0.4014  2.1700  0.9664
12760TIP3    H259696   0.621   3.854  13.767  0.9858 -0.8981 -1.0488
12761TIP3   OH259697   1.656   6.200  17.296  0.2497  0.0849 -0.2668
12761TIP3    H159698   1.634   6.123  17.243  0.8503 -1.8244  2.0997
12761TIP3    H259699   1.572   6.237  17.319 -0.1305 -0.8695 -0.0575
12762TIP3   OH259700   4.861   0.028  16.718  0.4729  0.3356 -0.2067
12762TIP3    H159701   4.779   0.018  16.766  0.2886  0.4890 -0.4880
12762TIP3    H259702   4.839   0.007  16.627  0.4886  1.4404 -0.4855
12763TIP3   OH259703   4.848   1.626   4.619 -0.3164  0.1529 -0.2940
12763TIP3    H159704   4.890   1.680   4.552 -1.3137  3.1210  1.3057
12763TIP3    H259705   4.755   1.624   4.593 -0.7004  1.2789  0.8954
12764TIP3   OH259706   5.246   3.902   4.413  0.1450  0.3553  0.7129
12764TIP3    H159707   5.227   3.830   4.353  0.8610  0.1969  0.6652
12764TIP3    H259708   5.305   3.959   4.363 -0.6544  1.1385  0.6363
12765TIP3   OH259709   0.230   3.308   2.700  0.4966  0.4525 -0.5042
12765TIP3    H159710   0.190   3.373   2.642  0.8818  1.4934  0.3592
12765TIP3    H259711   0.314   3.287   2.660  0.4147  0.5621 -0.7322
12766TIP3   OH259712   5.483   6.457   5.275  0.0107 -0.2261 -0.0502
12766TIP3    H159713   5.420   6.467   5.204  0.1730  1.4663 -0.0006
12766TIP3    H259714   5.430   6.438   5.352 -0.6221  2.2789  0.2228
12767TIP3   OH259715   4.362   2.507   2.678 -0.7097 -0.1009 -0.3296
12767TIP3    H159716   4.288   2.553   2.640 -0.0159  0.8130 -0.5928
12767TIP3    H259717   4.342   2.503   2.772 -0.5158  1.2731 -0.2087
12768TIP3   OH259718   1.383   3.442  13.937  0.0033 -0.3466 -0.7705
12768TIP3    H159719   1.380   3.524  13.985  2.0361  0.5191 -2.0142
12768TIP3    H259720   1.446   3.388  13.985 -1.4947 -1.3400  0.1804
12769TIP3   OH259721   2.469   5.672  11.963 -0.1512  0.0838 -0.8569
12769TIP3    H159722   2.420   5.662  12.045 -0.6917 -0.1204 -1.2051
12769TIP3    H259723   2.556   5.703  11.991  0.3086 -1.7788 -0.0418
12770TIP3   OH259724   1.257   2.683  13.008  0.1400  0.1190 -0.1192
12770TIP3    H159725   1.315   2.608  13.021  1.7161  0.8621 -2.2147
12770TIP3    H259726   1.175   2.645  12.978  0.8323 -0.7877 -0.9200
12771TIP3   OH259727   0.362   4.788  13.929  0.2826 -0.2822  0.0626
12771TIP3    H159728   0.376   4.855  13.996  1.2890 -1.1874  0.8032
12771TIP3    H259729   0.288   4.737  13.961 -0.9451  0.8634 -0.8524
12772TIP3   OH259730   3.970   6.024  12.325 -0.1352  0.1537  0.2675
12772TIP3    H159731   3.984   6.013  12.420 -2.3723 -0.8202  0.5414
12772TIP3    H259732   3.934   5.940  12.297  1.1429  0.1788 -1.6308
12773TIP3   OH259733   3.859   6.008  11.493  0.8195 -0.6025  0.2999
12773TIP3    H159734   3.881   5.944  11.425  1.3093 -1.2268  1.0289
12773TIP3    H259735   3.802   6.071  11.449 -1.3277 -2.6052  0.0204
12774TIP3   OH259736   5.860   5.324   2.529 -0.0697 -0.1372  0.0296
12774TIP3    H159737   5.951   5.309   2.502 -0.3887 -2.8944  0.2153
12774TIP3    H259738   5.811   5.325   2.446 -0.0072  0.3470 -0.0056
12775TIP3   OH259739   2.531   1.822   1.440  0.2538 -0.5955  0.3609
12775TIP3    H159740   2.456   1.774   1.406 -0.9626 -1.0333  3.3618
12775TIP3    H259741   2.495   1.907   1.465  1.4182  0.2580 -0.7410
12776TIP3   OH259742   1.883   1.494  17.003  0.1346 -0.2183  0.4107
12776TIP3    H159743   1.842   1.418  16.962 -0.3376 -0.0981  0.6510
12776TIP3    H259744   1.848   1.494  17.093  0.3321  0.1312  0.4882
12777TIP3   OH259745   3.957   0.569   2.398  0.1590  0.1506 -0.0748
12777TIP3    H159746   3.965   0.662   2.375  2.3979 -0.0356 -0.3198
12777TIP3    H259747   3.929   0.526   2.318  2.4431  0.2376 -0.9994
12778TIP3   OH259748   0.129   1.353   5.450  0.2956 -0.0962 -0.4744
12778TIP3    H159749   0.079   1.416   5.502 -1.1903 -1.4982 -0.1241
12778TIP3    H259750   0.221   1.377   5.464 -0.2292  2.0874 -0.5237
12779TIP3   OH259751   6.025   2.161   0.803 -0.3197  0.0330  0.5454
12779TIP3    H159752   6.050   2.238   0.752  1.3110 -1.8547 -1.7125
12779TIP3    H259753   6.056   2.179   0.892  1.3033  1.4136 -0.2574
12780TIP3   OH259754   3.328   1.258  13.379 -0.2110  0.2549 -0.4403
12780TIP3    H159755   3.356   1.348  13.366 -1.2979  0.5650 -0.7736
12780TIP3    H259756   3.233   1.264  13.390 -0.1972 -0.7687  0.3722
12781TIP3   OH259757   3.397   4.239  12.100  0.2548 -0.2272  0.1064
12781TIP3    H159758   3.326   4.185  12.064 -0.1119  1.1793 -1.4407
12781TIP3    H259759   3.373   4.328  12.075  3.3180  0.1777 -1.8807
12782TIP3   OH259760   2.918   2.765  13.252 -0.1821 -0.4990 -0.0860
12782TIP3    H159761   2.946   2.674  13.246  1.5158 -0.1085  1.1463
12782TIP3    H259762   2.927   2.787  13.345  0.9044  1.3371 -0.5662
12783TIP3   OH259763   2.620   1.850  17.054 -0.1033 -0.1850  0.4005
12783TIP3    H159764   2.586   1.796  16.983  1.1363  0.6262 -0.8809
12783TIP3    H259765   2.648   1.788  17.121  0.0576 -1.0564 -0.4546
12784TIP3   OH259766   5.463   6.043  13.591 -0.6696 -0.5034 -0.3712
12784TIP3    H159767   5.431   6.010  13.507 -1.3588  1.0333 -0.7241
12784TIP3    H259768   5.524   5.975  13.621 -1.2219 -1.5714 -1.5917
12785TIP3   OH259769   5.600   0.477   3.469  0.2502 -0.2708 -0.5468
12785TIP3    H159770   5.563   0.397   3.506 -0.4592  0.3420  0.1075
12785TIP3    H259771   5.678   0.494   3.521  0.0643 -0.2127 -0.2831
12786TIP3   OH259772   3.639   2.338  11.576  0.3904  0.1753  0.6691
12786TIP3    H159773   3.668   2.291  11.654  0.0862 -0.2997  0.5029
12786TIP3    H259774   3.669   2.284  11.503 -0.1831  0.0959  0.4799
12787TIP3   OH259775   0.328   2.528  11.732 -0.7341 -0.6267  0.1780
12787TIP3    H159776   0.293   2.519  11.643  0.3353  1.9792 -0.6093
12787TIP3    H259777   0.412   2.482  11.729  0.4071  1.3401 -0.9766
12788TIP3   OH259778   5.678   3.471  16.684 -0.6766  0.3544  0.1606
12788TIP3    H159779   5.694   3.394  16.629 -0.8020 -0.0498  0.6858
12788TIP3    H259780   5.687   3.545  16.624 -0.0230 -0.0373 -0.2321
12789TIP3   OH259781   1.078   6.021   2.824  0.1157  0.6219 -0.5590
12789TIP3    H159782   1.063   6.083   2.752  1.3502  0.6170 -0.8411
12789TIP3    H259783   0.991   6.005   2.860 -0.1800  3.2382  0.1141
12790TIP3   OH259784   6.066   4.649  11.564 -0.0787 -0.2174 -0.1796
12790TIP3    H159785   6.132   4.715  11.541 -1.0313  0.5152 -0.8489
12790TIP3    H259786   5.986   4.677  11.520 -0.5579 -1.7462 -0.3613
12791TIP3   OH259787   6.170   6.647  12.473  0.1659 -0.1258  0.0011
12791TIP3    H159788   6.087   6.689  12.495  0.5753  0.4759  0.4222
12791TIP3    H259789   6.202   6.696  12.397  0.3901 -0.0157  0.1666
12792TIP3   OH259790   6.405   4.567  13.861 -0.1338 -0.6525 -0.0709
12792TIP3    H159791   6.386   4.613  13.942 -2.9776  1.3867 -1.7391
12792TIP3    H259792   6.378   4.476  13.878 -1.1655 -0.1483  1.1205
12793TIP3   OH259793   5.500   6.522  14.708  0.3726 -0.2022 -0.5147
12793TIP3    H159794   5.550   6.598  14.680 -0.7773  0.0503 -1.9846
12793TIP3    H259795   5.461   6.487  14.628 -0.5124 -1.3338  0.3615
12794TIP3   OH259796   2.315   0.016   4.701 -0.2676  0.1251  0.9595
12794TIP3    H159797   2.355   0.034   4.617 -2.4928 -0.0604 -0.2130
12794TIP3    H259798   2.370   0.061   4.765  1.2878  0.5210 -0.5983
12795TIP3   OH259799   6.557   5.947   2.131  0.0990 -0.0988 -0.3846
12795TIP3    H159800   6.632   5.911   2.084  0.6176 -0.7980  0.9239
12795TIP3    H259801   6.592   6.025   2.175 -0.4258  0.6555 -1.2463
12796TIP3   OH259802   4.634   4.306   2.986 -0.0731 -0.0383 -0.7516
12796TIP3    H159803   4.704   4.267   3.039  0.7623  0.9455 -1.0958
12796TIP3    H259804   4.575   4.346   3.049  1.0995  1.4343 -0.5295
12797TIP3   OH259805   1.433   0.650   4.492 -0.4029 -0.3397  0.2743
12797TIP3    H159806   1.448   0.556   4.492  2.8867  0.0567 -1.2524
12797TIP3    H259807   1.474   0.681   4.573 -0.0413 -0.0645 -0.0112
12798TIP3   OH259808   3.096   3.390  15.614  0.3579 -0.2603 -0.6582
12798TIP3    H159809   3.078   3.482  15.635  1.5192  0.2203 -1.6745
12798TIP3    H259810   3.140   3.356  15.692  0.8024  0.3221 -0.6512
12799TIP3   OH259811   4.727   1.320  14.381 -0.1705 -0.3722  0.1499
12799TIP3    H159812   4.755   1.408  14.356 -0.1321  0.0563  1.6339
12799TIP3    H259813   4.661   1.334  14.449 -1.3918 -1.4649 -0.7461
12800TIP3   OH259814   0.603   5.373   1.019  0.5148  0.6398 -0.5306
12800TIP3    H159815   0.582   5.375   1.112 -3.1933  0.3345 -1.2172
12800TIP3    H259816   0.592   5.281   0.995  1.2094  0.7595 -1.3434
12801TIP3   OH259817   1.361   5.370  16.143  0.3231 -0.5006 -0.0124
12801TIP3    H159818   1.436   5.388  16.200 -0.1345 -1.6504  1.0094
12801TIP3    H259819   1.399   5.339  16.061  0.9947 -1.6849  0.7150
12802TIP3   OH259820   4.718   3.684  12.418 -0.6267 -0.2891 -0.8782
12802TIP3    H159821   4.738   3.608  12.364  0.8756  0.8922 -2.0608
12802TIP3    H259822   4.792   3.743  12.407 -1.7094  1.3513  0.0394
12803TIP3   OH259823   1.157   2.908   5.432 -0.3158  0.0147 -0.8132
12803TIP3    H159824   1.183   2.995   5.465 -2.2024  0.2267  0.2699
12803TIP3    H259825   1.102   2.926   5.356  0.1262 -0.2981 -1.2163
12804TIP3   OH259826   2.807   5.086   6.059  0.4445  0.4868  0.0026
12804TIP3    H159827   2.747   5.057   6.127  1.7019 -0.4146  0.7782
12804TIP3    H259828   2.817   5.010   6.001  1.1707  0.4588  0.1463
12805TIP3   OH259829   3.615   2.830  15.450  0.0503 -0.3801 -0.3258
12805TIP3    H159830   3.684   2.784  15.402 -1.9489 -3.4816 -0.4892
12805TIP3    H259831   3.565   2.876  15.383  1.1851  0.9187 -0.3307
12806TIP3   OH259832   5.087   2.866   1.547  0.3079 -0.4552  0.8738
12806TIP3    H159833   5.030   2.795   1.518 -1.0349 -0.6996  3.8152
12806TIP3    H259834   5.050   2.944   1.505 -0.1528 -1.0436  0.1510
12807TIP3   OH259835   6.557   2.202  14.185 -0.6025  0.0381 -0.1440
12807TIP3    H159836   6.597   2.201  14.272 -2.3427  0.9264  0.7048
12807TIP3    H259837   6.629   2.179  14.126  0.1710 -2.7554  1.6569
12808TIP3   OH259838   1.650   1.150   3.762 -0.0557  0.6404 -0.2878
12808TIP3    H159839   1.607   1.174   3.680  0.0098  1.1104 -0.1867
12808TIP3    H259840   1.743   1.160   3.745  0.0601 -0.8986 -0.6732
12809TIP3   OH259841   4.046   3.800   5.418 -0.8082 -0.0249 -0.3323
12809TIP3    H159842   4.064   3.706   5.414 -1.3338 -0.1347 -0.2168
12809TIP3    H259843   3.986   3.810   5.492 -1.2139  0.3239 -0.7008
12810TIP3   OH259844   6.553   4.440   3.496 -0.7609 -0.0964 -0.2101
12810TIP3    H159845   6.584   4.515   3.548 -2.6796 -0.0646  1.0010
12810TIP3    H259846   6.466   4.466   3.466 -0.8888 -1.3074 -0.9583
12811TIP3   OH259847   4.222   5.151  16.246  0.1227 -0.1701 -0.6513
12811TIP3    H159848   4.190   5.081  16.189 -2.4549  0.3712 -0.0214
12811TIP3    H259849   4.196   5.232  16.201 -1.4206  0.2667  0.9157
12812TIP3   OH259850   2.181   3.162   0.586  0.2469  0.0131  0.7354
12812TIP3    H159851   2.199   3.078   0.543 -0.0264  1.5079 -2.5725
12812TIP3    H259852   2.086   3.169   0.586  0.2663  0.2594  1.1297
12813TIP3   OH259853   0.475   0.553  16.572  0.4641 -0.3164 -0.7435
12813TIP3    H159854   0.389   0.535  16.535  0.6055 -1.5790 -0.4992
12813TIP3    H259855   0.463   0.546  16.666  0.1591  2.6507 -0.4680
12814TIP3   OH259856   5.406   0.425   0.532  0.1274 -0.9358 -0.2981
12814TIP3    H159857   5.348   0.378   0.592 -0.0667  1.1953  1.2884
12814TIP3    H259858   5.350   0.488   0.488  1.0731  0.9203  1.0060
12815TIP3   OH259859   3.932   6.015  15.645  0.1088 -0.1030  0.2285
12815TIP3    H159860   4.022   6.043  15.660  0.5285 -1.8336  1.3675
12815TIP3    H259861   3.888   6.091  15.607  1.5616  1.4243  1.4451
12816TIP3   OH259862   4.837   1.613  11.968 -0.2949  0.9629 -0.5944
12816TIP3    H159863   4.896   1.547  11.934 -2.3216 -0.5717 -1.3170
12816TIP3    H259864   4.841   1.603  12.063  0.3012  0.6416 -0.6521
12817TIP3   OH259865   6.460   6.033   1.585 -0.1495 -0.1558  0.0229
12817TIP3    H159866   6.556   6.031   1.574  0.0643 -2.4095  1.6386
12817TIP3    H259867   6.446   6.014   1.677 -2.2104 -2.0027 -0.5931
12818TIP3   OH259868   2.095   0.043  15.881  0.1657 -0.2711 -0.6845
12818TIP3    H159869   2.083   0.057  15.975 -0.9596 -0.2324 -0.8281
12818TIP3    H259870   2.081   0.129  15.842  3.1608  0.3302 -0.7109
12819TIP3   OH259871   5.761   3.095  17.257  0.6899  0.4296 -0.5657
12819TIP3    H159872   5.756   3.083  17.163  0.5108 -0.5182 -0.4470
12819TIP3    H259873   5.683   3.147  17.279  0.6361  0.4938 -0.9087
12820TIP3   OH259874   4.635   1.971   2.264  0.2606 -0.2784 -0.1765
12820TIP3    H159875   4.550   2.007   2.241  0.7836  0.8865 -0.3491
12820TIP3    H259876   4.677   1.953   2.179 -0.1044 -1.6174 -0.0986
12821TIP3   OH259877   1.973   6.195   0.471  0.5894 -0.1485  0.1380
12821TIP3    H159878   2.030   6.220   0.399  2.2478  0.6721  1.6611
12821TIP3    H259879   2.016   6.230   0.549 -1.9482  0.4184  1.3895
12822TIP3   OH259880   2.074   2.737  16.364 -0.1065  0.2745 -0.0207
12822TIP3    H159881   2.126   2.745  16.285 -1.2118 -1.3859 -0.9821
12822TIP3    H259882   2.079   2.644  16.387 -0.9307  0.4740  1.0649
12823TIP3   OH259883   2.979   0.241   0.277 -0.0293  0.0799  0.1467
12823TIP3    H159884   2.885   0.254   0.286  0.0380 -0.1492  1.3251
12823TIP3    H259885   3.017   0.281   0.355  0.8551  0.1371 -0.2930
12824TIP3   OH259886   6.308   5.191  13.431  0.4109 -0.5496  0.5775
12824TIP3    H159887   6.291   5.283  13.413  0.0248 -0.4917  1.2053
12824TIP3    H259888   6.403   5.185  13.438  0.4205 -0.1498  0.7837
12825TIP3   OH259889   6.689   6.281   4.457 -0.2991  0.2373 -0.5977
12825TIP3    H159890   6.608   6.331   4.473  0.8061  1.9139  0.0389
12825TIP3    H259891   6.717   6.310   4.370  0.7162  1.2845  0.0624
12826TIP3   OH259892   1.032   2.564   4.337 -0.3949  0.6076 -0.7078
12826TIP3    H159893   0.972   2.560   4.263 -0.2504  0.5131 -0.8176
12826TIP3    H259894   0.997   2.635   4.392 -0.9328  0.1788 -0.4853
12827TIP3   OH259895   4.251   2.382  16.599 -0.4800 -0.5488  0.1336
12827TIP3    H159896   4.191   2.395  16.526  0.1936  0.6511 -0.2507
12827TIP3    H259897   4.207   2.420  16.674 -0.8910 -1.1777  0.2154
12828TIP3   OH259898   6.149   0.026  16.590 -0.4255 -0.3369  0.5470
12828TIP3    H159899   6.233  -0.000  16.552 -1.1664 -0.6444 -0.9496
12828TIP3    H259900   6.170   0.049  16.681  1.2121 -0.7104  0.2963
12829TIP3   OH259901   6.481   6.632  14.632 -0.8199  0.1860  0.1239
12829TIP3    H159902   6.534   6.584  14.568 -1.5140 -0.9378  0.3671
12829TIP3    H259903   6.429   6.564  14.676 -1.0046  1.0382  1.2643
12830TIP3   OH259904   2.977   0.667   6.483  0.0010  1.1317  0.0496
12830TIP3    H159905   3.021   0.689   6.401  1.1304 -0.7931  0.0674
12830TIP3    H259906   2.896   0.718   6.481  0.2490  1.5491 -1.9971
12831TIP3   OH259907   6.710   0.403   1.273 -0.3676  0.0918  0.5320
12831TIP3    H159908   6.676   0.487   1.303  0.6952  0.2474  1.3750
12831TIP3    H259909   6.796   0.424   1.237  0.0879 -0.6862  1.1346
12832TIP3   OH259910   2.955   5.811   2.249 -0.0761  0.1066 -0.1068
12832TIP3    H159911   2.901   5.740   2.285 -0.7795  0.8396  0.3209
12832TIP3    H259912   3.037   5.769   2.224  0.4403 -0.4396  2.3365
12833TIP3   OH259913   1.632   3.127  13.828  0.2655  0.4056 -0.2910
12833TIP3    H159914   1.637   3.196  13.895 -1.4269 -0.3231  0.6455
12833TIP3    H259915   1.718   3.085  13.831  1.1077  2.0422 -0.4222
12834TIP3   OH259916   6.556   6.752  13.526 -0.0191  0.7951 -0.4925
12834TIP3    H159917   6.507   6.704  13.593  1.2387  1.0377  0.6326
12834TIP3    H259918   6.531   6.711  13.443 -1.5830  0.4672  0.1044
12835TIP3   OH259919   5.926   3.647  11.700 -0.1747  0.4093  0.4668
12835TIP3    H159920   5.895   3.583  11.765 -0.8307 -0.4883 -0.6994
12835TIP3    H259921   5.995   3.601  11.652 -1.3444  0.1671 -1.0605
12836TIP3   OH259922   1.263   0.350   5.668 -0.6851  0.2824  0.8351
12836TIP3    H159923   1.239   0.299   5.745 -1.9483 -1.5287 -0.6692
12836TIP3    H259924   1.181   0.362   5.620  0.4097 -0.9352 -1.5256
12837TIP3   OH259925   5.571   0.188   4.514  0.1556 -0.0043 -0.5475
12837TIP3    H159926   5.564   0.148   4.601  2.8227  0.9774  0.2337
12837TIP3    H259927   5.485   0.226   4.498 -0.2636  0.2427  1.9402
12838TIP3   OH259928   4.609   1.130  13.201  0.0306 -0.0484 -0.2611
12838TIP3    H159929   4.561   1.194  13.148 -1.1350 -0.4169  0.3071
12838TIP3    H259930   4.606   1.167  13.290  1.5932  0.3559 -0.3457
12839TIP3   OH259931   5.860   1.646  14.020  0.5369  0.1058 -0.3675
12839TIP3    H159932   5.884   1.580  14.086 -1.1315 -1.1235 -0.9118
12839TIP3    H259933   5.939   1.699  14.010  1.6391 -1.1965  0.8199
12840TIP3   OH259934   2.827   6.635  14.249 -0.2176  0.3884  0.2045
12840TIP3    H159935   2.907   6.687  14.243 -0.0997  0.0807 -1.1628
12840TIP3    H259936   2.767   6.675  14.187 -0.2112 -0.9185 -0.6811
12841TIP3   OH259937   3.230   0.995   4.115 -0.0951  0.0061  0.2892
12841TIP3    H159938   3.217   0.923   4.052 -1.1605 -0.5269  1.0705
12841TIP3    H259939   3.162   0.981   4.180  0.3471  1.1454  1.0195
12842TIP3   OH259940   0.034   0.518  12.394  0.2818  0.3296 -0.5945
12842TIP3    H159941  -0.041   0.491  12.447  0.2380  0.7046 -0.4612
12842TIP3    H259942   0.107   0.522  12.456 -0.0668  2.1649 -0.2420
12843TIP3   OH259943   3.434   1.198  14.277  0.6559  0.4396 -0.3467
12843TIP3    H159944   3.409   1.121  14.329 -0.6284  0.5473 -0.7608
12843TIP3    H259945   3.488   1.250  14.336 -0.4626  0.3843  0.7916
12844TIP3   OH259946   6.428   2.182   5.295  0.6238 -0.5153  0.3180
12844TIP3    H159947   6.409   2.217   5.208  0.1582 -2.0685 -0.2289
12844TIP3    H259948   6.522   2.194   5.306  0.8705 -1.2411 -0.8511
12845TIP3   OH259949   2.095   3.510   4.309 -0.0942  0.0077 -0.0799
12845TIP3    H159950   2.095   3.598   4.271 -0.0190 -0.0109 -0.1242
12845TIP3    H259951   2.004   3.494   4.333 -0.0657  0.1928  0.1484
12846TIP3   OH259952   0.635   3.397   5.757 -0.1440 -0.4053 -0.3637
12846TIP3    H159953   0.561   3.344   5.725  1.3468 -1.5506 -2.1324
12846TIP3    H259954   0.694   3.403   5.682  1.5509  0.5429  0.9776
12847TIP3   OH259955   2.974   3.018  12.846 -0.6144  0.2891 -0.0947
12847TIP3    H159956   3.005   2.938  12.803 -0.8403  0.2211 -0.1294
12847TIP3    H259957   2.932   2.988  12.926  0.2679  0.4505  0.4459
12848TIP3   OH259958   4.364   0.028  16.214  0.4713 -0.0614 -0.0177
12848TIP3    H159959   4.375   0.122  16.202 -0.7052  0.0188 -0.5925
12848TIP3    H259960   4.438  -0.011  16.167  0.2446  0.5420 -0.9039
12849TIP3   OH259961   6.741   4.052  13.556  0.1334  0.0403 -0.0761
12849TIP3    H159962   6.740   4.073  13.649 -1.4329 -0.6564  0.1057
12849TIP3    H259963   6.662   3.999  13.543  1.2179 -1.3236 -1.4695
12850TIP3   OH259964   4.305   2.906   1.435 -0.0122 -0.2739 -0.1369
12850TIP3    H159965   4.376   2.931   1.494 -1.1065 -0.3545  1.2753
12850TIP3    H259966   4.251   2.985   1.427  0.0855 -0.2862 -0.9898
12851TIP3   OH259967   3.956   4.162  14.849 -0.4459 -0.4145  0.7529
12851TIP3    H159968   3.896   4.229  14.881 -0.9842  0.0330 -1.1047
12851TIP3    H259969   3.900   4.091  14.819 -0.1077  0.0276 -1.0393
12852TIP3   OH259970   1.078   0.538   2.604 -0.9616 -0.3216 -0.3247
12852TIP3    H159971   1.123   0.531   2.520 -1.5044  0.7950 -0.7330
12852TIP3    H259972   1.143   0.576   2.664 -0.2761 -1.9799  0.0378
12853TIP3   OH259973   2.006   5.617  14.118  0.0165 -0.8025  0.4693
12853TIP3    H159974   2.006   5.599  14.212 -1.2871 -0.0282  0.6431
12853TIP3    H259975   1.916   5.599  14.090 -0.5952  2.2492  0.0779
12854TIP3   OH259976   2.105   2.494  13.986 -0.3995 -0.4510  0.0640
12854TIP3    H159977   2.018   2.533  13.997 -0.4033 -0.2735 -0.5555
12854TIP3    H259978   2.093   2.428  13.918  0.0447 -0.1235 -0.3368
12855TIP3   OH259979   3.604   1.782  14.201 -0.5091  0.8247 -0.1852
12855TIP3    H159980   3.676   1.735  14.243 -1.1321 -0.2354 -0.2605
12855TIP3    H259981   3.595   1.863  14.251 -0.3757  0.1810  0.9109
12856TIP3   OH259982   4.147   0.216  15.322 -0.2230 -0.2614 -0.4482
12856TIP3    H159983   4.196   0.297  15.337  0.4596 -0.2874 -2.2627
12856TIP3    H259984   4.136   0.178  15.409  0.6625  1.0816  0.2894
12857TIP3   OH259985   0.131   0.759   5.573 -0.1491 -0.5232  0.5893
12857TIP3    H159986   0.102   0.843   5.609 -1.1209 -1.0511  1.0868
12857TIP3    H259987   0.221   0.775   5.546 -0.4707  0.8110  0.2208
12858TIP3   OH259988   2.923   1.616  14.143  0.4832 -0.5015  0.5839
12858TIP3    H159989   3.015   1.637  14.133  0.4823 -0.8381 -0.1892
12858TIP3    H259990   2.907   1.623  14.237  0.8747  1.2427  0.5456
12859TIP3   OH259991   6.541   5.963   0.929 -0.3655  0.5815  0.0367
12859TIP3    H159992   6.602   6.034   0.949 -0.9539  0.7216  1.3660
12859TIP3    H259993   6.592   5.904   0.873  0.9370  0.7854  0.9691
12860TIP3   OH259994   3.853   5.704   3.529 -0.3570  0.1673  0.0840
12860TIP3    H159995   3.936   5.741   3.558  0.8614 -1.0615 -1.6235
12860TIP3    H259996   3.788   5.772   3.548  1.0990  1.3526  1.0197
12861TIP3   OH259997   2.121   4.116   1.981  0.4120 -0.1605  0.2313
12861TIP3    H159998   2.153   4.168   1.907  0.4504 -1.6032 -0.8208
12861TIP3    H259999   2.028   4.137   1.988  0.0649 -1.0601 -1.2015
12862TIP3   OH260000   5.217   3.801  15.708 -0.1347  0.3277 -0.1198
12862TIP3    H160001   5.144   3.742  15.692  0.6117 -0.6565 -0.0096
12862TIP3    H260002   5.285   3.773  15.646  0.8313 -0.0374  1.0599
12863TIP3   OH260003   0.458   1.306  17.160  0.0588  0.4431  0.6272
12863TIP3    H160004   0.478   1.395  17.189 -0.2168  0.7377 -0.0733
12863TIP3    H260005   0.363   1.301  17.161  0.0548 -0.5750  2.7937
12864TIP3   OH260006   5.595   3.687  15.465  0.3091  0.2181 -0.2555
12864TIP3    H160007   5.654   3.720  15.533 -1.8906  3.1490  0.4746
12864TIP3    H260008   5.508   3.719  15.492 -1.8687 -4.3030 -0.8928
12865TIP3   OH260009   2.962   0.532   0.194 -0.5776 -0.3907 -0.2945
12865TIP3    H160010   2.966   0.584   0.274 -2.5019  0.0787 -0.4556
12865TIP3    H260011   2.925   0.448   0.222 -0.6727 -0.4528 -0.6002
12866TIP3   OH260012   3.396   0.110  17.325  0.6899 -0.6442  0.4597
12866TIP3    H160013   3.320   0.144  17.373  1.4150  0.9356  0.5553
12866TIP3    H260014   3.447   0.063  17.391  0.0141 -1.3633  0.4837
12867TIP3   OH260015   4.217   1.967  13.434  0.1988  0.0965  0.5205
12867TIP3    H160016   4.203   1.904  13.364  0.6803 -0.3885  0.8566
12867TIP3    H260017   4.271   1.921  13.498  0.1580  0.6900  0.9912
12868TIP3   OH260018   4.602   2.039   3.179  0.0934  0.3281  0.5471
12868TIP3    H160019   4.683   2.089   3.182 -0.9175  2.0841  0.0107
12868TIP3    H260020   4.600   2.002   3.091  0.3483  0.2235  0.5861
12869TIP3   OH260021   3.316   5.286   4.454 -0.1684  0.4487  0.7915
12869TIP3    H160022   3.401   5.330   4.455  0.4200 -0.6535  1.1145
12869TIP3    H260023   3.306   5.254   4.365  1.1123 -1.8899  1.4092
12870TIP3   OH260024   3.455   5.027  11.468 -0.0249  0.8284  0.6825
12870TIP3    H160025   3.506   4.947  11.459 -2.7355 -1.6538  4.2053
12870TIP3    H260026   3.378   5.013  11.412 -0.0635  1.4028  0.5841
12871TIP3   OH260027   1.340   1.832  16.584  0.3347  0.2451  0.2835
12871TIP3    H160028   1.327   1.874  16.499 -0.5231  0.6045  0.5838
12871TIP3    H260029   1.432   1.845  16.604  1.1872 -1.9440 -1.7098
12872TIP3   OH260030   0.318   5.751  12.602 -0.1658 -0.8350  0.1746
12872TIP3    H160031   0.320   5.841  12.633 -0.7642 -0.3921 -1.0289
12872TIP3    H260032   0.242   5.712  12.646 -1.0022 -0.2152 -0.6893
12873TIP3   OH260033   0.732   0.632  11.371  0.3047  0.1123  0.2692
12873TIP3    H160034   0.782   0.707  11.403 -0.4856  0.8850 -0.2490
12873TIP3    H260035   0.757   0.624  11.279 -0.2725  0.3076  0.0899
12874TIP3   OH260036   1.411   2.136   2.556  0.4821  0.2312 -0.4062
12874TIP3    H160037   1.376   2.048   2.571  1.4185 -0.4511 -2.0861
12874TIP3    H260038   1.403   2.178   2.642 -2.5396 -0.5285 -0.1825
12875TIP3   OH260039   3.288   0.324   0.854 -0.0693 -0.2379 -0.3158
12875TIP3    H160040   3.287   0.307   0.948 -0.8862 -0.5431 -0.3665
12875TIP3    H260041   3.227   0.398   0.842 -0.6093 -0.7304 -0.6850
12876TIP3   OH260042   2.219   1.460  11.192  0.2739  0.0985 -0.3914
12876TIP3    H160043   2.243   1.494  11.106  1.1004  0.3816 -0.0590
12876TIP3    H260044   2.300   1.465  11.244 -0.4645  0.9595  0.7365
12877TIP3   OH260045   3.760   0.725   6.569 -0.2952 -0.1707 -0.4163
12877TIP3    H160046   3.675   0.692   6.597 -0.4489  1.3380  1.0579
12877TIP3    H260047   3.809   0.647   6.543 -1.8568 -1.1304 -0.5953
12878TIP3   OH260048   2.677   1.240   4.052  0.1202  0.0883 -0.5525
12878TIP3    H160049   2.681   1.332   4.080  0.5740 -0.2377  0.5304
12878TIP3    H260050   2.769   1.214   4.041  0.3386 -1.3147  3.0752
12879TIP3   OH260051   5.240   5.809   5.296  0.4101 -0.0491  0.8494
12879TIP3    H160052   5.303   5.873   5.330 -1.2132  2.2713 -0.1909
12879TIP3    H260053   5.157   5.833   5.337 -0.3735 -1.1064 -0.0552
12880TIP3   OH260054   1.083   0.135   0.858 -0.0968 -0.4713 -0.0340
12880TIP3    H160055   1.028   0.060   0.832 -1.7185  0.8595 -0.6012
12880TIP3    H260056   1.042   0.210   0.817  2.3522  0.5926 -0.6890
12881TIP3   OH260057   3.553   0.010   0.142  0.0558  0.4875 -0.4589
12881TIP3    H160058   3.593   0.097   0.148  0.3058  0.4395 -1.2565
12881TIP3    H260059   3.622  -0.049   0.172  0.2124  0.4999 -0.7768
12882TIP3   OH260060   1.184   0.360   2.861  0.1245 -0.0311 -0.2882
12882TIP3    H160061   1.104   0.320   2.826 -0.0129  0.2948 -0.3468
12882TIP3    H260062   1.177   0.452   2.838  0.2485  0.1052  0.2101
12883TIP3   OH260063   4.001   5.607  17.244 -0.1834 -0.7018  0.6511
12883TIP3    H160064   4.090   5.599  17.208  0.3351 -1.6006  2.0787
12883TIP3    H260065   3.998   5.546  17.317 -0.9359  1.5562  2.6624
12884TIP3   OH260066   5.748   2.379  11.508  0.0760  0.2647 -0.2458
12884TIP3    H160067   5.781   2.346  11.592 -0.4662 -2.5938 -1.0244
12884TIP3    H260068   5.653   2.377  11.517 -0.0986  4.4923  0.5752
12885TIP3   OH260069   3.831   0.963   3.828 -0.5080  0.1252  0.0813
12885TIP3    H160070   3.849   1.009   3.746 -0.5950 -0.6595 -0.3906
12885TIP3    H260071   3.736   0.972   3.840 -0.3377  1.2346  0.7173
12886TIP3   OH260072   5.179   3.163  17.046  0.1490 -0.1314 -0.2232
12886TIP3    H160073   5.097   3.185  17.003 -1.0537 -1.7574  1.1037
12886TIP3    H260074   5.154   3.128  17.131  2.3075  0.6309  0.8126
12887TIP3   OH260075   5.468   3.565   1.517 -0.1007 -0.1693  0.1109
12887TIP3    H160076   5.506   3.607   1.440  0.2338  0.2790  0.5154
12887TIP3    H260077   5.422   3.488   1.483  0.7243 -0.4202 -0.4459
12888TIP3   OH260078   1.684   4.471   5.171  0.3606 -0.7071 -0.2225
12888TIP3    H160079   1.682   4.385   5.130  0.4677 -0.5002 -0.6743
12888TIP3    H260080   1.777   4.489   5.184  0.4413 -0.0452 -1.4830
12889TIP3   OH260081   3.351   0.723  14.465  0.2893 -0.2251  0.1829
12889TIP3    H160082   3.285   0.705  14.398  0.6145 -0.5911 -0.0447
12889TIP3    H260083   3.374   0.636  14.499 -1.5099  0.0624  2.3768
12890TIP3   OH260084   6.408   0.571   2.498  0.2063 -0.0552  0.0803
12890TIP3    H160085   6.375   0.650   2.456 -1.7974 -1.1726 -0.5873
12890TIP3    H260086   6.499   0.563   2.467 -0.1802  0.9273 -1.3960
12891TIP3   OH260087   0.827   6.440   2.553  0.1275 -0.1747  0.5346
12891TIP3    H160088   0.922   6.439   2.564  0.3646 -2.1059 -1.0726
12891TIP3    H260089   0.793   6.444   2.643  1.7365 -0.6638  1.2115
12892TIP3   OH260090   3.724   1.880  13.579 -0.2488  0.2991 -0.0527
12892TIP3    H160091   3.790   1.840  13.636  0.6575  2.0181  0.1747
12892TIP3    H260092   3.654   1.905  13.639  0.8150  2.3382  0.4299
12893TIP3   OH260093   1.983   6.584   2.671 -0.1743  0.1033 -0.1142
12893TIP3    H160094   2.069   6.627   2.672  0.1312 -0.5010  1.2025
12893TIP3    H260095   1.996   6.504   2.721 -1.1685 -0.6917 -1.0814
12894TIP3   OH260096   2.917   0.521   2.302 -0.3233 -0.1795 -0.3794
12894TIP3    H160097   2.918   0.515   2.397  0.1286  0.3005 -0.3547
12894TIP3    H260098   2.836   0.567   2.281  0.3457  1.1311 -0.1438
12895TIP3   OH260099   3.380   3.539   3.343 -0.0297  0.0354  0.0806
12895TIP3    H160100   3.395   3.580   3.258 -1.8716 -0.5489 -0.5821
12895TIP3    H260101   3.390   3.445   3.327 -0.4393 -0.0823  0.4971
12896TIP3   OH260102   1.807   2.058  13.995 -0.0199  0.5102 -0.2185
12896TIP3    H160103   1.812   2.144  14.035 -0.9474  0.9386 -0.9786
12896TIP3    H260104   1.816   1.996  14.068 -0.1385  1.2474  0.4253
12897TIP3   OH260105   2.131   1.720  16.574  0.2466 -0.1428 -0.2503
12897TIP3    H160106   2.086   1.640  16.601 -0.8330 -0.2138 -2.0893
12897TIP3    H260107   2.072   1.762  16.512  0.5270  2.4201  1.0560
12898TIP3   OH260108   4.080   5.217   3.442  0.4166  0.2047  0.1713
12898TIP3    H160109   4.070   5.195   3.534  0.8976  0.2583  0.2358
12898TIP3    H260110   4.159   5.171   3.414 -1.0550 -1.8926 -0.8560
12899TIP3   OH260111   0.270   3.902  14.616 -0.3682  0.1682 -0.6245
12899TIP3    H160112   0.284   3.887  14.522 -1.9181 -0.4116 -0.7776
12899TIP3    H260113   0.176   3.911  14.626 -0.0707  4.1402  0.3398
12900TIP3   OH260114   6.603   2.767  16.499 -0.0481 -0.1136  0.0846
12900TIP3    H160115   6.669   2.815  16.450 -0.3345 -0.2394 -0.4393
12900TIP3    H260116   6.636   2.764  16.589  0.1654  0.7026  0.0411
12901TIP3   OH260117   1.909   3.591   5.392 -0.3085  0.4362  0.3033
12901TIP3    H160118   1.957   3.572   5.473  0.5855 -1.1978 -0.5570
12901TIP3    H260119   1.972   3.573   5.322 -0.9886  2.0290 -0.7698
12902TIP3   OH260120   4.175   0.482   0.626 -0.4774 -0.0714 -0.2554
12902TIP3    H160121   4.169   0.576   0.615  1.1867  0.3906  1.9292
12902TIP3    H260122   4.103   0.459   0.685  0.5960  0.3126  1.2618
12903TIP3   OH260123   4.475   0.414   3.716  0.0167  0.6645 -0.1738
12903TIP3    H160124   4.537   0.466   3.666 -0.1203  1.0448  0.0487
12903TIP3    H260125   4.420   0.478   3.761  0.6485  0.3535  1.0983
12904TIP3   OH260126   1.302   2.583  14.481  0.2836 -0.3419  0.0583
12904TIP3    H160127   1.244   2.533  14.423  0.8053  3.2677 -4.0210
12904TIP3    H260128   1.390   2.564  14.449  0.7102  0.6929  0.5956
12905TIP3   OH260129   3.317   1.176  12.316  0.0028  0.2372  0.2170
12905TIP3    H160130   3.355   1.149  12.232 -0.6346  2.1987 -0.7517
12905TIP3    H260131   3.348   1.110  12.378  0.8916 -0.9987 -1.4555
12906TIP3   OH260132   2.737   5.998   2.218 -0.0063  0.2031  0.4163
12906TIP3    H160133   2.819   5.954   2.240 -0.9539 -1.4290  0.8193
12906TIP3    H260134   2.677   5.973   2.289 -1.3308 -0.0032 -0.7431
12907TIP3   OH260135   1.774   1.023   2.891 -0.2219 -0.0259 -1.3381
12907TIP3    H160136   1.685   0.990   2.884 -0.3617  0.3500 -1.3487
12907TIP3    H260137   1.788   1.035   2.985  0.0020 -0.5770 -1.2956
12908TIP3   OH260138   5.209   0.598  16.380  0.2087 -0.0962 -0.2878
12908TIP3    H160139   5.248   0.686  16.378 -1.1848  0.5429 -1.0303
12908TIP3    H260140   5.167   0.588  16.295 -3.6088  0.4523  1.2771
12909TIP3   OH260141   6.410   6.333  12.408  0.1390  0.0350  0.2621
12909TIP3    H160142   6.356   6.350  12.486 -1.5724  0.5820 -0.9649
12909TIP3    H260143   6.487   6.389  12.419 -1.2147  1.9777  0.4841
12910TIP3   OH260144   4.956   1.300  17.211  0.1733 -0.0249  0.3977
12910TIP3    H160145   4.935   1.372  17.270  1.7060  1.4901 -0.7837
12910TIP3    H260146   5.041   1.267  17.243 -0.4910 -1.3144  0.8975
12911TIP3   OH260147   2.374   1.560   6.296 -0.5363 -0.1006  0.3290
12911TIP3    H160148   2.309   1.630   6.291 -1.0379 -0.6476 -1.3772
12911TIP3    H260149   2.439   1.582   6.229 -0.7990 -1.3384 -0.3649
12912TIP3   OH260150   0.904   2.194   2.905 -0.0643 -0.1525 -0.0710
12912TIP3    H160151   0.972   2.160   2.848 -0.3936 -2.0384  0.5786
12912TIP3    H260152   0.938   2.277   2.937  1.3104 -0.3950 -0.8592
12913TIP3   OH260153   0.916   1.825  13.179  0.2822 -0.2890 -0.0766
12913TIP3    H160154   0.877   1.792  13.098 -0.0074  1.6637 -0.8136
12913TIP3    H260155   0.983   1.887  13.149  2.3101 -1.7459  1.1816
12914TIP3   OH260156   5.194   4.453   1.680 -0.2918  0.2943 -0.2248
12914TIP3    H160157   5.212   4.509   1.756  0.1835  0.7440 -0.6695
12914TIP3    H260158   5.182   4.514   1.607 -2.5177 -0.0260 -0.1870
12915TIP3   OH260159   5.710   4.232   0.027 -1.1272 -0.0803 -0.4517
12915TIP3    H160160   5.668   4.147   0.032  0.5054 -0.9540 -0.7920
12915TIP3    H260161   5.657   4.283  -0.034 -1.2093 -1.4034 -1.5057
12916TIP3   OH260162   3.312   1.024  14.873  0.2562 -0.2777 -0.7479
12916TIP3    H160163   3.307   1.037  14.778 -0.5053  1.3412 -0.5173
12916TIP3    H260164   3.239   0.966  14.894 -0.2010  0.1951 -1.0241
12917TIP3   OH260165   3.650   5.055   4.559  0.2470 -0.9515 -0.4581
12917TIP3    H160166   3.669   5.030   4.649 -0.4168 -0.8445 -0.2765
12917TIP3    H260167   3.574   5.002   4.535  1.0373 -1.7254 -1.3178
12918TIP3   OH260168   0.870   1.950  11.073 -0.4979 -0.0794 -0.4198
12918TIP3    H160169   0.946   1.929  11.019 -0.2377 -0.4203  0.0712
12918TIP3    H260170   0.829   2.024  11.030  0.3562  0.3763 -0.4546
12919TIP3   OH260171   5.845   6.170  15.159  0.6261 -0.3580  0.9478
12919TIP3    H160172   5.795   6.168  15.240 -2.8092 -1.6091 -0.9738
12919TIP3    H260173   5.781   6.193  15.092  3.6807  2.5238 -1.2959
12920TIP3   OH260174   3.232   1.667  14.384 -0.6482  0.1890 -0.3970
12920TIP3    H160175   3.220   1.602  14.315 -1.9738  0.5157 -0.4941
12920TIP3    H260176   3.267   1.618  14.458  0.5292 -0.2136 -1.1775
12921TIP3   OH260177   1.898   3.759   5.827  0.0919 -0.3940  0.1559
12921TIP3    H160178   1.892   3.841   5.876  3.1204 -1.3261  2.4004
12921TIP3    H260179   1.809   3.724   5.828 -1.3008  2.7062 -0.7955
12922TIP3   OH260180   5.060   2.492  13.239 -0.0272 -0.3149  0.3347
12922TIP3    H160181   4.992   2.525  13.298  0.9310  0.6545  0.9359
12922TIP3    H260182   5.142   2.517  13.281  0.7646  2.7829 -2.6324
12923TIP3   OH260183   4.339   0.551   2.127  0.3512 -0.0830 -0.5171
12923TIP3    H160184   4.282   0.504   2.066  1.1457  1.5899 -2.6334
12923TIP3    H260185   4.327   0.644   2.105  0.3698  0.6406  2.1595
12924TIP3   OH260186   2.556   4.072   5.678 -0.5814  0.6408 -0.0214
12924TIP3    H160187   2.598   4.058   5.764 -0.6172  1.5681  0.1535
12924TIP3    H260188   2.617   4.129   5.631 -1.2388  1.2934 -0.0888
12925TIP3   OH260189   6.184   0.754   1.913 -0.3821  0.0469 -0.8418
12925TIP3    H160190   6.141   0.757   1.827 -1.7953 -0.4701 -0.1983
12925TIP3    H260191   6.116   0.719   1.972  0.6869 -0.0068  0.4022
12926TIP3   OH260192   3.402   4.636  13.190  0.1948 -0.1650  0.6733
12926TIP3    H160193   3.429   4.696  13.259  1.3427 -0.6400  0.6496
12926TIP3    H260194   3.368   4.559  13.237 -3.6735  1.3645  0.7870
12927TIP3   OH260195   4.978   1.998  15.458  0.6857  0.1885 -0.0423
12927TIP3    H160196   4.902   1.957  15.416  0.2739  0.4390  0.4479
12927TIP3    H260197   5.053   1.950  15.423  0.2896 -0.2221 -0.3485
12928TIP3   OH260198   3.151   1.022   3.610  0.2116  0.2459  0.1507
12928TIP3    H160199   3.139   1.049   3.701 -0.9073 -1.2605  0.4701
12928TIP3    H260200   3.082   1.067   3.562 -1.1107 -1.2630  0.5524
12929TIP3   OH260201   4.039   0.769   1.798 -0.1302  0.2586 -0.0186
12929TIP3    H160202   4.128   0.806   1.804  0.4350 -1.1630  0.7748
12929TIP3    H260203   4.005   0.803   1.715  0.8500  1.4681  0.0362
12930TIP3   OH260204   1.085   1.002   6.302  0.3167 -0.4769 -0.1758
12930TIP3    H160205   1.152   0.974   6.363  0.7792 -1.1521 -0.9796
12930TIP3    H260206   1.133   1.046   6.232 -0.3078  1.5526  0.5934
12931TIP3   OH260207   4.412   4.575  13.592 -0.1943  0.2034  0.0425
12931TIP3    H160208   4.466   4.626  13.652  2.6846 -2.0119 -0.4594
12931TIP3    H260209   4.458   4.580  13.508 -0.6086 -1.9993 -0.3584
12932TIP3   OH260210   3.710   0.053   4.834 -0.0244 -0.3732  0.0515
12932TIP3    H160211   3.625   0.054   4.878  0.2479  1.5371  0.6297
12932TIP3    H260212   3.694   0.093   4.749 -0.7493 -4.9114 -2.2200
12933TIP3   OH260213   3.689   6.578   2.169 -0.1452  0.3485 -0.2449
12933TIP3    H160214   3.664   6.669   2.153 -1.6641 -0.3085 -2.0427
12933TIP3    H260215   3.612   6.538   2.208  0.5770 -0.1543  0.7088
12934TIP3   OH260216   2.321   3.941  17.302  0.0929  0.8633  0.2478
12934TIP3    H160217   2.407   3.980  17.316  0.7288 -0.1118 -0.8153
12934TIP3    H260218   2.315   3.871  17.367 -0.0566  1.1647  0.5636
12935TIP3   OH260219   4.840   5.584   0.959  0.7398 -0.3541 -0.0934
12935TIP3    H160220   4.896   5.508   0.975 -1.0048 -1.9585 -1.2568
12935TIP3    H260221   4.776   5.554   0.895 -0.5369  1.8627  0.0434
12936TIP3   OH260222   2.107   3.635  12.237 -0.2793  0.1862 -0.0782
12936TIP3    H160223   2.185   3.683  12.263 -0.1235 -0.6347  1.0833
12936TIP3    H260224   2.119   3.616  12.144 -0.5517  2.7123 -0.6810
12937TIP3   OH260225   0.537   2.341  12.922 -0.9200 -0.5181  0.1370
12937TIP3    H160226   0.622   2.298  12.914 -0.8215 -0.2092 -0.5233
12937TIP3    H260227   0.477   2.282  12.877 -0.9175 -0.3415 -0.0971
12938TIP3   OH260228   3.402   3.307  16.082 -0.4603  0.3190  0.1216
12938TIP3    H160229   3.382   3.358  16.004  0.5164  0.4929 -0.0178
12938TIP3    H260230   3.495   3.287  16.076 -0.5247 -0.2860  0.8787
12939TIP3   OH260231   0.813   4.344   3.760  0.5559 -0.8522  0.7892
12939TIP3    H160232   0.820   4.439   3.770 -0.4784 -0.7899  1.1133
12939TIP3    H260233   0.870   4.323   3.686 -0.3225  0.2303 -0.2501
12940TIP3   OH260234   0.649   6.061   5.249 -0.1585  0.1023 -0.1782
12940TIP3    H160235   0.634   5.979   5.202 -0.1262  0.7747 -1.4135
12940TIP3    H260236   0.635   6.040   5.341 -1.2809 -1.0108 -0.5887
12941TIP3   OH260237   0.859   1.667  11.113  0.3982 -0.1578  0.4193
12941TIP3    H160238   0.891   1.752  11.085  0.2860 -0.1379  0.3469
12941TIP3    H260239   0.936   1.610  11.111  0.4313 -0.1073  0.2661
12942TIP3   OH260240   2.426   1.458   1.529 -0.7386  0.1153  0.1340
12942TIP3    H160241   2.389   1.370   1.523 -0.0754 -0.1175 -0.8104
12942TIP3    H260242   2.367   1.512   1.475 -1.8777  0.5305  1.7320
12943TIP3   OH260243   4.961   5.306   2.618  0.5342  0.2634  0.4348
12943TIP3    H160244   4.885   5.248   2.613  1.6034 -1.1294 -0.0023
12943TIP3    H260245   4.924   5.390   2.648 -1.0434 -0.5929  1.0211
12944TIP3   OH260246   5.195   1.860  14.970  0.0226 -0.1962 -0.0807
12944TIP3    H160247   5.130   1.845  14.901  0.3956 -1.6888 -0.1432
12944TIP3    H260248   5.243   1.778  14.976  1.7390  0.7755  0.1595
12945TIP3   OH260249   0.993   2.859   6.737  0.1581  0.0036  0.1751
12945TIP3    H160250   0.955   2.928   6.791 -1.5245  0.4175 -1.4283
12945TIP3    H260251   1.086   2.882   6.731 -0.1554  1.5026  0.5874
12946TIP3   OH260252   0.941   3.520  11.213 -0.7421  0.1151  0.7403
12946TIP3    H160253   0.988   3.596  11.180 -1.1622  1.3907  2.8795
12946TIP3    H260254   0.886   3.555  11.283 -2.0352 -1.9473  0.8322
12947TIP3   OH260255   4.359   2.917  13.282 -0.4322  0.3046 -0.5512
12947TIP3    H160256   4.396   3.003  13.262 -1.4936  0.6690 -1.0251
12947TIP3    H260257   4.326   2.885  13.198 -1.6679  0.2458 -0.0741
12948TIP3   OH260258   3.465   3.021   4.970  0.9113  0.3565 -0.0217
12948TIP3    H160259   3.387   2.967   4.962 -0.3375  2.2401 -1.1983
12948TIP3    H260260   3.449   3.076   5.046 -0.1796  2.5726 -1.7390
12949TIP3   OH260261   0.880   4.055   4.651 -0.6486 -0.0870  0.1838
12949TIP3    H160262   0.950   4.067   4.586 -0.9987 -0.1004 -0.2035
12949TIP3    H260263   0.926   4.045   4.734 -0.2562  2.3069  0.3193
12950TIP3   OH260264   1.779   0.750   5.341 -0.4934 -0.6381 -0.7102
12950TIP3    H160265   1.856   0.716   5.296  0.8390  2.4000 -0.9846
12950TIP3    H260266   1.742   0.814   5.280 -1.4068  0.1686  0.6393
12951TIP3   OH260267   6.119   5.573  16.730  0.5147 -0.3866 -0.0070
12951TIP3    H160268   6.188   5.639  16.741 -1.1066  1.5581 -0.8098
12951TIP3    H260269   6.094   5.549  16.819 -0.8297  2.3524  0.4706
12952TIP3   OH260270   4.069   4.520   3.551  0.1123  0.1429 -0.2482
12952TIP3    H160271   4.124   4.462   3.499  1.2887  1.0045 -0.0086
12952TIP3    H260272   4.117   4.603   3.554 -1.2214  0.9428 -0.0463
12953TIP3   OH260273   6.590   6.492   3.085  0.2266  0.2225 -0.9759
12953TIP3    H160274   6.529   6.454   3.149 -2.1599  1.4877 -2.3749
12953TIP3    H260275   6.649   6.420   3.063 -0.5590 -0.9914  0.6450
12954TIP3   OH260276   6.389   2.283  11.424  0.4558 -0.1053  0.2974
12954TIP3    H160277   6.295   2.297  11.413  0.7776  1.3049 -1.0393
12954TIP3    H260278   6.411   2.329  11.506 -0.1030 -1.0566  1.0061
12955TIP3   OH260279   3.740   1.682   1.868 -0.1591  0.5112 -0.0965
12955TIP3    H160280   3.812   1.656   1.926  1.2610  0.9883 -1.5805
12955TIP3    H260281   3.782   1.734   1.800 -1.8849  0.5115 -1.2116
12956TIP3   OH260282   3.158   2.577   0.662 -0.0400  0.2845 -0.5487
12956TIP3    H160283   3.206   2.508   0.616  0.7305 -0.6271  1.5420
12956TIP3    H260284   3.225   2.640   0.687 -0.5659  1.1725 -1.2700
12957TIP3   OH260285   5.265   6.327  12.654 -0.4837 -0.1875 -0.2200
12957TIP3    H160286   5.187   6.383  12.654  0.1011  0.6779 -1.7061
12957TIP3    H260287   5.235   6.245  12.696 -2.2820 -0.0028 -1.0352
12958TIP3   OH260288   0.070   1.281   5.856 -0.1473 -0.0406 -0.1813
12958TIP3    H160289   0.116   1.214   5.907 -1.0018 -1.0378 -0.6694
12958TIP3    H260290   0.006   1.318   5.917 -1.6614 -1.7292 -0.6336
12959TIP3   OH260291   2.459   5.233   1.648  0.2097  0.4823  0.2869
12959TIP3    H160292   2.435   5.198   1.562  2.4404 -3.4057  1.0094
12959TIP3    H260293   2.467   5.328   1.634 -1.2065  0.2247 -3.3040
12960TIP3   OH260294   1.222   0.428  11.449  0.4876 -0.6189 -0.3138
12960TIP3    H160295   1.212   0.414  11.543  1.2819  0.2421 -0.0823
12960TIP3    H260296   1.145   0.386  11.410 -1.4938  1.5737  0.9653
12961TIP3   OH260297   6.131   3.659  16.021 -0.9993 -0.2007  0.1253
12961TIP3    H160298   6.210   3.709  15.999 -0.2272 -2.3010 -2.3883
12961TIP3    H260299   6.062   3.700  15.968 -0.6608 -0.8879 -0.8755
12962TIP3   OH260300   1.456   3.693  15.541  0.0895  0.3151 -0.4401
12962TIP3    H160301   1.514   3.753  15.587  1.3133 -0.9830 -0.1917
12962TIP3    H260302   1.379   3.745  15.519  0.9406  1.8501  0.0700
12963TIP3   OH260303   3.787   3.544   4.111  0.7979  0.0554  0.4182
12963TIP3    H160304   3.868   3.504   4.142  0.1127 -0.9779  0.9580
12963TIP3    H260305   3.776   3.512   4.022  0.1239 -1.2135  0.9340
12964TIP3   OH260306   0.794   3.842  11.943 -0.9152 -0.3845  0.4086
12964TIP3    H160307   0.771   3.927  11.905 -0.8863 -0.1196  0.9700
12964TIP3    H260308   0.889   3.835  11.930 -0.8140 -0.0341  0.9442
12965TIP3   OH260309   2.457   0.367  17.205  0.1207 -0.1289  0.4952
12965TIP3    H160310   2.495   0.318  17.278  0.2240  1.1610  1.3465
12965TIP3    H260311   2.510   0.447  17.201 -0.6147  0.3255 -0.2641
12966TIP3   OH260312   3.994   6.152   0.197 -0.2679 -0.1023  0.1393
12966TIP3    H160313   3.899   6.138   0.196 -0.3742  0.2374  1.6941
12966TIP3    H260314   4.009   6.224   0.137 -0.9447 -0.4121 -0.4079
12967TIP3   OH260315   5.534   0.951  13.037 -0.0971 -0.2632 -0.2134
12967TIP3    H160316   5.559   1.011  12.967 -1.1778 -1.2192 -1.4790
12967TIP3    H260317   5.598   0.966  13.106  1.9493 -0.3183 -1.9979
12968TIP3   OH260318   6.524   2.541   6.252  0.4901  0.0520  0.3323
12968TIP3    H160319   6.550   2.499   6.334 -0.2077  3.1568  2.3182
12968TIP3    H260320   6.499   2.630   6.277 -1.0927  0.7516 -3.0897
12969TIP3   OH260321   1.842   4.532   1.603  0.0982 -0.4006  0.0020
12969TIP3    H160322   1.829   4.449   1.557  0.2555 -0.8519  0.7622
12969TIP3    H260323   1.793   4.522   1.684  0.1594  0.2356  0.1182
12970TIP3   OH260324   5.412   2.769   3.170  0.8117 -0.1207 -0.0219
12970TIP3    H160325   5.403   2.861   3.196  0.3870  0.1601 -1.1380
12970TIP3    H260326   5.323   2.735   3.172  0.7344 -0.0242 -1.3205
12971TIP3   OH260327   5.173   3.861   0.143  0.0283 -0.3917 -0.3016
12971TIP3    H160328   5.265   3.875   0.119  0.1374 -1.2048 -0.3729
12971TIP3    H260329   5.173   3.872   0.239 -0.0950  1.1286 -0.4494
12972TIP3   OH260330   2.973   5.739  11.483  0.7293 -0.3791  0.1066
12972TIP3    H160331   3.051   5.693  11.452 -0.3492 -1.5350 -1.0436
12972TIP3    H260332   2.970   5.819  11.430  0.7859 -0.6514 -0.3125
12973TIP3   OH260333   3.771   1.689  10.471 -0.4080  0.7010  0.7484
12973TIP3    H160334   3.682   1.722  10.470 -1.0864 -1.0099  0.4161
12973TIP3    H260335   3.762   1.595  10.457  1.5977  0.8182 -2.1796
12974TIP3   OH260336   1.379   5.664  12.189  0.4485  0.0253 -0.3626
12974TIP3    H160337   1.375   5.596  12.257 -2.2164 -0.6112 -1.0288
12974TIP3    H260338   1.292   5.661  12.148  1.7259  0.8812 -3.3349
12975TIP3   OH260339   6.502   3.603  12.235  0.2486  0.6480 -0.1443
12975TIP3    H160340   6.466   3.599  12.323  0.1095  1.1129 -0.1748
12975TIP3    H260341   6.437   3.652  12.185  0.4714  0.6564 -0.4313
12976TIP3   OH260342   1.677   4.183  16.324 -0.2958  0.1246 -0.1324
12976TIP3    H160343   1.727   4.198  16.244  0.0003 -1.3641 -0.2407
12976TIP3    H260344   1.707   4.252  16.383 -0.3196  1.0778 -1.1934
12977TIP3   OH260345   2.271   6.026  17.041  0.2519 -0.2129 -0.3377
12977TIP3    H160346   2.351   6.079  17.047  0.0089  0.2320 -0.9598
12977TIP3    H260347   2.233   6.050  16.957  0.1713 -1.4387 -0.6683
12978TIP3   OH260348   5.151   0.260   4.873 -0.0216 -0.1183 -0.2819
12978TIP3    H160349   5.065   0.250   4.833  0.2446  0.8945 -1.1919
12978TIP3    H260350   5.199   0.316   4.811  0.0229  2.5761  2.0111
12979TIP3   OH260351   0.481   0.497  16.261  0.7849  0.2974 -0.7142
12979TIP3    H160352   0.418   0.457  16.321  3.2926  0.2104  2.0833
12979TIP3    H260353   0.460   0.590  16.264  1.7075  0.5023  1.5560
12980TIP3   OH260354   3.945   6.410  12.917 -0.5758 -0.2317 -0.2342
12980TIP3    H160355   3.973   6.335  12.864 -0.7194 -0.3528 -0.1410
12980TIP3    H260356   4.016   6.422  12.980  0.2789  0.8184 -1.3528
12981TIP3   OH260357   5.776   3.967   0.677 -0.0352  0.1273 -0.1021
12981TIP3    H160358   5.821   3.939   0.598  1.0933 -0.5877  0.7577
12981TIP3    H260359   5.700   4.016   0.646  0.5585  0.1315 -1.6062
12982TIP3   OH260360   1.759   3.229  16.420 -0.4688  0.2811  0.2837
12982TIP3    H160361   1.804   3.267  16.495 -2.2588  0.8286  1.1446
12982TIP3    H260362   1.686   3.289  16.404 -0.3533 -0.0454 -1.6611
12983TIP3   OH260363   1.547   1.458  16.530 -0.3658 -0.4890 -0.2096
12983TIP3    H160364   1.640   1.443  16.550 -0.5609 -0.5210  0.7118
12983TIP3    H260365   1.516   1.374  16.498  0.1323 -0.2420 -1.3694
12984TIP3   OH260366   4.724   0.114  14.698 -0.2230  0.4388  0.2051
12984TIP3    H160367   4.760   0.199  14.726 -0.9437  0.3234  1.5653
12984TIP3    H260368   4.633   0.116  14.726 -0.4072 -0.5638 -0.2834
12985TIP3   OH260369   3.569   5.115   5.351 -0.4485 -0.2345  0.2681
12985TIP3    H160370   3.521   5.034   5.364  2.0117 -1.8822 -0.2549
12985TIP3    H260371   3.586   5.148   5.439  0.1853 -1.3460  0.5802
12986TIP3   OH260372   3.519   3.728   4.052  0.3449 -0.5647  0.0625
12986TIP3    H160373   3.444   3.786   4.047  1.5175  0.9759 -0.5469
12986TIP3    H260374   3.564   3.740   3.968  1.2091 -1.5297  0.3609
12987TIP3   OH260375   4.387   3.182  14.378 -0.5128 -0.6376 -0.2135
12987TIP3    H160376   4.475   3.220  14.370 -1.3928  1.5041 -0.3197
12987TIP3    H260377   4.377   3.128  14.300  0.0805  0.5047 -1.1044
12988TIP3   OH260378   2.784   2.051  12.852  0.3535  0.6383 -0.0774
12988TIP3    H160379   2.722   2.124  12.844 -0.1948  0.1281 -0.6001
12988TIP3    H260380   2.799   2.043  12.946 -0.0077  1.0784  0.0229
12989TIP3   OH260381   6.004   2.626  11.715  0.0433 -0.3016  0.0555
12989TIP3    H160382   5.913   2.646  11.736  0.6795  1.4835  1.3740
12989TIP3    H260383   6.055   2.690  11.765  1.9921 -0.5928 -1.4238
12990TIP3   OH260384   3.274   1.389   3.116  0.0916 -0.4853  0.0914
12990TIP3    H160385   3.221   1.397   3.196  0.5787 -1.3920  0.5178
12990TIP3    H260386   3.329   1.467   3.116 -1.8299  0.9489 -0.8311
12991TIP3   OH260387   2.657   4.490   1.344  0.8383 -0.1290  0.0224
12991TIP3    H160388   2.622   4.515   1.258  0.8431  0.5696  0.2180
12991TIP3    H260389   2.645   4.568   1.399  1.0435 -0.4908  0.5959
12992TIP3   OH260390   3.984   1.010  16.860 -0.0271  0.3839  0.0694
12992TIP3    H160391   4.049   1.042  16.797  0.7553 -0.2188  0.5544
12992TIP3    H260392   4.011   0.920  16.879 -0.8411  0.2220  0.5042
12993TIP3   OH260393   5.429   3.326  13.304  1.0009 -0.0374 -0.2144
12993TIP3    H160394   5.409   3.419  13.302  1.1692  0.0538  1.2801
12993TIP3    H260395   5.368   3.290  13.369  2.1868 -0.6290  0.6119
12994TIP3   OH260396   6.275   6.417   1.343  0.2436 -0.0704 -0.7765
12994TIP3    H160397   6.203   6.369   1.385 -0.1197  1.2815  0.2084
12994TIP3    H260398   6.331   6.445   1.416  1.6402 -0.8539 -1.5020
12995TIP3   OH260399   2.004   5.431  16.020  0.1924  0.1734  0.0934
12995TIP3    H160400   1.971   5.342  16.007 -0.2500  0.2545  0.6335
12995TIP3    H260401   2.096   5.427  15.993  0.0300 -0.3150 -0.3926
12996TIP3   OH260402   6.349   5.944  14.523 -0.6463 -0.3034  0.1127
12996TIP3    H160403   6.352   5.973  14.614  0.8360 -2.0975  0.7057
12996TIP3    H260404   6.440   5.932  14.499 -0.8990  1.8415 -2.2654
12997TIP3   OH260405   0.949   2.768  15.077 -0.2211  0.2740  0.3844
12997TIP3    H160406   0.886   2.831  15.111 -0.6398  0.3339 -0.4737
12997TIP3    H260407   0.969   2.798  14.989  0.2166 -0.3221  0.2695
12998TIP3   OH260408   6.582   4.224  15.945 -0.0873 -0.4152  0.9761
12998TIP3    H160409   6.642   4.232  15.870 -1.9847  0.5326 -0.5164
12998TIP3    H260410   6.628   4.267  16.017  0.9278  0.5339 -0.1931
12999TIP3   OH260411   1.225   2.861  13.707 -0.9990  0.0615  0.7395
12999TIP3    H160412   1.231   2.818  13.793 -2.2030 -0.5838  0.5091
12999TIP3    H260413   1.139   2.902  13.707 -0.8019  0.4778  0.0221
13000TIP3   OH260414   0.852   1.853   4.460 -0.4087  0.6656  0.2120
13000TIP3    H160415   0.797   1.929   4.443  0.4945  0.8329 -2.4881
13000TIP3    H260416   0.935   1.890   4.489 -0.7178  0.5681  1.2436
13001TIP3   OH260417   0.073   0.642  11.740  0.1169 -0.5199  0.0673
13001TIP3    H160418   0.009   0.708  11.768  0.3865 -0.8678  1.5943
13001TIP3    H260419   0.039   0.609  11.657 -0.8011  0.4754  0.0257
13002TIP3   OH260420   3.926   4.203  12.462  0.3380 -0.0554  0.2038
13002TIP3    H160421   3.870   4.144  12.514  0.4966 -1.2995 -0.9880
13002TIP3    H260422   3.866   4.270  12.429  0.3073  1.0275  2.3053
13003TIP3   OH260423   1.858   1.427   6.360 -0.1263  0.2024  0.6133
13003TIP3    H160424   1.947   1.393   6.361  0.7770  2.1076 -2.1323
13003TIP3    H260425   1.867   1.519   6.386 -1.7826 -0.2143  3.0492
13004TIP3   OH260426   2.032   4.180  16.408 -0.3087  0.6795  0.2344
13004TIP3    H160427   2.015   4.092  16.374 -0.3444 -1.0764  4.2109
13004TIP3    H260428   1.950   4.204  16.452  1.0844  0.5757  3.0984
13005TIP3   OH260429   6.121   5.192   3.128  0.2781 -0.3725 -0.4556
13005TIP3    H160430   6.027   5.199   3.144  0.1495  0.4798 -1.4291
13005TIP3    H260431   6.133   5.105   3.091 -0.0821 -0.5892 -0.0690
13006TIP3   OH260432   1.973   3.993  12.130 -0.3720  0.3272  0.3099
13006TIP3    H160433   1.988   3.985  12.224 -1.0640  0.2120  0.4190
13006TIP3    H260434   1.903   4.059  12.123 -0.7468 -0.1030 -0.0841
13007TIP3   OH260435   4.910   2.150   3.610  0.8979  0.0380  0.9285
13007TIP3    H160436   4.833   2.096   3.627  1.4740 -0.5154  1.8510
13007TIP3    H260437   4.898   2.228   3.664  1.7591 -0.8093  2.4225
13008TIP3   OH260438   5.401   4.704   0.609 -0.1170 -0.4797  0.8261
13008TIP3    H160439   5.391   4.779   0.668  2.3739  0.9787 -0.4309
13008TIP3    H260440   5.474   4.728   0.551 -0.5717 -3.0285 -1.0005
13009TIP3   OH260441   4.448   1.947  14.364  0.5972 -0.2239 -0.1126
13009TIP3    H160442   4.427   1.951  14.458  2.2432  0.6964  0.2576
13009TIP3    H260443   4.522   2.007  14.354 -0.4627  0.8359 -2.2820
13010TIP3   OH260444   0.913   3.994  11.670 -0.3202  0.2281 -0.5671
13010TIP3    H160445   0.878   4.060  11.611 -0.3505 -0.5481 -1.4537
13010TIP3    H260446   0.899   3.911  11.624 -2.2351 -0.6427  1.4362
13011TIP3   OH260447   2.416   5.091  12.429  0.4063  0.4494  0.1647
13011TIP3    H160448   2.326   5.091  12.461  0.3216  2.9396  0.1314
13011TIP3    H260449   2.412   5.044  12.346 -1.2381  1.8949 -0.6485
13012TIP3   OH260450   2.251   3.514   2.573  0.3790 -0.6814 -0.4182
13012TIP3    H160451   2.242   3.517   2.478  3.6439  0.8662 -0.8009
13012TIP3    H260452   2.191   3.582   2.605  1.6169  1.0852 -1.6864
13013TIP3   OH260453   2.283   6.296  15.587  0.0582 -0.1925  0.0054
13013TIP3    H160454   2.243   6.348  15.517 -1.1133  0.4490  1.1143
13013TIP3    H260455   2.293   6.208  15.549 -0.7508  0.0898 -0.8979
13014TIP3   OH260456   4.412   0.273  11.520 -0.8363 -0.1848  0.4355
13014TIP3    H160457   4.345   0.314  11.575 -0.0454 -0.5450  1.7139
13014TIP3    H260458   4.494   0.312  11.550 -0.3730 -0.5093 -0.3972
13015TIP3   OH260459   0.394   1.346   6.574  0.0850 -0.7370  0.1774
13015TIP3    H160460   0.476   1.387   6.602  0.2560 -0.4799 -0.6956
13015TIP3    H260461   0.421   1.263   6.534  0.0430 -0.0663 -1.2911
13016TIP3   OH260462   3.062   3.482   4.907 -0.1468  0.6010  0.4355
13016TIP3    H160463   3.033   3.536   4.980  2.3451  0.8139  1.3643
13016TIP3    H260464   3.158   3.480   4.915  0.2106  0.4327 -2.6757
13017TIP3   OH260465   2.993   1.992  12.305  0.5409 -0.1516  0.6124
13017TIP3    H160466   3.028   1.972  12.392 -2.4269 -0.5677  1.8342
13017TIP3    H260467   2.948   2.076  12.316  1.3573  0.5464 -0.9609
13018TIP3   OH260468   6.707   2.795   0.505  0.6834 -0.0285  0.0385
13018TIP3    H160469   6.710   2.724   0.440 -1.9746  1.2888 -1.6810
13018TIP3    H260470   6.797   2.827   0.510  1.4319 -1.8091 -1.0631
13019TIP3   OH260471   5.735   3.904   1.010 -0.3585  0.4366  0.0789
13019TIP3    H160472   5.696   3.951   0.937 -0.6493  0.0406 -0.0289
13019TIP3    H260473   5.662   3.885   1.069 -0.4436 -0.7875 -0.3870
13020TIP3   OH260474   1.873   2.557  16.162 -0.6531  0.1808 -0.0100
13020TIP3    H160475   1.786   2.592  16.182  0.9828  2.3302  4.9628
13020TIP3    H260476   1.876   2.473  16.208 -0.4542 -0.4959 -1.2342
13021TIP3   OH260477   5.676   0.954   5.935 -0.1433  0.0044 -0.2786
13021TIP3    H160478   5.603   0.972   5.994  0.7027 -0.6741  1.0040
13021TIP3    H260479   5.752   0.996   5.977  0.6421 -1.2324 -0.4242
13022TIP3   OH260480   1.260   4.891  11.437 -0.0011 -0.1978  0.4293
13022TIP3    H160481   1.301   4.975  11.420 -1.1830  0.4203  0.5207
13022TIP3    H260482   1.223   4.865  11.352  0.8823 -0.9256  0.2587
13023TIP3   OH260483   5.152   3.781  16.031 -0.2304 -0.2665 -0.1424
13023TIP3    H160484   5.178   3.692  16.054  3.1338  0.4847 -0.5822
13023TIP3    H260485   5.176   3.790  15.939 -3.8499  0.0883 -1.2343
13024TIP3   OH260486   2.442   4.049  17.047 -0.3309 -0.0340  0.1378
13024TIP3    H160487   2.531   4.015  17.058 -0.3504 -0.2739 -0.4166
13024TIP3    H260488   2.396   4.020  17.126 -0.1622 -0.7062  0.0001
13025TIP3   OH260489   3.545   6.308  16.021  0.2867  0.1911 -0.1946
13025TIP3    H160490   3.534   6.399  15.995  0.1818  0.2865  0.1890
13025TIP3    H260491   3.598   6.311  16.100  1.7592 -0.1770 -1.1251
13026TIP3   OH260492   2.055   2.172   4.195 -0.1124 -0.0200 -0.0983
13026TIP3    H160493   2.062   2.098   4.255  0.4302 -0.7699 -1.0614
13026TIP3    H260494   2.107   2.241   4.236  0.0033 -0.4183  0.4395
13027TIP3   OH260495   2.429   2.234  13.923  0.1864 -0.0262 -0.5992
13027TIP3    H160496   2.378   2.154  13.911  0.8250 -0.4409 -0.5681
13027TIP3    H260497   2.515   2.204  13.950  0.6831  0.6438 -1.3957
13028TIP3   OH260498   6.302   2.801   3.668  0.0932 -0.2288 -0.2366
13028TIP3    H160499   6.304   2.853   3.748 -0.9195 -0.8493  0.2019
13028TIP3    H260500   6.385   2.822   3.624  0.9022 -0.2697  1.2031
13029TIP3   OH260501   1.899   4.035   4.596  0.4609  0.0599  0.5798
13029TIP3    H160502   1.853   3.964   4.552  0.9705  0.0427  0.0687
13029TIP3    H260503   1.915   4.002   4.684 -0.8396  0.2171  0.8883
13030TIP3   OH260504   1.169   5.552  13.673  0.3029 -0.4097  0.4489
13030TIP3    H160505   1.205   5.640  13.665 -1.3522  0.7477  3.7261
13030TIP3    H260506   1.084   5.556  13.629  0.9700 -0.9903 -0.9702
13031TIP3   OH260507   1.903   4.202   3.254  0.0500 -0.3754 -0.3410
13031TIP3    H160508   1.948   4.187   3.338  1.5826 -0.9933 -1.2293
13031TIP3    H260509   1.947   4.278   3.217 -0.5566 -0.1667 -0.6454
13032TIP3   OH260510   0.301   6.324   4.491 -0.0529 -0.8188  0.0617
13032TIP3    H160511   0.304   6.379   4.413  0.5103 -1.6497 -0.5285
13032TIP3    H260512   0.259   6.378   4.557 -0.0567  0.0980 -0.6644
13033TIP3   OH260513   2.676   1.322   3.016  0.0007 -0.2987  0.1330
13033TIP3    H160514   2.759   1.359   3.045  0.6492 -0.7588 -1.0697
13033TIP3    H260515   2.700   1.255   2.952 -1.2967 -0.4139 -0.2700
13034TIP3   OH260516   4.321   1.123   4.036  0.2281 -0.8064  0.9573
13034TIP3    H160517   4.240   1.168   4.062  0.5146 -0.3719  1.1014
13034TIP3    H260518   4.390   1.187   4.052  0.6198 -1.2345  0.9835
13035TIP3   OH260519   1.055   2.698   5.598  0.7522 -0.1184  0.1914
13035TIP3    H160520   1.033   2.722   5.688  2.4975  0.7772  0.4164
13035TIP3    H260521   1.084   2.780   5.558  1.3900 -0.7866 -0.7525
13036TIP3   OH260522   6.041   1.612   0.125  0.3338  0.6289  0.4790
13036TIP3    H160523   6.085   1.676   0.070  2.1589 -0.6764  0.3381
13036TIP3    H260524   6.112   1.569   0.173 -0.8820 -0.8661  1.0154
13037TIP3   OH260525   4.280   1.654   5.897 -0.3711  0.0620  0.1384
13037TIP3    H160526   4.270   1.749   5.905 -0.0534  0.2633 -1.4730
13037TIP3    H260527   4.194   1.619   5.920 -0.4311  0.7128  0.9552
13038TIP3   OH260528   6.599   5.971  11.311  0.0840 -0.0162  0.0572
13038TIP3    H160529   6.512   5.949  11.277  0.7162  0.8981 -2.3356
13038TIP3    H260530   6.587   6.057  11.352 -0.3184 -0.3123  0.5749
13039TIP3   OH260531   0.804   6.109   0.047  0.0396  0.4416 -0.0592
13039TIP3    H160532   0.845   6.170   0.109  0.3129 -0.5475  0.7693
13039TIP3    H260533   0.765   6.166  -0.020  1.2898  1.4763  0.0415
13040TIP3   OH260534   1.172   4.252  15.139 -0.4516 -0.3608  0.0901
13040TIP3    H160535   1.213   4.169  15.118  2.3240  0.7241  0.8466
13040TIP3    H260536   1.159   4.295  15.055 -1.8916 -1.4670 -0.3070
13041TIP3   OH260537   5.406   2.669   1.821 -0.4005  0.4931 -0.4576
13041TIP3    H160538   5.374   2.758   1.839 -1.1927 -0.0230  0.8548
13041TIP3    H260539   5.378   2.651   1.732 -1.5356  1.0306 -0.2263
13042TIP3   OH260540   6.428   2.755   2.204 -0.0667 -0.3678 -0.3269
13042TIP3    H160541   6.415   2.842   2.167 -2.9925 -1.0714 -1.2340
13042TIP3    H260542   6.516   2.730   2.176 -0.0459  1.3812 -2.0276
13043TIP3   OH260543   5.265   5.243   5.393 -0.1641 -0.1128  0.2501
13043TIP3    H160544   5.322   5.226   5.468 -0.4619 -0.3693  0.4170
13043TIP3    H260545   5.293   5.330   5.362  0.6662 -0.4482  0.0136
13044TIP3   OH260546   3.406   5.382  12.851  0.3602 -0.5020 -0.3897
13044TIP3    H160547   3.496   5.409  12.834  0.3471  0.3005  0.7202
13044TIP3    H260548   3.376   5.439  12.921  0.0236 -2.7687  1.4524
13045TIP3   OH260549   0.821   4.148   2.578 -0.1502  0.5753 -0.7948
13045TIP3    H160550   0.878   4.139   2.501  0.7857  0.3734 -0.0885
13045TIP3    H260551   0.732   4.147   2.541  0.2782  0.5797 -1.8835
13046TIP3   OH260552   5.498   0.075   5.668 -0.0565  0.3588  0.0443
13046TIP3    H160553   5.460  -0.006   5.636 -0.4564  0.4027  0.3928
13046TIP3    H260554   5.537   0.116   5.591 -0.8090  0.3580 -0.3492
13047TIP3   OH260555   6.081   4.324   4.272  0.3151 -0.0073  0.4166
13047TIP3    H160556   6.117   4.235   4.276 -1.4232 -0.7683  0.1236
13047TIP3    H260557   5.986   4.311   4.276  0.0298  1.8510  0.3380
13048TIP3   OH260558   4.146   2.138  13.621  0.6998 -1.0375 -0.1294
13048TIP3    H160559   4.222   2.132  13.679  0.9918  0.3485 -0.3473
13048TIP3    H260560   4.174   2.095  13.540  0.6730 -1.9798  0.3475
13049TIP3   OH260561   3.810   6.445  16.475 -0.6524 -0.3121 -0.1543
13049TIP3    H160562   3.808   6.541  16.472 -1.4829 -0.2184  1.7323
13049TIP3    H260563   3.888   6.424  16.526 -1.8587 -0.4675  1.7587
13050TIP3   OH260564   4.766   1.491   3.819 -0.4867  0.6012 -0.0513
13050TIP3    H160565   4.753   1.551   3.746 -0.6439  0.6027 -0.0233
13050TIP3    H260566   4.678   1.459   3.839 -0.2503 -0.8845 -1.1340
13051TIP3   OH260567   0.140   3.273  13.706  0.6626  0.0306  0.1185
13051TIP3    H160568   0.214   3.321  13.670  1.7139 -0.3873  1.6343
13051TIP3    H260569   0.069   3.289  13.644  1.3788  2.2998 -0.2255
13052TIP3   OH260570   0.030   1.560   3.781  0.0775 -0.0938 -0.3043
13052TIP3    H160571  -0.058   1.533   3.756 -0.2543  0.7750 -0.1177
13052TIP3    H260572   0.019   1.599   3.868  0.6811 -0.1728 -0.1903
13053TIP3   OH260573   3.727   4.153   3.918 -0.7664  0.5801  0.4022
13053TIP3    H160574   3.805   4.097   3.917  1.1150  3.0261  0.3930
13053TIP3    H260575   3.703   4.162   3.826 -0.3569  0.6969  0.3013
13054TIP3   OH260576   0.818   1.283  13.037  0.0620  0.3274 -0.0247
13054TIP3    H160577   0.762   1.275  12.959  1.0632 -0.6462 -0.6684
13054TIP3    H260578   0.762   1.327  13.101 -0.9887  0.6175 -1.0904
13055TIP3   OH260579   1.937   5.679   4.699  0.3187 -0.2969  0.0909
13055TIP3    H160580   1.917   5.606   4.758  2.7992 -0.9068  0.2760
13055TIP3    H260581   2.004   5.645   4.640 -1.4984  0.5739 -2.6188
13056TIP3   OH260582   3.601   1.196   2.477  0.7049  0.0639  0.4935
13056TIP3    H160583   3.634   1.267   2.534 -0.8578  0.1250  1.3603
13056TIP3    H260584   3.590   1.121   2.535  0.2241 -0.2368  0.0256
13057TIP3   OH260585   1.953   2.236   3.614  0.2264 -0.0842  0.1108
13057TIP3    H160586   1.941   2.143   3.591  0.3470 -0.2691  0.7684
13057TIP3    H260587   1.973   2.235   3.707  1.6685  0.4943 -0.1646
13058TIP3   OH260588   3.925   3.015  12.705  0.3173  0.3357 -0.0943
13058TIP3    H160589   3.903   3.108  12.698  1.9328  0.7185 -0.7101
13058TIP3    H260590   4.012   3.009  12.664 -0.4049 -1.7151 -1.4680
13059TIP3   OH260591   2.333   1.870   0.169 -0.7224  0.6137 -0.1203
13059TIP3    H160592   2.305   1.848   0.080  0.5262  1.0666 -0.6510
13059TIP3    H260593   2.351   1.964   0.166  4.0446 -0.0906 -0.8411
13060TIP3   OH260594   5.665   0.327   4.797  0.4017 -0.3877  0.2087
13060TIP3    H160595   5.618   0.244   4.802 -0.1006 -0.1782 -0.7691
13060TIP3    H260596   5.671   0.345   4.704  3.6295 -1.0608  0.1847
13061TIP3   OH260597   2.248   2.635   1.361  0.6982  0.2014  0.1308
13061TIP3    H160598   2.205   2.708   1.316 -1.2354  0.6199  2.4297
13061TIP3    H260599   2.321   2.676   1.408  2.6400 -0.2172 -2.3562
13062TIP3   OH260600   6.755   0.615   0.495  0.2130  0.0846  0.0600
13062TIP3    H160601   6.826   0.657   0.544  0.9876 -1.0111 -0.0729
13062TIP3    H260602   6.725   0.545   0.553 -1.1211  0.8465  0.3233
13063TIP3   OH260603   6.501   6.267  14.871  0.1770  0.0862  0.2100
13063TIP3    H160604   6.535   6.311  14.949  0.9055 -0.4247  0.1862
13063TIP3    H260605   6.565   6.286  14.803 -0.8405  1.1940 -0.4995
13064TIP3   OH260606   2.229   2.834   4.242 -0.4539 -0.2906 -0.4304
13064TIP3    H160607   2.287   2.792   4.305 -1.8060 -1.7907 -0.1050
13064TIP3    H260608   2.281   2.840   4.161 -0.0784 -2.3689 -0.4001
13065TIP3   OH260609   2.338   2.512   2.886 -0.8542  0.2073 -0.0484
13065TIP3    H160610   2.383   2.435   2.852  0.2810 -1.1236  3.8964
13065TIP3    H260611   2.249   2.481   2.906 -1.0131  0.5213 -0.2434
13066TIP3   OH260612   1.111   0.195  12.084 -0.1620  0.0087 -0.0008
13066TIP3    H160613   1.073   0.281  12.067  3.1163  1.5950  0.0834
13066TIP3    H260614   1.149   0.169  12.001  0.7439 -0.3317  0.5078
13067TIP3   OH260615   2.935   5.113  14.557  0.2375  0.2413 -0.5654
13067TIP3    H160616   2.860   5.055  14.551  1.2066 -0.9433 -1.8987
13067TIP3    H260617   2.935   5.162  14.475  2.2223 -1.5230 -1.7277
13068TIP3   OH260618   1.688   3.930   1.183 -0.2862 -0.1519 -0.5065
13068TIP3    H160619   1.680   3.835   1.176 -0.4818 -0.1070 -0.9483
13068TIP3    H260620   1.602   3.959   1.215  0.5524 -0.3407  2.0874
13069TIP3   OH260621   1.781   6.457   1.053 -0.0452  0.6718  0.2521
13069TIP3    H160622   1.697   6.477   1.013 -0.0852  1.6927  0.8011
13069TIP3    H260623   1.761   6.442   1.146  0.1143 -1.1215  0.0241
13070TIP3   OH260624   1.999   2.646   2.661 -0.3094 -0.1122  0.4652
13070TIP3    H160625   1.930   2.581   2.645  0.2928 -0.4748 -0.7321
13070TIP3    H260626   1.970   2.724   2.615 -0.8756  0.4028  1.6410
13071TIP3   OH260627   4.604   3.255   3.086  0.3152  0.5408 -0.3539
13071TIP3    H160628   4.664   3.317   3.044  1.9781 -0.5985  0.1992
13071TIP3    H260629   4.526   3.256   3.031  1.3103  1.1811 -1.8399
13072TIP3   OH260630   5.735   5.144   0.323  0.3800 -0.2402 -0.5635
13072TIP3    H160631   5.700   5.145   0.412 -0.5089  1.6014 -0.8881
13072TIP3    H260632   5.792   5.221   0.319  1.9150 -1.3637 -1.0448
13073TIP3   OH260633   1.006   6.203  13.102 -0.3642 -0.0808  0.0623
13073TIP3    H160634   1.093   6.241  13.118 -0.4243 -0.1551  0.5978
13073TIP3    H260635   1.004   6.187  13.008  1.3678 -2.8624  0.3971
13074TIP3   OH260636   0.270   5.818   0.022 -0.0784 -0.4472  0.3422
13074TIP3    H160637   0.343   5.857  -0.026  1.7466 -1.2250  2.2848
13074TIP3    H260638   0.234   5.752  -0.037  1.2663 -0.5373 -0.4227
13075TIP3   OH260639   2.726   0.314   3.139  0.1589  0.7058  0.4127
13075TIP3    H160640   2.679   0.331   3.057 -0.0510 -0.4453  0.2823
13075TIP3    H260641   2.711   0.393   3.192 -1.4303  0.6139  0.1446
13076TIP3   OH260642   5.142   5.073  12.940  0.3434  0.1495  0.5669
13076TIP3    H160643   5.238   5.070  12.932  0.2739 -0.4014 -0.1042
13076TIP3    H260644   5.122   5.167  12.940  0.7504  0.2615 -1.0993
13077TIP3   OH260645   1.173   3.825  16.928  0.1035 -0.0894  0.1572
13077TIP3    H160646   1.192   3.892  16.862 -0.5378  0.7856  0.8283
13077TIP3    H260647   1.218   3.856  17.007  0.6895 -1.0111  0.1868
13078TIP3   OH260648   1.121   4.192  12.522 -0.1840 -0.0440  0.0067
13078TIP3    H160649   1.053   4.159  12.581  1.7452 -0.9188  1.8937
13078TIP3    H260650   1.127   4.127  12.453 -1.8506  0.5213 -0.7252
13079TIP3   OH260651   5.909   4.495   2.782  0.5337 -0.2082 -0.2278
13079TIP3    H160652   5.864   4.569   2.823  0.4182  0.1085 -0.9162
13079TIP3    H260653   5.962   4.534   2.713  0.5469 -0.7585 -0.5347
13080TIP3   OH260654   0.964   4.001  14.081 -0.6702 -0.4901 -0.2766
13080TIP3    H160655   0.993   4.029  14.167 -2.0595 -0.1387  0.0907
13080TIP3    H260656   0.881   3.956  14.096 -0.2015 -1.7755 -1.2617
13081TIP3   OH260657   5.428   1.157  11.953  0.9418 -0.1784 -0.3389
13081TIP3    H160658   5.488   1.111  12.011  0.9723  0.7461  0.3792
13081TIP3    H260659   5.356   1.185  12.009  1.0515  0.8757 -0.6936
13082TIP3   OH260660   2.989   1.996  15.028  0.0393 -0.0268 -0.0012
13082TIP3    H160661   3.067   2.050  15.041  0.6924 -0.8524 -0.3424
13082TIP3    H260662   2.970   2.004  14.934 -0.3555  0.2626  0.1027
13083TIP3   OH260663   5.650   5.374  16.262 -0.0511 -0.5150  0.2802
13083TIP3    H160664   5.575   5.316  16.256  0.8649 -1.6989 -0.1872
13083TIP3    H260665   5.622   5.454  16.218 -0.0898 -1.9931 -2.6781
13084TIP3   OH260666   0.165   5.329   0.940 -0.1298 -0.2843  0.4310
13084TIP3    H160667   0.238   5.374   0.899 -0.5251  0.5296  0.6026
13084TIP3    H260668   0.144   5.257   0.880  0.1100  0.1323 -0.1605
13085TIP3   OH260669   3.190   3.096  14.588 -0.1745  0.4173 -0.0471
13085TIP3    H160670   3.200   3.186  14.621  0.0086  1.4433 -2.6733
13085TIP3    H260671   3.103   3.095  14.548 -0.8622 -1.1358  1.3706
13086TIP3   OH260672   5.460   2.709   0.339 -0.2852 -0.4286  0.0772
13086TIP3    H160673   5.514   2.638   0.303  0.0671 -0.0911 -0.0671
13086TIP3    H260674   5.373   2.670   0.348 -0.1792 -0.7745 -0.3375
13087TIP3   OH260675   5.060   0.364  14.492 -0.2607  0.0323 -0.5250
13087TIP3    H160676   5.134   0.377  14.552  0.9818 -0.3760 -1.9325
13087TIP3    H260677   5.072   0.430  14.423  0.1967 -1.6162 -2.0763
13088TIP3   OH260678   1.084   2.216  11.714 -0.2574  0.1490 -0.3392
13088TIP3    H160679   1.131   2.133  11.708 -1.1006 -0.3676  0.0830
13088TIP3    H260680   1.153   2.283  11.715  0.5136 -0.6245  0.8821
13089TIP3   OH260681   6.260   3.753  14.878 -0.5495 -0.8013 -0.2892
13089TIP3    H160682   6.298   3.787  14.796 -2.3566  2.6347  0.1194
13089TIP3    H260683   6.205   3.680  14.850 -0.7016 -0.0501 -2.0841
13090TIP3   OH260684   3.638   4.700  17.222  0.2491 -0.6190 -0.4369
13090TIP3    H160685   3.666   4.788  17.196  0.0250 -0.4918 -0.2415
13090TIP3    H260686   3.574   4.714  17.291  0.9939 -0.9626  0.3432
13091TIP3   OH260687   3.930   1.529  11.606 -0.6717  0.0455  0.2677
13091TIP3    H160688   3.976   1.502  11.685  2.0860  0.7572 -0.9831
13091TIP3    H260689   3.869   1.457  11.588  1.6701 -2.2165  0.7289
13092TIP3   OH260690   3.951   6.506  15.431 -0.3902 -0.0383 -0.0096
13092TIP3    H160691   4.007   6.461  15.368 -1.6186 -0.1290 -1.0800
13092TIP3    H260692   4.011   6.546  15.493  0.8005 -2.6300  0.6446
13093TIP3   OH260693   4.649   3.670   1.133  0.3426 -0.2444 -0.1547
13093TIP3    H160694   4.573   3.727   1.149  0.6592  0.7158 -1.8183
13093TIP3    H260695   4.723   3.717   1.172  0.0970 -1.2894  1.6694
13094TIP3   OH260696   6.325   2.550  14.954  0.3778  0.0470 -0.0608
13094TIP3    H160697   6.351   2.469  14.909 -0.1063 -0.1962  0.0878
13094TIP3    H260698   6.229   2.547  14.954  0.3514  0.7872 -0.3499
13095TIP3   OH260699   0.208   4.948  11.836  0.1913 -0.3865 -0.9106
13095TIP3    H160700   0.244   5.027  11.875  0.2909 -0.4290 -0.9159
13095TIP3    H260701   0.116   4.969  11.820 -0.2455 -0.9055  0.7685
13096TIP3   OH260702   1.185   4.793  14.125 -0.4292 -0.3777 -0.5415
13096TIP3    H160703   1.151   4.707  14.099  0.4811 -1.0330  0.3523
13096TIP3    H260704   1.261   4.807  14.068  0.2569 -0.8191  0.2417
13097TIP3   OH260705   4.556   5.139  10.659  0.2313 -0.0366  0.1311
13097TIP3    H160706   4.643   5.178  10.670  0.4028  0.0294 -1.3019
13097TIP3    H260707   4.562   5.055  10.706  0.8058  0.3121  0.7084
13098TIP3   OH260708   6.499   3.169  16.428  0.0456  0.0123  0.5088
13098TIP3    H160709   6.511   3.109  16.354 -0.7232  1.5983 -0.9668
13098TIP3    H260710   6.407   3.159  16.453  0.1503 -0.0706  0.8776
13099TIP3   OH260711   3.787   2.698  11.762 -0.3600  0.4409 -0.0321
13099TIP3    H160712   3.799   2.674  11.670  0.9776 -0.3048  0.3030
13099TIP3    H260713   3.693   2.692  11.776 -0.3880 -1.8652 -0.7483
13100TIP3   OH260714   4.147   6.069   5.300 -0.0483 -0.0470 -0.0030
13100TIP3    H160715   4.097   6.149   5.282 -1.5628 -0.7196  1.0250
13100TIP3    H260716   4.080   6.001   5.310  1.2056 -1.4408 -0.7563
13101TIP3   OH260717   6.503   0.148  16.675  0.2990 -0.0826  0.0860
13101TIP3    H160718   6.428   0.148  16.735  0.8591  0.5357  0.8142
13101TIP3    H260719   6.514   0.240  16.651  0.4767 -0.2498 -0.4624
13102TIP3   OH260720   4.910   0.568   6.277 -0.1755  0.2627  0.0822
13102TIP3    H160721   4.937   0.483   6.243 -1.4596 -0.8816  1.7724
13102TIP3    H260722   4.826   0.552   6.318 -0.2100  2.2518  0.9009
13103TIP3   OH260723   0.773   5.589  11.852  0.2417  0.5543  0.9460
13103TIP3    H160724   0.863   5.599  11.882  0.8779 -1.5101 -0.1506
13103TIP3    H260725   0.753   5.497  11.865 -0.4778  0.1931 -2.0806
13104TIP3   OH260726   0.791   5.992  16.627 -0.3394 -0.4601  0.0758
13104TIP3    H160727   0.838   6.064  16.670 -1.7923  1.4855 -1.4511
13104TIP3    H260728   0.705   5.993  16.668 -0.5469 -0.9935 -0.3474
13105TIP3   OH260729   1.291   4.457   3.198 -0.4256  0.0237  0.2762
13105TIP3    H160730   1.374   4.420   3.171 -1.1709 -0.8251 -0.9290
13105TIP3    H260731   1.312   4.510   3.275  1.0338 -1.1102  0.7009
13106TIP3   OH260732   1.247   0.254   4.574  0.5255 -0.3979  0.4140
13106TIP3    H160733   1.290   0.178   4.612 -0.7845 -0.5465  1.6833
13106TIP3    H260734   1.199   0.294   4.647  1.2778  1.7425 -0.1780
13107TIP3   OH260735   4.988   5.930  17.204 -0.2953  0.3324 -0.2290
13107TIP3    H160736   5.066   5.902  17.156  0.0167  1.7915 -0.6272
13107TIP3    H260737   4.985   6.025  17.191 -2.4117  0.2484 -0.6315
13108TIP3   OH260738   2.059   6.252  16.631  0.0856 -0.1817  0.3707
13108TIP3    H160739   2.083   6.343  16.614 -1.0076  0.3757  1.6124
13108TIP3    H260740   2.035   6.250  16.723 -2.9147 -1.0031 -0.3185
13109TIP3   OH260741   6.143   3.291   2.261  0.4724  0.5150  0.2376
13109TIP3    H160742   6.078   3.355   2.288  1.0861  1.0842  0.4042
13109TIP3    H260743   6.200   3.339   2.200  0.6068 -0.0321 -0.0719
13110TIP3   OH260744   5.281   1.674   4.603  0.2332  0.1356 -1.0631
13110TIP3    H160745   5.313   1.763   4.619 -2.0382  0.9421 -0.6422
13110TIP3    H260746   5.310   1.654   4.514  1.1618  1.0934 -1.0006
13111TIP3   OH260747   4.580   6.171  14.522  0.4244  0.8009  0.1649
13111TIP3    H160748   4.631   6.099  14.560 -1.2914 -1.9616 -2.3004
13111TIP3    H260749   4.611   6.177  14.431 -0.0927  2.6422  0.0675
13112TIP3   OH260750   1.661   5.290  16.148  0.0154 -1.0299  0.3148
13112TIP3    H160751   1.700   5.253  16.228 -0.5875 -0.1465  1.0366
13112TIP3    H260752   1.699   5.377  16.142 -2.5221  0.2836  1.6128
13113TIP3   OH260753   0.657   3.722   4.726  0.5567  0.0764 -0.3129
13113TIP3    H160754   0.576   3.671   4.733  1.0265 -0.6482 -0.0437
13113TIP3    H260755   0.688   3.731   4.816 -0.0934  1.7991 -0.2423
13114TIP3   OH260756   3.687   6.594   5.744 -0.1306  0.2251 -0.2847
13114TIP3    H160757   3.662   6.674   5.697  0.9701  0.8474  0.1455
13114TIP3    H260758   3.773   6.615   5.782  0.3890 -1.3333 -0.5523
13115TIP3   OH260759   1.129   0.414  16.099  0.5158 -0.0017 -0.4850
13115TIP3    H160760   1.155   0.322  16.092 -0.9816 -0.5527  0.5483
13115TIP3    H260761   1.201   0.455  16.147  2.0857 -0.1722 -2.5445
13116TIP3   OH260762   4.525   6.221   0.005 -0.4008  0.5167  0.3045
13116TIP3    H160763   4.590   6.151  -0.007 -1.0848 -0.2757  1.0953
13116TIP3    H260764   4.527   6.269  -0.078  0.2866 -0.2718 -0.1560
13117TIP3   OH260765   0.758   2.867  11.719  0.5896  0.1770  0.0893
13117TIP3    H160766   0.846   2.887  11.687  1.5308 -1.1720  1.6547
13117TIP3    H260767   0.732   2.790  11.669 -0.0568  1.0278 -0.9191
13118TIP3   OH260768   2.703   1.668  16.154  0.0906 -0.4257 -0.2071
13118TIP3    H160769   2.785   1.715  16.137 -0.4270  0.7771  0.4567
13118TIP3    H260770   2.635   1.727  16.122 -0.6545 -0.0315  1.9105
13119TIP3   OH260771   0.334   2.524   3.320  0.2487  0.0604  0.0309
13119TIP3    H160772   0.270   2.522   3.392  0.8828 -1.7605  0.5882
13119TIP3    H260773   0.282   2.504   3.242  0.2973 -3.2434  0.7004
13120TIP3   OH260774   0.873   3.431   4.306 -0.6346  0.3688  0.4069
13120TIP3    H160775   0.890   3.428   4.400  0.6177  0.1439  0.1981
13120TIP3    H260776   0.855   3.523   4.287 -1.7119  0.2951  0.9745
13121TIP3   OH260777   2.735   3.613  14.931  0.2791  0.2784 -0.3727
13121TIP3    H160778   2.651   3.603  14.974 -0.0929  0.8857 -0.9378
13121TIP3    H260779   2.800   3.593  14.999 -0.2825  1.4809  0.5493
13122TIP3   OH260780   0.046   0.773   1.581  0.5793 -0.1499  0.4639
13122TIP3    H160781   0.107   0.747   1.512  0.7538  0.0693  0.5342
13122TIP3    H260782  -0.015   0.832   1.538 -0.3149 -1.2978  0.1080
13123TIP3   OH260783   5.354   4.527  15.337 -0.3899 -0.4316 -0.2253
13123TIP3    H160784   5.376   4.517  15.429 -2.4291 -1.5722  0.1905
13123TIP3    H260785   5.426   4.484  15.290  2.2997  2.7550  0.5499
13124TIP3   OH260786   2.904   4.006  12.459  0.4368  0.2716  0.0627
13124TIP3    H160787   2.892   4.057  12.378  1.1721  0.4356  0.0474
13124TIP3    H260788   2.818   3.967  12.476  0.3163  0.0992 -0.8890
13125TIP3   OH260789   1.949   5.695  12.393 -0.2795 -0.3758 -0.0505
13125TIP3    H160790   1.962   5.694  12.298  1.4740  0.1147  0.1572
13125TIP3    H260791   1.931   5.787  12.414 -0.7648 -0.4999  0.0808
13126TIP3   OH260792   5.814   4.577  17.264 -0.3476 -0.2538  0.3742
13126TIP3    H160793   5.757   4.640  17.221  0.7716  1.3961  1.1875
13126TIP3    H260794   5.803   4.496  17.214 -0.8833  0.9090 -1.4924
13127TIP3   OH260795   5.822   2.955   0.656 -0.2387 -0.6862 -0.3502
13127TIP3    H160796   5.779   2.877   0.620 -0.1713  0.1004 -2.2113
13127TIP3    H260797   5.759   3.025   0.642  0.5551 -0.0196 -0.6036
13128TIP3   OH260798   0.095   2.085   0.320 -0.3575 -0.0145  0.1723
13128TIP3    H160799   0.008   2.065   0.355 -1.9793  0.1827 -3.3957
13128TIP3    H260800   0.117   2.170   0.358 -1.7605 -0.0084  1.0502
13129TIP3   OH260801   1.078   2.575  13.250 -0.2501 -0.1406  0.2586
13129TIP3    H160802   1.040   2.602  13.333 -1.4846 -0.3688 -0.2113
13129TIP3    H260803   1.023   2.616  13.183  0.9620  0.3671 -0.4646
13130TIP3   OH260804   2.166   0.308  15.247  0.5640 -0.2203 -1.1157
13130TIP3    H160805   2.137   0.305  15.156  3.3417  0.0049 -2.1140
13130TIP3    H260806   2.205   0.222  15.263  0.4303 -0.1312 -0.2476
13131TIP3   OH260807   6.581   3.083  15.578 -0.1418  0.4348  0.0033
13131TIP3    H160808   6.672   3.053  15.575 -0.5765 -0.8924 -0.4391
13131TIP3    H260809   6.572   3.139  15.502 -0.0118 -0.4140 -0.6536
13132TIP3   OH260810   3.425   5.537  15.143  0.2200 -0.3647 -0.3734
13132TIP3    H160811   3.509   5.497  15.164 -0.3077 -1.0892  0.3927
13132TIP3    H260812   3.404   5.590  15.220  0.0985  0.0358 -0.6770
13133TIP3   OH260813   2.530   4.203  15.402 -0.1810 -0.2174  0.7603
13133TIP3    H160814   2.608   4.177  15.450  0.3108 -1.0647 -0.4469
13133TIP3    H260815   2.518   4.295  15.422  2.2673  0.4527 -0.5085
13134TIP3   OH260816   5.335   2.531   0.088 -0.3753 -0.2508 -0.2509
13134TIP3    H160817   5.430   2.536   0.102 -0.6056 -1.5067  2.2574
13134TIP3    H260818   5.299   2.504   0.172 -2.8655 -1.1354 -1.4829
13135TIP3   OH260819   5.996   5.543   1.012  0.3936  0.4059  0.1373
13135TIP3    H160820   5.907   5.517   1.037  0.1457  0.6576 -0.4665
13135TIP3    H260821   6.046   5.462   1.015 -0.1364  0.0347 -0.7045
13136TIP3   OH260822   2.261   3.605  12.970  0.0140 -0.1116  0.1598
13136TIP3    H160823   2.213   3.592  13.052  1.4904  0.0141  1.0723
13136TIP3    H260824   2.217   3.680  12.929  0.6278  1.2996  1.9324
13137TIP3   OH260825   4.398   4.979  13.555 -0.0999  0.0733  0.4836
13137TIP3    H160826   4.455   4.903  13.564 -0.3477  0.0185  1.7103
13137TIP3    H260827   4.328   4.950  13.496  1.9432  0.6418 -2.4406
13138TIP3   OH260828   4.548   0.575   4.792 -0.0427 -0.3179  0.9624
13138TIP3    H160829   4.547   0.652   4.734  0.0379 -0.1931  1.1261
13138TIP3    H260830   4.640   0.546   4.790 -0.3282 -1.2203 -0.1616
13139TIP3   OH260831   1.508   5.571  12.578  0.4009  0.0176 -0.8554
13139TIP3    H160832   1.471   5.659  12.583  3.3418  1.4797 -1.8260
13139TIP3    H260833   1.582   5.581  12.518  1.4371 -2.9217 -0.2094
13140TIP3   OH260834   3.058   5.089  16.276 -0.2286  0.2502 -0.8081
13140TIP3    H160835   3.090   5.151  16.341  0.0832 -1.1456  0.4248
13140TIP3    H260836   2.976   5.056  16.312 -0.4192 -0.0234 -1.4712
13141TIP3   OH260837   1.046   3.904  16.643  0.5576 -0.1600  0.2621
13141TIP3    H160838   0.972   3.963  16.629  0.6319  0.2742  1.5593
13141TIP3    H260839   1.114   3.960  16.681  1.7583 -0.4443 -1.3451
13142TIP3   OH260840   6.343   6.164   4.858 -0.2378  0.4686  0.7964
13142TIP3    H160841   6.419   6.223   4.853 -0.5270  0.7739 -0.3866
13142TIP3    H260842   6.363   6.094   4.796 -0.2309 -0.3061  1.6557
13143TIP3   OH260843   4.080   4.650  10.671  0.3081  0.5023 -0.0726
13143TIP3    H160844   4.105   4.688  10.587 -1.2842 -1.4376 -1.5281
13143TIP3    H260845   3.994   4.611  10.654  1.0965 -2.2484  1.7064
13144TIP3   OH260846   6.548   3.355  11.022 -0.0282  0.4336  0.2442
13144TIP3    H160847   6.569   3.441  11.059  0.2439  1.3485 -1.9112
13144TIP3    H260848   6.621   3.335  10.964 -1.3179 -0.0220 -1.3005
13145TIP3   OH260849   3.173   1.771   3.514 -0.3885  0.1244  0.0530
13145TIP3    H160850   3.198   1.862   3.532  0.5590 -0.2550  0.7694
13145TIP3    H260851   3.196   1.758   3.422  0.9205  0.1903  0.3393
13146TIP3   OH260852   0.978   2.459   2.984  0.4700 -0.3492  0.0145
13146TIP3    H160853   1.059   2.446   3.034  0.1563 -0.7945  0.4100
13146TIP3    H260854   0.962   2.553   2.989  1.4859 -0.0979 -0.8891
13147TIP3   OH260855   2.991   4.093   2.447  0.1314 -0.2170  0.3991
13147TIP3    H160856   2.899   4.116   2.458 -0.8203 -3.5076  0.6255
13147TIP3    H260857   2.994   4.000   2.469  3.5596 -0.1939  0.4616
13148TIP3   OH260858   5.505   1.429  15.231  0.3080 -0.0235 -0.4670
13148TIP3    H160859   5.500   1.444  15.326 -2.0972 -2.1923 -0.1372
13148TIP3    H260860   5.598   1.429  15.212  0.8358  1.9213  1.6034
13149TIP3   OH260861   6.716   6.515   5.318 -0.3797 -0.3629  0.2521
13149TIP3    H160862   6.644   6.461   5.350 -0.3134  0.6986  2.3308
13149TIP3    H260863   6.776   6.524   5.392  1.2766 -0.1425 -1.0273
13150TIP3   OH260864   2.719   3.383  16.868  0.6067  0.1486  0.0386
13150TIP3    H160865   2.658   3.314  16.841  0.7733 -0.1992  0.5496
13150TIP3    H260866   2.668   3.464  16.858 -0.4938 -0.2509  1.9494
13151TIP3   OH260867   4.259   3.998  15.882  0.3191 -0.7951  0.3304
13151TIP3    H160868   4.261   4.012  15.788 -0.4014 -0.1222  0.4121
13151TIP3    H260869   4.179   3.948  15.898  1.6154 -2.9962  0.3332
13152TIP3   OH260870   4.699   5.599  16.154 -0.1827  0.1057  0.0631
13152TIP3    H160871   4.614   5.579  16.115 -0.0895 -0.7272  0.2669
13152TIP3    H260872   4.678   5.627  16.243 -0.2143 -0.8168  0.3639
13153TIP3   OH260873   4.625   6.657   0.129 -0.0308  0.1306 -0.6233
13153TIP3    H160874   4.704   6.614   0.096 -0.6404 -1.4075 -0.1435
13153TIP3    H260875   4.614   6.622   0.218  0.1878  2.3061  0.3280
13154TIP3   OH260876   3.350   4.239  14.226 -0.1713 -0.1450  0.2596
13154TIP3    H160877   3.375   4.285  14.307 -0.0432 -0.8763  0.6375
13154TIP3    H260878   3.424   4.255  14.166  0.1296 -0.3294  0.5804
13155TIP3   OH260879   6.013   3.726   2.372 -0.0566 -0.0336 -0.3212
13155TIP3    H160880   6.101   3.707   2.341 -0.2007  0.4139 -1.0323
13155TIP3    H260881   6.024   3.796   2.437  0.2393 -0.9171  0.5945
13156TIP3   OH260882   3.919   6.243   3.366 -0.4691 -0.3130 -0.1712
13156TIP3    H160883   3.878   6.312   3.314 -0.2788  0.2996  0.4703
13156TIP3    H260884   3.944   6.176   3.303 -0.0010  0.5374 -0.9065
13157TIP3   OH260885   0.833   5.371   3.087  0.0772 -0.3160 -0.3683
13157TIP3    H160886   0.892   5.304   3.123  1.2424  1.3776  1.0934
13157TIP3    H260887   0.749   5.327   3.079  0.9183 -2.1028  0.0038
13158TIP3   OH260888   2.451   4.747  11.222 -0.3357 -0.0835 -0.1035
13158TIP3    H160889   2.425   4.658  11.201 -1.2956  0.1089  0.2242
13158TIP3    H260890   2.416   4.800  11.151 -0.2638  0.0995 -0.0051
13159TIP3   OH260891   4.426   1.810  11.027 -0.6520  0.0902  0.1354
13159TIP3    H160892   4.444   1.882  11.088  0.7049  0.7035 -0.9362
13159TIP3    H260893   4.413   1.853  10.943 -1.8241 -0.7983 -0.1661
13160TIP3   OH260894   4.159   5.223   3.989 -0.1621  0.2352 -0.0206
13160TIP3    H160895   4.221   5.213   3.917 -0.4810  1.3383 -0.4669
13160TIP3    H260896   4.147   5.318   3.998  0.6711  0.1895  2.1708
13161TIP3   OH260897   2.172   5.220   0.376  0.8874 -0.4900 -0.1372
13161TIP3    H160898   2.159   5.314   0.361  1.0784 -0.5737 -0.8778
13161TIP3    H260899   2.169   5.181   0.288  2.6066 -0.9466 -0.0401
13162TIP3   OH260900   4.770   4.552   5.744  0.1241 -0.2564 -0.0077
13162TIP3    H160901   4.750   4.604   5.667  1.1529 -1.6248 -1.2700
13162TIP3    H260902   4.761   4.612   5.817 -2.6411  0.6793 -0.9649
13163TIP3   OH260903   0.508   6.168   0.895  0.6015 -0.4835  0.3794
13163TIP3    H160904   0.416   6.173   0.870  0.9412  0.9160 -0.7137
13163TIP3    H260905   0.544   6.254   0.873  2.7877 -1.8256 -1.7863
13164TIP3   OH260906   0.657   1.849  15.231 -0.0037 -0.6711  0.4443
13164TIP3    H160907   0.623   1.938  15.229  2.1364  0.2227  0.8024
13164TIP3    H260908   0.609   1.803  15.163 -1.8272  0.4770  0.8950
13165TIP3   OH260909   4.804   1.880   2.074 -0.3416  0.3243  0.4388
13165TIP3    H160910   4.815   1.796   2.031 -1.9435 -0.6438  1.8188
13165TIP3    H260911   4.891   1.901   2.108  0.4079 -0.0241 -1.1510
13166TIP3   OH260912   2.232   1.410   0.572 -0.0830 -0.0897 -0.2106
13166TIP3    H160913   2.165   1.444   0.631 -0.6417 -0.1556 -0.7933
13166TIP3    H260914   2.314   1.446   0.606 -0.5636  1.1854 -0.3303
13167TIP3   OH260915   6.585   6.394  12.729  0.0319  0.6038  1.0070
13167TIP3    H160916   6.515   6.424  12.787  2.7606  1.7856  4.0197
13167TIP3    H260917   6.602   6.468  12.671 -1.3730  0.1616 -0.0257
13168TIP3   OH260918   0.932   4.459  13.519  0.0932  0.6238 -0.2072
13168TIP3    H160919   0.953   4.371  13.488 -1.1515 -0.0241  0.7034
13168TIP3    H260920   0.971   4.464  13.606  0.4529  1.1115 -0.3895
13169TIP3   OH260921   2.929   3.126   2.619  0.0538 -0.2156  0.2296
13169TIP3    H160922   2.861   3.107   2.555 -0.9744  0.1430  1.1907
13169TIP3    H260923   2.945   3.042   2.663 -0.3432 -0.1269  0.5453
13170TIP3   OH260924   6.583   6.727  16.332 -0.1656 -0.3250 -0.1983
13170TIP3    H160925   6.503   6.741  16.383 -0.3844 -0.1782 -0.5815
13170TIP3    H260926   6.586   6.632  16.319 -0.1684 -0.3521 -0.0082
13171TIP3   OH260927   4.452   0.377  14.184  0.1701 -0.0721  0.2292
13171TIP3    H160928   4.435   0.298  14.132 -0.0599 -0.3601  0.7415
13171TIP3    H260929   4.365   0.408  14.210  0.1795  0.9765 -0.8745
13172TIP3   OH260930   2.908   2.708  15.892  0.2281  0.2023  0.5393
13172TIP3    H160931   2.866   2.675  15.813 -1.2724 -2.5464  2.3310
13172TIP3    H260932   3.002   2.702  15.874 -0.0585 -1.8210 -0.5568
13173TIP3   OH260933   4.974   2.607  16.758  0.0452  0.1778  0.0872
13173TIP3    H160934   4.969   2.544  16.686 -0.4954 -0.9688  1.0902
13173TIP3    H260935   4.988   2.692  16.715 -0.9232 -0.3759 -1.3945
13174TIP3   OH260936   0.866   1.753  15.769  0.3872  0.2619 -0.0694
13174TIP3    H160937   0.878   1.672  15.718  1.4289 -0.9581  1.9830
13174TIP3    H260938   0.935   1.750  15.835 -0.8253  1.8052  1.3508
13175TIP3   OH260939   5.827   0.243   0.927 -0.2635  0.6410 -0.3569
13175TIP3    H160940   5.801   0.323   0.973  0.8251  0.3490  0.8299
13175TIP3    H260941   5.802   0.172   0.986 -0.2327  0.1611 -0.9127
13176TIP3   OH260942   5.944   0.377  15.161  0.0143  0.1405 -0.1383
13176TIP3    H160943   5.905   0.464  15.153  2.3906  1.2840 -0.2138
13176TIP3    H260944   5.892   0.321  15.103 -1.1943  1.6267 -0.5448
13177TIP3   OH260945   4.243   3.412   2.684  0.4439  0.8167  0.3324
13177TIP3    H160946   4.277   3.502   2.689  0.6913  0.6763  1.5914
13177TIP3    H260947   4.192   3.402   2.764 -0.0810  0.0159 -0.0900
13178TIP3   OH260948   5.787   1.550   1.121 -0.5064  0.3340 -0.0059
13178TIP3    H160949   5.880   1.559   1.142  0.2075 -0.9629 -2.3654
13178TIP3    H260950   5.751   1.501   1.195  0.5943  1.0847  1.0679
13179TIP3   OH260951   6.234   0.261   5.767  0.1104  0.3187 -0.2445
13179TIP3    H160952   6.265   0.341   5.724 -1.2920 -0.0301 -2.0197
13179TIP3    H260953   6.178   0.219   5.702 -0.7296 -1.1451  1.3379
13180TIP3   OH260954   2.882   5.866   3.427  0.2153  0.2477  0.3010
13180TIP3    H160955   2.876   5.891   3.519  0.1927  1.4748 -0.0077
13180TIP3    H260956   2.899   5.949   3.381 -0.3567 -0.2446 -0.8526
13181TIP3   OH260957   6.196   5.594   6.062 -0.2380 -0.5167  0.2515
13181TIP3    H160958   6.289   5.611   6.046 -0.3138  1.9320  1.9390
13181TIP3    H260959   6.194   5.543   6.143 -0.3348 -2.4729 -0.9290
13182TIP3   OH260960   3.842   2.582  15.858  0.7084  0.2491  0.3817
13182TIP3    H160961   3.794   2.499  15.859  0.5076  0.3669  1.0923
13182TIP3    H260962   3.883   2.586  15.771 -0.0589 -0.1442 -0.0029
13183TIP3   OH260963   5.887   6.300  13.623  0.6007  0.0248  0.2619
13183TIP3    H160964   5.836   6.381  13.625  0.1812 -0.2376  0.4855
13183TIP3    H260965   5.949   6.312  13.551 -1.1360 -0.4474 -1.3912
13184TIP3   OH260966   5.344   1.061  14.338  0.3508 -0.2266 -0.0806
13184TIP3    H160967   5.423   1.097  14.378  0.2767  1.2982 -1.1965
13184TIP3    H260968   5.280   1.059  14.409  1.6535 -2.5766  1.1418
13185TIP3   OH260969   3.367   5.144   2.881  0.1745  0.0392  0.7943
13185TIP3    H160970   3.299   5.196   2.838  1.4583  0.3845 -0.9430
13185TIP3    H260971   3.327   5.059   2.896 -0.7523  0.3451  0.1392
13186TIP3   OH260972   0.466   5.207  13.926 -0.2568  0.4829 -0.4594
13186TIP3    H160973   0.524   5.136  13.897 -1.7281 -1.2119  0.5378
13186TIP3    H260974   0.489   5.221  14.018 -1.8401 -0.7368  0.1726
13187TIP3   OH260975   3.000   4.288  13.401 -0.5506  0.1351 -0.3644
13187TIP3    H160976   3.021   4.381  13.400 -1.0422  0.2500 -1.0174
13187TIP3    H260977   2.941   4.277  13.327  0.0631 -0.8350 -0.7190
13188TIP3   OH260978   1.887   6.490  14.017  0.2107 -0.0203 -0.1646
13188TIP3    H160979   1.909   6.542  14.095  0.0618 -1.3423  0.7844
13188TIP3    H260980   1.968   6.445  13.994 -0.2323 -1.1587  0.4324
13189TIP3   OH260981   4.265   1.409  10.964  0.1273  0.1212  1.0472
13189TIP3    H160982   4.334   1.352  10.998 -1.1029 -1.3511  1.2071
13189TIP3    H260983   4.184   1.364  10.988 -0.8529  0.8268 -0.7663
13190TIP3   OH260984   0.442   6.276  14.186 -0.4584 -0.0540  0.0055
13190TIP3    H160985   0.365   6.332  14.176  0.6219  1.5305  0.3692
13190TIP3    H260986   0.430   6.207  14.121 -1.9214  0.4571 -0.2959
13191TIP3   OH260987   1.499   4.806   3.608 -0.4051 -0.4562  0.0123
13191TIP3    H160988   1.542   4.744   3.667  1.4949  0.2431 -0.5761
13191TIP3    H260989   1.423   4.837   3.658  0.6073 -0.5858  1.7389
13192TIP3   OH260990   4.642   4.769   1.574  0.4554 -0.4270 -0.0058
13192TIP3    H160991   4.648   4.808   1.661 -0.2379  0.6524 -0.4273
13192TIP3    H260992   4.724   4.794   1.531 -0.4465  1.5700 -0.6562
13193TIP3   OH260993   4.093   3.314   3.559  0.0658  0.2044  0.3986
13193TIP3    H160994   4.185   3.290   3.548 -0.0141  0.6525 -1.6225
13193TIP3    H260995   4.051   3.287   3.477 -1.2793  1.4319  0.6470
13194TIP3   OH260996   6.486   4.984   1.568  0.6529  0.3437  0.7007
13194TIP3    H160997   6.581   4.991   1.564  0.8394  0.5589  3.3485
13194TIP3    H260998   6.467   4.892   1.548  1.1013  0.8102 -2.3469
13195TIP3   OH260999   5.709   4.217  14.947  0.1363  0.0585  0.3444
13195TIP3    H161000   5.688   4.140  14.894  1.1453  0.4733 -0.7024
13195TIP3    H261001   5.703   4.186  15.038  0.9324 -1.3708 -0.0521
13196TIP3   OH261002   2.897   3.165  16.891 -0.5627  0.0099 -0.3719
13196TIP3    H161003   2.959   3.190  16.823  0.0035  2.0512  0.7912
13196TIP3    H261004   2.844   3.244  16.905 -0.6713 -0.3546  1.5196
13197TIP3   OH261005   2.478   0.367  14.583 -0.7304  0.0950  0.1966
13197TIP3    H161006   2.398   0.411  14.555 -1.4298 -0.0493  1.8535
13197TIP3    H261007   2.461   0.274  14.569 -0.8974  0.0566  0.6512
13198TIP3   OH261008   0.450   1.992  15.657 -0.5127 -0.3237 -0.0538
13198TIP3    H161009   0.381   2.058  15.657 -0.7354 -0.5382 -1.1474
13198TIP3    H261010   0.507   2.017  15.585  0.9237  0.2031  1.2195
13199TIP3   OH261011   4.590   2.992  10.983 -0.8256 -0.0866  0.7848
13199TIP3    H161012   4.556   3.081  10.976  0.9631  0.7680  2.2994
13199TIP3    H261013   4.682   2.999  10.958 -0.8594 -1.6965  0.0880
13200TIP3   OH261014   4.609   0.898   3.105  0.7859  0.0394  0.3010
13200TIP3    H161015   4.523   0.858   3.086  0.8571  1.0272 -2.5595
13200TIP3    H261016   4.672   0.840   3.061  1.2181  1.2354 -0.7016
13201TIP3   OH261017   2.220   6.196  14.901  0.0001  0.8147 -0.2493
13201TIP3    H161018   2.225   6.155  14.814  1.5175  0.0593  0.1593
13201TIP3    H261019   2.217   6.122  14.962 -4.6433  1.2238  0.3263
13202TIP3   OH261020   6.595   1.199   3.565 -0.2464 -0.7198  0.2454
13202TIP3    H161021   6.680   1.222   3.528 -1.3912  0.5185 -1.8526
13202TIP3    H261022   6.602   1.220   3.658  0.6354  2.9796 -0.4817
13203TIP3   OH261023   5.391   1.657   3.354  0.0389  0.0043 -0.3255
13203TIP3    H161024   5.421   1.622   3.270 -1.1291 -1.6738 -0.0791
13203TIP3    H261025   5.462   1.635   3.415  0.9778  1.3919 -0.8465
13204TIP3   OH261026   6.211   1.179  12.718  0.5472  0.1794 -0.1970
13204TIP3    H161027   6.292   1.157  12.764  1.1856  1.4616 -0.6549
13204TIP3    H261028   6.207   1.274  12.720 -1.0636  0.1417 -0.0306
13205TIP3   OH261029   6.321   1.939   0.578 -0.8316 -0.2826 -0.1011
13205TIP3    H161030   6.402   1.889   0.563 -0.8965 -0.4018 -0.0606
13205TIP3    H261031   6.292   1.965   0.491  0.2148  1.3092 -0.0120
13206TIP3   OH261032   5.746   0.911   3.210  0.1690 -0.0353  0.1473
13206TIP3    H161033   5.774   0.834   3.259  0.4799  0.6330  1.0563
13206TIP3    H261034   5.688   0.877   3.143  0.1209 -1.0397  0.6736
13207TIP3   OH261035   4.644   0.035  15.062 -0.7250  0.2816 -0.9093
13207TIP3    H161036   4.602   0.081  15.136  0.7968  0.9836 -0.4234
13207TIP3    H261037   4.737   0.046  15.079 -0.3389 -1.2204 -1.9464
13208TIP3   OH261038   4.874   6.546   0.747  0.0571  0.0379  0.0844
13208TIP3    H161039   4.922   6.465   0.763 -0.3600 -0.2628 -0.1769
13208TIP3    H261040   4.922   6.612   0.797 -0.0904 -0.5228  0.9938
13209TIP3   OH261041   4.758   2.749   0.143 -0.1494  0.3264  0.5636
13209TIP3    H161042   4.822   2.678   0.149 -0.5472  0.0164  1.2653
13209TIP3    H261043   4.768   2.796   0.226  0.4729  1.4167 -0.1070
13210TIP3   OH261044   0.581   1.890  12.726 -0.2989 -0.3550 -0.2685
13210TIP3    H161045   0.624   1.945  12.792 -1.6766 -0.1914  0.5392
13210TIP3    H261046   0.539   1.822  12.777 -0.3408 -0.9682 -1.1072
13211TIP3   OH261047   6.416   5.569   4.171 -0.0974 -0.3608  0.3894
13211TIP3    H161048   6.328   5.595   4.199  0.0378  1.7235 -0.9170
13211TIP3    H261049   6.470   5.645   4.192  0.7520 -0.3122 -1.7646
13212TIP3   OH261050   1.581   1.761  14.840 -0.5929  0.2117  0.1271
13212TIP3    H161051   1.597   1.770  14.934 -0.8910 -1.1370  0.3255
13212TIP3    H261052   1.597   1.849  14.805  0.6657  0.4668  1.2524
13213TIP3   OH261053   6.538   2.017   6.400 -0.1278 -0.1306 -0.3190
13213TIP3    H161054   6.548   1.923   6.416  0.1412 -0.1678 -0.6906
13213TIP3    H261055   6.627   2.047   6.379 -0.4214 -0.0449 -1.4943
13214TIP3   OH261056   5.248   4.114   2.980  0.1501 -0.6307  0.5361
13214TIP3    H161057   5.268   4.048   2.914  0.1782 -0.4219  0.3367
13214TIP3    H261058   5.327   4.167   2.987 -0.6240  0.8186 -0.9697
13215TIP3   OH261059   0.116   6.322  16.899 -0.0406 -0.4718 -0.5865
13215TIP3    H161060   0.207   6.349  16.890 -0.3483  0.6417 -0.4972
13215TIP3    H261061   0.079   6.332  16.812 -0.3308  0.0567 -0.4041
13216TIP3   OH261062   3.510   1.582   4.915  1.5824 -0.6915 -0.1090
13216TIP3    H161063   3.425   1.618   4.889  2.0415  0.0926 -0.5516
13216TIP3    H261064   3.567   1.597   4.839  2.4741  0.0147  0.6750
13217TIP3   OH261065   4.906   0.457  17.228  0.0757 -0.2946 -0.0492
13217TIP3    H161066   4.886   0.365  17.213 -0.9847 -0.0089 -0.5235
13217TIP3    H261067   5.000   0.459  17.247  0.4103 -1.3054 -1.4550
13218TIP3   OH261068   1.986   2.701  13.552 -0.2818 -0.3047 -0.2970
13218TIP3    H161069   2.067   2.653  13.565 -0.8048 -0.9030  0.8679
13218TIP3    H261070   1.947   2.661  13.474  0.2909 -0.3442 -0.5705
13219TIP3   OH261071   1.925   0.005   5.203 -0.5552 -0.2301 -0.4851
13219TIP3    H161072   1.834   0.030   5.186 -0.4816  0.2984 -0.1123
13219TIP3    H261073   1.965   0.083   5.242 -0.5938 -1.2519  1.7148
13220TIP3   OH261074   2.892   1.916  16.228 -0.4885  0.0876 -0.4354
13220TIP3    H161075   2.961   1.875  16.176  0.1743  0.2586  0.2920
13220TIP3    H261076   2.907   1.885  16.317 -0.4820  1.2404 -0.0195
13221TIP3   OH261077   0.921   3.930  13.387 -0.2571 -0.3478 -0.0284
13221TIP3    H161078   0.854   3.895  13.328 -0.1352 -0.9664  0.1996
13221TIP3    H261079   0.999   3.940  13.333 -0.5695  0.5254 -0.3340
13222TIP3   OH261080   5.981   6.188  15.513 -0.2952  0.1290 -0.0243
13222TIP3    H161081   5.893   6.166  15.481 -0.8594 -0.9199  2.0454
13222TIP3    H261082   5.965   6.224  15.600  1.2085  2.0240 -0.4873
13223TIP3   OH261083   0.313   1.932  15.983  0.1456 -0.0105  0.2112
13223TIP3    H161084   0.402   1.909  15.960 -0.5027 -2.0477 -0.5170
13223TIP3    H261085   0.279   1.855  16.029 -1.4554  0.4287 -0.1500
13224TIP3   OH261086   6.433   0.891   0.719  0.8251 -0.2694 -0.1670
13224TIP3    H161087   6.428   0.795   0.715  0.8823 -0.2430 -0.9657
13224TIP3    H261088   6.527   0.910   0.711  1.0901 -0.2256  2.2800
13225TIP3   OH261089   4.400   0.645  13.257  0.2026 -0.2124  0.1203
13225TIP3    H161090   4.304   0.651  13.258  0.2816  1.5682  1.6468
13225TIP3    H261091   4.429   0.714  13.316  2.5081  0.3642 -1.5686
13226TIP3   OH261092   5.548   3.294  14.517  0.0490 -0.5544  0.1285
13226TIP3    H161093   5.607   3.234  14.562 -0.4144 -0.1240  1.3373
13226TIP3    H261094   5.513   3.351  14.586 -2.9873 -1.7686 -0.2671
13227TIP3   OH261095   3.319   4.882   0.758 -0.3226  0.2762 -0.3918
13227TIP3    H161096   3.274   4.799   0.774  0.1686 -0.3299 -1.9696
13227TIP3    H261097   3.384   4.888   0.827 -1.6722  0.3509  0.9338
13228TIP3   OH261098   6.258   4.003   3.271  0.4244  0.1620 -0.7684
13228TIP3    H161099   6.179   4.030   3.224  1.3214  2.0919 -1.2764
13228TIP3    H261100   6.234   4.010   3.363  0.0176  0.8172 -0.9145
13229TIP3   OH261101   0.123   6.126   3.240  0.3957  0.3169 -0.6397
13229TIP3    H161102   0.180   6.099   3.312  0.7932  0.0662 -1.0371
13229TIP3    H261103   0.087   6.210   3.267 -0.5815 -0.4331  0.4652
13230TIP3   OH261104   0.329   6.447   5.740  0.1234 -0.1268  0.0691
13230TIP3    H161105   0.280   6.529   5.747 -1.2877 -1.0373  1.9402
13230TIP3    H261106   0.306   6.399   5.820  2.2994 -1.6069 -0.1022
13231TIP3   OH261107   4.157   5.763   5.202 -0.3225  0.4795  0.1084
13231TIP3    H161108   4.155   5.675   5.165 -0.7263 -0.1882  1.6351
13231TIP3    H261109   4.081   5.807   5.163 -0.1034  0.1710 -0.6803
13232TIP3   OH261110   5.570   4.037  12.671  0.3644  0.6924  0.4516
13232TIP3    H161111   5.622   3.958  12.681 -1.2548 -0.5427 -0.4718
13232TIP3    H261112   5.540   4.058  12.760 -0.5445 -0.7175  0.5024
13233TIP3   OH261113   3.642   4.885   2.428 -0.3427  0.2241 -0.4723
13233TIP3    H161114   3.615   4.798   2.455 -1.4536  0.2189 -1.5122
13233TIP3    H261115   3.731   4.894   2.461 -0.1923 -1.3191 -0.4015
13234TIP3   OH261116   2.069   3.185   4.000  0.1777  0.1190  0.3345
13234TIP3    H161117   1.994   3.130   4.022 -0.4444  0.8302  0.0432
13234TIP3    H261118   2.092   3.228   4.083  1.2537 -1.2466  0.7784
13235TIP3   OH261119   2.217   5.048  13.411 -0.4851  0.2339  0.3802
13235TIP3    H161120   2.266   5.091  13.341 -0.8035  1.0612  0.6433
13235TIP3    H261121   2.129   5.088  13.405 -1.0328 -0.9701  0.1268
13236TIP3   OH261122   0.517   5.773  12.385  0.0060 -0.1649  0.0178
13236TIP3    H161123   0.453   5.766  12.456 -0.6022 -0.5635 -0.5616
13236TIP3    H261124   0.517   5.687  12.343  2.2736 -0.7768  1.1295
13237TIP3   OH261125   5.282   4.463   2.680 -0.1344  0.8696 -0.0815
13237TIP3    H161126   5.274   4.370   2.659  0.8286  1.2303 -2.4170
13237TIP3    H261127   5.208   4.504   2.636  0.7114  1.4299 -1.0290
13238TIP3   OH261128   6.549   2.576  11.293  0.5359 -0.0381 -0.2392
13238TIP3    H161129   6.607   2.558  11.219  2.1970  0.3295  0.9162
13238TIP3    H261130   6.535   2.491  11.334 -1.9291 -0.5666 -1.9804
13239TIP3   OH261131   2.369   2.378  13.141  0.3722 -0.6055  0.2392
13239TIP3    H161132   2.382   2.331  13.058 -0.0647  0.3296 -0.3714
13239TIP3    H261133   2.362   2.308  13.206  2.1040 -1.3321 -0.2832
13240TIP3   OH261134   1.955   2.655   6.667 -0.4975  0.2504 -0.0212
13240TIP3    H161135   1.963   2.682   6.575 -0.6422  0.5608  0.0553
13240TIP3    H261136   1.892   2.584   6.665 -0.0392 -0.1571 -0.2393
13241TIP3   OH261137   4.369   6.603  13.024 -0.1232  0.3657 -0.7878
13241TIP3    H161138   4.361   6.579  12.931 -0.3299 -0.4904 -0.5546
13241TIP3    H261139   4.389   6.696  13.022 -4.0568  1.3506 -1.6111
13242TIP3   OH261140   5.230   2.741   4.451 -0.1629 -0.0287 -0.5222
13242TIP3    H161141   5.140   2.715   4.467 -0.0511 -0.8510 -1.1929
13242TIP3    H261142   5.283   2.672   4.490  0.2160  0.8234  0.5409
13243TIP3   OH261143   4.233   3.247   5.060  0.2084 -0.1166 -0.0125
13243TIP3    H161144   4.246   3.327   5.009  1.0112  0.3202  0.8362
13243TIP3    H261145   4.247   3.176   4.998 -1.7755  0.3661 -1.0922
13244TIP3   OH261146   6.306   0.032   2.621 -0.6163  0.1587  0.6164
13244TIP3    H161147   6.253   0.086   2.680 -2.4528 -0.6103 -0.2506
13244TIP3    H261148   6.288  -0.058   2.648 -1.3900 -0.2004 -0.9608
13245TIP3   OH261149   3.190   2.241   2.297 -0.4246  0.1253  0.1617
13245TIP3    H161150   3.131   2.174   2.333 -0.6143 -0.0355 -0.4344
13245TIP3    H261151   3.278   2.204   2.308 -0.5405 -0.3001 -0.3191
13246TIP3   OH261152   0.093   2.569   1.042 -0.1686  0.1912 -0.0789
13246TIP3    H161153   0.057   2.653   1.071 -0.5390 -0.3042  0.9103
13246TIP3    H261154   0.016   2.518   1.015 -0.1227 -0.4701  1.0031
13247TIP3   OH261155   2.317   2.713  12.461  0.3004 -0.1236  0.0807
13247TIP3    H161156   2.224   2.696  12.476 -0.0472 -0.7268 -2.2482
13247TIP3    H261157   2.359   2.692  12.544 -1.7774  1.7549  1.7303
13248TIP3   OH261158   4.699   5.987   5.587  0.2085  0.0841  0.4871
13248TIP3    H161159   4.633   6.055   5.601  0.8764  0.9262 -0.3978
13248TIP3    H261160   4.775   6.016   5.636 -0.4246 -1.5289  2.6036
13249TIP3   OH261161   5.073   3.192   6.275  0.6744 -0.5641 -0.0713
13249TIP3    H161162   4.981   3.192   6.300  1.1476 -0.9465  1.8452
13249TIP3    H261163   5.109   3.270   6.318  1.5829 -1.3425  0.6033
13250TIP3   OH261164   0.355   6.174   0.557  0.1098  0.3725 -0.3047
13250TIP3    H161165   0.380   6.175   0.650 -1.8665  0.8438  0.2954
13250TIP3    H261166   0.335   6.083   0.538 -0.3658  0.3992  0.0298
13251TIP3   OH261167   1.072   6.583  16.220 -0.3078 -0.2105  0.5922
13251TIP3    H161168   1.005   6.573  16.153  0.3477  2.5248 -0.6127
13251TIP3    H261169   1.148   6.538  16.185 -0.1700  0.6456 -0.2569
13252TIP3   OH261170   1.303   3.642   0.736  0.0949  0.2323  0.5339
13252TIP3    H161171   1.215   3.667   0.711  0.6325 -0.0299 -1.9015
13252TIP3    H261172   1.294   3.551   0.766 -0.2451 -0.5420 -1.6936
13253TIP3   OH261173   6.009   4.055  17.180 -0.3558 -0.0386 -0.0407
13253TIP3    H161174   6.009   3.959  17.170  1.4379  0.0174 -1.1206
13253TIP3    H261175   6.086   4.083  17.131 -0.9628  1.9965  0.1031
13254TIP3   OH261176   2.245   6.746  11.072  0.6427 -0.0012 -0.9392
13254TIP3    H161177   2.181   6.679  11.046 -0.7836  1.4652 -1.3432
13254TIP3    H261178   2.249   6.806  10.998  2.0086  0.3252 -0.6424
13255TIP3   OH261179   0.402   5.065   5.888  0.4301 -0.4531  0.2677
13255TIP3    H161180   0.380   5.100   5.802  0.5197 -1.0219  0.0102
13255TIP3    H261181   0.335   5.100   5.946 -0.2742 -0.9337 -0.2369
13256TIP3   OH261182   0.473   0.050   5.146 -0.1137 -0.1614 -0.4549
13256TIP3    H161183   0.492   0.099   5.226 -3.1369  1.8557 -0.8270
13256TIP3    H261184   0.524  -0.031   5.155  1.5424  1.0466  2.3216
13257TIP3   OH261185   2.608   0.035  12.379 -0.2963 -0.5834  0.2067
13257TIP3    H161186   2.565   0.114  12.348 -0.7814 -1.3490 -1.1438
13257TIP3    H261187   2.558  -0.037  12.341  1.6005 -1.5184 -0.6625
13258TIP3   OH261188   2.249   6.512  15.908 -0.6065 -0.2980 -0.0979
13258TIP3    H161189   2.190   6.587  15.907  0.7127  0.8061  0.5359
13258TIP3    H261190   2.246   6.478  15.819 -0.4020  1.2063 -0.7173
13259TIP3   OH261191   5.430   1.933  13.781 -0.2598  0.2493  0.3040
13259TIP3    H161192   5.335   1.922  13.782 -0.4393  1.5166 -0.2131
13259TIP3    H261193   5.453   1.935  13.689  0.4943 -1.4988  0.4193
13260TIP3   OH261194   0.314   0.960  11.670  0.2133  0.1388  0.2988
13260TIP3    H161195   0.238   1.017  11.680  0.2003  0.5514 -1.8392
13260TIP3    H261196   0.292   0.883  11.723 -1.6603  0.2835 -0.1906
13261TIP3   OH261197   0.388   6.312   2.925 -0.4027 -0.1113  0.7765
13261TIP3    H161198   0.307   6.263   2.940 -0.2909 -0.6145 -0.1610
13261TIP3    H261199   0.440   6.296   3.003 -1.1975  0.2252  1.3975
13262TIP3   OH261200   0.197   2.102  16.825 -0.2199  0.4421 -0.3100
13262TIP3    H161201   0.178   2.010  16.806 -0.1830  0.2401  0.5536
13262TIP3    H261202   0.283   2.118  16.785 -0.0958  0.0093 -0.2252
13263TIP3   OH261203   3.517   5.951   3.930 -1.0194  0.1066 -0.0761
13263TIP3    H161204   3.570   5.989   4.000 -1.5239  0.0061  0.3743
13263TIP3    H261205   3.467   5.881   3.974 -2.1411  0.7440 -0.2996
13264TIP3   OH261206   1.223   4.597   2.475  0.2560 -0.2843  0.3327
13264TIP3    H161207   1.185   4.683   2.458 -0.0269 -0.4353  0.1796
13264TIP3    H261208   1.175   4.564   2.550  1.3082  0.2601  1.2699
13265TIP3   OH261209   0.130   2.185  17.098 -0.2473 -0.2049  0.1192
13265TIP3    H161210   0.165   2.130  17.029  1.6972  1.1303 -0.0457
13265TIP3    H261211   0.112   2.125  17.170  1.1569 -1.1682 -0.2923
13266TIP3   OH261212   5.879   4.959  12.514 -0.3105 -0.5818  0.2339
13266TIP3    H161213   5.960   5.000  12.485 -0.4191 -0.6412 -0.1693
13266TIP3    H261214   5.901   4.917  12.597  0.4588 -1.8116 -0.5522
13267TIP3   OH261215   3.680   3.311  14.625 -0.4490 -0.1511  0.4131
13267TIP3    H161216   3.740   3.287  14.553 -1.3219 -0.7521 -0.1296
13267TIP3    H261217   3.593   3.294  14.590 -0.9379  0.4955  1.2822
13268TIP3   OH261218   0.565   4.356  13.773 -0.2573 -0.0606 -0.0714
13268TIP3    H161219   0.649   4.317  13.749 -1.0755 -1.1018 -1.3977
13268TIP3    H261220   0.501   4.312  13.717 -1.4914  1.8266 -0.2458
13269TIP3   OH261221   1.319   0.348  12.166 -0.0612 -0.3306 -0.4161
13269TIP3    H161222   1.359   0.332  12.251  2.0929  0.7259 -1.1549
13269TIP3    H261223   1.258   0.275  12.153  1.3802 -1.8580  0.9562
13270TIP3   OH261224   3.261   2.043   3.576  0.0379  0.4385  0.3395
13270TIP3    H161225   3.309   2.105   3.521 -0.9581 -0.2272 -1.3607
13270TIP3    H261226   3.286   2.066   3.666  1.3590  1.8738 -0.3500
13271TIP3   OH261227   5.717   1.182   4.339 -0.1264 -0.0897 -0.5380
13271TIP3    H161228   5.690   1.211   4.251 -2.0173  2.0933  0.6656
13271TIP3    H261229   5.647   1.213   4.397  1.3473 -0.9731  1.8342
13272TIP3   OH261230   5.469   6.507   3.680  0.6614 -0.1815 -0.4872
13272TIP3    H161231   5.557   6.541   3.662  0.2308  1.3328  0.1431
13272TIP3    H261232   5.474   6.472   3.769  0.6917 -0.3592 -0.5575
13273TIP3   OH261233   4.636   2.124  14.187  0.9488 -0.3914 -0.2644
13273TIP3    H161234   4.709   2.095  14.240  1.4052  0.0660 -0.6340
13273TIP3    H261235   4.606   2.205  14.229  1.1352 -0.1756 -0.5495
13274TIP3   OH261236   3.875   6.246  15.458 -0.5613 -0.0562  0.1982
13274TIP3    H161237   3.898   6.338  15.447 -0.9134 -0.0857 -0.8808
13274TIP3    H261238   3.780   6.246  15.471 -0.6361 -0.2906 -0.3000
13275TIP3   OH261239   0.419   0.681  16.035  0.1953  0.2802 -0.1754
13275TIP3    H161240   0.394   0.595  16.000  1.1462  0.1082 -0.4597
13275TIP3    H261241   0.350   0.740  16.005 -1.2889 -0.6330  1.2852
13276TIP3   OH261242   0.203   0.002   4.385 -0.1123 -0.0249  0.2555
13276TIP3    H161243   0.274  -0.061   4.370 -0.6300 -0.8024  0.9180
13276TIP3    H261244   0.128  -0.037   4.341 -0.2009  0.6389 -0.1792
13277TIP3   OH261245   0.379   5.531   0.286  0.2543  0.2176 -0.4459
13277TIP3    H161246   0.467   5.506   0.258 -0.3344 -1.1134 -1.2266
13277TIP3    H261247   0.383   5.626   0.295  1.7698  0.1839 -0.4321
13278TIP3   OH261248   3.109   0.212  15.704 -0.3956  0.2292 -0.2739
13278TIP3    H161249   3.142   0.125  15.681 -2.3774 -0.3639 -1.0758
13278TIP3    H261250   3.058   0.198  15.784  0.3320  0.9207  0.3312
13279TIP3   OH261251   2.038   3.426   3.553  0.0006 -0.2192  0.2935
13279TIP3    H161252   1.994   3.429   3.639 -1.5945 -0.2198 -0.4786
13279TIP3    H261253   2.015   3.509   3.512 -1.8177 -1.4230 -1.2900
13280TIP3   OH261254   1.112   1.562   0.846  0.3445 -0.0781 -0.0663
13280TIP3    H161255   1.130   1.582   0.754 -1.6117 -3.4737 -1.3943
13280TIP3    H261256   1.026   1.602   0.862  1.7457  2.6685  1.2276
13281TIP3   OH261257   5.099   3.469  16.213  0.4874 -0.2443  0.3986
13281TIP3    H161258   5.124   3.383  16.245  0.5359  0.0112  1.0669
13281TIP3    H261259   5.171   3.526  16.239  0.6992 -0.0883 -0.4881
13282TIP3   OH261260   0.661   6.484  16.193  0.0315  0.3804  0.6810
13282TIP3    H161261   0.594   6.508  16.129  0.2269 -0.0051  0.3314
13282TIP3    H261262   0.620   6.413  16.245  0.1855  0.1165  0.4405
13283TIP3   OH261263   3.141   1.938  12.001 -0.3390  0.1658  0.6088
13283TIP3    H161264   3.224   1.927  12.046 -0.5988 -1.1614  0.7987
13283TIP3    H261265   3.077   1.893  12.056 -1.2698  1.4729  0.6652
13284TIP3   OH261266   1.767   4.301  11.556 -0.1837 -0.0793 -0.8866
13284TIP3    H161267   1.754   4.226  11.614  3.0351 -0.4702 -0.4720
13284TIP3    H261268   1.792   4.372  11.616 -0.9560  0.7045 -1.4770
13285TIP3   OH261269   5.571   6.142  13.196  0.0954  0.1121  0.0919
13285TIP3    H161270   5.479   6.165  13.185 -0.3725 -2.1226 -1.1188
13285TIP3    H261271   5.570   6.054  13.232  1.7778  0.0758  0.1131
13286TIP3   OH261272   6.714   3.576  12.776  0.4719 -0.6493 -0.0191
13286TIP3    H161273   6.721   3.485  12.805 -2.3555 -0.9630 -0.0485
13286TIP3    H261274   6.718   3.571  12.680  1.3817 -0.5897  0.0068
13287TIP3   OH261275   6.607   3.454   6.206  0.0618  0.1028 -0.3800
13287TIP3    H161276   6.655   3.464   6.124 -0.7986 -0.3838 -0.9557
13287TIP3    H261277   6.622   3.363   6.232 -1.2165 -0.3103 -1.0139
13288TIP3   OH261278   0.444   2.878  11.430  0.2182  0.3256  0.0178
13288TIP3    H161279   0.449   2.859  11.523  0.0479  1.3588  0.2466
13288TIP3    H261280   0.496   2.958  11.418 -0.1082  0.4441 -0.6988
13289TIP3   OH261281   3.257   3.969   0.866  0.3317  0.4612 -0.4212
13289TIP3    H161282   3.224   4.058   0.876 -1.0107 -0.2301  2.9031
13289TIP3    H261283   3.328   3.963   0.931  1.6103 -0.4475 -1.8341
13290TIP3   OH261284   5.231   0.940  17.041  0.0409  0.0250 -0.5514
13290TIP3    H161285   5.317   0.974  17.068 -0.5034  1.3991 -0.4471
13290TIP3    H261286   5.248   0.849  17.017  1.2003 -0.2738  1.1613
13291TIP3   OH261287   2.568   3.888  14.494  0.1349  0.4959 -0.8648
13291TIP3    H161288   2.630   3.915  14.426  0.1498  2.3300 -0.1756
13291TIP3    H261289   2.620   3.834  14.553  0.5698  0.3441 -1.3726
13292TIP3   OH261290   6.457   1.435   5.387 -0.5400 -0.5692 -0.0970
13292TIP3    H161291   6.534   1.492   5.383 -1.3868  0.6037  0.0590
13292TIP3    H261292   6.490   1.355   5.429  0.4595  0.1534  0.5546
13293TIP3   OH261293   5.225   6.475   5.431 -0.0271  0.2990  0.4222
13293TIP3    H161294   5.212   6.381   5.427  3.1775 -0.2148 -1.5617
13293TIP3    H261295   5.168   6.511   5.363 -0.7767 -0.2704  0.7469
13294TIP3   OH261296   6.615   6.744   1.052  0.6839 -0.0762 -0.2356
13294TIP3    H161297   6.538   6.783   1.010  0.2932 -2.2940 -1.7174
13294TIP3    H261298   6.580   6.671   1.103  1.6226  0.0533  0.6172
13295TIP3   OH261299   3.451   6.705  13.415  0.4037 -0.4559  1.1054
13295TIP3    H161300   3.452   6.620  13.459 -0.8441 -0.5947  0.9032
13295TIP3    H261301   3.476   6.768  13.483  0.5918 -0.9031  1.4537
13296TIP3   OH261302   3.282   6.693  16.565  0.2279 -0.0699  0.0564
13296TIP3    H161303   3.376   6.705  16.572  0.0458  2.0064 -0.2038
13296TIP3    H261304   3.266   6.602  16.589  2.3661 -0.6856 -0.6880
13297TIP3   OH261305   2.046   0.991  15.941 -0.4115  0.3584  0.4561
13297TIP3    H161306   2.071   1.007  15.850 -1.0733 -2.4062 -0.3144
13297TIP3    H261307   2.021   0.899  15.943  2.2547 -0.4963  4.0726
13298TIP3   OH261308   0.309   5.718   5.792  0.0310 -0.1588  0.2998
13298TIP3    H161309   0.290   5.808   5.765 -0.5614 -0.4065 -0.1239
13298TIP3    H261310   0.314   5.669   5.710  0.0430 -0.5700  0.5447
13299TIP3   OH261311   3.591   2.376  15.233  0.1121  0.1544  0.0205
13299TIP3    H161312   3.557   2.299  15.188 -0.2022 -0.0370  0.5660
13299TIP3    H261313   3.673   2.395  15.189  1.4197 -1.9431  1.3668
13300TIP3   OH261314   1.667   6.434   2.688 -0.5243  0.4853 -0.4103
13300TIP3    H161315   1.584   6.482   2.686 -0.0638  1.4117  1.2815
13300TIP3    H261316   1.722   6.479   2.623 -1.1557  0.1633 -1.1903
13301TIP3   OH261317   3.916   0.659  12.531  0.6222 -0.5095 -0.1746
13301TIP3    H161318   3.949   0.611  12.454  1.5104  1.6596 -1.2344
13301TIP3    H261319   3.911   0.750  12.502 -0.1141  0.2134  2.0297
13302TIP3   OH261320   3.711   1.837   0.438  0.3934  0.5481 -0.2857
13302TIP3    H161321   3.728   1.916   0.489  0.4441  1.0334 -1.0435
13302TIP3    H261322   3.638   1.860   0.381 -1.7256 -0.9504  1.6598
13303TIP3   OH261323   4.080   2.098   1.459 -0.0801 -0.1276  0.4249
13303TIP3    H161324   4.162   2.067   1.421 -0.4549 -2.2452  1.2353
13303TIP3    H261325   4.024   2.117   1.384  1.0019  0.9953 -0.1273
13304TIP3   OH261326   0.854   2.374   0.846 -0.3374 -0.4824  0.1709
13304TIP3    H161327   0.876   2.333   0.929  1.4218  0.7047  0.3498
13304TIP3    H261328   0.815   2.458   0.870  0.3822 -0.0372 -0.1797
13305TIP3   OH261329   6.278   3.806  10.442  1.2229  0.0767 -0.1099
13305TIP3    H161330   6.211   3.866  10.409 -0.9150 -1.1515  1.7625
13305TIP3    H261331   6.326   3.857  10.507  0.4248  0.2449  0.3584
13306TIP3   OH261332   5.603   5.488  12.343 -0.0492 -0.4016  0.0095
13306TIP3    H161333   5.670   5.468  12.278 -0.8346 -2.0756 -0.3170
13306TIP3    H261334   5.532   5.427  12.325 -0.2444 -1.0327  2.5239
13307TIP3   OH261335   1.806   0.802  17.277 -0.3036 -0.2116 -0.5324
13307TIP3    H161336   1.891   0.782  17.237  0.2971  0.4629  0.3422
13307TIP3    H261337   1.783   0.722  17.324  0.9191  0.2702  0.9888
13308TIP3   OH261338   4.087   3.198  16.822 -0.0578 -0.2237 -0.0378
13308TIP3    H161339   4.000   3.169  16.849  0.2922  0.1793  1.6501
13308TIP3    H261340   4.124   3.238  16.901  0.5480  2.2870 -1.5036
13309TIP3   OH261341   0.475   6.034   5.478 -0.5042  0.1913 -0.3936
13309TIP3    H161342   0.427   6.014   5.398 -1.5006  2.0198 -0.3101
13309TIP3    H261343   0.445   6.121   5.503  1.3536  0.5366  0.8304
13310TIP3   OH261344   4.711   5.170  14.111  0.3114  0.1212 -0.3123
13310TIP3    H161345   4.720   5.232  14.038  1.4180 -1.3111 -1.4579
13310TIP3    H261346   4.795   5.126  14.115 -0.0518 -0.4766  1.2610
13311TIP3   OH261347   5.401   3.387  12.790  0.3233  0.0525  0.2017
13311TIP3    H161348   5.375   3.459  12.847 -1.8608 -0.5193  0.0123
13311TIP3    H261349   5.333   3.383  12.723  2.5585  0.4243 -2.2601
13312TIP3   OH261350   6.280   1.483   2.486 -0.2383  0.7072 -0.1877
13312TIP3    H161351   6.206   1.428   2.512  0.9897 -1.0536 -0.2391
13312TIP3    H261352   6.309   1.446   2.403  1.4068  0.6100  0.4045
13313TIP3   OH261353   6.419   5.904  12.428  0.1968  0.8069 -0.2149
13313TIP3    H161354   6.492   5.946  12.383  1.4666 -0.0639  0.9585
13313TIP3    H261355   6.373   5.976  12.471  0.7373  1.2958 -0.4451
13314TIP3   OH261356   6.113   0.621  12.872  0.3329  0.2491 -0.0616
13314TIP3    H161357   6.135   0.677  12.946  1.8183 -0.2059 -0.1235
13314TIP3    H261358   6.196   0.582  12.845 -0.4761 -1.1262 -0.7248
13315TIP3   OH261359   0.671   4.285  11.174  0.4737 -0.2090  0.1318
13315TIP3    H161360   0.613   4.280  11.098  0.0099 -0.6949  0.5093
13315TIP3    H261361   0.722   4.365  11.160 -0.8511  0.6861  0.1831
13316TIP3   OH261362   0.678   4.470  17.154 -0.0317  0.3757  0.2291
13316TIP3    H161363   0.771   4.454  17.170  0.5089  0.5726 -2.2922
13316TIP3    H261364   0.668   4.457  17.059 -2.0173  2.8811  0.0039
13317TIP3   OH261365   3.421   5.371   1.845 -0.2680 -0.1393  0.8417
13317TIP3    H161366   3.499   5.426   1.843 -1.0213  0.9599 -0.7920
13317TIP3    H261367   3.399   5.364   1.938  0.2259  1.8061  1.1517
13318TIP3   OH261368   5.359   4.143   0.100  0.2825 -0.3309  0.2757
13318TIP3    H161369   5.369   4.221   0.045  0.3816 -0.7864 -0.3553
13318TIP3    H261370   5.264   4.130   0.106  0.2207  0.4470  1.2604
13319TIP3   OH261371   0.420   0.699  16.870 -0.1488 -0.3207  0.9412
13319TIP3    H161372   0.515   0.703  16.860 -0.2360 -0.2043  0.1190
13319TIP3    H261373   0.398   0.606  16.863 -0.3408 -0.1531 -1.4188
13320TIP3   OH261374   0.374   0.334   2.694 -0.4672  0.1072 -0.8202
13320TIP3    H161375   0.364   0.376   2.609 -2.6187 -1.4066 -1.3701
13320TIP3    H261376   0.340   0.398   2.756 -1.0774  0.2986 -1.3474
13321TIP3   OH261377   1.959   0.108   3.581  0.2340 -0.2347 -0.1457
13321TIP3    H161378   1.956   0.077   3.671 -2.4323 -2.2057 -0.8086
13321TIP3    H261379   1.868   0.122   3.556  0.9719  2.0697 -2.0251
13322TIP3   OH261380   5.356   4.425   1.045 -0.1750 -0.0846  0.1722
13322TIP3    H161381   5.326   4.494   0.986  0.8204 -1.1839 -1.7093
13322TIP3    H261382   5.443   4.454   1.073 -1.6355  1.7225  3.3602
13323TIP3   OH261383   1.319   1.664   3.746 -0.2980  0.1325 -0.0027
13323TIP3    H161384   1.252   1.668   3.678  1.4661 -0.4776 -1.9047
13323TIP3    H261385   1.396   1.704   3.705  0.8301 -0.2167  1.6765
13324TIP3   OH261386   6.614   3.745  12.988  0.1162 -0.1822 -0.1905
13324TIP3    H161387   6.658   3.670  12.948  1.3608  0.7223 -0.5741
13324TIP3    H261388   6.685   3.799  13.023 -0.6538  1.3478 -0.8681
13325TIP3   OH261389   0.238   5.369  12.003 -0.0938 -0.3056 -0.0278
13325TIP3    H161390   0.220   5.446  12.057  1.9537 -0.4867  1.0067
13325TIP3    H261391   0.155   5.321  12.000 -0.8515  0.8948  1.0208
13326TIP3   OH261392   2.157   4.987  13.041  0.0503  0.1291  0.5558
13326TIP3    H161393   2.161   4.891  13.044  1.6965  0.1347 -0.3324
13326TIP3    H261394   2.248   5.014  13.025 -0.6795  1.7463 -1.2164
13327TIP3   OH261395   6.317   2.712   2.845 -0.8173 -0.4656 -0.3031
13327TIP3    H161396   6.411   2.703   2.859 -0.6203 -1.2133 -1.8127
13327TIP3    H261397   6.286   2.767   2.917  0.9718  0.8371 -0.4718
13328TIP3   OH261398   5.301   3.489   3.313  0.5786 -0.0919 -0.1528
13328TIP3    H161399   5.395   3.473   3.298  0.1279 -0.3699 -3.3876
13328TIP3    H261400   5.269   3.407   3.351  1.0047 -1.6622 -2.8826
13329TIP3   OH261401   2.457   2.476  16.740  0.3100  0.3376 -0.4770
13329TIP3    H161402   2.451   2.384  16.765  0.1457  0.5366  0.2368
13329TIP3    H261403   2.542   2.505  16.773 -0.2933  0.8403  0.6777
13330TIP3   OH261404   4.838   5.124   4.821  0.0246  0.0922 -0.2956
13330TIP3    H161405   4.745   5.101   4.824 -0.1139  0.1320 -2.5373
13330TIP3    H261406   4.876   5.082   4.898 -1.7942 -0.1352  0.5234
13331TIP3   OH261407   1.653   1.924  16.891 -0.1161 -0.7713  0.5239
13331TIP3    H161408   1.566   1.939  16.928 -0.3621 -0.8619 -0.0078
13331TIP3    H261409   1.686   2.011  16.869 -1.9126 -0.8789 -3.4144
13332TIP3   OH261410   3.337   3.512  16.341 -0.0123 -0.5990  0.7809
13332TIP3    H161411   3.388   3.508  16.422  2.5685 -2.2557 -0.7860
13332TIP3    H261412   3.288   3.429  16.340  1.1612 -1.3076 -0.0251
13333TIP3   OH261413   4.006   0.197   4.019  0.2997 -0.3030 -0.1791
13333TIP3    H161414   3.987   0.206   3.926 -0.4808  0.9199  0.0744
13333TIP3    H261415   4.101   0.187   4.023  0.2956 -0.8353 -1.1263
13334TIP3   OH261416   2.126   3.557  17.046  0.6603  0.1688 -0.2965
13334TIP3    H161417   2.097   3.647  17.028  0.9526  0.0139 -1.6878
13334TIP3    H261418   2.131   3.552  17.141 -3.3981  0.3571  0.1082
13335TIP3   OH261419   1.706   6.721   1.276  0.3838 -0.3653  0.0891
13335TIP3    H161420   1.791   6.748   1.311  2.1180 -0.7702 -3.3647
13335TIP3    H261421   1.705   6.626   1.288  0.0465 -0.2689  0.8449
13336TIP3   OH261422   1.515   4.935   3.376  0.5771  0.2946 -0.4051
13336TIP3    H161423   1.553   5.016   3.410 -0.1836  0.3514  0.3448
13336TIP3    H261424   1.513   4.876   3.451  1.0302 -0.4014 -0.9190
13337TIP3   OH261425   5.261   6.604  11.879  0.1342 -0.4767 -0.0391
13337TIP3    H161426   5.269   6.621  11.973 -0.5436  0.9424 -0.2167
13337TIP3    H261427   5.168   6.611  11.861  0.3520  0.2258 -0.9760
13338TIP3   OH261428   1.497   0.394  10.689  0.3635  0.0581  0.2961
13338TIP3    H161429   1.463   0.434  10.609  0.8209 -0.4319 -0.1464
13338TIP3    H261430   1.552   0.322  10.659  1.3814  0.5125  1.0145
13339TIP3   OH261431   2.179   0.463  14.805  0.4388 -0.3003 -0.5159
13339TIP3    H161432   2.222   0.537  14.765  0.0380 -1.9947 -4.5040
13339TIP3    H261433   2.247   0.396  14.812  0.0343 -0.6839 -0.1428
13340TIP3   OH261434   3.403   3.028   4.550  0.7108 -0.3402  0.4478
13340TIP3    H161435   3.365   2.956   4.499 -1.5055 -0.0662  1.6179
13340TIP3    H261436   3.384   3.107   4.499  3.0804 -0.4755 -0.7998
13341TIP3   OH261437   0.572   4.659   2.279 -0.0800 -0.3803  0.3001
13341TIP3    H161438   0.611   4.656   2.192  0.4265 -1.5438  0.5509
13341TIP3    H261439   0.479   4.643   2.265 -0.5826  2.5581 -0.3204
13342TIP3   OH261440   2.908   2.654  16.164  0.2982 -0.6647  0.0599
13342TIP3    H161441   2.976   2.587  16.161  1.8225  0.8690 -1.9912
13342TIP3    H261442   2.893   2.678  16.073 -0.1795  1.7631  0.7102
13343TIP3   OH261443   3.836   5.784   4.022 -0.4348 -0.8376  0.2790
13343TIP3    H161444   3.928   5.768   4.041 -0.7233 -0.8738  1.7998
13343TIP3    H261445   3.833   5.872   3.985  0.0841 -0.3606  1.3492
13344TIP3   OH261446   1.647   4.440   2.474  0.2258 -0.1624 -0.0334
13344TIP3    H161447   1.551   4.439   2.474  0.1941  0.9232  0.8479
13344TIP3    H261448   1.672   4.364   2.422 -1.1161 -0.3366 -0.4559
13345TIP3   OH261449   1.419   6.450  16.887 -0.2120  0.5362 -0.4776
13345TIP3    H161450   1.402   6.478  16.977 -0.6200  0.8762 -0.6550
13345TIP3    H261451   1.333   6.425  16.853  0.0710 -0.4818 -0.4848
13346TIP3   OH261452   5.247   0.416   5.302 -0.2066 -0.0970 -0.1740
13346TIP3    H161453   5.302   0.356   5.352  1.4147  0.0504 -1.6871
13346TIP3    H261454   5.192   0.359   5.249  0.1820 -0.2575 -0.4086
13347TIP3   OH261455   0.402   5.801  16.727 -0.2256  0.1510 -0.1060
13347TIP3    H161456   0.474   5.842  16.774  0.8190 -1.1064 -0.5660
13347TIP3    H261457   0.347   5.875  16.699  1.8271  1.3049 -1.3335
13348TIP3   OH261458   0.915   0.980  13.033 -0.4567  0.3647 -0.3401
13348TIP3    H161459   0.873   0.994  12.948  1.0098  1.7235 -0.8858
13348TIP3    H261460   0.951   1.065  13.056 -0.9318  0.0558  1.7378
13349TIP3   OH261461   3.742   2.309  13.199 -0.0371  0.2999  0.2856
13349TIP3    H161462   3.776   2.332  13.113 -0.6537 -1.3202 -0.4375
13349TIP3    H261463   3.814   2.263  13.242 -0.7868 -2.1058 -0.8088
13350TIP3   OH261464   1.471   1.274  16.989  0.7272  0.1352  0.5439
13350TIP3    H161465   1.457   1.184  17.017  3.7073  0.2268  2.8579
13350TIP3    H261466   1.396   1.294  16.933  0.0404 -3.7796 -0.2025
13351TIP3   OH261467   0.659   1.382  13.562  0.2346  0.6567  0.2211
13351TIP3    H161468   0.570   1.353  13.546  0.2535  0.4155  0.5397
13351TIP3    H261469   0.656   1.478  13.553  0.2028  0.5554 -0.9811
13352TIP3   OH261470   2.833   0.602  11.994  0.3788  0.1326  0.1827
13352TIP3    H161471   2.830   0.693  11.964  0.5641  0.7304  1.8242
13352TIP3    H261472   2.900   0.602  12.062  0.1887 -1.1734  0.3957
13353TIP3   OH261473   0.460   5.062   4.679  0.2183  0.1373  0.1336
13353TIP3    H161474   0.500   4.989   4.726 -3.1118 -0.7780  1.8639
13353TIP3    H261475   0.503   5.139   4.714  2.3478 -0.8406 -0.1887
13354TIP3   OH261476   0.983   6.172  16.231  0.0425  0.5554 -0.1308
13354TIP3    H161477   1.008   6.229  16.303 -1.7580  1.7326 -0.3866
13354TIP3    H261478   0.911   6.119  16.266  1.0605 -0.9599 -0.1958
13355TIP3   OH261479   0.721   4.817  15.938  0.2239  0.0810 -0.4738
13355TIP3    H161480   0.759   4.904  15.941  0.9639 -0.1079 -2.4460
13355TIP3    H261481   0.678   4.813  15.852  1.0249 -1.7730 -0.8402
13356TIP3   OH261482   1.466   5.137   4.192 -0.0503 -0.1919 -0.0880
13356TIP3    H161483   1.546   5.159   4.239  0.0872 -0.1714 -0.3301
13356TIP3    H261484   1.426   5.067   4.244  0.6994 -1.0036 -0.5633
13357TIP3   OH261485   0.698   2.996  14.584  0.3050  0.3004  0.9621
13357TIP3    H161486   0.765   2.939  14.621  2.3027  0.9915 -1.2995
13357TIP3    H261487   0.670   3.052  14.657  4.1517  1.7634  1.5153
13358TIP3   OH261488   1.989   1.300  16.202  0.2039 -0.1235 -0.0173
13358TIP3    H161489   1.893   1.299  16.198  0.0871 -0.2214  1.8726
13358TIP3    H261490   2.010   1.373  16.260  1.2544 -0.4631  0.0558
13359TIP3   OH261491   4.727   3.462   4.021  0.2998  0.3792  0.2063
13359TIP3    H161492   4.718   3.490   3.930 -0.6424 -0.2509  0.0962
13359TIP3    H261493   4.665   3.515   4.069 -1.5069 -1.4220 -0.0040
13360TIP3   OH261494   5.879   5.401   1.903  0.3134 -0.0238 -0.2668
13360TIP3    H161495   5.972   5.385   1.891  0.4365  1.2558 -1.1685
13360TIP3    H261496   5.875   5.477   1.961 -0.1605  0.2835 -0.6974
13361TIP3   OH261497   5.001   3.067   3.755  0.1157  0.3043  0.3232
13361TIP3    H161498   5.066   3.103   3.815  0.7140  0.3866 -0.3653
13361TIP3    H261499   5.049   3.006   3.700 -0.7042 -0.8408  0.8333
13362TIP3   OH261500   2.848   5.262   1.418  0.0177  0.2021 -0.2074
13362TIP3    H161501   2.879   5.224   1.335  1.6042  0.9968 -0.0236
13362TIP3    H261502   2.756   5.236   1.424  0.1349 -0.6735 -1.7506
13363TIP3   OH261503   4.829   5.067   1.340  0.8109  0.1422  0.1519
13363TIP3    H161504   4.802   5.133   1.404  0.5719  1.1423 -0.9577
13363TIP3    H261505   4.868   4.997   1.394 -0.2915  0.4835  1.4662
13364TIP3   OH261506   1.483   2.396  13.729 -0.7803  0.3335  0.1024
13364TIP3    H161507   1.484   2.308  13.768 -1.2040  0.0618 -0.4929
13364TIP3    H261508   1.561   2.398  13.673 -1.1594  0.0751 -0.4442
13365TIP3   OH261509   0.701   5.814  16.266  0.1923 -0.0893 -0.4619
13365TIP3    H161510   0.651   5.767  16.333  0.1493  0.0979 -0.3622
13365TIP3    H261511   0.760   5.749  16.229 -0.6887 -0.5288 -1.1433
13366TIP3   OH261512   3.535   4.905   6.153 -0.1652 -0.0107  0.3103
13366TIP3    H161513   3.489   4.839   6.206 -1.1602  0.9323  0.6640
13366TIP3    H261514   3.570   4.967   6.217  1.3107 -0.5032  0.0161
13367TIP3   OH261515   4.731   6.624   5.281  0.2890 -0.0309  0.1563
13367TIP3    H161516   4.675   6.549   5.261  0.6225  0.2777 -2.2472
13367TIP3    H261517   4.697   6.658   5.364  0.2928 -2.9249  1.4602
13368TIP3   OH261518   3.741   2.931   3.654  0.1666 -0.0909 -0.2610
13368TIP3    H161519   3.762   3.020   3.679  0.6864 -0.4625  0.6530
13368TIP3    H261520   3.646   2.931   3.640  0.1780  0.6099 -0.3470
13369TIP3   OH261521   3.396   1.338  14.919  0.5194  0.6755  0.0918
13369TIP3    H161522   3.450   1.281  14.863  1.1414  0.5508  0.8010
13369TIP3    H261523   3.440   1.423  14.915  0.9995  0.4824  0.9589
13370TIP3   OH261524   4.634   1.180   0.293 -0.5733 -0.3435 -0.6357
13370TIP3    H161525   4.694   1.129   0.238 -0.7327 -1.1688 -0.0544
13370TIP3    H261526   4.654   1.152   0.382  0.2986  1.6352 -0.1625
13371TIP3   OH261527   1.544   0.020  12.511 -1.0276 -0.3516 -0.3256
13371TIP3    H161528   1.625  -0.014  12.551 -0.9493 -1.4968 -1.4152
13371TIP3    H261529   1.476  -0.041  12.539 -1.0076 -1.0485 -1.7223
13372TIP3   OH261530   3.039   6.359   3.224  0.1512  0.2695 -0.8611
13372TIP3    H161531   3.049   6.316   3.308  1.4401  0.3992 -0.9295
13372TIP3    H261532   2.969   6.423   3.238 -0.1138 -0.1745 -0.0962
13373TIP3   OH261533   6.066   0.379  11.341  0.1167 -0.4701  0.7740
13373TIP3    H161534   5.994   0.351  11.284 -0.2133  0.0326  0.9403
13373TIP3    H261535   6.083   0.470  11.316  1.2503 -0.8197  0.1711
13374TIP3   OH261536   3.027   5.868  16.902  0.2723 -0.1047  0.2573
13374TIP3    H161537   3.019   5.937  16.968 -1.7197 -0.3634  0.3447
13374TIP3    H261538   3.121   5.862  16.885  0.6749  1.1879  1.7675
13375TIP3   OH261539   1.835   2.652   2.333  0.0012  0.2034  0.0655
13375TIP3    H161540   1.920   2.625   2.298 -0.8396 -2.3148 -0.1808
13375TIP3    H261541   1.778   2.658   2.256 -0.7030 -0.7785  0.4961
13376TIP3   OH261542   4.244   4.550   0.305 -0.2574  0.3487  0.4066
13376TIP3    H161543   4.208   4.512   0.225 -1.7945  0.9432  0.7791
13376TIP3    H261544   4.311   4.611   0.274 -0.1756 -0.1261 -0.3738
13377TIP3   OH261545   5.988   2.157   4.647  0.4467 -0.1659 -0.5690
13377TIP3    H161546   5.960   2.232   4.700 -0.6284 -2.3481  2.2346
13377TIP3    H261547   6.042   2.104   4.707 -1.8098 -3.3993 -1.1221
13378TIP3   OH261548   5.224   3.001   4.505 -0.2203 -0.4335 -0.2452
13378TIP3    H161549   5.147   2.989   4.449 -1.1437 -0.7653  1.0466
13378TIP3    H261550   5.262   2.913   4.512  1.1963 -0.0152 -2.1062
13379TIP3   OH261551   1.236   0.875  13.303  0.3284 -0.4246 -0.2306
13379TIP3    H161552   1.177   0.821  13.251 -2.9048  1.8926  0.7197
13379TIP3    H261553   1.226   0.963  13.269  0.5069  0.6375  2.2172
13380TIP3   OH261554   3.827   1.795   4.792  0.6398  0.2668 -0.2934
13380TIP3    H161555   3.848   1.724   4.853 -0.6595 -0.2040 -0.3589
13380TIP3    H261556   3.797   1.867   4.848 -0.3724 -0.0997 -0.3487
13381TIP3   OH261557   0.452   2.799   2.645 -0.0172 -0.1619 -0.1938
13381TIP3    H161558   0.425   2.707   2.639  1.7236 -0.7087 -0.2433
13381TIP3    H261559   0.381   2.847   2.604 -1.9884 -1.2594  1.7437
13382TIP3   OH261560   0.666   3.070   0.795 -0.4076 -0.2391 -0.2902
13382TIP3    H161561   0.697   3.158   0.775 -0.8212 -0.1640 -0.6093
13382TIP3    H261562   0.629   3.039   0.712 -0.8602 -0.4629 -0.0023
13383TIP3   OH261563   3.661   0.075  11.919 -0.4123 -0.1437  0.3459
13383TIP3    H161564   3.724   0.109  11.983  0.2640 -1.7846  0.6024
13383TIP3    H261565   3.618   0.003  11.964 -1.7232  0.2503 -0.2195
13384TIP3   OH261566   4.688   0.467  10.641  0.3440 -0.1022  0.0552
13384TIP3    H161567   4.609   0.436  10.598  1.0693 -1.4783 -0.3554
13384TIP3    H261568   4.696   0.558  10.614 -0.8896 -0.0518 -0.1903
13385TIP3   OH261569   4.585   2.596   6.679 -0.9070 -0.3568 -0.5676
13385TIP3    H161570   4.570   2.688   6.654  1.5314  0.5455  0.9617
13385TIP3    H261571   4.505   2.572   6.725 -0.7742  1.7904  0.9584
13386TIP3   OH261572   4.927   0.824  14.356  0.2859  0.0518 -0.2171
13386TIP3    H161573   4.971   0.755  14.308 -0.7830 -0.5601 -0.3615
13386TIP3    H261574   4.841   0.787  14.378  0.6626  0.3648  2.0222
13387TIP3   OH261575   4.794   0.554   2.178  0.4969 -0.2349 -0.3160
13387TIP3    H161576   4.828   0.550   2.268  2.5353 -0.6528 -1.0658
13387TIP3    H261577   4.714   0.605   2.186  0.5518 -0.3624  1.7636
13388TIP3   OH261578   3.957   6.030   0.851 -0.2900 -0.0042 -0.1005
13388TIP3    H161579   4.043   6.026   0.893 -0.6682 -0.7937  0.6189
13388TIP3    H261580   3.977   6.037   0.758  0.5518  0.4633  0.0945
13389TIP3   OH261581   0.604   2.686   4.027  0.0458 -0.2048 -0.2267
13389TIP3    H161582   0.610   2.755   4.094  1.1249 -0.2627 -0.2473
13389TIP3    H261583   0.582   2.733   3.946 -1.7375 -0.1840  0.2236
13390TIP3   OH261584   3.571   4.734  15.732 -0.1518 -0.4063  0.5369
13390TIP3    H161585   3.554   4.640  15.733 -1.1817 -0.2524  2.1640
13390TIP3    H261586   3.548   4.763  15.644  0.3767 -1.7049 -0.0383
13391TIP3   OH261587   4.159   2.389  16.034 -0.6682 -0.2831 -0.3354
13391TIP3    H161588   4.103   2.337  15.977  0.9240 -1.8346 -0.5636
13391TIP3    H261589   4.248   2.365  16.009  0.0935  0.6190  1.3523
13392TIP3   OH261590   0.676   1.247  12.813 -0.5631  0.6063  0.4737
13392TIP3    H161591   0.661   1.334  12.774 -3.4721 -0.2009 -0.4877
13392TIP3    H261592   0.727   1.200  12.748 -0.7900  0.9493  0.0406
13393TIP3   OH261593   5.334   4.221   0.870 -0.4365 -0.3858  0.2145
13393TIP3    H161594   5.304   4.278   0.941  0.9077  0.8390 -0.1590
13393TIP3    H261595   5.283   4.249   0.793 -1.7977 -1.6250  0.6158
13394TIP3   OH261596   5.350   3.142  11.490  0.0821  0.0756  0.0486
13394TIP3    H161597   5.392   3.227  11.477 -1.3356  0.4383 -2.8829
13394TIP3    H261598   5.281   3.158  11.554  1.3504  0.5062  1.3694
13395TIP3   OH261599   4.896   4.629   4.853 -0.6046  0.2385  0.1640
13395TIP3    H161600   4.950   4.580   4.914 -0.4773  0.0418 -0.1081
13395TIP3    H261601   4.957   4.684   4.805 -0.3931 -1.2484 -1.3703
13396TIP3   OH261602   5.458   0.725  11.611 -0.1681  0.0013 -0.0411
13396TIP3    H161603   5.470   0.754  11.521 -2.0303  1.7545  0.2175
13396TIP3    H261604   5.432   0.633  11.602  2.4068 -0.7326 -1.0644
13397TIP3   OH261605   2.612   6.291  16.318  0.3798 -0.4277 -0.6205
13397TIP3    H161606   2.699   6.333  16.321 -0.3131  1.1385 -1.2376
13397TIP3    H261607   2.631   6.198  16.307  2.0128 -0.4788  1.7255
13398TIP3   OH261608   0.023   3.916   4.000  0.4107  0.0696  0.0073
13398TIP3    H161609  -0.039   3.988   3.987  1.1123  0.6556 -0.1330
13398TIP3    H261610  -0.017   3.842   3.953 -0.6088  0.1874  0.6625
13399TIP3   OH261611   1.113   3.258  12.761  0.4958  0.0806  0.0634
13399TIP3    H161612   1.099   3.275  12.854  1.0838 -0.8326  0.3332
13399TIP3    H261613   1.114   3.162  12.754  0.5011  0.1395 -0.8712
13400TIP3   OH261614   4.272   5.499   0.115 -0.3995 -0.1176  0.1023
13400TIP3    H161615   4.184   5.475   0.084 -0.1927  1.9396 -2.3494
13400TIP3    H261616   4.326   5.501   0.036  1.4470  0.4105  1.3155
13401TIP3   OH261617   3.386   4.415  15.871  0.3607  0.2148  0.3142
13401TIP3    H161618   3.459   4.401  15.931 -0.4360  2.2704  1.8668
13401TIP3    H261619   3.426   4.449  15.791  1.2838 -1.0391  0.2090
13402TIP3   OH261620   4.230   2.956  13.024 -0.4625  0.0062 -0.1986
13402TIP3    H161621   4.233   3.044  12.987  0.5100  0.0421 -0.0482
13402TIP3    H261622   4.193   2.902  12.953 -0.8586  0.4874 -0.3639
13403TIP3   OH261623   1.983   0.302   3.326 -0.0796 -0.0023  0.3525
13403TIP3    H161624   1.935   0.282   3.245 -0.3247  0.2319  0.4380
13403TIP3    H261625   1.965   0.227   3.383  1.8428 -1.2362 -0.5593
13404TIP3   OH261626   5.269   5.350   5.109  0.5561  0.0198 -0.1604
13404TIP3    H161627   5.235   5.336   5.198 -1.9755 -0.0639 -1.0498
13404TIP3    H261628   5.206   5.306   5.052  2.1675 -0.0119 -2.0246
13405TIP3   OH261629   6.702   4.450  11.604 -0.0527  0.5916  0.1466
13405TIP3    H161630   6.785   4.452  11.653  0.2305 -1.9662 -0.1246
13405TIP3    H261631   6.719   4.392  11.530 -2.6763 -1.8590  1.2929
13406TIP3   OH261632   1.506   4.659   4.294  0.5067  0.0745  0.3055
13406TIP3    H161633   1.455   4.689   4.369 -1.3986 -0.2134 -0.8143
13406TIP3    H261634   1.449   4.673   4.219  1.9707 -0.5805 -0.9890
13407TIP3   OH261635   5.192   5.941  16.055 -0.0523 -0.2006  0.3793
13407TIP3    H161636   5.124   5.985  16.004 -0.9022 -0.7794  0.9897
13407TIP3    H261637   5.200   5.993  16.135 -1.9193 -1.7543  1.6552
13408TIP3   OH261638   5.169   6.053  14.117 -0.5231 -0.1465  0.4182
13408TIP3    H161639   5.204   6.046  14.029 -0.1877 -1.4831  0.6301
13408TIP3    H261640   5.246   6.065  14.173 -0.5939 -0.6885  0.6465
13409TIP3   OH261641   0.579   5.996  16.825  0.1516 -0.1531  0.3447
13409TIP3    H161642   0.526   6.070  16.797 -1.2689 -1.0242  0.5797
13409TIP3    H261643   0.635   6.030  16.895 -0.9914  0.5586  0.9464
13410TIP3   OH261644   5.165   6.248  13.231 -0.0191 -0.8876 -0.3037
13410TIP3    H161645   5.116   6.200  13.297 -0.1073  0.3463  0.5617
13410TIP3    H261646   5.244   6.279  13.276  0.2630 -0.6130 -0.9638
13411TIP3   OH261647   1.631   5.075  13.003  0.5147  0.0946 -0.4343
13411TIP3    H161648   1.652   5.061  12.911 -0.9395 -1.1587 -0.6137
13411TIP3    H261649   1.669   5.000  13.048  1.7820  1.0285  0.1138
13412TIP3   OH261650   0.229   3.859  16.894 -0.1694 -0.7345 -0.0145
13412TIP3    H161651   0.194   3.946  16.914 -0.1487 -1.5000  4.1213
13412TIP3    H261652   0.168   3.823  16.830 -2.6377  0.8159  1.3117
13413TIP3   OH261653   4.412   2.554  14.284  0.0541  0.0602 -0.4949
13413TIP3    H161654   4.343   2.542  14.350 -0.4956 -0.1664 -1.1014
13413TIP3    H261655   4.431   2.648  14.286 -0.6460  0.2126 -0.6898
13414TIP3   OH261656   0.191   1.379  13.814  0.2078  0.0965  0.3759
13414TIP3    H161657   0.107   1.360  13.771 -0.6928  1.8370  1.2588
13414TIP3    H261658   0.189   1.473  13.828  2.4483  0.2070  0.2230
13415TIP3   OH261659   1.988   6.717   3.337  0.0139 -0.2746 -0.8502
13415TIP3    H161660   1.978   6.718   3.432 -2.3385 -1.8081 -1.0085
13415TIP3    H261661   2.075   6.755   3.322 -0.3400  1.8547  1.7576
13416TIP3   OH261662   5.771   4.808  12.319 -0.2490  0.0210  0.1504
13416TIP3    H161663   5.858   4.778  12.291 -0.2572 -0.3391  0.4999
13416TIP3    H261664   5.789   4.867  12.392 -0.2880  0.1271  0.0754
13417TIP3   OH261665   6.200   3.299   2.728  0.1211 -0.7460  0.0094
13417TIP3    H161666   6.240   3.313   2.642 -0.9657 -0.9949 -0.5520
13417TIP3    H261667   6.144   3.223   2.717  0.4593 -1.1783  1.1242
13418TIP3   OH261668   6.666   4.835   3.890 -0.1231  0.1110 -0.0290
13418TIP3    H161669   6.682   4.832   3.984 -0.7438 -2.3198  0.0576
13418TIP3    H261670   6.748   4.803   3.851 -1.2418 -3.0800 -0.0291
13419TIP3   OH261671   3.839   1.234   0.432  0.4708 -0.0711 -0.3451
13419TIP3    H161672   3.879   1.301   0.377 -0.1695  0.8923  0.3300
13419TIP3    H261673   3.790   1.179   0.371 -1.3081  1.7404 -0.6510
13420TIP3   OH261674   1.744   4.174   4.320 -0.1260  0.7189  0.5293
13420TIP3    H161675   1.834   4.196   4.346  0.1067  0.1271  0.2480
13420TIP3    H261676   1.711   4.254   4.279  0.5868  0.6628 -0.1879
13421TIP3   OH261677   4.130   1.913   0.564  0.2757 -0.3598 -0.1783
13421TIP3    H161678   4.216   1.941   0.593  0.5285 -0.1864 -1.0721
13421TIP3    H261679   4.128   1.819   0.582  1.5681 -0.8483 -2.2905
13422TIP3   OH261680   5.261   1.727   2.526 -0.2877  0.1451  0.1884
13422TIP3    H161681   5.167   1.710   2.527 -0.0356 -1.3702  1.0396
13422TIP3    H261682   5.294   1.675   2.453 -0.3011  2.0927 -1.2906
13423TIP3   OH261683   1.031   2.808  15.806 -0.6608  0.5557 -0.0564
13423TIP3    H161684   0.998   2.894  15.833 -0.6594  0.4082  0.4239
13423TIP3    H261685   0.999   2.748  15.873 -0.1247  0.2827 -0.0381
13424TIP3   OH261686   3.439   2.215  15.090  0.0087 -0.2911  0.3398
13424TIP3    H161687   3.388   2.247  15.015 -0.0674 -0.1308  0.4609
13424TIP3    H261688   3.471   2.130  15.061 -1.0891 -0.8179  0.5905
13425TIP3   OH261689   1.163   3.893  13.726 -0.0072 -0.2773 -0.6537
13425TIP3    H161690   1.150   3.814  13.673 -3.7199 -0.3538  0.1166
13425TIP3    H261691   1.188   3.859  13.812  2.0967 -0.3297 -1.2223
13426TIP3   OH261692   1.983   5.987  12.977 -0.0609 -0.0491 -0.3290
13426TIP3    H161693   2.033   6.040  13.039 -1.7844 -0.5240  1.5643
13426TIP3    H261694   2.029   5.998  12.894  2.0828  0.9821  0.9081
13427TIP3   OH261695   4.330   3.707   2.687  0.2344 -0.0916  0.0626
13427TIP3    H161696   4.360   3.675   2.602 -0.7385  0.1135 -0.3741
13427TIP3    H261697   4.328   3.803   2.677  0.5085 -0.0412  0.4561
13428TIP3   OH261698   4.857   6.079   3.062  0.6105 -0.3656  0.2634
13428TIP3    H161699   4.823   6.071   2.972 -0.3206  0.3320  0.5324
13428TIP3    H261700   4.898   5.995   3.079  1.3119 -0.3171 -1.0171
13429TIP3   OH261701   2.087   0.996   5.658  0.5743 -0.4614 -0.3951
13429TIP3    H161702   2.107   0.972   5.568 -0.2648  0.8979 -0.9781
13429TIP3    H261703   1.997   0.966   5.672  0.0196  0.9895 -0.6719
13430TIP3   OH261704   2.837   1.541  15.893  0.0572  0.2066 -0.7486
13430TIP3    H161705   2.836   1.606  15.963 -0.4064  0.4492 -0.9723
13430TIP3    H261706   2.748   1.542  15.859  0.3082  0.1851 -1.4196
13431TIP3   OH261707   3.118   2.523  16.007  0.4141 -0.3183 -0.7700
13431TIP3    H161708   3.142   2.582  15.935 -0.4216 -1.4701 -2.0383
13431TIP3    H261709   3.200   2.483  16.034  0.5762 -0.8149 -1.9585
13432TIP3   OH261710   6.159   4.584   4.212 -0.4536  0.2823  0.3100
13432TIP3    H161711   6.074   4.628   4.218 -0.6980 -0.2029  0.4842
13432TIP3    H261712   6.137   4.491   4.204  0.0379  0.2447 -0.7564
13433TIP3   OH261713   5.909   6.391  16.434  0.8057 -0.3289 -0.3146
13433TIP3    H161714   5.927   6.485  16.429  1.5822 -0.2906  2.2203
13433TIP3    H261715   5.921   6.368  16.526 -1.7252 -2.4710 -0.3868
13434TIP3   OH261716   3.790   4.071   2.981  0.6525  0.0240 -0.2974
13434TIP3    H161717   3.810   3.985   2.946  1.2230  0.0021  0.0760
13434TIP3    H261718   3.804   4.063   3.075 -1.3099 -0.0504  0.0386
13435TIP3   OH261719   5.389   2.932  16.980  0.3032 -0.4502  0.4982
13435TIP3    H161720   5.340   3.013  16.995  0.9916 -0.4529  3.3267
13435TIP3    H261721   5.321   2.866  16.965 -0.3200  0.3682 -0.4441
13436TIP3   OH261722   1.702   4.100   0.893  0.4405 -0.0003 -0.2603
13436TIP3    H161723   1.746   4.022   0.861  0.4077 -0.0567 -0.1708
13436TIP3    H261724   1.644   4.067   0.963 -1.4830 -0.2921 -1.8886
13437TIP3   OH261725   4.435   3.133  12.183 -0.4502 -0.1775 -0.3645
13437TIP3    H161726   4.352   3.089  12.201  0.4024 -2.2590 -1.2001
13437TIP3    H261727   4.411   3.223  12.163 -2.4431 -0.5972 -0.0599
13438TIP3   OH261728   4.581   2.440  17.234 -0.2756  0.2156  0.1581
13438TIP3    H161729   4.617   2.518  17.191 -0.4075  0.9304  1.2996
13438TIP3    H261730   4.655   2.380  17.238 -0.1832  0.2574 -0.7800
13439TIP3   OH261731   1.963   5.831  13.722 -0.3634 -0.1073  0.1374
13439TIP3    H161732   2.045   5.856  13.679 -0.1226 -2.5491 -0.9692
13439TIP3    H261733   1.896   5.845  13.656 -0.1915 -2.4160 -0.5893
13440TIP3   OH261734   6.362   4.044  12.078 -0.1355 -0.0711 -0.2620
13440TIP3    H161735   6.410   4.057  11.997 -0.7996  0.5882 -0.5647
13440TIP3    H261736   6.308   3.966  12.062 -0.9495  0.5835 -0.8053
13441TIP3   OH261737   1.458   4.158  15.644  0.3655  0.0149 -0.4941
13441TIP3    H161738   1.452   4.196  15.556  1.1508 -0.4388 -0.7572
13441TIP3    H261739   1.514   4.219  15.693  1.3742 -0.6179 -0.8284
13442TIP3   OH261740   3.210   0.941   3.024 -0.0165 -0.0781  0.4616
13442TIP3    H161741   3.266   1.019   3.026 -1.9437  1.3755  0.2719
13442TIP3    H261742   3.121   0.975   3.028 -1.0249 -2.1764 -1.8393
13443TIP3   OH261743   3.047   4.796  13.910 -0.3932  0.0724  0.2641
13443TIP3    H161744   2.998   4.810  13.828  0.9023 -0.1368 -0.5706
13443TIP3    H261745   3.068   4.884  13.941  0.6713  0.1576 -0.6196
13444TIP3   OH261746   3.800   2.601  10.973 -0.2561  0.0704 -0.2217
13444TIP3    H161747   3.858   2.563  10.907  0.4027  1.5161 -0.5283
13444TIP3    H261748   3.716   2.557  10.961 -0.6083  1.3379 -3.0761
13445TIP3   OH261749   1.156   2.394  16.097  0.6747 -0.7056  0.1794
13445TIP3    H161750   1.218   2.396  16.024  0.1281 -2.1337 -0.3688
13445TIP3    H261751   1.154   2.303  16.125 -2.4297 -1.1510 -1.0004
13446TIP3   OH261752   0.047   1.808  12.383  0.3138  0.0006 -0.1474
13446TIP3    H161753   0.032   1.728  12.332 -0.9968  0.6084 -0.7742
13446TIP3    H261754   0.027   1.783  12.473  0.7809 -0.5950 -0.1989
13447TIP3   OH261755   2.223   4.997  16.793 -0.3330  0.0247 -0.6211
13447TIP3    H161756   2.180   4.917  16.823 -0.7207  0.7483  0.8473
13447TIP3    H261757   2.304   5.001  16.843 -1.2209  1.5127  0.7997
13448TIP3   OH261758   4.089   0.588  15.311  0.7000 -0.4794  0.2220
13448TIP3    H161759   4.115   0.581  15.403  0.8431 -2.1298  0.0897
13448TIP3    H261760   3.996   0.565  15.311  0.3864  0.7178  0.0861
13449TIP3   OH261761   2.304   3.044   5.270 -0.0117 -0.5937 -0.0797
13449TIP3    H161762   2.386   3.085   5.240  0.6274 -0.2193  2.0240
13449TIP3    H261763   2.282   2.982   5.201 -0.8001  2.8432 -3.2772
13450TIP3   OH261764   3.721   4.083  12.599  0.2322  0.4772  0.3514
13450TIP3    H161765   3.639   4.130  12.617  0.1306  0.9722 -1.2710
13450TIP3    H261766   3.712   4.001  12.647 -0.8573  0.8749  0.8634
13451TIP3   OH261767   3.171   1.062  15.512  0.1129  0.3768  0.2220
13451TIP3    H161768   3.232   1.110  15.568 -0.2863  2.2175 -0.8376
13451TIP3    H261769   3.102   1.126  15.492 -0.2030 -0.4856 -1.6453
13452TIP3   OH261770   2.672   4.602   4.759 -0.2875  0.0538  0.7769
13452TIP3    H161771   2.740   4.540   4.734 -0.8983 -0.2670 -0.1465
13452TIP3    H261772   2.717   4.686   4.767 -0.0226  0.1593 -1.3618
13453TIP3   OH261773   3.200   1.839  10.856 -0.1153 -0.2887  0.2754
13453TIP3    H161774   3.173   1.814  10.944 -0.1525 -0.4686  0.2143
13453TIP3    H261775   3.295   1.824  10.855 -0.0744 -0.0419  0.3641
13454TIP3   OH261776   1.886   6.609  10.760 -0.2920 -0.1408 -0.4043
13454TIP3    H161777   1.972   6.577  10.789  1.0644  2.6457 -1.0003
13454TIP3    H261778   1.825   6.578  10.827  0.9214 -3.1403 -0.5275
13455TIP3   OH261779   1.209   3.564   4.919 -0.2781  0.2810  0.2181
13455TIP3    H161780   1.201   3.469   4.933  2.0650  0.1455  0.9886
13455TIP3    H261781   1.119   3.596   4.925 -1.0716 -1.8180  0.4798
13456TIP3   OH261782   0.878   5.694  13.881 -0.5813 -0.0410  0.0215
13456TIP3    H161783   0.967   5.693  13.916 -0.4908  2.0288 -0.0426
13456TIP3    H261784   0.853   5.602  13.877  1.8053 -0.7333 -0.6499
13457TIP3   OH261785   1.960   1.897   5.924  0.0656 -0.4348 -0.0189
13457TIP3    H161786   1.933   1.976   5.972  1.2035  0.1275 -0.2856
13457TIP3    H261787   1.880   1.843   5.921 -0.6121  0.5014  0.5497
13458TIP3   OH261788   4.187   3.199   5.320 -0.2432 -0.5603  0.3015
13458TIP3    H161789   4.169   3.283   5.361 -3.2336 -0.7881 -0.3511
13458TIP3    H261790   4.168   3.212   5.228  0.5100 -1.6426 -0.0316
13459TIP3   OH261791   2.412   4.251   2.834  0.6881  0.1154  0.2343
13459TIP3    H161792   2.374   4.313   2.771 -0.6380 -0.7378  0.1483
13459TIP3    H261793   2.415   4.300   2.916 -0.5260  0.2649  0.2138
13460TIP3   OH261794   6.368   1.302  15.960  0.1226 -0.3791  0.0169
13460TIP3    H161795   6.276   1.288  15.979 -0.2168 -0.2308 -1.3952
13460TIP3    H261796   6.392   1.379  16.012 -0.3266 -0.8764  0.9793
13461TIP3   OH261797   5.977   1.785   4.929 -0.4180 -0.4326  0.8417
13461TIP3    H161798   5.952   1.862   4.879 -0.0785 -1.5189 -1.0757
13461TIP3    H261799   5.896   1.757   4.972 -1.0222 -0.2507 -0.1620
13462TIP3   OH261800   3.649   4.245  16.890 -0.4821  0.0583 -0.2808
13462TIP3    H161801   3.666   4.306  16.962 -2.0593 -0.9142  0.9943
13462TIP3    H261802   3.734   4.205  16.872 -0.2236 -0.4701  1.8311
13463TIP3   OH261803   0.079   1.547  13.067 -0.0394  0.0436 -0.0608
13463TIP3    H161804   0.012   1.478  13.074  1.8086 -1.9130 -0.7425
13463TIP3    H261805   0.052   1.599  12.991 -2.5970  1.4948  1.6799
13464TIP3   OH261806   0.496   2.374  15.486  0.5445  0.5395 -0.4157
13464TIP3    H161807   0.553   2.428  15.540  0.3856 -0.0728  0.3857
13464TIP3    H261808   0.536   2.287  15.489  0.2155  0.3709 -0.8109
13465TIP3   OH261809   4.411   2.204   2.671  0.5105 -0.5348 -0.1259
13465TIP3    H161810   4.467   2.225   2.745 -1.7647  0.0215  1.5642
13465TIP3    H261811   4.356   2.282   2.661 -1.4738 -1.8726 -0.1869
13466TIP3   OH261812   3.603   0.288  14.907 -0.3016  0.2455 -0.5613
13466TIP3    H161813   3.585   0.288  15.001 -0.5380 -2.1437 -0.5504
13466TIP3    H261814   3.516   0.288  14.866 -0.3180 -2.3842 -0.6632
13467TIP3   OH261815   1.935   1.292   2.869  0.1843 -0.4266 -0.5868
13467TIP3    H161816   2.018   1.303   2.914  0.4297 -0.2606 -1.0743
13467TIP3    H261817   1.926   1.197   2.858 -0.1361 -0.5054  0.2809
13468TIP3   OH261818   0.923   3.102  11.770 -0.1490  0.0661  0.2559
13468TIP3    H161819   0.898   3.194  11.757 -2.1077 -0.4870 -0.2093
13468TIP3    H261820   0.840   3.055  11.774  0.8266 -2.0198 -1.8669
13469TIP3   OH261821   6.248   4.667   0.100 -0.9055 -0.1322 -0.1056
13469TIP3    H161822   6.341   4.641   0.099 -0.5351  1.0723 -1.8861
13469TIP3    H261823   6.207   4.605   0.159  0.9565 -1.0297  0.3347
13470TIP3   OH261824   0.571   0.656  13.628 -0.0628  0.5577  0.0053
13470TIP3    H161825   0.588   0.746  13.656 -0.7111  1.0917 -1.2135
13470TIP3    H261826   0.486   0.661  13.585  0.4808 -0.3816 -1.2251
13471TIP3   OH261827   3.981   0.356   4.227  0.6298  0.2050 -0.3262
13471TIP3    H161828   4.012   0.289   4.166  0.2392  0.6294 -1.0020
13471TIP3    H261829   4.021   0.332   4.311  0.8122 -0.6428 -0.6439
13472TIP3   OH261830   0.956   3.193   0.038 -0.5868 -0.6224  0.0780
13472TIP3    H161831   0.968   3.286   0.019 -0.9632 -0.3898  0.9456
13472TIP3    H261832   0.908   3.191   0.121 -0.7102 -1.5896 -0.0051
13473TIP3   OH261833   2.382   0.092  12.073 -0.3536 -0.2633  0.0674
13473TIP3    H161834   2.302   0.145  12.079 -0.6697 -0.8159  1.0978
13473TIP3    H261835   2.444   0.135  12.132 -0.4663 -0.7601  0.5681
13474TIP3   OH261836   5.994   1.909   2.605 -0.0152 -0.4791  0.7000
13474TIP3    H161837   5.906   1.946   2.605 -0.8284 -2.3119  0.7290
13474TIP3    H261838   5.998   1.855   2.685  2.2939  2.0616  2.4902
13475TIP3   OH261839   6.589   6.272   4.783 -0.0918  0.0652 -0.6025
13475TIP3    H161840   6.669   6.286   4.732  1.2916 -2.2698  0.7573
13475TIP3    H261841   6.592   6.339   4.852 -0.0566  0.8387 -1.3314
13476TIP3   OH261842   6.006   3.169   0.013 -0.0581  0.1910 -0.1475
13476TIP3    H161843   5.924   3.146  -0.031 -0.0242  0.9981 -0.6347
13476TIP3    H261844   5.986   3.160   0.106 -1.5231  2.9506 -0.1151
13477TIP3   OH261845   6.701   5.009   2.783 -0.2329  0.5856  0.0934
13477TIP3    H161846   6.677   4.939   2.844  0.3283  0.9087  0.6931
13477TIP3    H261847   6.635   5.077   2.797  0.1553  0.8503  0.6761
13478TIP3   OH261848   2.943   1.733  14.654  0.5214  0.3619 -0.2015
13478TIP3    H161849   3.029   1.742  14.697  0.2105  0.0257  0.5044
13478TIP3    H261850   2.893   1.678  14.713 -0.9875  2.4492  0.5713
13479TIP3   OH261851   6.632   0.764   1.852  0.2040  0.2381 -0.2063
13479TIP3    H161852   6.549   0.741   1.809  0.9192 -0.3383 -1.3606
13479TIP3    H261853   6.698   0.755   1.782  1.1707  1.2086  0.5429
13480TIP3   OH261854   6.260   6.624   5.702  0.6668 -0.5351  0.5519
13480TIP3    H161855   6.268   6.631   5.797  0.7513  0.6171  0.4720
13480TIP3    H261856   6.320   6.691   5.668  1.9470 -2.0705 -0.3583
13481TIP3   OH261857   3.022   5.798   0.180  0.3997  0.5517 -0.1690
13481TIP3    H161858   3.059   5.784   0.268 -0.9908  0.9399  0.5052
13481TIP3    H261859   3.050   5.721   0.130 -1.8201 -1.6309  1.6719
13482TIP3   OH261860   4.851   4.474  12.772 -0.1719 -0.4107  0.0032
13482TIP3    H161861   4.760   4.465  12.744  0.5226 -1.7319 -2.0422
13482TIP3    H261862   4.887   4.541  12.713  0.7181 -1.5410 -0.7936
13483TIP3   OH261863   3.857   3.862  14.025  0.7236 -0.0899 -0.1647
13483TIP3    H161864   3.896   3.947  14.004 -0.7608  0.2720 -1.6398
13483TIP3    H261865   3.779   3.883  14.076  0.8557 -0.6254  0.2616
13484TIP3   OH261866   6.525   3.877   1.839  0.5450  0.8887  0.2003
13484TIP3    H161867   6.603   3.820   1.843  0.4071  0.6585 -0.2776
13484TIP3    H261868   6.484   3.855   1.756 -0.5117  0.3787  0.8300
13485TIP3   OH261869   2.814   5.854  15.847  0.0736  0.0654  0.3899
13485TIP3    H161870   2.868   5.927  15.818 -0.3696  0.0391 -0.5350
13485TIP3    H261871   2.852   5.777  15.804 -1.6877  0.2686 -1.7250
13486TIP3   OH261872   5.666   3.764   1.393  0.2995 -0.3658 -0.1794
13486TIP3    H161873   5.744   3.724   1.431  1.5823  1.6327 -0.5485
13486TIP3    H261874   5.629   3.818   1.463  0.3899  0.2317 -0.5839
13487TIP3   OH261875   5.503   1.737   4.121 -0.0968  0.0387  0.0996
13487TIP3    H161876   5.408   1.745   4.130 -0.2579 -2.2100  1.1467
13487TIP3    H261877   5.517   1.723   4.027 -0.9876 -1.1637  0.1228
13488TIP3   OH261878   3.615   1.872  17.317  0.1403 -0.1134 -0.6502
13488TIP3    H161879   3.651   1.941  17.261 -0.2121  0.0180 -0.7241
13488TIP3    H261880   3.526   1.860  17.284 -0.2413  0.3141  0.1944
13489TIP3   OH261881   2.466   2.607  11.307 -0.1437  0.2912  0.5078
13489TIP3    H161882   2.371   2.617  11.316 -0.1179  2.4109 -0.8326
13489TIP3    H261883   2.477   2.533  11.247 -1.1290  1.5768 -1.3966
13490TIP3   OH261884   3.085   5.140   1.895  0.0477 -0.2938 -0.3195
13490TIP3    H161885   3.120   5.054   1.918  2.2941  1.1601  2.3005
13490TIP3    H261886   3.007   5.149   1.950 -0.6875 -0.9220 -1.2217
13491TIP3   OH261887   5.700   3.424   1.925 -0.1416  0.2824  0.2861
13491TIP3    H161888   5.658   3.480   1.861 -1.6251 -1.5172 -0.4086
13491TIP3    H261889   5.731   3.484   1.993 -0.5078  2.0197 -1.0106
13492TIP3   OH261890   5.216   1.450  16.128  0.2569  0.2076 -0.1443
13492TIP3    H161891   5.289   1.493  16.083  0.5471 -0.2020 -0.0669
13492TIP3    H261892   5.257   1.404  16.202 -0.2698  1.2877  0.8524
13493TIP3   OH261893   6.705   2.690   2.063  0.9489  0.2570  0.1626
13493TIP3    H161894   6.790   2.699   2.106  0.4751  3.5019  0.6650
13493TIP3    H261895   6.713   2.741   1.982  0.0268 -0.9018 -0.6931
13494TIP3   OH261896   0.784   1.992   1.856  0.0661 -0.1779  0.0496
13494TIP3    H161897   0.738   2.047   1.793 -0.2047  0.3749  0.7125
13494TIP3    H261898   0.737   1.909   1.856  1.3263 -0.9775 -2.0189
13495TIP3   OH261899   3.998   3.050   3.101  0.1852 -0.0468 -0.6039
13495TIP3    H161900   3.905   3.035   3.121 -0.4541  3.0472 -0.7216
13495TIP3    H261901   3.998   3.078   3.009  1.5885 -2.2195 -1.3313
13496TIP3   OH261902   2.565   5.458   4.070  0.1341  0.0964 -0.1607
13496TIP3    H161903   2.615   5.378   4.087 -1.1260 -1.3692 -2.7139
13496TIP3    H261904   2.542   5.453   3.977  1.3739  4.2851 -0.9024
13497TIP3   OH261905   3.555   1.313   4.721 -0.2907 -0.0157 -0.1557
13497TIP3    H161906   3.553   1.392   4.775 -0.2163 -0.2290  0.1594
13497TIP3    H261907   3.479   1.322   4.663 -1.0767 -0.3583  0.7981
13498TIP3   OH261908   1.119   5.137  13.104 -0.0470  0.2932  0.1352
13498TIP3    H161909   1.027   5.117  13.089 -0.2650  1.2309  0.1732
13498TIP3    H261910   1.149   5.068  13.164 -1.6334  1.8389  2.9171
13499TIP3   OH261911   6.494   2.905   1.204  0.0583  0.3936 -0.5006
13499TIP3    H161912   6.463   2.969   1.268 -0.2547  0.8469 -1.0875
13499TIP3    H261913   6.465   2.821   1.237  1.2847  0.4283  0.7814
13500TIP3   OH261914   4.780   4.316   4.209  0.4747  0.3870 -0.0608
13500TIP3    H161915   4.845   4.270   4.157 -0.9333 -1.6749 -0.1089
13500TIP3    H261916   4.785   4.276   4.296  0.1622  1.1121  0.3053
13501TIP3   OH261917   3.227   1.464   0.378  0.1763 -0.1676 -0.3880
13501TIP3    H161918   3.284   1.388   0.368  0.5536  0.1499 -0.7025
13501TIP3    H261919   3.271   1.520   0.442 -0.2088 -0.3117  0.0074
13502TIP3   OH261920   3.050   5.947   5.235 -0.6451  0.0468  0.0884
13502TIP3    H161921   2.961   5.932   5.202 -0.5359 -0.0625 -0.1583
13502TIP3    H261922   3.041   6.022   5.293 -0.7703  0.5203 -0.5246
13503TIP3   OH261923   1.566   0.601   0.423 -0.5397  0.1559 -0.3545
13503TIP3    H161924   1.560   0.690   0.389  1.0980 -0.1510 -1.6071
13503TIP3    H261925   1.660   0.584   0.429 -0.7283 -2.2838 -2.4782
13504TIP3   OH261926   3.624   1.104   5.420 -0.1709 -0.1032  1.0129
13504TIP3    H161927   3.632   1.092   5.515  2.5845  0.9268  0.9987
13504TIP3    H261928   3.629   1.016   5.384  1.9072 -0.3176  1.7188
13505TIP3   OH261929   0.355   6.117  15.845  0.3847 -0.0994  0.3555
13505TIP3    H161930   0.316   6.204  15.837 -1.1048 -0.8213 -0.7461
13505TIP3    H261931   0.294   6.068  15.899  0.6249 -0.7826  0.0179
13506TIP3   OH261932   5.984   4.167   3.608 -0.2373 -0.4647  0.9974
13506TIP3    H161933   5.941   4.098   3.660  1.1283 -0.0127  2.8456
13506TIP3    H261934   5.984   4.243   3.666 -1.9897  1.2721 -1.1173
13507TIP3   OH261935   2.052   3.986  17.265  0.4955  0.1416 -0.5064
13507TIP3    H161936   2.148   3.976  17.269  0.6884  1.9227 -0.1664
13507TIP3    H261937   2.021   3.955  17.349  0.8232  0.0369 -0.4215
13508TIP3   OH261938   5.372   6.352   1.174  0.5978  0.0844 -0.0564
13508TIP3    H161939   5.283   6.348   1.138  1.5688 -1.8798 -2.5813
13508TIP3    H261940   5.398   6.260   1.183  2.7768  0.6037 -0.5467
13509TIP3   OH261941   0.030   5.628  14.748  0.6288 -0.0643  0.5516
13509TIP3    H161942  -0.005   5.665  14.829  0.9413 -0.5650  0.9203
13509TIP3    H261943  -0.043   5.633  14.687  0.8000  1.5717  0.4483
13510TIP3   OH261944   5.034   2.666   4.068 -0.2685  0.3069 -0.4015
13510TIP3    H161945   5.084   2.587   4.087  0.9567  0.7412 -1.7153
13510TIP3    H261946   5.097   2.737   4.075 -1.4351  1.2720  1.1721
13511TIP3   OH261947   0.218   1.486   1.870  0.4396  0.3835 -0.4205
13511TIP3    H161948   0.207   1.581   1.872 -2.7690  0.0903  0.7762
13511TIP3    H261949   0.185   1.460   1.784 -1.5815  0.1560  0.3761
13512TIP3   OH261950   5.285   6.031  12.206  0.0013 -0.3334 -0.3138
13512TIP3    H161951   5.220   5.998  12.269  1.2264 -0.6739  0.8259
13512TIP3    H261952   5.241   6.025  12.121 -1.5336 -0.3283  0.4448
13513TIP3   OH261953   3.945   5.698  14.815 -0.1303  0.2473  0.5579
13513TIP3    H161954   3.863   5.743  14.834 -0.0696  0.4274  0.4066
13513TIP3    H261955   4.008   5.736  14.877 -0.5288 -1.1163  1.8639
13514TIP3   OH261956   6.105   4.072   6.109 -0.3986 -0.5613 -0.3685
13514TIP3    H161957   6.201   4.062   6.109 -0.2115  0.7755 -2.2114
13514TIP3    H261958   6.080   4.064   6.201  1.8432  2.0986  0.5939
13515TIP3   OH261959   5.177   2.437  16.129 -0.1120 -0.1725  0.2243
13515TIP3    H161960   5.187   2.422  16.034 -1.5264  0.6282 -0.0738
13515TIP3    H261961   5.098   2.389  16.153 -0.0934  0.1179  0.8787
13516TIP3   OH261962   3.477   5.097   3.287 -0.2272  0.0196  0.7664
13516TIP3    H161963   3.391   5.138   3.289 -0.2847 -0.1255  1.4086
13516TIP3    H261964   3.538   5.170   3.273 -0.6013 -0.1321 -2.5625
13517TIP3   OH261965   1.983   4.285  15.490  0.1769  0.3434  0.1134
13517TIP3    H161966   2.028   4.249  15.414 -0.9631  0.9130 -0.8472
13517TIP3    H261967   1.955   4.372  15.463 -1.0202  0.2165  0.8593
13518TIP3   OH261968   6.505   4.762  12.881 -0.0591  0.1195 -0.0939
13518TIP3    H161969   6.516   4.816  12.803  1.5850  1.2088  0.8089
13518TIP3    H261970   6.580   4.702  12.879 -1.2908 -1.4634 -0.5367
13519TIP3   OH261971   0.235   1.895  12.872  0.1197  0.3624  0.6868
13519TIP3    H161972   0.197   1.919  12.957  1.3051  0.8437  1.1012
13519TIP3    H261973   0.160   1.888  12.813 -0.4605  3.9820  0.7806
13520TIP3   OH261974   5.193   0.493  16.626  0.5077  0.4000  0.0555
13520TIP3    H161975   5.219   0.517  16.537  1.7086 -0.3551  0.1764
13520TIP3    H261976   5.124   0.428  16.614 -0.5604  1.5635 -0.2913
13521TIP3   OH261977   0.220   2.277  15.768  0.4222 -0.3814  0.1572
13521TIP3    H161978   0.185   2.289  15.856  0.8203 -2.0194  0.5753
13521TIP3    H261979   0.314   2.264  15.782  1.0667  2.5718 -0.8233
13522TIP3   OH261980   3.837   0.605  15.410 -0.2084 -0.7078 -0.6889
13522TIP3    H161981   3.754   0.581  15.451 -0.1049  0.2492  0.1232
13522TIP3    H261982   3.882   0.658  15.476  0.5769 -0.3109 -1.5174
13523TIP3   OH261983   6.233   3.811   4.181 -0.5839  0.7098  0.1781
13523TIP3    H161984   6.233   3.892   4.233  0.4928  0.5724  0.4189
13523TIP3    H261985   6.274   3.836   4.098  0.6719  0.2115  0.6235
13524TIP3   OH261986   1.880   5.521   1.565 -0.2963  0.1612 -0.2652
13524TIP3    H161987   1.885   5.434   1.604 -2.2073 -0.8734 -2.0862
13524TIP3    H261988   1.959   5.529   1.511 -0.4042 -0.7278 -0.5666
13525TIP3   OH261989   5.184   1.140  17.344 -0.4218  0.3691 -0.4526
13525TIP3    H161990   5.203   1.089  17.422 -1.1760  1.2754  0.3592
13525TIP3    H261991   5.186   1.077  17.272 -0.1191 -0.5579  0.3546
13526TIP3   OH261992   3.115   2.217  13.511  0.7047 -0.7829 -0.7295
13526TIP3    H161993   3.034   2.216  13.561  1.6533 -1.2450  0.8905
13526TIP3    H261994   3.091   2.254  13.426 -1.4437 -2.1343 -0.7823
13527TIP3   OH261995   2.108   4.228   2.739  0.0903  0.1190  0.3063
13527TIP3    H161996   2.144   4.140   2.723  0.6021  0.1750  1.1195
13527TIP3    H261997   2.111   4.271   2.653 -1.1235 -0.9879 -0.3491
13528TIP3   OH261998   5.853   3.696  12.916  0.3355  0.1184 -0.0046
13528TIP3    H161999   5.941   3.675  12.884  1.0785  1.3455  1.1216
13528TIP3    H262000   5.809   3.612  12.924  1.3108 -0.4897 -0.8739
13529TIP3   OH262001   0.213   5.519  16.928  0.1383 -0.1925 -0.1972
13529TIP3    H162002   0.240   5.442  16.979  0.8503  0.1890  0.0195
13529TIP3    H262003   0.119   5.527  16.944 -0.0737 -1.4091 -0.7655
13530TIP3   OH262004   5.641   5.991   2.587 -0.1692  0.2436  0.0073
13530TIP3    H162005   5.587   5.987   2.508  0.1761  0.1448 -0.2214
13530TIP3    H262006   5.656   5.899   2.611  0.8622  0.2513 -0.5832
13531TIP3   OH262007   4.316   5.819   3.667 -0.0179  0.9017  0.5702
13531TIP3    H162008   4.223   5.834   3.684  0.0763  2.8535 -0.3760
13531TIP3    H262009   4.357   5.903   3.685  1.1975  0.7746 -1.3859
13532TIP3   OH262010   5.245   2.611  16.660 -0.5031 -0.1782  0.0833
13532TIP3    H162011   5.208   2.553  16.726  1.2748 -0.0986  1.1933
13532TIP3    H262012   5.331   2.573  16.639 -0.4530  0.5602 -1.1840
13533TIP3   OH262013   6.107   6.623  11.957 -0.5602 -0.0089 -0.2815
13533TIP3    H162014   6.133   6.683  11.886 -1.7358  0.9547  0.0667
13533TIP3    H262015   6.071   6.547  11.912  1.5801 -0.8070 -0.7469
13534TIP3   OH262016   5.005   3.811   4.591 -1.0101  0.8752 -0.2875
13534TIP3    H162017   4.965   3.747   4.649  0.0152  0.7634  0.3275
13534TIP3    H262018   5.092   3.774   4.571  0.6549  3.1562  2.0807
13535TIP3   OH262019   5.031   5.234  12.694  0.6783  0.9868 -0.1622
13535TIP3    H162020   5.020   5.253  12.787 -1.3518 -0.1972 -0.0814
13535TIP3    H262021   5.111   5.278  12.669  1.0607  1.6626  2.0608
13536TIP3   OH262022   6.002   2.395  16.056 -0.2274 -0.0825 -0.0051
13536TIP3    H162023   5.963   2.473  16.095  0.8959 -0.0193  1.0667
13536TIP3    H262024   5.934   2.359  16.000 -1.1808  0.9925  0.4282
13537TIP3   OH262025   5.129   5.346   4.563  0.1405 -0.2726  0.0373
13537TIP3    H162026   5.105   5.438   4.552 -0.0377 -0.2447  0.6129
13537TIP3    H262027   5.192   5.346   4.636  0.0381 -0.6168  0.1282
13538TIP3   OH262028   1.106   4.417   5.622  0.4675  0.3517 -0.1205
13538TIP3    H162029   1.099   4.460   5.537 -1.3130 -1.5880 -1.0614
13538TIP3    H262030   1.131   4.486   5.683  1.8935  1.7886 -2.2072
13539TIP3   OH262031   0.500   2.676   0.003  0.2254  0.2993  0.1471
13539TIP3    H162032   0.469   2.766  -0.006  0.6425  0.3270 -1.3208
13539TIP3    H262033   0.568   2.681   0.070 -0.9891  0.7247  1.3958
13540TIP3   OH262034   0.168   3.995   5.386 -0.7053 -0.3782 -0.1540
13540TIP3    H162035   0.156   4.010   5.292 -0.4360 -0.9871 -0.2879
13540TIP3    H262036   0.171   4.083   5.424 -1.1167 -0.1305 -0.6744
13541TIP3   OH262037   6.221   1.966   2.790 -0.3988  0.1168 -0.5259
13541TIP3    H162038   6.174   1.994   2.711  1.0948  0.3727 -1.3530
13541TIP3    H262039   6.221   1.871   2.785 -0.4365  0.1284 -0.7652
13542TIP3   OH262040   1.663   3.405  12.361  0.4593 -0.0601  0.4134
13542TIP3    H162041   1.622   3.473  12.413 -0.4630 -0.0943 -0.2539
13542TIP3    H262042   1.643   3.323  12.407  0.6687  0.0158  0.6422
13543TIP3   OH262043   4.397   4.595   1.621  0.0832 -0.5433 -0.2467
13543TIP3    H162044   4.465   4.661   1.608 -0.0877  0.0688  1.6479
13543TIP3    H262045   4.330   4.616   1.557  0.7098  0.1774 -0.6805
13544TIP3   OH262046   6.615   6.687   2.253 -0.1272  0.6163 -0.4180
13544TIP3    H162047   6.591   6.780   2.245 -0.7713  0.5408  0.5036
13544TIP3    H262048   6.533   6.643   2.274  0.5018  0.1192  1.1131
13545TIP3   OH262049   4.637   5.491  13.297  0.1524 -0.6250 -0.3103
13545TIP3    H162050   4.717   5.445  13.271  0.0470 -0.2623 -1.3360
13545TIP3    H262051   4.663   5.582  13.306 -0.3772 -0.2656 -1.9531
13546TIP3   OH262052   0.957   3.733   4.815 -0.2355 -0.0591 -0.0212
13546TIP3    H162053   1.014   3.806   4.792 -1.2435 -0.0171 -2.8163
13546TIP3    H262054   0.868   3.765   4.796 -0.8668 -1.3731  0.5693
13547TIP3   OH262055   1.963   0.606  15.760  0.2209 -0.1581 -0.0686
13547TIP3    H162056   2.039   0.640  15.713  0.9527  0.5260  1.5426
13547TIP3    H262057   1.981   0.625  15.852 -2.0603  0.3251  0.3331
13548TIP3   OH262058   0.464   3.851   3.022 -0.1998 -0.1167 -0.1893
13548TIP3    H162059   0.492   3.770   2.978  0.2017  0.9380 -1.9840
13548TIP3    H262060   0.535   3.913   3.004 -1.1429  1.0363 -0.0428
13549TIP3   OH262061   2.593   0.331   2.889  0.9259 -0.1015  0.1203
13549TIP3    H162062   2.568   0.239   2.880  2.4202 -0.3793 -2.3799
13549TIP3    H262063   2.582   0.367   2.801  1.3773  1.8343  0.8036
13550TIP3   OH262064   2.475   1.022   4.073  0.2231 -0.5217  0.1708
13550TIP3    H162065   2.502   0.981   3.991 -2.1489  0.8080 -1.3879
13550TIP3    H262066   2.529   1.101   4.079  1.6324 -1.4904  0.8652
13551TIP3   OH262067   0.416   6.100  13.113 -0.8530 -0.0806 -0.1468
13551TIP3    H162068   0.348   6.089  13.179 -0.6684  1.4706  0.3360
13551TIP3    H262069   0.495   6.063  13.153 -0.8522  0.4168  0.3189
13552TIP3   OH262070   6.498   3.475   4.467 -0.3490 -0.4113  0.1184
13552TIP3    H162071   6.498   3.540   4.396  0.1962 -0.8869 -0.3271
13552TIP3    H262072   6.490   3.527   4.547 -3.3694  0.0327 -0.3479
13553TIP3   OH262073   3.085   0.765   3.985 -0.0842 -0.3700  0.3811
13553TIP3    H162074   3.143   0.697   3.950  0.8735  1.2988 -1.5221
13553TIP3    H262075   3.002   0.750   3.940  0.5207  0.4721 -1.0841
13554TIP3   OH262076   4.339   3.073   3.694 -0.2108 -0.1142 -0.1793
13554TIP3    H162077   4.431   3.076   3.721 -0.4224  0.8667  0.4951
13554TIP3    H262078   4.336   3.126   3.614 -0.6266  2.2170  1.2895
13555TIP3   OH262079   6.065   2.166  14.613 -0.1880  0.0356 -0.0750
13555TIP3    H162080   6.091   2.238  14.556 -1.9934  0.8785  0.0902
13555TIP3    H262081   6.011   2.110  14.558  0.4133 -0.7011  0.0601
13556TIP3   OH262082   6.688   0.535  15.651 -0.3312 -0.4677 -0.0085
13556TIP3    H162083   6.635   0.573  15.721  2.8423  1.8447  1.4265
13556TIP3    H262084   6.717   0.451  15.686 -2.0883 -1.2718 -0.3836
13557TIP3   OH262085   4.491   1.983   4.309  0.6207  0.3439  0.0063
13557TIP3    H162086   4.440   1.922   4.256 -0.8452  1.9776 -0.5456
13557TIP3    H262087   4.580   1.976   4.274  0.3548 -0.9880 -0.4636
13558TIP3   OH262088   0.853   2.647  11.329  0.6822 -0.1058  0.2591
13558TIP3    H162089   0.802   2.728  11.325 -0.3011 -0.7073  0.4846
13558TIP3    H262090   0.839   2.614  11.418 -0.4631 -1.4938 -0.3944
13559TIP3   OH262091   0.087   3.414  11.881  0.6306 -0.3785 -0.4240
13559TIP3    H162092   0.175   3.378  11.865  0.8079  0.7824 -2.5073
13559TIP3    H262093   0.028   3.352  11.838  0.5533 -0.4060 -0.2778
13560TIP3   OH262094   2.697   2.304  13.286  0.5710  0.3844  0.1689
13560TIP3    H162095   2.641   2.371  13.324 -1.0062 -0.3153 -0.8099
13560TIP3    H262096   2.658   2.284  13.201  2.8231  0.4621 -0.9748
13561TIP3   OH262097   4.315   5.680  17.143  0.2996 -0.4070  0.2494
13561TIP3    H162098   4.347   5.632  17.066  0.9350  0.5326 -0.0908
13561TIP3    H262099   4.391   5.729  17.174  0.2732 -1.3828  1.9892
13562TIP3   OH262100   2.043   3.630  17.311  0.4407 -0.3136  0.0862
13562TIP3    H162101   2.011   3.700  17.368 -1.4466 -0.2697 -0.9506
13562TIP3    H262102   2.051   3.671  17.225 -2.7965 -1.7404 -1.0550
13563TIP3   OH262103   4.390   3.055   1.666 -0.2566 -0.0110 -0.4042
13563TIP3    H162104   4.456   3.124   1.656  1.0607 -1.1723 -0.0797
13563TIP3    H262105   4.328   3.091   1.729  0.9460  0.5386  0.5236
13564TIP3   OH262106   5.955   5.753   2.338 -0.4093 -0.3804 -0.0490
13564TIP3    H162107   5.921   5.839   2.362 -0.6099 -0.6130  0.5109
13564TIP3    H262108   5.898   5.691   2.383  0.3679 -0.7908  0.3996
13565TIP3   OH262109   0.419   0.372  15.108 -0.0480  0.3415  0.2174
13565TIP3    H162110   0.375   0.417  15.036 -1.1637 -0.5629  0.3042
13565TIP3    H262111   0.439   0.285  15.074  1.2119  0.5457  0.3737
13566TIP3   OH262112   2.386   5.651  12.240 -0.6897  0.3006 -0.0737
13566TIP3    H162113   2.458   5.600  12.279  0.2570  1.9506  0.4590
13566TIP3    H262114   2.337   5.683  12.315  1.1595  3.5312 -0.0545
13567TIP3   OH262115   3.697   3.251  14.193 -0.7816 -0.1178  0.2533
13567TIP3    H162116   3.686   3.158  14.173 -0.9792  0.2594 -1.5870
13567TIP3    H262117   3.722   3.290  14.109  0.3621  1.3338  1.2220
13568TIP3   OH262118   1.780   4.178   2.642  0.1457 -0.6483 -0.1041
13568TIP3    H162119   1.834   4.109   2.604  0.5709  0.8643 -2.4469
13568TIP3    H262120   1.761   4.237   2.569 -2.7088  0.1622  1.1494
13569TIP3   OH262121   4.407   3.848   3.052  0.2696  0.4784 -0.2021
13569TIP3    H162122   4.379   3.936   3.028  3.9974  1.5569 -1.2296
13569TIP3    H262123   4.356   3.827   3.131 -0.7647  3.5026  0.0506
13570TIP3   OH262124   2.539   3.802  15.861 -0.0944  0.0449 -0.3010
13570TIP3    H162125   2.534   3.708  15.876 -1.1889  0.0330 -0.6419
13570TIP3    H262126   2.473   3.839  15.920 -0.9734  0.4186 -1.4676
13571TIP3   OH262127   3.752   2.438   1.855 -0.0551  0.4139  0.3869
13571TIP3    H162128   3.685   2.447   1.924 -0.1177 -0.5572  0.4648
13571TIP3    H262129   3.713   2.378   1.792  0.1739  0.9779 -0.3043
13572TIP3   OH262130   1.006   5.919  12.055  0.9545 -0.0449  0.4077
13572TIP3    H162131   0.915   5.889  12.065  0.3714  0.8439 -1.5967
13572TIP3    H262132   1.014   5.993  12.116 -0.3267  1.0902 -0.7125
13573TIP3   OH262133   0.986   0.541   0.488 -0.7327  0.3662  0.0076
13573TIP3    H162134   0.891   0.558   0.489 -0.6641  0.9266 -0.9692
13573TIP3    H262135   0.997   0.465   0.544 -1.7928  0.1801 -0.0028
13574TIP3   OH262136   3.110   5.446  13.153  0.2392  0.4043  0.7681
13574TIP3    H162137   3.075   5.421  13.068  0.6983 -0.3972  0.8109
13574TIP3    H262138   3.035   5.443  13.212 -0.0205  0.6771  0.4522
13575TIP3   OH262139   5.416   2.279  14.377 -0.0782 -0.1868  0.3737
13575TIP3    H162140   5.385   2.299  14.289  1.6918 -1.1310 -0.5258
13575TIP3    H262141   5.354   2.214  14.411 -1.2956  0.8563  0.2276
13576TIP3   OH262142   0.899   1.023  13.937 -0.2416  0.2140  0.9434
13576TIP3    H162143   0.919   0.974  14.016 -1.5051  0.0975  1.2066
13576TIP3    H262144   0.823   1.077  13.960 -0.3237  0.5508 -0.0392
13577TIP3   OH262145   0.843   0.748   5.696 -0.3476 -0.1817  0.1112
13577TIP3    H162146   0.784   0.690   5.745  0.0839 -0.7909 -0.0795
13577TIP3    H262147   0.798   0.761   5.613  0.0134 -1.0630 -0.2330
13578TIP3   OH262148   6.754   2.175   0.837  0.6325  0.6549  0.5445
13578TIP3    H162149   6.738   2.090   0.795 -2.6984  0.7051  1.4572
13578TIP3    H262150   6.747   2.238   0.766  2.7640  0.2930 -0.0735
13579TIP3   OH262151   2.908   4.017  10.985 -0.1411  0.4008 -0.2404
13579TIP3    H162152   2.896   4.090  10.924 -0.3417  0.4962 -0.0853
13579TIP3    H262153   2.979   4.046  11.043 -0.1808  0.4490 -0.2157
13580TIP3   OH262154   1.632   6.455  13.209 -0.6834  0.0298  0.0456
13580TIP3    H162155   1.615   6.518  13.279  1.0063  0.7160 -0.1219
13580TIP3    H262156   1.621   6.369  13.250 -0.2410  0.4245  1.0285
13581TIP3   OH262157   6.347   2.976   2.625 -0.8389  0.2564 -0.2308
13581TIP3    H162158   6.255   2.970   2.597 -0.1979 -0.8981 -2.3207
13581TIP3    H262159   6.362   2.894   2.672 -0.4035 -0.4844 -1.5993
13582TIP3   OH262160   0.107   1.038  16.492  0.3997 -0.4912 -0.0961
13582TIP3    H162161   0.076   1.006  16.407  0.8890  1.1090 -0.9177
13582TIP3    H262162   0.108   1.133  16.483 -0.3272 -0.2314  1.9980
13583TIP3   OH262163   3.720   0.887  13.792  0.0043  0.4530 -0.1697
13583TIP3    H162164   3.689   0.833  13.719  1.3096 -0.2218 -0.2578
13583TIP3    H262165   3.717   0.828  13.868  0.7039  0.4796 -0.1159
13584TIP3   OH262166   6.293   0.524   4.269  0.3737 -0.7197 -0.5498
13584TIP3    H162167   6.357   0.548   4.336 -0.2507 -1.3174  0.2871
13584TIP3    H262168   6.291   0.428   4.271 -2.9301 -0.8023  1.8973
13585TIP3   OH262169   0.199   6.734   2.200 -0.6710  0.5970  0.3421
13585TIP3    H162170   0.117   6.695   2.166 -1.0049  0.4720  1.2705
13585TIP3    H262171   0.263   6.663   2.192 -0.6445  0.6935 -0.3899
13586TIP3   OH262172   6.371   5.978   2.401 -0.5622 -0.4452 -0.1575
13586TIP3    H162173   6.420   5.995   2.321 -0.4680  1.4956  0.2669
13586TIP3    H262174   6.312   5.905   2.379 -0.8957  0.3758 -2.1272
13587TIP3   OH262175   5.785   0.011  16.999  0.2959  0.3267  0.3731
13587TIP3    H162176   5.836   0.036  16.922 -2.2471  1.6827 -0.9895
13587TIP3    H262177   5.708   0.067  16.996 -0.8523 -0.9684  2.8447
13588TIP3   OH262178   4.025   5.972  14.422 -0.2133 -0.6385 -0.3211
13588TIP3    H162179   4.063   5.992  14.507 -0.4719 -0.3549 -0.2722
13588TIP3    H262180   4.099   5.938  14.370 -0.0951 -0.9817  0.0684
13589TIP3   OH262181   3.881   1.144  14.482 -0.6362  0.2402 -0.0420
13589TIP3    H162182   3.876   1.237  14.461 -0.8662  0.2512  0.0584
13589TIP3    H262183   3.957   1.112  14.434  0.1459  0.7261  0.8507
13590TIP3   OH262184   4.651   1.423  15.829 -0.2218  0.3119 -0.0677
13590TIP3    H162185   4.660   1.329  15.812 -1.2625  0.2235 -0.1931
13590TIP3    H262186   4.701   1.438  15.910 -0.8677 -0.5405  0.5092
13591TIP3   OH262187   4.491   6.527  13.482 -0.3683  0.2700 -0.0314
13591TIP3    H162188   4.482   6.569  13.396 -1.3564 -0.6042 -0.3768
13591TIP3    H262189   4.513   6.436  13.462  2.2762  0.6548  0.7175
13592TIP3   OH262190   4.645   2.467  14.587 -0.4542  1.0659  0.0976
13592TIP3    H162191   4.627   2.559  14.602  0.2736  1.3642 -0.7570
13592TIP3    H262192   4.737   2.456  14.608 -0.1637  0.8651 -1.1826
13593TIP3   OH262193   2.341   6.148   4.684  0.6541  0.3200 -0.0319
13593TIP3    H162194   2.350   6.091   4.608 -0.4560  0.5314 -0.3342
13593TIP3    H262195   2.431   6.163   4.713  1.0480 -0.3615 -0.8495
13594TIP3   OH262196   5.586   0.591   5.921 -0.4143 -0.1436 -0.6260
13594TIP3    H162197   5.552   0.643   5.995 -0.1275  1.5804 -1.6560
13594TIP3    H262198   5.508   0.552   5.882 -0.6644 -0.3395  0.0530
13595TIP3   OH262199   1.993   4.748  16.532 -0.3574  0.2614 -0.0044
13595TIP3    H162200   2.075   4.699  16.529  0.5801  1.8165 -1.8846
13595TIP3    H262201   2.019   4.835  16.565 -1.1008  0.9573 -1.1716
13596TIP3   OH262202   0.849   5.600   3.865 -0.0382  0.6821 -0.1643
13596TIP3    H162203   0.861   5.516   3.910  2.2002  0.0776 -1.7200
13596TIP3    H262204   0.825   5.661   3.934 -1.7849 -1.2129  1.0151
13597TIP3   OH262205   0.822   3.031  16.442 -0.5143 -0.1962  0.0443
13597TIP3    H162206   0.844   3.076  16.524  0.9693  0.8965 -0.8820
13597TIP3    H262207   0.840   3.097  16.374  1.8110 -2.1668 -1.4033
13598TIP3   OH262208   4.412   3.679   3.883  0.0615  0.3912 -0.2179
13598TIP3    H162209   4.331   3.687   3.833 -0.3560  0.5144  0.4624
13598TIP3    H262210   4.388   3.622   3.957  0.7461 -0.0476 -0.3300
13599TIP3   OH262211   6.392   1.777  10.898 -0.3343 -0.1142  0.2338
13599TIP3    H162212   6.419   1.857  10.854 -1.4340 -0.5475 -1.2988
13599TIP3    H262213   6.376   1.803  10.989  0.4872  1.1194  0.0445
13600TIP3   OH262214   4.152   2.035  10.928  0.0202  0.2601  0.0777
13600TIP3    H162215   4.159   2.130  10.923 -0.5049  0.2543 -1.8877
13600TIP3    H262216   4.173   2.005  10.839  2.2630 -1.6366  1.1608
13601TIP3   OH262217   0.551   3.191  12.500  0.2712  0.2928 -0.0210
13601TIP3    H162218   0.558   3.192  12.596  0.4010  2.0025 -0.0291
13601TIP3    H262219   0.464   3.224  12.481 -0.2670 -1.2885 -0.4986
13602TIP3   OH262220   4.398   2.036  11.744  0.1358  0.3018  0.4011
13602TIP3    H162221   4.338   2.107  11.725  1.1626  1.4281  1.2159
13602TIP3    H262222   4.357   1.988  11.815 -0.9282 -0.4225 -0.6609
13603TIP3   OH262223   3.964   1.339   0.967  0.5153 -0.9209  0.8359
13603TIP3    H162224   3.897   1.319   0.902 -0.4750 -0.2447  1.6072
13603TIP3    H262225   3.915   1.349   1.049  1.2082  1.9493  0.9998
13604TIP3   OH262226   0.118   4.740  14.842  0.2170 -0.1012 -0.3400
13604TIP3    H162227   0.151   4.818  14.888 -0.3987 -0.5953  0.9777
13604TIP3    H262228   0.162   4.667  14.885 -1.2757 -0.6592  0.2978
13605TIP3   OH262229   0.949   1.200  14.679 -0.2286 -0.0164  0.4748
13605TIP3    H162230   1.040   1.184  14.655 -0.3310  1.1986 -0.8342
13605TIP3    H262231   0.908   1.113  14.677  0.7676 -0.5038  0.5500
13606TIP3   OH262232   4.659   4.468  15.833  0.0755 -0.0789 -0.1550
13606TIP3    H162233   4.660   4.457  15.929  0.2805 -0.4052 -0.1933
13606TIP3    H262234   4.729   4.530  15.815  0.7965 -0.8932 -0.1960
13607TIP3   OH262235   6.554   1.799  11.886  0.1193  0.3527  0.6936
13607TIP3    H162236   6.543   1.815  11.792 -1.2469  0.0536  0.7842
13607TIP3    H262237   6.468   1.767  11.915  0.1907  1.4696  2.2439
13608TIP3   OH262238   0.085   4.296  13.733 -0.3609  0.0508  0.0175
13608TIP3    H162239   0.087   4.218  13.788 -0.3776 -0.4508 -0.6758
13608TIP3    H262240   0.019   4.353  13.774  0.1496  0.0132  0.9266
13609TIP3   OH262241   0.594   4.126   3.339  0.4912 -0.1998 -0.1849
13609TIP3    H162242   0.521   4.070   3.313 -2.3087  2.8282  0.4659
13609TIP3    H262243   0.555   4.212   3.354  3.3725  0.6696  4.6551
13610TIP3   OH262244   0.416   2.198   3.568 -0.5387  0.2845 -0.4225
13610TIP3    H162245   0.439   2.258   3.640  0.6503 -0.0705 -0.4893
13610TIP3    H262246   0.475   2.222   3.497 -0.2905 -0.7377 -0.5719
13611TIP3   OH262247   3.392   2.567   4.385  0.1054  0.9934  0.2496
13611TIP3    H162248   3.422   2.486   4.345 -0.9259  0.9709 -0.5137
13611TIP3    H262249   3.465   2.595   4.441  0.5635 -0.3239  0.3325
13612TIP3   OH262250   1.112   5.210  14.705  0.3702 -0.1542 -0.0430
13612TIP3    H162251   1.029   5.214  14.657 -1.9369  0.3066  3.6174
13612TIP3    H262252   1.137   5.117  14.701 -0.0131 -0.2168 -1.5731
13613TIP3   OH262253   2.115   6.318   5.250  0.1340  0.3403  0.4695
13613TIP3    H162254   2.100   6.229   5.217  0.5904  0.4248  0.0111
13613TIP3    H262255   2.052   6.372   5.203  0.9069  0.4889 -0.4362
13614TIP3   OH262256   1.451   6.579  14.811  0.3334 -0.0400  0.3529
13614TIP3    H162257   1.458   6.524  14.889 -0.1155  2.2132  2.1012
13614TIP3    H262258   1.477   6.523  14.739  1.6861 -1.9652  2.2389
13615TIP3   OH262259   4.653   3.878  15.258  0.7105 -0.2631  0.0323
13615TIP3    H162260   4.632   3.972  15.261 -1.6388 -0.7689  0.9716
13615TIP3    H262261   4.722   3.872  15.191 -1.3813  1.7112 -2.5334
13616TIP3   OH262262   6.247   3.095  17.284  0.7916  0.5740 -0.3052
13616TIP3    H162263   6.292   3.078  17.367  1.0196  0.0257 -0.5358
13616TIP3    H262264   6.155   3.084  17.305  0.8967 -0.4779 -0.3201
13617TIP3   OH262265   2.852   3.677  11.649 -0.2749  0.0415 -0.1819
13617TIP3    H162266   2.929   3.733  11.658  0.2194 -0.2768 -2.0050
13617TIP3    H262267   2.779   3.731  11.678  0.3989  1.0188 -0.2636
13618TIP3   OH262268   5.903   3.957  16.067 -0.6549  0.2130 -0.4833
13618TIP3    H162269   5.904   3.921  15.978 -0.9551 -0.2990 -0.2817
13618TIP3    H262270   5.817   3.932  16.102  0.4340 -1.8934  0.8786
13619TIP3   OH262271   2.787   0.167  12.160  0.1466 -0.0207 -0.4783
13619TIP3    H162272   2.741   0.176  12.077 -1.0672  0.1151  0.1851
13619TIP3    H262273   2.732   0.108  12.211  1.1942 -0.6020  0.0178
13620TIP3   OH262274   3.736   2.898  12.529  1.0529  0.2831  0.1166
13620TIP3    H162275   3.782   2.962  12.583  1.0890 -0.2553  0.7424
13620TIP3    H262276   3.782   2.816  12.546  3.1240  0.5995 -3.1154
13621TIP3   OH262277   4.915   0.392  16.832  0.5832 -0.1491 -0.0878
13621TIP3    H162278   4.915   0.398  16.736  1.2111  1.2766 -0.0206
13621TIP3    H262279   4.826   0.418  16.857  0.7498  0.5849 -0.2385
13622TIP3   OH262280   2.856   1.661   0.419  0.5496 -0.2692 -0.2773
13622TIP3    H162281   2.817   1.741   0.455 -0.5409 -1.4602  1.3363
13622TIP3    H262282   2.949   1.670   0.438  0.1076 -0.5356  2.4158
13623TIP3   OH262283   2.760   3.036   2.181 -0.0779  0.3911 -0.2568
13623TIP3    H162284   2.780   2.943   2.192  0.5746  0.2857 -2.0707
13623TIP3    H262285   2.673   3.037   2.142  0.7920  0.4099 -2.3049
13624TIP3   OH262286   2.507   1.318   4.359 -0.0489 -0.3827 -0.4666
13624TIP3    H162287   2.434   1.355   4.409  0.4872 -0.7134  0.5850
13624TIP3    H262288   2.513   1.227   4.389  1.7201  0.0297  0.5968
13625TIP3   OH262289   5.169   0.360   3.692  0.4281  0.2958 -0.2205
13625TIP3    H162290   5.255   0.395   3.669  0.2510 -0.1332 -1.6201
13625TIP3    H262291   5.185   0.269   3.714  0.8505  1.0678  3.1865
13626TIP3   OH262292   3.994   5.274  13.125 -0.4767  0.5800  0.2482
13626TIP3    H162293   3.937   5.293  13.051  0.4115  1.3420 -0.2547
13626TIP3    H262294   3.962   5.331  13.195 -1.2983 -0.1210  0.4625
13627TIP3   OH262295   4.384   5.231  13.688  0.5466 -0.0575 -0.0419
13627TIP3    H162296   4.380   5.147  13.642 -1.5022 -0.0590  0.0583
13627TIP3    H262297   4.391   5.296  13.618 -1.3410 -0.1409 -0.3758
13628TIP3   OH262298   4.373   4.637  13.003 -0.1947 -0.7740 -0.2456
13628TIP3    H162299   4.368   4.582  13.081 -0.7068  0.6122  0.7436
13628TIP3    H262300   4.297   4.696  13.011 -0.5835 -0.9554 -2.0787
13629TIP3   OH262301   5.466   6.416   2.651 -0.1741  0.4894  0.5193
13629TIP3    H162302   5.480   6.346   2.715  0.8676  0.8179  0.6763
13629TIP3    H262303   5.483   6.497   2.699 -0.1474  0.7841  0.0233
13630TIP3   OH262304   4.344   4.528  12.765 -0.3608 -0.2854 -0.2858
13630TIP3    H162305   4.395   4.587  12.709 -0.5850 -0.3435 -0.5549
13630TIP3    H262306   4.351   4.566  12.852 -0.1322 -0.1070 -0.3801
13631TIP3   OH262307   2.116   5.031  16.156  0.5454  0.1017  0.1995
13631TIP3    H162308   2.116   5.104  16.217  1.4137  1.3737 -1.2360
13631TIP3    H262309   2.028   5.029  16.120  0.7535  1.0510 -0.4010
13632TIP3   OH262310   6.241   4.156  14.040  0.4358 -0.3087 -0.4559
13632TIP3    H162311   6.193   4.128  14.119  0.0810  0.6772 -0.3020
13632TIP3    H262312   6.175   4.154  13.970  0.9259 -1.8810 -0.8964
13633TIP3   OH262313   2.351   1.260   2.836 -0.2805 -0.5552 -0.0892
13633TIP3    H162314   2.303   1.179   2.819  1.1815 -1.2372 -1.2753
13633TIP3    H262315   2.316   1.292   2.919 -1.9671 -1.5731 -0.3556
13634TIP3   OH262316   3.443   1.474  16.242  0.6102  0.2968 -0.1821
13634TIP3    H162317   3.495   1.539  16.290  1.3544 -0.3722 -0.0647
13634TIP3    H262318   3.496   1.453  16.165  0.4526 -0.2903 -0.1340
13635TIP3   OH262319   3.318   5.366   5.747  0.1636 -0.6650 -0.0992
13635TIP3    H162320   3.413   5.375   5.738  0.4801 -0.7745  2.4234
13635TIP3    H262321   3.282   5.435   5.691  1.5964 -1.7511 -2.5348
13636TIP3   OH262322   5.553   2.758  14.754 -0.2943  0.0241 -0.5464
13636TIP3    H162323   5.617   2.757  14.683  1.5561  2.8444  0.9153
13636TIP3    H262324   5.491   2.827  14.730  0.2156  0.8443  0.4329
13637TIP3   OH262325   1.532   2.225   6.406  0.0464  0.1280 -0.4846
13637TIP3    H162326   1.468   2.157   6.428 -0.4038 -0.1698 -2.4863
13637TIP3    H262327   1.481   2.291   6.358  0.4130  2.0859  1.6610
13638TIP3   OH262328   4.672   3.467  15.937  0.1967 -0.2804 -0.0492
13638TIP3    H162329   4.673   3.439  15.846  1.7833 -0.0332 -0.1363
13638TIP3    H262330   4.762   3.455  15.967  0.3810  2.2541  0.6601
13639TIP3   OH262331   5.275   1.896   2.795  0.2399 -0.1260 -0.4683
13639TIP3    H162332   5.205   1.946   2.838  2.1008 -0.9948  4.1847
13639TIP3    H262333   5.230   1.821   2.756 -1.6740  0.4870  0.4427
13640TIP3   OH262334   5.661   5.569  14.047  0.3062  0.6147  0.2787
13640TIP3    H162335   5.709   5.489  14.025 -1.1782 -0.3057  0.2542
13640TIP3    H262336   5.629   5.555  14.136  2.4763  2.4450  1.4392
13641TIP3   OH262337   0.614   3.770  15.161 -0.5406 -0.7271 -0.4413
13641TIP3    H162338   0.541   3.719  15.125 -0.3957 -2.1006  1.0782
13641TIP3    H262339   0.690   3.744  15.109 -0.9015 -0.2318 -1.2244
13642TIP3   OH262340   6.491   3.387  17.105  0.1300  0.9789 -0.4896
13642TIP3    H162341   6.568   3.369  17.051  1.8154  1.0598  1.7625
13642TIP3    H262342   6.469   3.478  17.085  0.5234  0.9149 -1.2501
13643TIP3   OH262343   1.152   0.725  14.740  0.6393 -0.7412  0.4172
13643TIP3    H162344   1.140   0.653  14.679  3.0668 -0.6263 -0.2628
13643TIP3    H262345   1.216   0.694  14.804  1.3768  0.6187  0.3866
13644TIP3   OH262346   0.342   1.106   3.713 -0.0317 -0.0162 -0.0503
13644TIP3    H162347   0.265   1.161   3.725 -0.5169 -0.5609 -0.5739
13644TIP3    H262348   0.359   1.069   3.799  0.1164  0.7147  0.2366
13645TIP3   OH262349   2.476   1.204  15.264 -0.4780 -0.4038 -0.4893
13645TIP3    H162350   2.386   1.197  15.297  0.4681  0.4049  2.5437
13645TIP3    H262351   2.494   1.117  15.227 -1.8530 -1.2394  0.6961
13646TIP3   OH262352   5.232   3.423   5.075 -0.2579  0.0099 -0.2664
13646TIP3    H162353   5.299   3.362   5.045 -1.6627 -1.8824  0.2766
13646TIP3    H262354   5.254   3.505   5.032  1.7404 -0.8400 -0.9787
13647TIP3   OH262355   4.376   4.817  15.199 -0.3291 -0.6518  0.5429
13647TIP3    H162356   4.460   4.793  15.162 -0.1114 -1.0549  1.2773
13647TIP3    H262357   4.358   4.904  15.164 -0.0199 -0.9164 -0.2975
13648TIP3   OH262358   1.166   5.718  13.314 -0.2010 -0.1907 -0.5855
13648TIP3    H162359   1.076   5.725  13.344 -0.4410 -1.1641 -1.0395
13648TIP3    H262360   1.166   5.760  13.228 -0.2920 -0.4559 -0.7157
13649TIP3   OH262361   2.916   2.369   4.648 -0.0323  0.1249  0.1154
13649TIP3    H162362   2.951   2.396   4.732 -0.1730  0.5959  0.0237
13649TIP3    H262363   2.826   2.342   4.667  0.2038 -0.5758  0.2587
13650TIP3   OH262364   6.393   0.367   1.974  0.1232  0.6025  0.0943
13650TIP3    H162365   6.438   0.339   1.895 -0.5211  1.3766 -0.5563
13650TIP3    H262366   6.302   0.378   1.949 -0.3688 -0.4778  1.2874
13651TIP3   OH262367   2.966   6.708  12.278  0.1368  0.1634 -0.4914
13651TIP3    H162368   2.912   6.676  12.206  0.2109  0.8262 -0.8527
13651TIP3    H262369   3.009   6.630  12.312 -0.2232 -0.2191 -0.8933
13652TIP3   OH262370   3.739   5.046   1.023  0.0090  0.0658  0.4134
13652TIP3    H162371   3.779   4.965   1.055 -2.0000 -1.0934  0.1762
13652TIP3    H262372   3.810   5.110   1.022  1.3712 -1.3523  1.8294
13653TIP3   OH262373   2.135   1.621  14.455  0.6023  0.3033  0.0997
13653TIP3    H162374   2.109   1.561  14.385  0.4952  1.0573 -0.5339
13653TIP3    H262375   2.218   1.658  14.424 -0.0112  1.4899 -0.1852
13654TIP3   OH262376   2.446   2.848   6.144  0.6951 -0.2437 -0.1041
13654TIP3    H162377   2.469   2.878   6.232  2.2711 -1.8040  0.0533
13654TIP3    H262378   2.442   2.753   6.151  0.0702 -0.3540 -1.5667
13655TIP3   OH262379   5.962   6.543  16.965 -0.5186 -0.2314 -0.4294
13655TIP3    H162380   5.879   6.588  16.954 -1.2141 -1.0913  0.9460
13655TIP3    H262381   5.993   6.572  17.051  0.5012 -0.0874 -0.8342
13656TIP3   OH262382   1.908   1.032   4.911  0.2472  0.1163  0.4070
13656TIP3    H162383   1.893   1.064   5.000 -0.4041  0.4112  0.1971
13656TIP3    H262384   1.948   0.945   4.923 -0.8507 -0.3300  1.0024
13657TIP3   OH262385   5.068   3.671  14.642 -0.4658 -0.1877 -0.1088
13657TIP3    H162386   5.093   3.589  14.685 -0.3080 -1.1278 -1.8861
13657TIP3    H262387   5.144   3.729  14.654 -0.4726 -0.3784  0.9257
13658TIP3   OH262388   3.366   2.080   5.474 -0.1348  0.4405  0.4318
13658TIP3    H162389   3.327   2.082   5.387  0.8216 -2.4359 -0.1558
13658TIP3    H262390   3.294   2.055   5.532 -0.4025  0.7498  0.2410
13659TIP3   OH262391   1.188   4.359   2.011  0.4089  1.0455 -0.0360
13659TIP3    H162392   1.206   4.268   1.986  0.3631  0.9344  0.3276
13659TIP3    H262393   1.102   4.378   1.973  0.2557  0.8181  0.1951
13660TIP3   OH262394   4.240   1.207   5.749 -0.4686 -0.1748 -0.5973
13660TIP3    H162395   4.305   1.264   5.708  0.6505 -2.0255 -1.5785
13660TIP3    H262396   4.203   1.259   5.820  1.5167  1.2529 -0.5176
13661TIP3   OH262397   4.328   0.198  15.751  0.4856 -0.5584  0.6801
13661TIP3    H162398   4.383   0.249  15.692  1.4585 -2.3879 -0.0849
13661TIP3    H262399   4.356   0.224  15.839  1.9231 -0.7745  0.3052
13662TIP3   OH262400   0.759   0.350  12.201 -0.1412  0.0004 -0.1195
13662TIP3    H162401   0.840   0.371  12.248  0.2982  0.4709 -1.0724
13662TIP3    H262402   0.695   0.415  12.232 -0.3870 -0.8345  1.1992
13663TIP3   OH262403   1.935   3.690   0.310  0.6453  0.4241  0.1627
13663TIP3    H162404   1.854   3.688   0.362 -0.1417  0.3083 -1.0104
13663TIP3    H262405   1.962   3.598   0.304 -0.4993  0.1473 -1.4270
13664TIP3   OH262406   6.631   6.034   5.068  0.4907 -0.5629 -0.3289
13664TIP3    H162407   6.653   6.042   4.976 -0.7299 -0.2732 -0.6126
13664TIP3    H262408   6.584   6.115   5.089  1.5621 -0.1937  0.8011
13665TIP3   OH262409   1.301   3.386  14.898 -0.1725 -0.4385 -0.4907
13665TIP3    H162410   1.238   3.399  14.969  0.4800  1.8839 -0.2594
13665TIP3    H262411   1.271   3.307  14.853 -1.5940 -0.9850  1.3060
13666TIP3   OH262412   1.611   3.196   3.650 -0.0842  0.4050 -0.8263
13666TIP3    H162413   1.610   3.282   3.692 -2.2489 -0.4306  1.0799
13666TIP3    H262414   1.520   3.169   3.649  0.4995 -1.7388 -1.6813
13667TIP3   OH262415   2.812   6.415  14.081 -0.3712  0.5041  0.4401
13667TIP3    H162416   2.899   6.375  14.083  0.8362  2.7126 -1.6992
13667TIP3    H262417   2.810   6.471  14.159 -0.0857  0.0415  0.7836
13668TIP3   OH262418   2.124   5.641  11.857 -0.0429  0.1843  0.2313
13668TIP3    H162419   2.201   5.645  11.801  1.1809  1.0720  1.8822
13668TIP3    H262420   2.065   5.709  11.823 -1.5239 -2.3429 -2.8379
13669TIP3   OH262421   6.621   6.121  13.797  0.8284 -0.2182  0.0123
13669TIP3    H162422   6.644   6.043  13.847 -1.3357 -0.4101  0.8177
13669TIP3    H262423   6.589   6.087  13.713  2.0182 -0.0284 -0.5465
13670TIP3   OH262424   0.058   2.743   0.082 -0.2614  0.0972 -0.3362
13670TIP3    H162425   0.142   2.698   0.094 -0.3841 -0.3521 -1.1526
13670TIP3    H262426   0.081   2.836   0.083  0.2782 -0.0294 -0.7913
13671TIP3   OH262427   5.630   3.084   0.234 -0.5003 -0.2653  0.1121
13671TIP3    H162428   5.561   3.034   0.192  0.3014 -1.8670  0.6249
13671TIP3    H262429   5.695   3.019   0.259  0.5309  1.0281  0.9367
13672TIP3   OH262430   4.261   4.409  16.301  0.0458 -0.4587 -0.1173
13672TIP3    H162431   4.259   4.339  16.237 -1.6202 -1.6701  1.1705
13672TIP3    H262432   4.260   4.365  16.386  1.0719  1.1085  0.7683
13673TIP3   OH262433   2.911   6.656  15.469  0.1177  0.1614  0.3370
13673TIP3    H162434   2.857   6.691  15.397 -0.6518 -0.3320  0.6552
13673TIP3    H262435   2.847   6.623  15.532  0.7892  0.6135  1.2715
13674TIP3   OH262436   5.847   4.884  16.975 -0.1488 -0.5318 -0.8421
13674TIP3    H162437   5.894   4.856  17.054  0.2201  0.5356 -0.6631
13674TIP3    H262438   5.894   4.962  16.946 -1.3562  0.1316 -1.0866
13675TIP3   OH262439   6.709   3.981  14.797  0.0733  0.3602  0.1047
13675TIP3    H162440   6.737   4.070  14.822 -1.6602  0.3730  2.3095
13675TIP3    H262441   6.666   3.947  14.875 -1.3310 -1.5783 -1.4151
13676TIP3   OH262442   4.605   4.090  12.931 -0.4756  0.4746  0.0758
13676TIP3    H162443   4.593   4.137  13.013  0.0469 -0.6928  0.8490
13676TIP3    H262444   4.699   4.095  12.914 -0.6038  0.8492 -0.5446
13677TIP3   OH262445   4.606   4.356   2.180 -0.1216 -0.2627  0.2097
13677TIP3    H162446   4.530   4.384   2.129  0.2564  0.6276  0.1056
13677TIP3    H262447   4.578   4.277   2.224 -0.9114 -0.2793 -0.3029
13678TIP3   OH262448   5.179   2.514  13.564 -0.6132  0.7395 -0.2957
13678TIP3    H162449   5.138   2.600  13.563 -0.9669  0.6110 -3.3558
13678TIP3    H262450   5.271   2.531  13.542 -0.6551  0.3483 -0.7781
13679TIP3   OH262451   2.631   1.839  15.291  0.0482 -0.2916  0.5359
13679TIP3    H162452   2.589   1.875  15.369  0.3343  0.0508  0.5384
13679TIP3    H262453   2.566   1.780  15.253 -1.1048  1.5125 -0.4203
13680TIP3   OH262454   1.784   3.060   4.223  0.5228 -0.0281  0.4223
13680TIP3    H162455   1.749   3.012   4.299 -0.7573  0.3518  0.1063
13680TIP3    H262456   1.774   2.999   4.150  0.2253  0.1905  0.2774
13681TIP3   OH262457   5.313   4.977  11.377  0.6069  0.1589  0.3429
13681TIP3    H162458   5.326   4.947  11.287  1.7849  0.0285  0.5343
13681TIP3    H262459   5.230   4.938  11.403  0.6088 -0.4042 -0.4463
13682TIP3   OH262460   2.559   0.677  11.172  0.0944  0.0825  0.2852
13682TIP3    H162461   2.468   0.667  11.197 -0.1651  0.4460 -0.4583
13682TIP3    H262462   2.588   0.589  11.150  0.2802 -0.2129  1.6546
13683TIP3   OH262463   3.013   5.386  11.627  0.0114  0.4689  0.1762
13683TIP3    H162464   3.085   5.359  11.570 -0.2482  1.2455 -0.5402
13683TIP3    H262465   2.971   5.304  11.653 -0.1054  0.1121 -1.0699
13684TIP3   OH262466   0.242   2.746  14.352  0.3533 -0.3081 -0.1093
13684TIP3    H162467   0.332   2.755  14.386  0.3345 -2.2798  0.6120
13684TIP3    H262468   0.190   2.728  14.430 -0.4219 -0.6251 -0.6934
13685TIP3   OH262469   6.279   1.760  15.557 -0.5314  0.2392 -0.0694
13685TIP3    H162470   6.316   1.778  15.643 -0.6367  0.7135 -0.1206
13685TIP3    H262471   6.321   1.823  15.499 -1.2164  0.6037 -0.1740
13686TIP3   OH262472   2.678   2.220   3.518 -0.4621  0.3403 -0.4411
13686TIP3    H162473   2.583   2.226   3.524 -0.4943 -0.0834 -0.5160
13686TIP3    H262474   2.706   2.307   3.488 -0.9444  0.0375 -1.8287
13687TIP3   OH262475   4.325   4.652   0.589  0.3573 -0.2491 -0.7005
13687TIP3    H162476   4.278   4.572   0.563 -0.8861  0.4075 -0.5481
13687TIP3    H262477   4.416   4.635   0.566 -0.1258 -1.1372 -2.0734
13688TIP3   OH262478   1.761   3.051   1.163 -0.0388 -0.1227 -0.2408
13688TIP3    H162479   1.832   3.007   1.117  0.7850  1.2225 -0.3003
13688TIP3    H262480   1.797   3.068   1.251  0.5537  2.3932 -0.8766
13689TIP3   OH262481   2.948   0.597  14.058 -0.5211  0.0176 -0.4303
13689TIP3    H162482   3.005   0.565  14.128  1.8100  0.7822 -1.8708
13689TIP3    H262483   2.879   0.531  14.052  0.3129 -1.0919  1.2532
13690TIP3   OH262484   6.731   1.056  16.983  0.2293 -0.2869  0.1554
13690TIP3    H162485   6.675   1.068  16.906  0.0356 -0.3674  0.2842
13690TIP3    H262486   6.719   1.137  17.034  1.7138  0.5444 -0.7577
13691TIP3   OH262487   4.575   6.589  15.838 -0.1238  0.5582 -0.5265
13691TIP3    H162488   4.556   6.549  15.923 -1.4427  1.1622 -0.5109
13691TIP3    H262489   4.670   6.590  15.832 -0.0348 -0.6416  0.3883
13692TIP3   OH262490   4.920   5.094   4.042 -0.4037 -0.2736  0.2564
13692TIP3    H162491   4.904   4.999   4.047  1.0133 -0.5179  0.6582
13692TIP3    H262492   4.982   5.103   3.970  0.1988  0.2483  0.8369
13693TIP3   OH262493   5.351   6.174   2.488 -0.4288 -0.1715 -0.7074
13693TIP3    H162494   5.398   6.156   2.406 -0.1986 -1.1026 -0.3877
13693TIP3    H262495   5.410   6.230   2.538 -0.3780  0.0267 -0.9841
13694TIP3   OH262496   4.049   6.462  17.005 -0.2139  0.1971  0.0145
13694TIP3    H162497   4.125   6.452  17.064  0.8832 -1.9399 -1.6087
13694TIP3    H262498   3.974   6.438  17.059  0.4384  0.8905  1.2649
13695TIP3   OH262499   4.048   3.109   4.598  0.1467 -0.0047 -0.4995
13695TIP3    H162500   4.034   3.014   4.601  0.7809 -0.1007 -0.3224
13695TIP3    H262501   3.960   3.146   4.603 -0.0273 -0.5378  1.3561
13696TIP3   OH262502   5.626   3.590   1.730 -0.3546  0.0176 -0.2685
13696TIP3    H162503   5.560   3.572   1.663  0.1546 -0.0779 -0.7491
13696TIP3    H262504   5.648   3.682   1.717 -0.5210  0.0998  0.0126
13697TIP3   OH262505   5.386   0.978   3.326 -0.4634  0.4470  0.1851
13697TIP3    H162506   5.405   0.889   3.297 -0.5497  0.2438  0.7235
13697TIP3    H262507   5.314   0.967   3.389 -0.8917  0.9673 -0.2132
13698TIP3   OH262508   0.464   5.238  16.838 -0.1379 -0.9177 -0.0053
13698TIP3    H162509   0.559   5.251  16.827 -0.0494  1.1483  2.2639
13698TIP3    H262510   0.430   5.237  16.749  1.8225  0.2501 -0.8474
13699TIP3   OH262511   2.112   2.646   2.242  0.1284  0.2396  0.6385
13699TIP3    H162512   2.135   2.559   2.276 -1.4992 -0.3047  0.4507
13699TIP3    H262513   2.113   2.635   2.146  0.9592  0.7333  0.5815
13700TIP3   OH262514   3.190   4.907   2.731 -0.5869 -0.4682  0.0673
13700TIP3    H162515   3.274   4.947   2.708 -0.2628  1.1110  3.3507
13700TIP3    H262516   3.208   4.813   2.734  0.8883 -0.2017  0.0546
13701TIP3   OH262517   5.289   6.477  10.612 -0.0857 -0.6968  0.3303
13701TIP3    H162518   5.225   6.495  10.543  0.1815  0.8488  0.4436
13701TIP3    H262519   5.248   6.409  10.665 -1.3282 -0.2575 -0.0231
13702TIP3   OH262520   6.714   1.691  12.873 -0.4861 -0.1407  0.4225
13702TIP3    H162521   6.622   1.669  12.886 -1.3857  1.8070 -1.8440
13702TIP3    H262522   6.714   1.784  12.848  2.0950 -0.0622  0.3685
13703TIP3   OH262523   0.445   2.835  12.804 -0.3132 -0.4951  0.3009
13703TIP3    H162524   0.429   2.823  12.711 -1.5633  0.8280  0.3123
13703TIP3    H262525   0.509   2.768  12.826  0.9216 -0.0845 -1.7615
13704TIP3   OH262526   2.287   1.415  13.313 -0.7542  0.2442 -0.7432
13704TIP3    H162527   2.300   1.494  13.260  0.5415  1.5939  1.4603
13704TIP3    H262528   2.332   1.346  13.264  0.0246  1.3367 -1.6182
13705TIP3   OH262529   4.195   2.055   1.702  0.0428 -0.0679  0.4026
13705TIP3    H162530   4.271   1.998   1.708 -0.1647 -0.2106  1.9235
13705TIP3    H262531   4.168   2.049   1.610  1.5389 -0.4105 -0.0375
13706TIP3   OH262532   3.942   6.675  17.213  0.6674  0.0316  0.8998
13706TIP3    H162533   3.923   6.694  17.122 -0.8556 -0.7465  1.0378
13706TIP3    H262534   4.024   6.625  17.210 -1.1290 -3.1407 -0.4115
13707TIP3   OH262535   4.213   6.446  14.636 -0.5833  0.3193  0.0816
13707TIP3    H162536   4.307   6.466  14.638 -0.6005  0.4681 -0.5206
13707TIP3    H262537   4.205   6.369  14.580 -0.7015 -0.4191  1.0801
13708TIP3   OH262538   0.972   3.365  17.160 -0.0171 -0.0776 -0.3613
13708TIP3    H162539   0.953   3.458  17.168  0.9887  0.1286 -0.2617
13708TIP3    H262540   0.888   3.322  17.177 -0.9421  0.8460 -2.2883
13709TIP3   OH262541   3.285   2.054  17.147 -0.2682 -0.8796 -0.6202
13709TIP3    H162542   3.247   2.101  17.221 -0.4435  0.0847 -1.2936
13709TIP3    H262543   3.233   2.082  17.071  0.6148 -0.9615 -1.2805
13710TIP3   OH262544   3.626   5.413   4.029  0.1970  0.3121  0.0584
13710TIP3    H162545   3.655   5.487   3.976 -0.1951  0.5207  0.1304
13710TIP3    H262546   3.704   5.357   4.038  0.3267  0.4007 -0.5237
13711TIP3   OH262547   1.491   0.115   6.461  0.7423  0.5452 -0.1537
13711TIP3    H162548   1.400   0.133   6.486  0.2774 -0.4210 -1.0566
13711TIP3    H262549   1.536   0.097   6.543  0.0756  0.8403  0.2838
13712TIP3   OH262550   0.233   3.458   0.422 -0.1665  0.8600  0.1419
13712TIP3    H162551   0.233   3.368   0.390 -0.4434 -0.4074  3.3075
13712TIP3    H262552   0.141   3.477   0.443 -0.0727  1.7725 -0.2107
13713TIP3   OH262553   3.778   4.447   6.678 -0.3210  0.3629  0.4257
13713TIP3    H162554   3.788   4.368   6.731 -0.2647  0.5406  0.6843
13713TIP3    H262555   3.691   4.439   6.638 -0.0753 -0.1132 -0.0282
13714TIP3   OH262556   0.706   5.830   0.020  0.3816  0.0646 -0.4080
13714TIP3    H162557   0.761   5.907   0.009 -1.0060  1.0318 -0.7711
13714TIP3    H262558   0.649   5.851   0.093  0.6056 -1.0106  0.0963
13715TIP3   OH262559   2.984   2.677  14.687 -0.2867 -0.3449 -0.0377
13715TIP3    H162560   3.038   2.673  14.608 -2.8105 -0.1483 -1.9260
13715TIP3    H262561   2.944   2.764  14.684 -1.1706 -0.6997  0.9348
13716TIP3   OH262562   2.008   5.773   1.111 -0.0300 -0.0848 -0.2859
13716TIP3    H162563   2.042   5.838   1.172 -1.2655  1.2586 -0.9801
13716TIP3    H262564   1.928   5.812   1.076 -0.4613 -1.7088 -1.2199
13717TIP3   OH262565   0.956   2.909  13.514  0.0834  0.2108 -0.2271
13717TIP3    H162566   0.979   2.949  13.430 -0.7836 -1.5503 -1.3492
13717TIP3    H262567   0.993   2.821  13.510 -1.9312 -0.7034  0.2689
13718TIP3   OH262568   2.171   0.191  13.226  0.2484 -0.0924 -0.4003
13718TIP3    H162569   2.259   0.180  13.262  0.5598 -0.1589 -1.1801
13718TIP3    H262570   2.117   0.131  13.277  0.7986 -0.6503 -0.4679
13719TIP3   OH262571   3.899   4.398  16.832  0.3112  0.3730 -0.3328
13719TIP3    H162572   3.958   4.369  16.902  1.5146  1.4433 -0.8572
13719TIP3    H262573   3.888   4.492  16.848 -3.8617 -0.2207  1.6313
13720TIP3   OH262574   5.706   2.118   2.172 -0.5807  0.0765  0.3908
13720TIP3    H162575   5.791   2.073   2.176 -0.5052  0.1582 -0.2467
13720TIP3    H262576   5.694   2.153   2.260 -1.3536 -2.4516  1.3834
13721TIP3   OH262577   2.049   5.784   5.178  0.3679  0.1464 -0.6507
13721TIP3    H162578   2.049   5.688   5.179  0.7608  0.1527 -0.1174
13721TIP3    H262579   2.000   5.808   5.257 -0.1236  0.3835 -1.0261
13722TIP3   OH262580   6.041   4.659  13.399 -0.3786 -0.2047  0.2089
13722TIP3    H162581   6.031   4.631  13.490  0.0401 -1.1241 -0.0161
13722TIP3    H262582   6.097   4.592  13.359 -0.6125  0.1499 -0.7434
13723TIP3   OH262583   0.097   0.949   1.297  0.4813  0.7274  0.5100
13723TIP3    H162584   0.162   1.005   1.256  1.2408  0.0662  0.7739
13723TIP3    H262585   0.070   0.888   1.228  3.0521 -1.5398  1.3011
13724TIP3   OH262586   2.640   3.364   1.932 -0.3319 -0.9499 -0.0380
13724TIP3    H162587   2.679   3.436   1.982  3.2392 -2.5204 -0.2619
13724TIP3    H262588   2.676   3.373   1.844 -2.8703 -0.9067 -1.1659
13725TIP3   OH262589   1.453   0.788   3.569 -0.2813  0.0457 -0.0902
13725TIP3    H162590   1.470   0.792   3.475 -0.1326  2.1323 -0.0043
13725TIP3    H262591   1.459   0.878   3.600 -0.8188 -0.5160  1.8549
13726TIP3   OH262592   1.222   1.290   2.585 -0.8460 -0.1188  0.1395
13726TIP3    H162593   1.218   1.204   2.626 -1.7224  0.5230  1.4708
13726TIP3    H262594   1.141   1.295   2.534 -0.0557 -0.6643 -1.2492
13727TIP3   OH262595   0.712   5.329  16.714  0.3553  0.8426 -0.3220
13727TIP3    H162596   0.722   5.303  16.622  1.7679  2.3944 -0.6432
13727TIP3    H262597   0.785   5.388  16.731  0.4914  0.0961  2.0148
13728TIP3   OH262598   1.847   6.618  13.748 -0.3179  0.4027  0.2755
13728TIP3    H162599   1.757   6.639  13.721 -0.2142  0.2703 -0.1764
13728TIP3    H262600   1.839   6.591  13.840 -0.3084  3.6654  1.3656
13729TIP3   OH262601   6.720   4.286  13.394  0.1130  0.4115  0.1644
13729TIP3    H162602   6.767   4.218  13.442  0.7675 -0.1171 -1.1596
13729TIP3    H262603   6.783   4.358  13.385  0.1493  0.3286 -0.2733
13730TIP3   OH262604   0.793   2.810  16.160 -0.2412 -0.4738 -0.3393
13730TIP3    H162605   0.866   2.869  16.141  1.3268 -1.9378  0.7852
13730TIP3    H262606   0.717   2.852  16.121  1.0488  1.5516 -0.8120
13731TIP3   OH262607   0.705   4.305   4.248 -0.3704 -0.2254  0.2154
13731TIP3    H162608   0.676   4.221   4.283  0.2558 -0.5746 -0.0831
13731TIP3    H262609   0.653   4.318   4.169 -2.2968  0.9002  1.5903
13732TIP3   OH262610   1.406   5.033  15.765  0.1277  0.2783  0.8664
13732TIP3    H162611   1.410   5.089  15.688 -0.2229  0.5531  1.0407
13732TIP3    H262612   1.424   4.945  15.733 -0.4489  0.3268  0.3969
13733TIP3   OH262613   5.019   5.163  16.356  0.1870  0.1903  0.0174
13733TIP3    H162614   5.038   5.147  16.264 -1.7784 -0.8693 -0.2592
13733TIP3    H262615   4.924   5.157  16.363  0.3832 -1.6726  2.4365
13734TIP3   OH262616   3.979   4.124  17.305  0.1309  0.4880 -0.0216
13734TIP3    H162617   3.887   4.148  17.291 -0.5677  0.3737  3.4358
13734TIP3    H262618   3.977   4.030  17.321  0.7598  0.5766  0.6099
13735TIP3   OH262619   3.371   5.905  14.094  0.2904  0.4301 -0.0461
13735TIP3    H162620   3.294   5.878  14.144  0.0752 -0.3033 -0.7587
13735TIP3    H262621   3.430   5.941  14.160 -0.3159  0.2179  0.6291
13736TIP3   OH262622   4.254   6.312   5.022  0.9112 -0.3984  0.6920
13736TIP3    H162623   4.165   6.284   5.046  0.5709 -1.9148 -1.9722
13736TIP3    H262624   4.248   6.406   5.011 -0.0118 -0.3031  1.7991
13737TIP3   OH262625   1.368   1.940  11.945  0.6029 -0.1912  0.2190
13737TIP3    H162626   1.350   1.894  12.027 -0.3823  1.2962  0.8880
13737TIP3    H262627   1.295   1.916  11.888  0.8748 -0.6127  0.0461
13738TIP3   OH262628   3.741   6.325   0.333 -0.0182 -0.1337  0.0220
13738TIP3    H162629   3.780   6.342   0.248  0.1387 -0.2812  0.0629
13738TIP3    H262630   3.647   6.336   0.320  0.1185  1.5443  0.2207
13739TIP3   OH262631   0.470   4.969   4.400 -0.2208  0.3798 -0.0377
13739TIP3    H162632   0.447   5.020   4.477  0.8350 -0.6240  0.9831
13739TIP3    H262633   0.402   4.902   4.394 -1.4002  1.6213 -1.1653
13740TIP3   OH262634   0.248   4.316   4.632 -0.3516  1.3054  0.6272
13740TIP3    H162635   0.298   4.393   4.604  0.0119  1.1166  0.7560
13740TIP3    H262636   0.248   4.258   4.557  3.3816 -0.6415  1.9203
13741TIP3   OH262637   6.577   0.582   3.079 -0.4043 -0.0004  0.2427
13741TIP3    H162638   6.647   0.518   3.087 -1.3107 -1.3327 -1.7319
13741TIP3    H262639   6.546   0.573   2.989 -2.0336  1.6951  0.5642
13742TIP3   OH262640   2.109   5.245   4.976  0.0578 -0.0731  0.3444
13742TIP3    H162641   2.014   5.237   4.965 -0.1756  2.3521  0.0708
13742TIP3    H262642   2.141   5.274   4.890  1.1323 -1.3471  0.2911
13743TIP3   OH262643   4.630   2.403   5.898 -0.6836  0.8425  0.7202
13743TIP3    H162644   4.541   2.437   5.893 -1.2054 -0.4230  0.8899
13743TIP3    H262645   4.642   2.380   5.990 -1.0467 -1.1120  0.3225
13744TIP3   OH262646   2.114   3.039  11.252 -0.7197 -0.1047  0.0262
13744TIP3    H162647   2.188   2.984  11.275 -1.1211 -0.7089 -0.0891
13744TIP3    H262648   2.112   3.037  11.156 -1.1156 -0.4122  0.0386
13745TIP3   OH262649   4.464   1.373   6.047  0.0839  0.3887 -0.2094
13745TIP3    H162650   4.421   1.303   6.096  0.5278  0.7215  0.6823
13745TIP3    H262651   4.505   1.328   5.973  0.9525 -0.4224  0.7274
13746TIP3   OH262652   0.858   1.496   1.795 -0.5069 -0.9058  0.8731
13746TIP3    H162653   0.862   1.403   1.818  0.5780 -0.6766  1.6977
13746TIP3    H262654   0.882   1.542   1.876  2.4147 -0.0312 -0.3288
13747TIP3   OH262655   5.949   3.735   4.399  0.0616  0.3784  0.2243
13747TIP3    H162656   6.000   3.815   4.406 -0.3333  0.5964  0.6540
13747TIP3    H262657   5.858   3.764   4.395 -0.0628 -0.0301 -0.0164
13748TIP3   OH262658   6.510   5.684  16.057  0.0538 -0.1392  0.3428
13748TIP3    H162659   6.558   5.643  15.984 -1.2158 -0.5477 -0.3055
13748TIP3    H262660   6.432   5.629  16.067 -0.4229  0.6672  1.1632
13749TIP3   OH262661   2.029   0.666   1.030  0.1295  0.2723  0.6812
13749TIP3    H162662   2.069   0.691   0.947  1.1663 -1.4876  0.6144
13749TIP3    H262663   2.085   0.706   1.096 -0.8341  1.8832  0.5988
13750TIP3   OH262664   0.773   3.327   2.430 -0.3724 -0.0090  0.1333
13750TIP3    H162665   0.799   3.267   2.500 -0.7087 -0.4726 -0.1303
13750TIP3    H262666   0.731   3.270   2.365  0.0009  0.3995 -0.4780
13751TIP3   OH262667   1.393   5.323  12.665 -0.6549 -0.0308  0.1570
13751TIP3    H162668   1.361   5.323  12.755  1.2623 -0.1659  0.9054
13751TIP3    H262669   1.441   5.406  12.657 -1.1701  0.1807 -0.8992
13752TIP3   OH262670   1.217   5.174  16.247 -0.2423 -0.4247  0.2941
13752TIP3    H162671   1.276   5.235  16.203 -0.0778 -0.8466 -0.0723
13752TIP3    H262672   1.183   5.223  16.322  1.5042 -0.5753  1.2220
13753TIP3   OH262673   2.606   4.342  13.884 -0.5577  1.0813  0.7688
13753TIP3    H162674   2.679   4.341  13.946 -0.7401 -1.8872  1.0609
13753TIP3    H262675   2.631   4.409  13.820  1.0910  2.0699  2.3351
13754TIP3   OH262676   0.218   5.061   2.764 -0.3951  0.2889  0.1328
13754TIP3    H162677   0.242   5.078   2.673 -1.7360 -0.9491 -0.4898
13754TIP3    H262678   0.125   5.037   2.760 -0.6599  0.8924  1.9268
13755TIP3   OH262679   3.597   0.778   0.676 -0.5175  0.6040 -0.2622
13755TIP3    H162680   3.677   0.779   0.623 -0.2583 -1.3038  0.0345
13755TIP3    H262681   3.619   0.832   0.752 -0.1946  1.6876 -1.0958
13756TIP3   OH262682   1.526   5.656   4.965  0.1687  0.2203 -0.3148
13756TIP3    H162683   1.514   5.574   5.013  1.7132 -0.0283 -0.3209
13756TIP3    H262684   1.592   5.704   5.015  2.2732 -0.2987 -2.4189
13757TIP3   OH262685   2.844   1.513  15.297 -0.4428 -0.1259 -0.1277
13757TIP3    H162686   2.877   1.597  15.266 -1.0631 -0.3424 -1.4640
13757TIP3    H262687   2.891   1.448  15.245 -1.3532 -0.5152 -0.4893
13758TIP3   OH262688   0.617   5.244  16.465  0.6675  0.4467  0.1344
13758TIP3    H162689   0.522   5.234  16.473  0.5457  1.5293  0.1765
13758TIP3    H262690   0.628   5.314  16.400  1.4849 -1.7992 -2.3198
13759TIP3   OH262691   1.323   5.121  16.808  0.1621 -0.1263  0.1579
13759TIP3    H162692   1.323   5.037  16.762  0.7673  0.4308 -0.8805
13759TIP3    H262693   1.411   5.127  16.847 -0.2420 -0.4546  1.1540
13760TIP3   OH262694   2.522   1.270   6.273 -1.0601 -0.2103 -0.0367
13760TIP3    H162695   2.541   1.193   6.327 -1.3285  1.0868  2.0160
13760TIP3    H262696   2.568   1.254   6.191 -0.2637 -2.0887  0.7189
13761TIP3   OH262697   1.251   0.622  14.238 -1.0694  0.1232 -0.3725
13761TIP3    H162698   1.213   0.708  14.255  0.5847  0.6565  0.9182
13761TIP3    H262699   1.345   0.638  14.237 -0.6028 -1.9082  1.7596
13762TIP3   OH262700   3.600   5.658   0.864 -0.0445 -0.5514 -0.0377
13762TIP3    H162701   3.644   5.741   0.847 -0.8795  0.2238  1.3621
13762TIP3    H262702   3.555   5.672   0.947 -0.4466 -2.3194  0.0781
13763TIP3   OH262703   4.334   5.252   5.173 -0.2033 -0.3861  0.4304
13763TIP3    H162704   4.351   5.330   5.226  2.0435 -0.4458 -0.1177
13763TIP3    H262705   4.306   5.186   5.236  0.2329  0.1773  1.2337
13764TIP3   OH262706   4.799   1.429   1.816  0.9074 -0.0122  0.0981
13764TIP3    H162707   4.843   1.344   1.821 -1.9591 -1.7965 -1.8231
13764TIP3    H262708   4.789   1.445   1.722 -0.3978  1.4273  0.4369
13765TIP3   OH262709   5.032   2.856  15.772  0.5504  0.0482 -0.1829
13765TIP3    H162710   5.001   2.776  15.730  1.0277 -0.6486  0.7653
13765TIP3    H262711   4.952   2.900  15.801  0.3489 -0.9066  0.7624
13766TIP3   OH262712   1.760   5.355  13.253 -0.3962 -0.8180 -0.1301
13766TIP3    H162713   1.763   5.323  13.343 -0.3502  2.7305  1.2911
13766TIP3    H262714   1.668   5.351  13.228 -0.7544  0.2243  0.9537
13767TIP3   OH262715   2.177   0.629   4.793  0.5177  0.3745 -0.0032
13767TIP3    H162716   2.177   0.547   4.842  0.0795  0.7501  0.6380
13767TIP3    H262717   2.221   0.607   4.710  1.0231 -0.3300  0.4398
13768TIP3   OH262718   3.540   1.822   3.563  0.0352 -0.3144  0.3642
13768TIP3    H162719   3.584   1.883   3.503 -1.2988 -0.7547 -1.1211
13768TIP3    H262720   3.546   1.737   3.520  0.3806 -0.9334  1.6051
13769TIP3   OH262721   6.238   2.088  14.364 -0.3863  0.1909 -0.1748
13769TIP3    H162722   6.294   2.159  14.396 -0.9096  0.9833 -0.9679
13769TIP3    H262723   6.225   2.032  14.441  1.4744 -0.0296  0.0394
13770TIP3   OH262724   5.737   6.334  13.917  0.0385  0.5018  0.1789
13770TIP3    H162725   5.821   6.337  13.963  0.1523 -0.2661  0.0255
13770TIP3    H262726   5.709   6.426  13.912 -0.5402  0.5692  2.8182
13771TIP3   OH262727   6.222   1.196  11.972  0.3184  0.3502 -0.3998
13771TIP3    H162728   6.316   1.187  11.958  0.1863 -1.7465 -0.2218
13771TIP3    H262729   6.183   1.167  11.890 -0.2012  0.3289 -0.1494
13772TIP3   OH262730   5.561   3.588  10.676 -0.1496  0.2468  0.4721
13772TIP3    H162731   5.611   3.654  10.725 -1.0848  1.4750 -0.1620
13772TIP3    H262732   5.592   3.595  10.586  0.3866 -0.8483  0.5521
13773TIP3   OH262733   0.246   6.420   1.538 -0.1694 -0.0441 -0.6528
13773TIP3    H162734   0.338   6.399   1.525  0.2832  1.0879  0.5417
13773TIP3    H262735   0.227   6.486   1.471  0.7782  2.0242  1.0015
13774TIP3   OH262736   1.962   0.730   1.743  0.1384  0.5611  0.2437
13774TIP3    H162737   1.909   0.723   1.823 -1.1182  0.8085 -0.5325
13774TIP3    H262738   1.976   0.825   1.733  0.2690  0.5311  0.1461
13775TIP3   OH262739   0.803   4.301   4.762  0.6962  0.1333 -0.1338
13775TIP3    H162740   0.802   4.382   4.812  0.5937  0.8390 -1.2522
13775TIP3    H262741   0.787   4.233   4.827 -0.1747  1.0873  0.6887
13776TIP3   OH262742   2.641   1.146  16.415 -0.1713 -0.2474  0.5483
13776TIP3    H162743   2.638   1.139  16.319  1.7424  1.6196  0.2936
13776TIP3    H262744   2.575   1.083  16.445  0.3186 -2.0904 -1.9197
13777TIP3   OH262745   4.349   3.216   1.177  0.3296 -0.6578  0.4919
13777TIP3    H162746   4.282   3.275   1.212  1.0940  0.0260  0.8305
13777TIP3    H262747   4.305   3.170   1.106  0.0018  1.1016 -0.5202
13778TIP3   OH262748   4.820   0.159   1.458  0.1948  0.3873  0.1265
13778TIP3    H162749   4.727   0.142   1.476  0.5882  0.0167  2.1011
13778TIP3    H262750   4.840   0.237   1.510  0.9308  0.6042 -0.4667
13779TIP3   OH262751   1.563   6.318   2.057  0.7025  0.4343  0.4129
13779TIP3    H162752   1.638   6.353   2.106 -0.7997  1.4147  2.0972
13779TIP3    H262753   1.494   6.307   2.122  0.0705 -2.8329 -0.5895
13780TIP3   OH262754   2.782   3.651  14.469 -0.1160 -0.1617 -0.7060
13780TIP3    H162755   2.858   3.709  14.465  0.6619 -1.1663 -0.9800
13780TIP3    H262756   2.769   3.636  14.563  1.5021 -1.8048 -0.6829
13781TIP3   OH262757   0.471   1.376   1.562 -0.1435 -0.0788 -0.5264
13781TIP3    H162758   0.548   1.412   1.607  2.0276  0.0540 -3.9653
13781TIP3    H262759   0.441   1.447   1.506 -3.3119  0.0660  1.1417
13782TIP3   OH262760   0.274   1.470  12.837  0.0750 -0.4534 -0.3678
13782TIP3    H162761   0.344   1.534  12.822 -0.8819  0.3750 -1.5465
13782TIP3    H262762   0.232   1.498  12.918 -0.3447  0.4463 -0.8825
13783TIP3   OH262763   2.870   4.780  13.345  0.0068  0.0253 -0.1482
13783TIP3    H162764   2.796   4.812  13.396 -0.3476 -0.3937 -0.3926
13783TIP3    H262765   2.916   4.859  13.316 -0.9193  0.3254 -0.8446
13784TIP3   OH262766   2.384   4.815   5.046 -0.1016  0.0630  0.3077
13784TIP3    H162767   2.300   4.796   5.088  0.7362 -1.5235  1.4129
13784TIP3    H262768   2.362   4.841   4.957 -1.7428 -1.6127  0.1572
13785TIP3   OH262769   1.179   3.277   2.535 -0.5823  0.2201 -0.3463
13785TIP3    H162770   1.260   3.231   2.556 -0.8031 -0.2649 -0.5394
13785TIP3    H262771   1.113   3.240   2.594 -0.9822 -0.4472 -1.1881
13786TIP3   OH262772   3.545   1.254   0.052  0.2805  0.1928 -0.1058
13786TIP3    H162773   3.616   1.317   0.041  0.1285  0.3864  0.0155
13786TIP3    H262774   3.570   1.202   0.128  0.3102  0.2358 -0.0864
13787TIP3   OH262775   4.324   1.094   3.748 -0.1732  0.2043 -0.4936
13787TIP3    H162776   4.315   1.085   3.843 -0.2568 -1.4592 -0.6234
13787TIP3    H262777   4.418   1.085   3.731 -0.1465  0.6004 -0.5608
13788TIP3   OH262778   6.057   2.271   0.186 -0.4676 -0.7054 -0.1391
13788TIP3    H162779   6.089   2.272   0.276 -0.1840  1.2577 -0.2261
13788TIP3    H262780   6.121   2.323   0.137 -1.2294 -0.7880 -1.2572
13789TIP3   OH262781   0.835   4.055   3.230 -0.0518  0.4052  0.2342
13789TIP3    H162782   0.918   4.080   3.270  0.3122 -2.1858  1.3211
13789TIP3    H262783   0.768   4.093   3.287  0.3928  1.3544  0.1357
13790TIP3   OH262784   0.817   4.959  12.653  0.1328  0.2140  0.1397
13790TIP3    H162785   0.833   5.014  12.576 -0.4493 -0.2875 -0.3447
13790TIP3    H262786   0.889   4.896  12.652 -0.7136 -0.7572 -0.8774
13791TIP3   OH262787   2.911   0.903  14.123  0.0584 -0.1407 -0.2016
13791TIP3    H162788   2.987   0.912  14.066 -1.3516  1.0665 -2.0381
13791TIP3    H262789   2.900   0.809  14.133  0.8118 -0.3806 -1.3347
13792TIP3   OH262790   1.860   6.417  11.930  0.0880 -0.0201 -0.5890
13792TIP3    H162791   1.948   6.379  11.918  0.0171 -0.2640 -0.3392
13792TIP3    H262792   1.804   6.365  11.873 -0.1297 -0.7434  0.2542
13793TIP3   OH262793   1.754   0.137   3.415 -0.6318  0.1566 -0.7378
13793TIP3    H162794   1.730   0.049   3.384 -1.2807 -0.4636  1.3294
13793TIP3    H262795   1.672   0.185   3.417 -0.4156  0.5382 -1.0694
13794TIP3   OH262796   0.994   1.216   6.664 -0.3337 -0.8459 -0.2720
13794TIP3    H162797   1.063   1.219   6.598 -1.1412 -0.3278 -1.1148
13794TIP3    H262798   0.925   1.162   6.625 -1.0536 -0.0747 -0.0823
13795TIP3   OH262799   1.394   0.564   1.287 -0.4524 -0.0409  0.2367
13795TIP3    H162800   1.448   0.496   1.328 -2.0140 -0.8822  0.9914
13795TIP3    H262801   1.311   0.521   1.270 -1.3774  1.6113  0.4021
13796TIP3   OH262802   4.476   5.336   3.649 -0.3235  0.3647  0.4567
13796TIP3    H162803   4.459   5.428   3.672  0.8536  1.1313 -1.5036
13796TIP3    H262804   4.557   5.339   3.597 -0.0736 -1.8406  0.6227
13797TIP3   OH262805   3.989   6.105   1.980 -0.1436 -0.0852 -0.4343
13797TIP3    H162806   4.012   6.197   1.991  0.7092 -0.1004 -1.8744
13797TIP3    H262807   3.969   6.075   2.069 -0.3930  1.4587  0.0723
13798TIP3   OH262808   4.665   2.013  12.535 -0.8443 -0.1813  0.3877
13798TIP3    H162809   4.758   2.000  12.557 -0.6464  1.7668  0.7957
13798TIP3    H262810   4.621   1.936  12.572  0.4206 -0.4785  1.3421
13799TIP3   OH262811   4.865   4.758   4.532  0.4616 -0.0082 -0.1634
13799TIP3    H162812   4.868   4.681   4.475 -0.0720 -0.2330  0.1000
13799TIP3    H262813   4.940   4.748   4.590  2.4292  1.4211 -2.3013
13800TIP3   OH262814   1.102   3.353  15.861 -0.0519 -0.1294 -0.1667
13800TIP3    H162815   1.064   3.361  15.949  1.3206 -0.9385  0.5431
13800TIP3    H262816   1.097   3.260  15.841  4.8033 -1.1239  1.6497
13801TIP3   OH262817   6.177   4.458   0.249  0.5583  0.5751 -0.2410
13801TIP3    H162818   6.229   4.380   0.229  2.1037  1.8085 -1.3222
13801TIP3    H262819   6.191   4.474   0.342 -1.2452 -1.4018  0.4610
13802TIP3   OH262820   3.771   4.850   3.137 -0.0348 -0.3169  0.0394
13802TIP3    H162821   3.738   4.779   3.082  2.2943 -0.8290 -0.7900
13802TIP3    H262822   3.758   4.929   3.085 -0.7360 -0.3764  0.1074
13803TIP3   OH262823   0.875   6.086   6.326 -0.5430 -0.2559 -0.2453
13803TIP3    H162824   0.838   6.095   6.238  2.3309 -0.7737 -1.6138
13803TIP3    H262825   0.944   6.021   6.317  0.0214 -0.1487  2.3922
13804TIP3   OH262826   5.407   1.570   5.057 -0.1316 -0.2611 -0.5871
13804TIP3    H162827   5.363   1.584   5.141 -0.8947  0.4802 -1.0909
13804TIP3    H262828   5.348   1.513   5.008  0.5979 -1.1929 -0.4093
13805TIP3   OH262829   3.868   5.911  11.188  0.0397  0.4745  0.7904
13805TIP3    H162830   3.862   5.826  11.232  0.4783  0.2766  0.4782
13805TIP3    H262831   3.849   5.893  11.096 -0.7518  0.8681  0.8751
13806TIP3   OH262832   4.351   0.743   5.246  0.9321  0.1044  0.1220
13806TIP3    H162833   4.426   0.722   5.301  0.5570 -0.8805  0.2720
13806TIP3    H262834   4.284   0.775   5.307 -0.0764 -2.5339  0.5334
13807TIP3   OH262835   5.645   4.223  12.010 -0.3106  0.1967 -0.3044
13807TIP3    H162836   5.564   4.247  12.056  0.0556  0.7406  0.0658
13807TIP3    H262837   5.715   4.243  12.073  0.1802  0.7144 -1.0016
13808TIP3   OH262838   4.399   4.174  11.025  0.3275 -0.9472 -0.0852
13808TIP3    H162839   4.406   4.162  11.120  0.9165 -1.1154 -0.1480
13808TIP3    H262840   4.409   4.086  10.989  2.4618 -0.6239 -0.4240
13809TIP3   OH262841   3.567   5.418   5.899  0.3191 -0.3651  0.1756
13809TIP3    H162842   3.561   5.429   5.994  0.3255 -1.6719  0.3504
13809TIP3    H262843   3.575   5.507   5.865  1.3302  0.0737  1.4681
13810TIP3   OH262844   0.334   4.428   2.487 -0.1666  0.6016 -0.6088
13810TIP3    H162845   0.344   4.523   2.483 -1.3117  0.9512  2.3514
13810TIP3    H262846   0.423   4.394   2.495  0.3961  1.2087 -3.4829
13811TIP3   OH262847   2.746   0.662   0.659 -0.3010 -0.0365 -0.1700
13811TIP3    H162848   2.661   0.649   0.617 -0.7466 -0.4692  0.8379
13811TIP3    H262849   2.749   0.596   0.728  1.4555 -1.0003 -1.0833
13812TIP3   OH262850   4.521   6.367   4.444  0.4229 -0.2902  0.1696
13812TIP3    H162851   4.548   6.450   4.484  0.6271 -1.0306  1.6417
13812TIP3    H262852   4.546   6.301   4.508 -4.1391 -1.1673  1.4466
13813TIP3   OH262853   3.638   3.970   2.148  0.1510  0.0628  0.3523
13813TIP3    H162854   3.653   3.970   2.242  0.1344  0.3728  0.3568
13813TIP3    H262855   3.690   4.043   2.115  0.3288 -0.1792  0.0921
13814TIP3   OH262856   3.315   3.338  17.310 -0.0191 -0.0268 -0.4178
13814TIP3    H162857   3.371   3.407  17.275  0.2741 -0.4057 -0.7032
13814TIP3    H262858   3.347   3.258  17.270 -1.7547 -0.0828 -1.8245
13815TIP3   OH262859   0.650   6.387  15.859  0.3520  0.2164 -0.1582
13815TIP3    H162860   0.618   6.477  15.862 -2.0551 -0.5740  0.4152
13815TIP3    H262861   0.641   6.361  15.768 -0.7949 -0.0059  0.0001
13816TIP3   OH262862   6.534   5.039  17.274 -0.2122 -0.4519 -0.0176
13816TIP3    H162863   6.518   4.994  17.191  1.6365  0.6854 -1.0576
13816TIP3    H262864   6.629   5.046  17.280 -0.3690  1.9488  0.8207
13817TIP3   OH262865   5.341   2.413  16.323 -1.0000 -0.4224  0.3687
13817TIP3    H162866   5.296   2.343  16.370 -0.2258 -0.6070  0.8362
13817TIP3    H262867   5.301   2.412  16.235 -1.3785 -1.0730  0.5435
13818TIP3   OH262868   0.250   0.943   4.558 -0.2064 -0.3900 -0.9212
13818TIP3    H162869   0.276   0.970   4.470 -2.0813  1.9471 -0.8747
13818TIP3    H262870   0.326   0.965   4.612 -0.4212  1.9677 -1.4345
13819TIP3   OH262871   0.068   4.444   2.484 -0.3175  0.3362  0.4239
13819TIP3    H162872   0.048   4.475   2.395 -0.5407 -0.8266  0.0511
13819TIP3    H262873   0.162   4.428   2.483 -0.7245 -2.6605 -0.6442
13820TIP3   OH262874   3.309   2.239   0.922  0.4769 -0.5566  0.2183
13820TIP3    H162875   3.365   2.315   0.908 -0.0562 -0.0072  0.9917
13820TIP3    H262876   3.220   2.272   0.907  0.2635 -1.1269  0.1857
13821TIP3   OH262877   0.955   1.417   2.164  0.0109  0.2387  0.5142
13821TIP3    H162878   1.015   1.402   2.237 -1.1163 -0.2642  1.3620
13821TIP3    H262879   0.953   1.334   2.117  0.7971  0.5851 -0.1686
13822TIP3   OH262880   0.711   3.350   3.619 -0.4478 -0.1522 -0.1006
13822TIP3    H162881   0.741   3.349   3.710  0.6699 -1.5870 -0.4572
13822TIP3    H262882   0.770   3.411   3.575  0.5081 -1.2054 -0.3171
13823TIP3   OH262883   1.444   4.255  12.147 -0.9454  0.3607 -0.2084
13823TIP3    H162884   1.452   4.327  12.209 -1.3617  0.0885  0.1688
13823TIP3    H262885   1.439   4.297  12.061  1.1972  0.6923 -0.2268
13824TIP3   OH262886   2.205   5.487  10.785  0.4521 -0.4152 -0.6825
13824TIP3    H162887   2.218   5.460  10.876 -2.2006  0.3009  0.0154
13824TIP3    H262888   2.142   5.423  10.750 -2.5613  2.0918 -0.3194
13825TIP3   OH262889   4.591   4.379   5.929 -0.1086 -0.6955  0.3833
13825TIP3    H162890   4.655   4.311   5.907  2.2647  0.5461  2.7751
13825TIP3    H262891   4.636   4.461   5.909 -2.3380  0.2715 -1.0595
13826TIP3   OH262892   0.887   2.663  13.064  0.2965 -0.6303 -0.2826
13826TIP3    H162893   0.806   2.616  13.042  0.7234 -1.1845 -0.7028
13826TIP3    H262894   0.942   2.653  12.987  0.1096  1.2501 -0.7050
13827TIP3   OH262895   0.590   1.009  12.235  0.0698  0.0861  0.2313
13827TIP3    H162896   0.572   1.024  12.328  1.3525  0.0026  0.5093
13827TIP3    H262897   0.640   1.086  12.207 -1.4008  0.7344 -0.7325
13828TIP3   OH262898   0.129   3.884   5.864  0.5790 -0.4886  0.3411
13828TIP3    H162899   0.127   3.913   5.955 -1.6141 -0.6912  0.4279
13828TIP3    H262900   0.139   3.789   5.869 -0.6943 -0.6384  0.4675
13829TIP3   OH262901   2.777   0.674   6.186 -0.1349  0.3124 -0.7320
13829TIP3    H162902   2.864   0.703   6.211  0.4220 -1.2050 -0.8135
13829TIP3    H262903   2.737   0.646   6.269  0.3428 -1.1792 -0.9627
13830TIP3   OH262904   2.048   2.600   1.632 -0.1536  0.5339 -0.7769
13830TIP3    H162905   2.100   2.558   1.701 -1.5024 -0.9689 -0.6072
13830TIP3    H262906   2.066   2.549   1.554 -1.9325 -0.5399 -0.5385
13831TIP3   OH262907   3.421   2.618   5.002 -0.2181 -0.1352  0.1506
13831TIP3    H162908   3.325   2.626   5.005 -0.2238  0.0134 -0.3510
13831TIP3    H262909   3.443   2.629   4.910  0.5396  3.1135  0.5756
13832TIP3   OH262910   0.384   5.968   3.961  0.1203  0.3134 -0.0381
13832TIP3    H162911   0.445   5.902   3.993  0.9738  0.0831 -1.9609
13832TIP3    H262912   0.435   6.049   3.958  0.5334  0.0381 -2.0211
13833TIP3   OH262913   0.784   1.228  17.049  0.0938  0.2691 -0.0632
13833TIP3    H162914   0.703   1.206  17.004 -0.2342  1.7128 -0.2206
13833TIP3    H262915   0.757   1.264  17.133  0.6538 -1.0042  0.6860
13834TIP3   OH262916   5.698   1.313   3.724  0.1141 -0.5499  0.5609
13834TIP3    H162917   5.720   1.384   3.784 -0.7540  0.3080 -0.0991
13834TIP3    H262918   5.779   1.298   3.674 -0.0611  0.8897 -0.1920
13835TIP3   OH262919   5.628   4.728  17.103 -0.3133 -0.2492 -0.4584
13835TIP3    H162920   5.599   4.677  17.027 -0.1765 -0.8648 -0.1048
13835TIP3    H262921   5.662   4.810  17.066 -2.6247  0.5762 -0.8819
13836TIP3   OH262922   1.516   4.568  12.050  0.0611 -0.1439 -0.0948
13836TIP3    H162923   1.541   4.651  12.009  2.9160 -0.7345  0.2310
13836TIP3    H262924   1.438   4.590  12.102  1.1779  2.5624  0.6370
13837TIP3   OH262925   6.569   0.232  12.731  0.2023  0.2270 -0.0824
13837TIP3    H162926   6.510   0.158  12.744 -0.5213  0.9592  1.0689
13837TIP3    H262927   6.588   0.263  12.820  0.6677  1.2662 -0.5242
13838TIP3   OH262928   4.893   2.497  11.760 -0.1737  0.1759 -0.2095
13838TIP3    H162929   4.912   2.410  11.724  0.4288  0.8141 -1.5185
13838TIP3    H262930   4.966   2.515  11.819 -0.1779 -0.1150 -0.1167
13839TIP3   OH262931   5.525   6.752  14.275 -0.1385  0.0707 -0.1134
13839TIP3    H162932   5.486   6.839  14.275  0.2597  0.3280  2.6611
13839TIP3    H262933   5.450   6.692  14.284 -0.2943  0.1977 -0.5291
13840TIP3   OH262934   6.034   0.878  16.220 -0.6365 -0.2432  0.0229
13840TIP3    H162935   6.039   0.964  16.261 -1.0817 -0.0838 -0.2553
13840TIP3    H262936   6.123   0.861  16.189 -0.7589  0.5445 -0.7934
13841TIP3   OH262937   4.582   1.411   1.623 -0.2810 -0.7114 -0.1995
13841TIP3    H162938   4.518   1.482   1.628  0.9147  0.3375  1.0748
13841TIP3    H262939   4.609   1.409   1.531 -0.3570  0.4998 -0.2658
13842TIP3   OH262940   3.299   5.218  14.272  0.4556 -0.0962  0.3946
13842TIP3    H162941   3.270   5.268  14.349 -1.7124  0.2523 -0.5543
13842TIP3    H262942   3.250   5.257  14.199  1.9762 -0.8215 -1.0835
13843TIP3   OH262943   4.844   2.040  13.760 -0.2606  0.4216 -0.4509
13843TIP3    H162944   4.835   2.092  13.841 -0.8430  0.1017 -0.3057
13843TIP3    H262945   4.933   2.003  13.765 -0.3205  0.3423  0.0816
13844TIP3   OH262946   3.697   2.307   6.067  0.2461  0.3969 -0.6859
13844TIP3    H162947   3.652   2.333   6.147  1.9945  2.0469 -0.1609
13844TIP3    H262948   3.780   2.269   6.098  0.6429  0.4196 -1.6882
13845TIP3   OH262949   6.511   1.569   1.449 -0.6050  0.5150  0.1994
13845TIP3    H162950   6.535   1.491   1.398  0.7226  0.7291  0.4792
13845TIP3    H262951   6.584   1.629   1.438 -0.6462  0.8821  1.7162
13846TIP3   OH262952   1.069   3.361  11.492 -0.8822  0.0238  0.0916
13846TIP3    H162953   1.080   3.406  11.408 -2.4182 -0.0002 -0.1552
13846TIP3    H262954   0.979   3.379  11.517 -0.5180 -0.1966  1.6235
13847TIP3   OH262955   1.690   2.296   3.178 -0.0155 -0.2082  0.5232
13847TIP3    H162956   1.595   2.297   3.172  0.0247  0.6234 -0.2816
13847TIP3    H262957   1.710   2.363   3.244  0.0549  1.0470 -0.7127
13848TIP3   OH262958   3.452   3.099  16.433 -0.0307 -0.3896 -0.2040
13848TIP3    H162959   3.475   3.177  16.382  0.1891 -1.2632 -1.4681
13848TIP3    H262960   3.535   3.052  16.444 -0.6226 -1.9293 -2.0174
13849TIP3   OH262961   4.028   2.495  13.057 -0.3187  0.4495 -0.7706
13849TIP3    H162962   3.989   2.421  13.011  1.1250  0.2817 -1.7804
13849TIP3    H262963   4.100   2.456  13.107 -0.4804  0.9716 -0.1195
13850TIP3   OH262964   4.324   2.920   2.232  0.2132 -0.0847 -0.2749
13850TIP3    H162965   4.307   3.014   2.239 -0.2075 -0.2283  0.7445
13850TIP3    H262966   4.359   2.909   2.144  0.0869  1.0017 -0.4754
13851TIP3   OH262967   2.416   0.800  16.214  0.1726 -0.7420 -0.0616
13851TIP3    H162968   2.369   0.782  16.296 -1.0740 -1.4049 -0.8964
13851TIP3    H262969   2.477   0.727  16.205  1.8934  0.4124  1.3197
13852TIP3   OH262970   4.251   6.157   2.698  0.1362 -0.9276  0.0371
13852TIP3    H162971   4.196   6.173   2.775  1.1683 -2.8951  1.2529
13852TIP3    H262972   4.265   6.063   2.697  3.6614 -0.5407 -0.0594
13853TIP3   OH262973   1.719   6.465   5.309 -0.1677  0.3320 -0.0651
13853TIP3    H162974   1.679   6.552   5.305 -0.7533  0.0677 -0.2046
13853TIP3    H262975   1.806   6.476   5.272  0.9296  1.4666  2.6030
13854TIP3   OH262976   3.255   4.712  15.431  0.1313  0.2219  0.1495
13854TIP3    H162977   3.219   4.800  15.425  0.3881  0.3483  0.4445
13854TIP3    H262978   3.319   4.706  15.360  2.4837  1.3907  2.0555
13855TIP3   OH262979   5.468   2.729  13.534  0.8389 -0.4762  0.1076
13855TIP3    H162980   5.446   2.803  13.477 -3.2110 -0.3265  1.5225
13855TIP3    H262981   5.504   2.769  13.613 -0.4874 -0.0332  0.5067
13856TIP3   OH262982   4.528   1.959   0.199 -0.2989 -0.4769 -0.0508
13856TIP3    H162983   4.563   1.976   0.286  0.1071  1.0152 -0.4805
13856TIP3    H262984   4.496   1.869   0.203 -0.4084 -0.3884  1.6720
13857TIP3   OH262985   3.978   1.257  12.449  0.2271 -0.1153  0.2285
13857TIP3    H162986   4.022   1.228  12.529  0.7129  0.0530  0.0287
13857TIP3    H262987   3.951   1.347  12.467  0.1782 -0.1381  0.2674
13858TIP3   OH262988   1.219   1.918   2.566  0.5316  0.5690  0.0982
13858TIP3    H162989   1.161   1.922   2.490  0.3988 -0.8744  0.0944
13858TIP3    H262990   1.255   1.830   2.563  1.6525  0.9876  0.9010
13859TIP3   OH262991   5.196   6.535   0.300 -0.0162  0.1479 -0.0916
13859TIP3    H162992   5.222   6.463   0.357 -2.0414  0.0723  0.8055
13859TIP3    H262993   5.233   6.613   0.342  1.2837 -0.2266 -0.4948
13860TIP3   OH262994   1.551   4.280   0.630  0.4500  0.1578 -0.2597
13860TIP3    H162995   1.482   4.322   0.578 -0.8926  0.3133  1.5782
13860TIP3    H262996   1.545   4.187   0.606  1.9018  0.5795 -2.6023
13861TIP3   OH262997   6.133   4.218  16.988  1.0326  0.5736  0.2150
13861TIP3    H162998   6.092   4.274  16.922 -2.3009 -1.1411  0.6063
13861TIP3    H262999   6.163   4.141  16.939  0.0949  0.0697  0.3904
13862TIP3   OH263000   3.880   0.950  11.061 -0.2217 -0.1102 -0.5307
13862TIP3    H163001   3.835   0.866  11.056 -1.0592  0.3440 -0.8512
13862TIP3    H263002   3.854   0.997  10.982  2.3038 -0.5210 -1.6872
13863TIP3   OH263003   2.504   0.408   4.981 -0.8685 -0.0051 -0.4917
13863TIP3    H163004   2.523   0.493   4.942  2.3021 -0.9016 -1.1939
13863TIP3    H263005   2.531   0.416   5.073  2.2219 -0.9200 -1.1997
13864TIP3   OH263006   4.237   5.636   5.897 -0.1674 -0.2394 -0.0013
13864TIP3    H163007   4.208   5.686   5.974 -0.7367 -1.3228  0.5192
13864TIP3    H263008   4.326   5.666   5.881 -0.1385  0.2056  0.9137
13865TIP3   OH263009   0.653   3.463  12.439 -0.1376  0.3758 -0.1743
13865TIP3    H163010   0.622   3.378  12.472 -1.2808  0.2746 -1.4286
13865TIP3    H263011   0.609   3.473  12.355  0.9590  1.6525 -0.6252
13866TIP3   OH263012   3.651   2.611   1.525 -0.6149 -0.3665  0.1351
13866TIP3    H163013   3.592   2.617   1.450 -0.1665 -3.8322 -0.6938
13866TIP3    H263014   3.605   2.555   1.588  1.2604 -2.3687 -0.1392
13867TIP3   OH263015   6.358   1.709   0.147 -0.0524 -0.6480 -0.6750
13867TIP3    H163016   6.328   1.661   0.224  1.6267 -0.2054  0.3145
13867TIP3    H263017   6.416   1.648   0.101  2.6508  0.4966  0.9597
13868TIP3   OH263018   2.095   3.018  15.277 -0.4004  0.0288 -0.3413
13868TIP3    H163019   2.042   3.080  15.327 -1.0063 -1.1862  0.5950
13868TIP3    H263020   2.065   3.028  15.187 -2.4873 -0.8152  0.1942
13869TIP3   OH263021   1.057   5.812   1.738 -0.1157  0.4721 -0.3326
13869TIP3    H163022   1.136   5.772   1.777 -0.3533 -0.1359 -0.4678
13869TIP3    H263023   1.091   5.882   1.683  0.2759  0.8475  0.3608
13870TIP3   OH263024   1.258   2.365  15.537 -0.4397 -0.2446 -0.5161
13870TIP3    H163025   1.164   2.384  15.549 -0.3505 -0.4640  0.5951
13870TIP3    H263026   1.262   2.270  15.529 -0.3441 -0.2069 -0.9207
13871TIP3   OH263027   6.451   0.988   5.017  0.1929  0.7871  0.0449
13871TIP3    H163028   6.407   1.032   5.089 -0.2886  0.0630  0.1982
13871TIP3    H263029   6.543   1.011   5.027  0.2883 -0.1644  1.5112
13872TIP3   OH263030   1.539   4.919   4.014  0.5433  0.0009  0.3225
13872TIP3    H163031   1.606   4.954   4.072 -0.9915  1.4258  1.3157
13872TIP3    H263032   1.456   4.942   4.056 -0.5981 -1.1877 -1.1509
13873TIP3   OH263033   3.603   1.516  12.650 -0.2121 -0.4811 -0.7753
13873TIP3    H163034   3.586   1.431  12.609  0.8423 -0.6739 -0.8402
13873TIP3    H263035   3.606   1.498  12.744 -0.6322 -0.3956 -0.7431
13874TIP3   OH263036   5.975   2.102  14.231  0.9962  0.8747  0.5154
13874TIP3    H163037   5.989   2.178  14.174  2.4218  0.8613  0.8307
13874TIP3    H263038   6.053   2.098  14.286  1.1360 -1.0507  0.2499
13875TIP3   OH263039   4.976   4.530   3.187 -0.3992 -0.6902 -0.5671
13875TIP3    H163040   5.023   4.468   3.130  2.7290  1.1938 -0.2845
13875TIP3    H263041   4.942   4.596   3.127 -1.8997 -1.5235 -0.6734
13876TIP3   OH263042   4.514   2.695   1.744 -0.0312 -0.3982  0.4201
13876TIP3    H163043   4.532   2.733   1.830  1.4731  0.0107 -0.0322
13876TIP3    H263044   4.419   2.694   1.737 -0.1937 -0.7769  2.2230
13877TIP3   OH263045   4.820   2.390  13.074 -0.1113 -0.0797  0.2418
13877TIP3    H163046   4.828   2.306  13.119  2.2747  0.8660  1.7627
13877TIP3    H263047   4.810   2.368  12.982  1.7568 -2.0354  0.4484
13878TIP3   OH263048   5.138   4.580  15.151 -0.1113 -0.4015 -0.1021
13878TIP3    H163049   5.181   4.558  15.069 -0.0539  0.9550 -0.4585
13878TIP3    H263050   5.203   4.557  15.218 -0.3541 -1.9894 -0.3636
13879TIP3   OH263051   0.716   3.907   0.102 -0.0083  0.0687  0.8132
13879TIP3    H163052   0.747   3.817   0.090 -0.1975 -0.1934  2.1380
13879TIP3    H263053   0.621   3.901   0.097 -0.1109 -0.0889  2.4515
13880TIP3   OH263054   0.057   5.817   6.678  0.4291 -0.2611 -0.1561
13880TIP3    H163055   0.032   5.729   6.649 -1.2389  0.1143  0.0395
13880TIP3    H263056  -0.024   5.867   6.674  1.3406  1.2635 -0.1944
13881TIP3   OH263057   4.478   1.193  10.275 -1.0563  0.2583 -0.3411
13881TIP3    H163058   4.421   1.158  10.344 -0.6042  2.2610  1.1493
13881TIP3    H263059   4.459   1.287  10.274  0.0088  0.4944 -1.9583
13882TIP3   OH263060   3.336   5.670  16.880  0.1462  1.1197 -0.1824
13882TIP3    H163061   3.399   5.672  16.952  0.0853 -0.3505 -0.0571
13882TIP3    H263062   3.388   5.692  16.803  0.6181  0.8508  0.0517
13883TIP3   OH263063   5.050   0.021   3.250 -0.4051 -0.1825 -0.1745
13883TIP3    H163064   4.978   0.017   3.187 -1.5615  0.3409  1.0699
13883TIP3    H263065   5.090  -0.066   3.247 -0.6666 -0.2726 -1.3573
13884TIP3   OH263066   3.494   3.870   0.454 -0.0153 -0.2590  0.0006
13884TIP3    H163067   3.480   3.965   0.455 -0.6377 -0.3091  2.1818
13884TIP3    H263068   3.551   3.854   0.379 -1.1065  1.6391 -1.3117
13885TIP3   OH263069   4.027   5.402   0.016  0.1687  0.1691 -0.5153
13885TIP3    H163070   4.062   5.314   0.010 -0.0078  0.2168 -3.7308
13885TIP3    H263071   3.959   5.396   0.084  0.8385 -1.8752  0.0482
13886TIP3   OH263072   3.592   4.369   6.247 -0.2059 -0.3172 -0.3988
13886TIP3    H163073   3.653   4.307   6.287 -2.2339 -1.4690  1.0972
13886TIP3    H263074   3.591   4.443   6.307 -0.2743 -0.2992 -0.4220
13887TIP3   OH263075   2.101   6.266   0.690 -0.3227 -0.4276 -0.1709
13887TIP3    H163076   2.196   6.265   0.701 -0.2455 -1.1026 -0.8335
13887TIP3    H263077   2.067   6.260   0.780  0.2565 -0.1055  0.0751
13888TIP3   OH263078   1.059   3.097  10.525 -0.3318  0.3424  0.9846
13888TIP3    H163079   1.112   3.030  10.481 -0.8906  0.8708 -0.5868
13888TIP3    H263080   1.118   3.172  10.535 -0.9070  1.2244 -1.5094
13889TIP3   OH263081   3.232   0.228   0.123 -0.0195 -0.3994 -0.1031
13889TIP3    H163082   3.281   0.182   0.190 -2.1085 -4.1933 -0.9034
13889TIP3    H263083   3.143   0.235   0.158 -0.2254  1.4062 -0.8405
13890TIP3   OH263084   0.181   1.801  15.373 -0.3360  0.5617  0.2197
13890TIP3    H163085   0.164   1.841  15.288 -0.3419  1.8763  0.8153
13890TIP3    H263086   0.217   1.714  15.352 -0.2166  0.9116 -1.1135
13891TIP3   OH263087   6.054   5.073   5.558  0.0976 -0.5131 -0.2442
13891TIP3    H163088   6.118   5.003   5.546  2.7224  1.6248  0.3971
13891TIP3    H263089   6.061   5.097   5.650 -0.7688  0.5632 -0.4314
13892TIP3   OH263090   0.690   2.388   2.965 -0.0719 -0.1812 -0.4605
13892TIP3    H163091   0.783   2.408   2.969  0.4777 -1.4097 -3.9943
13892TIP3    H263092   0.685   2.297   2.938 -2.3339 -0.3066  0.1152
13893TIP3   OH263093   1.051   2.070  13.133  0.2256  0.6149 -0.3728
13893TIP3    H163094   1.016   2.092  13.219  1.9041  0.6404  0.3497
13893TIP3    H263095   1.106   2.145  13.110  1.1549 -0.1372 -0.6623
13894TIP3   OH263096   5.077   2.296  10.926 -0.0751 -0.5866 -0.1477
13894TIP3    H163097   5.098   2.285  10.834 -0.2971  0.3893 -0.3254
13894TIP3    H263098   4.997   2.349  10.927  0.0614 -0.3725  0.5982
13895TIP3   OH263099   5.518   1.568   4.367  0.3413 -0.2691  0.2465
13895TIP3    H163100   5.459   1.635   4.332 -2.7691 -2.4648  0.8520
13895TIP3    H263101   5.526   1.504   4.296 -0.5434 -1.4637  1.1778
13896TIP3   OH263102   5.925   5.776  17.165  0.3956 -0.3251  0.4929
13896TIP3    H163103   5.844   5.802  17.123  1.0482  1.1797  0.1349
13896TIP3    H263104   5.955   5.700  17.115 -0.8447 -0.9951  0.7249
13897TIP3   OH263105   1.501   6.232   2.425 -0.1537 -0.2127 -0.2607
13897TIP3    H163106   1.576   6.187   2.386  0.2185  0.6490 -0.5785
13897TIP3    H263107   1.465   6.170   2.488  0.5468 -0.8137 -0.4421
13898TIP3   OH263108   1.948   3.354  15.741 -0.1720 -0.0939 -0.2146
13898TIP3    H163109   1.873   3.413  15.736  0.2119  0.4196 -0.0223
13898TIP3    H263110   2.016   3.405  15.785  0.9056  0.1332 -2.0241
13899TIP3   OH263111   6.146   2.750  16.596  0.2017 -0.4153 -0.3439
13899TIP3    H163112   6.114   2.732  16.684  0.9497 -1.7956 -0.3221
13899TIP3    H263113   6.067   2.750  16.542 -0.1442 -0.8106  0.1510
13900TIP3   OH263114   2.195   1.981  16.683  0.3132 -0.3180 -0.3442
13900TIP3    H163115   2.118   2.036  16.672  0.4877  0.0119  0.0501
13900TIP3    H263116   2.162   1.891  16.684 -0.4099 -0.1113  2.4687
13901TIP3   OH263117   5.037   3.833  14.335 -0.5210  0.5861  0.1273
13901TIP3    H163118   5.113   3.781  14.307 -0.7025 -0.0343  0.7591
13901TIP3    H263119   4.966   3.802  14.279 -0.2257  1.4852 -0.7759
13902TIP3   OH263120   1.235   3.677  14.726 -0.6253 -0.4631  0.0598
13902TIP3    H163121   1.295   3.688  14.653  1.6921  0.8930  2.0009
13902TIP3    H263122   1.244   3.585  14.751 -0.7196 -0.6971 -0.7367
13903TIP3   OH263123   5.728   6.732   0.446  0.2138  0.1476  0.0925
13903TIP3    H163124   5.654   6.784   0.478 -0.5194  0.8445 -2.4878
13903TIP3    H263125   5.802   6.792   0.449  0.3234 -0.0164  1.0594
13904TIP3   OH263126   6.031   0.222  16.875 -0.1291 -0.7050  0.3432
13904TIP3    H163127   5.983   0.305  16.876  1.6593  0.3939  0.9796
13904TIP3    H263128   5.985   0.168  16.811 -1.6193  0.6017  0.2488
13905TIP3   OH263129   5.855   2.342   0.985 -0.5754 -0.3429 -0.2913
13905TIP3    H163130   5.841   2.410   0.920  0.7780  1.3897  1.1472
13905TIP3    H263131   5.948   2.319   0.977 -0.6942 -1.0223  0.1603
13906TIP3   OH263132   2.504   6.487  11.654  0.3788 -0.4515  0.0246
13906TIP3    H163133   2.497   6.432  11.575 -0.9337 -0.1865 -0.0584
13906TIP3    H263134   2.473   6.573  11.626 -1.3803 -0.6752  1.1289
13907TIP3   OH263135   1.471   3.591  14.536 -0.2404 -0.0081 -0.3458
13907TIP3    H163136   1.438   3.515  14.585 -1.3292 -0.4355 -1.6760
13907TIP3    H263137   1.442   3.576  14.446  2.5082  0.2541 -1.3893
13908TIP3   OH263138   0.774   3.767   5.440 -0.1743 -0.0775  0.3806
13908TIP3    H163139   0.867   3.748   5.454 -0.0644 -0.0542 -0.3007
13908TIP3    H263140   0.741   3.791   5.527  0.4039 -0.3040  0.6666
13909TIP3   OH263141   3.598   2.617   3.207  0.1539 -0.2985  0.1316
13909TIP3    H163142   3.551   2.692   3.170  0.7187 -0.2264 -0.4508
13909TIP3    H263143   3.587   2.627   3.302  0.2541  0.5408  0.0623
13910TIP3   OH263144   1.475   3.089   0.517 -0.3075 -0.2358 -0.5541
13910TIP3    H163145   1.499   3.137   0.597 -0.7604  0.2999 -0.7339
13910TIP3    H263146   1.548   3.104   0.457 -1.0663  1.4530 -1.1258
13911TIP3   OH263147   0.703   2.234  14.120  0.2201 -0.0947  0.3539
13911TIP3    H163148   0.769   2.282  14.170 -1.0751 -0.7801  2.8851
13911TIP3    H263149   0.626   2.233  14.176 -1.8159  0.1561 -2.2223
13912TIP3   OH263150   4.468   4.382  12.022 -0.3655 -0.8850  0.4320
13912TIP3    H163151   4.497   4.446  11.957 -2.2844  0.0193  0.4159
13912TIP3    H263152   4.529   4.309  12.012  2.3219  1.1093  0.8422
13913TIP3   OH263153   1.950   4.646   1.976  0.6298  0.1675 -0.4940
13913TIP3    H163154   1.888   4.615   1.911  0.3701 -0.1506 -0.0962
13913TIP3    H263155   1.934   4.741   1.982  0.0587  0.0606 -0.2662
13914TIP3   OH263156   1.403   0.609  14.901 -0.5255  0.1144  0.3801
13914TIP3    H163157   1.496   0.626  14.916 -1.1514  1.4846  3.4360
13914TIP3    H263158   1.395   0.514  14.908  0.7581 -0.1891 -1.3374
13915TIP3   OH263159   4.669   2.129  14.494 -0.0269  0.0053  0.1266
13915TIP3    H163160   4.725   2.199  14.461 -2.3077  0.7527 -2.5325
13915TIP3    H263161   4.666   2.144  14.589  4.1852 -0.1748  0.4867
13916TIP3   OH263162   2.943   4.099   5.383 -0.1030  0.8259  0.5515
13916TIP3    H163163   3.014   4.162   5.396 -0.8142  1.9066 -0.5426
13916TIP3    H263164   2.956   4.068   5.293 -1.2668  1.3954  0.1748
13917TIP3   OH263165   2.190   4.647   3.233 -0.2560  0.4259  0.2854
13917TIP3    H163166   2.127   4.719   3.224  0.2289  0.8559  0.2915
13917TIP3    H263167   2.216   4.649   3.325  0.2531  0.6756  0.1442
13918TIP3   OH263168   5.443   2.754   3.469 -0.0225  0.3904  0.2615
13918TIP3    H163169   5.471   2.747   3.378 -0.9644  0.3562 -0.0375
13918TIP3    H263170   5.474   2.674   3.511  1.2810  0.8532  0.2262
13919TIP3   OH263171   0.868   6.267   0.264 -0.4198 -0.6157 -0.2463
13919TIP3    H163172   0.814   6.247   0.340 -2.0618 -0.1162 -1.2206
13919TIP3    H263173   0.946   6.214   0.274 -0.4818 -0.3680  1.9066
13920TIP3   OH263174   0.173   0.864   2.964  0.3713  0.1415  0.1302
13920TIP3    H163175   0.104   0.808   2.929 -1.2928  0.1259  3.1836
13920TIP3    H263176   0.250   0.807   2.968 -0.2445 -0.7578 -0.4620
13921TIP3   OH263177   2.601   6.588   2.066 -0.2568  0.1537 -0.1787
13921TIP3    H163178   2.516   6.559   2.032 -0.4036 -2.2720  1.9190
13921TIP3    H263179   2.599   6.683   2.058 -2.6758  0.0863 -1.2829
13922TIP3   OH263180   3.101   5.783   0.457  0.1448 -0.3623 -0.6309
13922TIP3    H163181   3.040   5.782   0.530 -0.1390 -0.0344 -0.8615
13922TIP3    H263182   3.151   5.702   0.467  1.5140  0.6097  1.1024
13923TIP3   OH263183   4.246   0.064  16.996  0.5221  0.2642  0.8480
13923TIP3    H163184   4.298   0.004  16.942  1.4372  1.5364  0.2583
13923TIP3    H263185   4.307   0.093  17.064 -0.4018 -0.7365  2.1502
13924TIP3   OH263186   2.391   4.443   3.063  0.0693 -0.5774  0.2304
13924TIP3    H163187   2.348   4.524   3.090 -0.0013 -0.2830 -0.7331
13924TIP3    H263188   2.447   4.469   2.990 -0.0028 -1.4029 -0.1265
13925TIP3   OH263189   3.889   2.846  14.317 -0.2349  0.0787  0.0687
13925TIP3    H163190   3.931   2.838  14.403 -1.6090  2.5143  1.0892
13925TIP3    H263191   3.955   2.888  14.262  0.0381  0.2117  0.4901
13926TIP3   OH263192   0.475   2.492  16.142 -0.5474 -0.4379 -0.3637
13926TIP3    H163193   0.473   2.492  16.238  1.0696  0.0419 -0.3094
13926TIP3    H263194   0.465   2.400  16.117  0.0710 -0.6931  0.3068
13927TIP3   OH263195   2.473   5.139   5.811 -0.5186 -0.6734  0.2758
13927TIP3    H163196   2.465   5.215   5.867 -0.8288 -0.6867  0.2510
13927TIP3    H263197   2.427   5.069   5.857 -0.1393 -0.8770  0.3522
13928TIP3   OH263198   0.248   5.444   4.760  0.6251  0.3102  0.8370
13928TIP3    H163199   0.174   5.386   4.776  2.1000 -0.9743  3.5734
13928TIP3    H263200   0.240   5.514   4.825  1.6765  0.2911  1.0123
13929TIP3   OH263201   4.544   4.451  16.363  0.4684 -0.0878 -0.1782
13929TIP3    H163202   4.452   4.467  16.341 -0.1331  0.0753  2.1603
13929TIP3    H263203   4.556   4.492  16.449  1.8267 -2.7747  1.0534
13930TIP3   OH263204   0.456   3.886   0.022  0.4007 -0.3634  0.5405
13930TIP3    H163205   0.408   3.877   0.105  0.9600 -1.8203  0.7415
13930TIP3    H263206   0.446   3.800  -0.020  1.1559 -0.0382 -0.3304
13931TIP3   OH263207   2.477   2.643  15.512 -0.5051 -0.6509 -0.2631
13931TIP3    H163208   2.498   2.608  15.598  2.9402  2.2901  0.3362
13931TIP3    H263209   2.399   2.697  15.526 -0.7179 -1.1739  0.6850
13932TIP3   OH263210   4.726   3.764   4.930 -0.0837  0.0264  0.6892
13932TIP3    H163211   4.649   3.815   4.955  0.0322 -0.5075  2.2875
13932TIP3    H263212   4.697   3.673   4.935  0.1620 -0.1252 -0.4940
13933TIP3   OH263213   5.463   1.449   0.115  0.5738  0.2203 -0.3473
13933TIP3    H163214   5.533   1.389   0.093 -0.6137 -1.1627 -0.5186
13933TIP3    H263215   5.478   1.471   0.207  0.1558 -1.6732  0.2323
13934TIP3   OH263216   0.479   4.357   1.653  0.1942  0.5587 -0.3875
13934TIP3    H163217   0.498   4.433   1.598  2.1374  0.1570 -0.3485
13934TIP3    H263218   0.483   4.391   1.743 -0.0064  0.6205 -0.4015
13935TIP3   OH263219   6.260   0.455  17.106 -0.0813  0.1670 -0.0597
13935TIP3    H163220   6.305   0.474  17.188 -0.4667 -0.1906  0.2399
13935TIP3    H263221   6.214   0.372  17.122  0.8649 -0.5909 -1.0453
13936TIP3   OH263222   6.704   5.210  16.560 -0.0646  0.6060  0.2956
13936TIP3    H163223   6.680   5.261  16.483 -1.8568  0.3067  0.6143
13936TIP3    H263224   6.741   5.275  16.621  1.3457  0.8436 -0.7730
13937TIP3   OH263225   5.602   4.756   3.355  0.2664  0.3021 -0.2450
13937TIP3    H163226   5.506   4.757   3.349 -0.0797 -0.0679  3.2682
13937TIP3    H263227   5.626   4.664   3.342  0.0587  0.2445 -0.2302
13938TIP3   OH263228   1.401   5.687   5.717  0.0905 -0.0753  0.2223
13938TIP3    H163229   1.391   5.760   5.655  1.5572 -0.3629 -0.3828
13938TIP3    H263230   1.403   5.730   5.803  1.0821  0.6240 -0.1328
13939TIP3   OH263231   2.872   5.631  12.838 -0.2063 -0.1250 -0.2019
13939TIP3    H163232   2.800   5.621  12.776 -0.4781 -2.0383  0.3561
13939TIP3    H263233   2.837   5.688  12.906 -0.4343  0.7149 -0.9933
13940TIP3   OH263234   3.390   5.970  12.690 -0.6873 -0.1596 -0.4675
13940TIP3    H163235   3.375   6.064  12.699  0.2736 -0.0851  0.8632
13940TIP3    H263236   3.306   5.934  12.663 -1.6201  0.8595  0.9279
13941TIP3   OH263237   1.573   2.534  14.448  0.0834 -0.0037  0.2715
13941TIP3    H163238   1.641   2.532  14.381 -0.0667  0.1833  0.1111
13941TIP3    H263239   1.586   2.453  14.498  1.3421  0.7268  1.1669
13942TIP3   OH263240   6.211   3.825  12.850 -0.2253 -0.5794  0.3811
13942TIP3    H163241   6.177   3.740  12.820 -0.5762 -0.8588  1.5350
13942TIP3    H263242   6.304   3.809  12.866 -0.1674 -0.5877  0.0472
13943TIP3   OH263243   4.489   6.039   1.921  0.4181  0.3698  0.2178
13943TIP3    H163244   4.536   5.974   1.870 -0.3595 -0.1612  0.1586
13943TIP3    H263245   4.506   6.016   2.012 -0.4075 -0.3345  0.1999
13944TIP3   OH263246   4.933   1.618   1.382  0.4437 -0.2511  0.3867
13944TIP3    H163247   4.990   1.556   1.428  1.4436  0.5354  0.2397
13944TIP3    H263248   4.973   1.704   1.398 -0.4377  0.2713 -0.1197
13945TIP3   OH263249   5.054   0.128  17.092 -0.1820  0.1935 -0.4370
13945TIP3    H163250   4.985   0.167  17.146 -0.6543  0.1730 -1.0143
13945TIP3    H263251   5.109   0.080  17.154 -0.0814  1.0696  0.1711
13946TIP3   OH263252   4.986   3.457  17.021  0.6446 -0.4227 -0.5714
13946TIP3    H163253   4.984   3.435  17.115  2.0600 -0.3793 -0.5050
13946TIP3    H263254   4.943   3.543  17.016  1.4084  0.0196  0.1885
13947TIP3   OH263255   5.024   1.419  15.909  0.0403  0.1376 -0.4774
13947TIP3    H163256   5.095   1.427  15.972 -0.1103 -0.7785 -0.1726
13947TIP3    H263257   4.961   1.359  15.951  1.0673 -2.5403 -2.4456
13948TIP3   OH263258   5.642   1.774  16.058  0.1431 -0.3743  0.0758
13948TIP3    H163259   5.597   1.850  16.019  1.0889  0.3373  0.3432
13948TIP3    H263260   5.583   1.745  16.128 -1.2781 -1.2717 -1.4140
13949TIP3   OH263261   0.910   2.862  12.498 -0.1981  0.0864 -0.1288
13949TIP3    H163262   0.890   2.784  12.446  0.6766 -0.3873  0.2152
13949TIP3    H263263   0.849   2.858  12.572  0.0486 -0.4454  0.0498
13950TIP3   OH263264   2.291   4.773  11.998  0.1910  0.2366  0.0826
13950TIP3    H163265   2.277   4.812  11.911 -0.0612 -0.0891 -0.0244
13950TIP3    H263266   2.362   4.710  11.984  1.0816  1.1449  0.4047
13951TIP3   OH263267   0.791   2.072  17.121 -0.1638  0.4245  0.0521
13951TIP3    H163268   0.783   2.166  17.101 -1.6966  0.0165 -1.5811
13951TIP3    H263269   0.739   2.060  17.200  1.1248  1.1387  1.0376
13952TIP3   OH263270   4.029   4.363  12.032  0.0701 -0.4859 -0.1932
13952TIP3    H163271   4.059   4.343  12.121  2.3824 -0.0922 -0.8313
13952TIP3    H263272   4.034   4.458  12.026 -1.3792 -0.3932 -0.3548
13953TIP3   OH263273   2.871   3.014   0.038  0.1966 -0.1532 -0.4997
13953TIP3    H163274   2.913   3.024  -0.048 -0.4182  0.1800 -0.7643
13953TIP3    H263275   2.913   2.936   0.076  0.8012 -0.0339 -0.9035
13954TIP3   OH263276   3.855   2.936  11.826 -0.1330  0.3465 -0.0896
13954TIP3    H163277   3.847   2.843  11.806 -0.5048  0.3314  0.1207
13954TIP3    H263278   3.765   2.968  11.828 -0.2449  0.1021  2.7243
13955TIP3   OH263279   1.579   2.427  12.675 -0.4532  0.5174 -0.3143
13955TIP3    H163280   1.550   2.445  12.586  2.0587  2.1739 -0.8960
13955TIP3    H263281   1.578   2.332  12.681  1.1050  0.2426 -2.8291
13956TIP3   OH263282   5.529   0.539  17.186  0.6046  0.1444 -0.3888
13956TIP3    H163283   5.541   0.519  17.279  0.0981 -2.2039 -0.7660
13956TIP3    H263284   5.617   0.559  17.155  0.6727  1.7887  0.7350
13957TIP3   OH263285   2.845   3.791  12.730 -0.5322 -0.0497  0.1285
13957TIP3    H163286   2.902   3.716  12.710  3.4746  3.2653 -2.7030
13957TIP3    H263287   2.795   3.805  12.650  0.3779  1.4234 -0.2309
13958TIP3   OH263288   6.541   0.875   4.493  0.4388 -0.2368  0.3793
13958TIP3    H163289   6.587   0.895   4.411 -1.2941 -1.5340 -0.9734
13958TIP3    H263290   6.593   0.806   4.533  0.8539 -0.1741 -0.0341
13959TIP3   OH263291   0.702   6.222   3.679  0.5271  0.8044 -0.0083
13959TIP3    H163292   0.663   6.275   3.750 -0.0431  1.5697 -0.8613
13959TIP3    H263293   0.645   6.145   3.673 -1.6645  2.4335 -1.9877
13960TIP3   OH263294   2.886   2.632   0.756  0.2515  0.9485 -0.3451
13960TIP3    H163295   2.819   2.576   0.716  0.9804  1.1957 -1.9828
13960TIP3    H263296   2.964   2.620   0.701  2.2302 -0.8206  2.5853
13961TIP3   OH263297   2.301   3.380   0.672 -0.7112  0.2094 -0.6369
13961TIP3    H163298   2.254   3.311   0.626  0.2836 -0.6563 -0.3654
13961TIP3    H263299   2.304   3.351   0.763  1.1003 -0.1763 -0.7977
13962TIP3   OH263300   3.628   5.939   5.424 -0.4842  0.2602  0.2257
13962TIP3    H163301   3.677   5.999   5.480 -0.5820 -0.3649  1.0034
13962TIP3    H263302   3.575   5.996   5.369  0.0101  0.9058  0.3960
13963TIP3   OH263303   5.469   3.478  14.722 -0.6065 -0.4496  0.2659
13963TIP3    H163304   5.511   3.478  14.808 -1.4964 -0.5186  0.7164
13963TIP3    H263305   5.402   3.547  14.729  0.5308  0.8401 -0.9926
13964TIP3   OH263306   0.835   4.582   5.978 -0.2482 -0.3140  0.5308
13964TIP3    H163307   0.826   4.490   5.950 -1.9887 -0.4323  1.3436
13964TIP3    H263308   0.849   4.630   5.896  1.6299 -1.3661  0.1663
13965TIP3   OH263309   5.652   6.251   3.627  0.5492  0.4826  0.2936
13965TIP3    H163310   5.639   6.286   3.539  0.5111 -3.0064 -1.2594
13965TIP3    H263311   5.748   6.246   3.636  0.6619 -2.3104 -1.1386
13966TIP3   OH263312   3.176   2.861   4.103  0.5849  0.0568  0.4950
13966TIP3    H163313   3.203   2.837   4.014  0.4819  2.8948 -0.4034
13966TIP3    H263314   3.102   2.920   4.091  1.1449  1.2608  2.3841
13967TIP3   OH263315   4.217   5.228  14.924 -0.8873  0.5557 -0.3715
13967TIP3    H163316   4.166   5.148  14.909  0.8049 -0.6540 -0.0213
13967TIP3    H263317   4.168   5.275  14.992 -0.3673 -1.7549  1.7891
13968TIP3   OH263318   4.351   1.635   2.553 -0.5598 -0.3439 -0.0101
13968TIP3    H163319   4.276   1.668   2.602  0.0550  0.6474  0.2830
13968TIP3    H263320   4.427   1.659   2.606  0.3074  2.5041 -2.2624
13969TIP3   OH263321   3.668   4.393   3.652 -0.2284  0.5688  0.1926
13969TIP3    H163322   3.704   4.304   3.659 -0.1520  0.2952 -2.4429
13969TIP3    H263323   3.623   4.408   3.735  0.2042 -1.7223  0.9166
13970TIP3   OH263324   0.217   3.548  16.882 -0.4534  0.7805  0.0456
13970TIP3    H163325   0.234   3.610  16.953 -0.0446  3.0413 -1.8860
13970TIP3    H263326   0.121   3.538  16.882 -0.3449 -0.6175  1.9381
13971TIP3   OH263327   5.210   4.458  16.030  0.0650  0.0928 -0.7204
13971TIP3    H163328   5.143   4.449  15.962 -0.2507  1.0707 -0.5537
13971TIP3    H263329   5.201   4.548  16.061  1.3496  0.1915 -0.5833
13972TIP3   OH263330   0.258   2.832   2.036  0.2665  0.6976  0.1108
13972TIP3    H163331   0.265   2.742   2.005 -0.5351  0.5606  0.3038
13972TIP3    H263332   0.348   2.864   2.039  0.4473  0.3992 -1.4272
13973TIP3   OH263333   4.912   4.667   0.508 -0.5245  0.6801  0.2008
13973TIP3    H163334   4.856   4.726   0.458 -2.3470 -1.3924 -0.3930
13973TIP3    H263335   4.964   4.622   0.442  0.0337  0.8280  0.5368
13974TIP3   OH263336   6.136   5.513   0.398  0.2683 -0.1237  0.2396
13974TIP3    H163337   6.096   5.570   0.463 -0.6875 -0.2815 -0.2001
13974TIP3    H263338   6.164   5.572   0.327 -0.6768 -0.1802 -0.1935
13975TIP3   OH263339   1.282   5.970   1.921  0.3140 -0.3923  0.4268
13975TIP3    H163340   1.282   6.059   1.887  0.8066 -0.1279  1.0954
13975TIP3    H263341   1.191   5.955   1.949  0.5676  0.5276  1.8598
13976TIP3   OH263342   0.604   6.675  12.995 -0.2510  0.3978 -0.0820
13976TIP3    H163343   0.661   6.749  12.974 -0.3003  0.3627 -0.3381
13976TIP3    H263344   0.571   6.645  12.910  0.5454 -0.5391 -0.0757
13977TIP3   OH263345   4.366   5.958   4.536 -0.1305  0.2261 -0.1194
13977TIP3    H163346   4.402   5.986   4.620 -0.9376 -1.6635  0.9166
13977TIP3    H263347   4.401   5.870   4.523  0.9164  0.8955 -2.3771
13978TIP3   OH263348   1.279   2.240  16.379 -0.2022  0.3996  0.4075
13978TIP3    H163349   1.188   2.265  16.365 -0.6386 -1.1304  0.4008
13978TIP3    H263350   1.329   2.320  16.359 -1.6092  1.7516  2.0026
13979TIP3   OH263351   2.465   1.440   6.832 -0.3433 -0.3363  0.0811
13979TIP3    H163352   2.438   1.523   6.792 -0.1189 -0.0172  0.5749
13979TIP3    H263353   2.559   1.448   6.845 -0.1725 -1.0329 -0.6854
13980TIP3   OH263354   6.159   0.285  13.402  0.5734  0.0246 -0.3006
13980TIP3    H163355   6.252   0.266  13.418  0.6422  0.2644 -0.4091
13980TIP3    H263356   6.112   0.228  13.462  0.8568  2.7181  2.7153
13981TIP3   OH263357   4.253   3.450   4.011 -0.1814 -0.0131  0.3605
13981TIP3    H163358   4.220   3.444   3.921  1.1465  0.5605 -0.1924
13981TIP3    H263359   4.329   3.392   4.012  1.4955  2.0850  0.2963
13982TIP3   OH263360   3.955   1.342   3.759  0.1935 -0.1080  0.1217
13982TIP3    H163361   3.919   1.259   3.788 -1.5208  0.4680 -0.2718
13982TIP3    H263362   3.885   1.383   3.708  0.7791  1.8146  0.7527
13983TIP3   OH263363   2.988   0.672  13.793  0.0060  0.0309 -0.5764
13983TIP3    H163364   2.913   0.712  13.749 -0.9693 -3.7737 -2.8039
13983TIP3    H263365   2.952   0.637  13.874 -0.6640 -1.5332 -1.5043
13984TIP3   OH263366   2.531   2.975   4.201  0.1853 -0.2453  0.1359
13984TIP3    H163367   2.537   2.887   4.238 -1.7571 -0.6241 -0.2972
13984TIP3    H263368   2.548   2.963   4.107 -0.5407 -0.2733 -0.0039
13985TIP3   OH263369   0.683   3.444  12.892  0.0851 -0.0599 -0.2919
13985TIP3    H163370   0.672   3.515  12.955  0.0548 -1.4123  1.3059
13985TIP3    H263371   0.775   3.420  12.898  0.3713  0.6090 -1.7087
13986TIP3   OH263372   1.794   1.569   3.839  0.0468 -0.1647 -0.6080
13986TIP3    H163373   1.876   1.525   3.814  0.7567  0.2745  0.8089
13986TIP3    H263374   1.745   1.503   3.888 -0.5387 -0.4838 -1.6152
13987TIP3   OH263375   3.566   2.987   3.366 -0.4911  0.2754  0.1131
13987TIP3    H163376   3.652   2.966   3.332  0.0084 -0.3382  1.6764
13987TIP3    H263377   3.505   2.939   3.309  0.3870 -1.9456  0.9370
13988TIP3   OH263378   2.929   3.229  14.217 -0.0124 -0.2694  0.2386
13988TIP3    H163379   2.856   3.283  14.188  0.1633 -1.2840 -2.3471
13988TIP3    H263380   2.900   3.191  14.300 -2.1994 -0.1988 -0.4362
13989TIP3   OH263381   0.609   5.297  13.428 -0.0574  0.7306 -0.5022
13989TIP3    H163382   0.675   5.242  13.386 -1.1210 -0.4769 -0.6724
13989TIP3    H263383   0.615   5.274  13.521 -0.2563  0.5905 -0.5238
13990TIP3   OH263384   3.566   5.157  14.232  0.3228 -0.2232 -0.2753
13990TIP3    H163385   3.477   5.192  14.241  0.1328 -0.5096 -0.9698
13990TIP3    H263386   3.585   5.118  14.317 -0.1972 -0.1098 -0.1027
13991TIP3   OH263387   4.451   2.316  12.048  0.5513 -0.4173 -0.0177
13991TIP3    H163388   4.462   2.305  12.142 -2.6609 -1.2756  0.3602
13991TIP3    H263389   4.466   2.410  12.033  1.7483 -0.3785  1.1686
13992TIP3   OH263390   1.179   6.124   3.800  0.2759 -0.8372  0.2571
13992TIP3    H163391   1.241   6.076   3.854  0.7491  0.1621  0.6294
13992TIP3    H263392   1.163   6.205   3.849 -0.7355 -0.7471 -0.2028
13993TIP3   OH263393   5.755   1.756  10.892  0.3595  0.2896  0.2102
13993TIP3    H163394   5.789   1.826  10.836  0.3942 -1.1487 -1.6350
13993TIP3    H263395   5.834   1.718  10.932  0.5289 -0.0739 -0.4636
13994TIP3   OH263396   0.047   3.552   4.306  0.0186 -0.2108  0.6177
13994TIP3    H163397   0.074   3.560   4.214 -0.0318  1.5676  0.7371
13994TIP3    H263398  -0.042   3.585   4.307  0.9747  2.5500  1.7701
13995TIP3   OH263399   4.927   5.241  13.944  0.5510  0.0192  0.3393
13995TIP3    H163400   4.992   5.209  14.007  0.1510 -0.0934  0.7017
13995TIP3    H263401   4.965   5.223  13.858  0.7755 -0.5131  0.5472
13996TIP3   OH263402   0.417   2.060  13.636 -0.0250  0.0173 -0.1439
13996TIP3    H163403   0.446   2.150  13.618 -1.3075  0.7721  1.3136
13996TIP3    H263404   0.498   2.014  13.658  0.8102  0.4755 -2.0430
13997TIP3   OH263405   0.221   4.157   3.279  0.1314 -0.3056 -0.1670
13997TIP3    H163406   0.265   4.210   3.345 -1.7713  1.2459 -0.0720
13997TIP3    H263407   0.279   4.161   3.203  3.4654 -3.8708  1.8146
13998TIP3   OH263408   3.013   4.219   3.713  0.5514 -0.0169 -0.1102
13998TIP3    H163409   3.036   4.149   3.651  1.0365  1.7226 -2.0126
13998TIP3    H263410   2.976   4.288   3.658 -0.5788  0.9710  1.7938
13999TIP3   OH263411   3.825   2.183  12.126 -0.2064 -0.5079 -0.7130
13999TIP3    H163412   3.901   2.209  12.074 -0.2854 -3.3603 -2.5083
13999TIP3    H263413   3.843   2.092  12.150 -2.2145 -0.6577  0.4718
14000TIP3   OH263414   2.294   1.709   4.015  0.1048  0.7264  0.4558
14000TIP3    H163415   2.234   1.659   4.071  0.8203 -0.6369  0.0754
14000TIP3    H263416   2.273   1.800   4.032  0.9743  0.4680  3.8009
14001TIP3   OH263417   2.242   1.638  15.014  0.1143  0.1382 -0.5562
14001TIP3    H163418   2.270   1.673  15.099 -0.7964 -0.8511  0.1879
14001TIP3    H263419   2.276   1.549  15.013  0.3798  0.2445 -1.3761
14002TIP3   OH263420   0.613   0.025  17.131 -0.2141  0.5876  0.1067
14002TIP3    H163421   0.530   0.070  17.116 -0.1552  0.6739  0.0408
14002TIP3    H263422   0.607  -0.054  17.078 -1.4907 -0.9269  2.3242
14003TIP3   OH263423   2.962   2.868  12.439  0.3883  0.0063 -0.0495
14003TIP3    H163424   2.939   2.844  12.529 -2.2387  2.8606  0.1833
14003TIP3    H263425   3.038   2.926  12.449 -0.2576  0.7936  0.4240
14004TIP3   OH263426   3.452   0.224  11.227  0.2788 -0.1139  0.6173
14004TIP3    H163427   3.508   0.299  11.249  2.6466 -1.3646 -0.6738
14004TIP3    H263428   3.455   0.220  11.131 -0.3895 -1.4225  0.6323
14005TIP3   OH263429   6.094   6.025   3.155 -0.0319  0.4443  0.2417
14005TIP3    H163430   6.125   5.937   3.173 -0.4273  0.4147  0.8261
14005TIP3    H263431   6.012   6.032   3.204 -0.0546  1.0979  0.1268
14006TIP3   OH263432   3.115   4.609  14.132  0.2991 -0.1521 -0.5429
14006TIP3    H163433   3.089   4.657  14.054  0.4076 -1.7933 -1.6300
14006TIP3    H263434   3.045   4.628  14.196  0.3471  1.4143 -0.9019
14007TIP3   OH263435   3.468   1.747   0.753  0.6122 -0.3495  0.3252
14007TIP3    H163436   3.547   1.728   0.805  0.2880  0.3235  1.0945
14007TIP3    H263437   3.415   1.802   0.811  0.0698  0.1162 -0.5982
14008TIP3   OH263438   0.880   3.834  14.638  0.3644  0.5736  0.4630
14008TIP3    H163439   0.869   3.924  14.669 -1.4039  0.4894  0.1973
14008TIP3    H263440   0.860   3.838  14.545 -0.6580 -0.2345  0.6328
14009TIP3   OH263441   1.237   2.045  13.900  0.3705  0.0016 -0.5345
14009TIP3    H163442   1.152   2.019  13.935 -0.0641  0.7126 -1.0285
14009TIP3    H263443   1.294   2.052  13.976  0.5228 -2.3253 -0.3446
14010TIP3   OH263444   0.674   3.616  16.574 -0.4382  0.0088  0.5902
14010TIP3    H163445   0.617   3.605  16.650 -0.0725  0.7652  0.9890
14010TIP3    H263446   0.662   3.707  16.548 -0.5300 -0.2283 -0.2495
14011TIP3   OH263447   5.269   6.728  12.117 -0.6364  0.1766  0.3486
14011TIP3    H163448   5.294   6.719  12.209  0.0589  1.0342  0.2632
14011TIP3    H263449   5.233   6.817  12.111  1.5485  1.0755 -0.6485
14012TIP3   OH263450   4.410   0.349   0.555 -0.4316 -0.1943  0.4160
14012TIP3    H163451   4.437   0.399   0.478 -0.7413 -1.7962 -0.7859
14012TIP3    H263452   4.336   0.397   0.591  0.1367  0.9276  0.1149
14013TIP3   OH263453   1.119   3.993  15.672 -0.0107  0.4855  0.1912
14013TIP3    H163454   1.133   3.902  15.699 -1.3424  0.6451  1.5263
14013TIP3    H263455   1.207   4.032  15.673  0.4108 -0.4314  0.9279
14014TIP3   OH263456   5.741   0.894  16.177  0.4344  0.3159 -0.0252
14014TIP3    H163457   5.832   0.894  16.206  0.3419  0.1009  0.2806
14014TIP3    H263458   5.695   0.843  16.245  0.3501 -0.9695 -1.0113
14015TIP3   OH263459   0.767   1.415  14.938 -0.3052  0.6857 -0.2350
14015TIP3    H163460   0.826   1.409  14.863  0.7170  0.2035  0.5879
14015TIP3    H263461   0.681   1.433  14.899  0.1240  0.0207 -1.5441
14016TIP3   OH263462   4.641   1.365   2.531 -0.1620  0.3131 -0.1804
14016TIP3    H163463   4.621   1.455   2.556  1.7488  1.3808 -2.1487
14016TIP3    H263464   4.737   1.362   2.524 -0.1724 -1.8543 -0.2488
14017TIP3   OH263465   4.698   6.142  13.177  0.2554 -0.1216  0.6746
14017TIP3    H163466   4.722   6.074  13.114 -1.4317  0.1491 -0.3193
14017TIP3    H263467   4.780   6.187  13.196  1.0311 -1.0778 -0.2999
14018TIP3   OH263468   0.049   2.490  14.430 -0.2383  0.0812 -1.0688
14018TIP3    H163469   0.141   2.468  14.421 -0.2116 -0.6722  0.6926
14018TIP3    H263470   0.047   2.559  14.497 -1.0978 -1.5704  0.6818
14019TIP3   OH263471   4.422   6.694   6.053 -0.0723  0.2874  0.0772
14019TIP3    H163472   4.393   6.697   5.962  1.7994  1.1049 -0.5422
14019TIP3    H263473   4.468   6.610   6.060  0.0429  0.3581  0.1709
14020TIP3   OH263474   6.225   0.487   4.655  0.1857  0.1921  0.7197
14020TIP3    H163475   6.285   0.522   4.589 -0.4932  0.0557  0.0198
14020TIP3    H263476   6.209   0.397   4.627 -0.8416  0.4222  0.5487
14021TIP3   OH263477   4.675   4.881   5.314  1.0473 -0.1908 -0.0354
14021TIP3    H163478   4.695   4.954   5.254  2.0691  0.0990  0.6299
14021TIP3    H263479   4.680   4.803   5.259  1.6765  0.0981 -0.3954
14022TIP3   OH263480   3.471   0.759  13.289 -0.5272  0.0049 -0.4512
14022TIP3    H163481   3.421   0.689  13.332 -1.2932  1.1688  0.6325
14022TIP3    H263482   3.446   0.839  13.337  1.1946  0.8589 -0.9032
14023TIP3   OH263483   4.992   0.542   2.390 -0.5449 -0.0478 -0.6923
14023TIP3    H163484   5.058   0.606   2.361 -1.1931  0.6175 -0.7198
14023TIP3    H263485   5.043   0.465   2.415  0.4288  1.0487  0.9645
14024TIP3   OH263486   4.568   2.522   4.969 -0.6105  0.2595  0.3405
14024TIP3    H163487   4.527   2.575   5.038 -0.8022 -1.1175  1.3118
14024TIP3    H263488   4.517   2.441   4.968  1.2301 -0.9410  0.6309
14025TIP3   OH263489   5.715   4.374  17.114 -0.2592  0.0300 -0.8333
14025TIP3    H163490   5.683   4.402  17.028 -1.5868 -0.1792 -0.4388
14025TIP3    H263491   5.735   4.281  17.103 -0.3979  0.0117 -0.9374
14026TIP3   OH263492   1.148   2.593  11.388  0.4869  0.1382 -0.3206
14026TIP3    H163493   1.065   2.635  11.365  2.0964  2.7439 -1.9743
14026TIP3    H263494   1.123   2.508  11.424 -2.8728  0.9002 -0.5073
14027TIP3   OH263495   2.985   3.589   2.938 -0.5253  0.1841  0.3231
14027TIP3    H163496   2.897   3.622   2.921 -0.0914  0.9034 -0.5477
14027TIP3    H263497   2.997   3.518   2.875 -1.3582 -1.5788  2.0178
14028TIP3   OH263498   1.782   6.576  14.661 -0.2553 -0.4451  0.2928
14028TIP3    H163499   1.846   6.641  14.691  1.7607 -2.6135  0.9297
14028TIP3    H263500   1.811   6.494  14.700 -1.6019 -2.1168 -1.9936
14029TIP3   OH263501   1.980   2.037  12.801 -0.9470 -0.0247  0.2291
14029TIP3    H163502   1.951   1.965  12.857  0.3452  1.2438  2.6709
14029TIP3    H263503   2.015   2.102  12.862  0.8917  1.2989 -2.1015
14030TIP3   OH263504   6.131   5.404   2.834 -0.7156 -0.3069  0.6048
14030TIP3    H163505   6.168   5.442   2.755 -1.2616 -0.3102  0.3452
14030TIP3    H263506   6.193   5.427   2.903 -0.3432 -0.1272  0.2129
14031TIP3   OH263507   5.853   3.370  16.153 -0.3624 -0.2323  0.2526
14031TIP3    H163508   5.928   3.408  16.106  0.8781 -1.5048  1.1285
14031TIP3    H263509   5.859   3.407  16.241 -2.8255  2.3423 -0.5158
14032TIP3   OH263510   5.630   0.351  10.895 -0.5415  0.7882 -0.1237
14032TIP3    H163511   5.687   0.287  10.937 -0.7261  0.8436  0.2112
14032TIP3    H263512   5.549   0.348  10.946 -1.0285  0.3435 -0.8991
14033TIP3   OH263513   2.932   1.240   4.258 -0.2173 -0.2676  0.0995
14033TIP3    H163514   3.014   1.280   4.227 -1.0769  1.4878 -0.0413
14033TIP3    H263515   2.872   1.314   4.267 -2.4685 -1.7048 -1.8712
14034TIP3   OH263516   4.071   3.383   0.088 -0.2146  0.1279 -0.2712
14034TIP3    H163517   4.025   3.467   0.086  2.4594  1.7139 -2.2477
14034TIP3    H263518   4.156   3.403   0.129 -0.1298 -2.0453  0.7724
14035TIP3   OH263519   4.764   0.487  11.821 -0.2662  0.3707 -1.0032
14035TIP3    H163520   4.734   0.427  11.888  2.0587  2.3485  2.0887
14035TIP3    H263521   4.848   0.450  11.791 -1.2056 -0.4172 -2.8541
14036TIP3   OH263522   6.714   3.844  15.757 -0.2999  0.6598 -0.0731
14036TIP3    H163523   6.808   3.862  15.759 -0.4955  1.8854  2.9145
14036TIP3    H263524   6.674   3.929  15.741 -0.9395  0.4837  0.5536
14037TIP3   OH263525   6.510   6.559  11.943  0.3433 -0.6700  0.3506
14037TIP3    H163526   6.503   6.581  12.036 -2.0051  1.8131 -0.2917
14037TIP3    H263527   6.556   6.634  11.904 -0.0797 -0.9414 -0.7079
14038TIP3   OH263528   3.572   0.500   3.210 -0.0942 -0.4593 -0.3294
14038TIP3    H163529   3.527   0.511   3.293  1.1285  0.0834  0.2876
14038TIP3    H263530   3.509   0.455   3.154 -0.6090 -1.6688  1.1675
14039TIP3   OH263531   4.468   2.323  14.767 -0.2320  0.6602  0.6021
14039TIP3    H163532   4.535   2.373  14.720  0.0585  1.2332  1.6094
14039TIP3    H263533   4.517   2.274  14.834 -0.6953  0.1962  0.6087
14040TIP3   OH263534   3.994   5.910   6.584 -0.4809 -0.3224  0.0152
14040TIP3    H163535   3.963   5.999   6.572  0.4064  0.0442  0.3225
14040TIP3    H263536   3.942   5.876   6.657  0.4182  0.5838  1.1143
14041TIP3   OH263537   2.565   5.397   6.462 -0.0856 -0.3235  0.0083
14041TIP3    H163538   2.547   5.305   6.444  1.9526 -0.8294  0.2840
14041TIP3    H263539   2.587   5.400   6.555  0.8358  0.2495 -0.2112
14042TIP3   OH263540   4.308   6.680   3.750 -0.2781 -0.4024 -0.1199
14042TIP3    H163541   4.319   6.767   3.710  2.3786 -0.4333  0.3147
14042TIP3    H263542   4.376   6.677   3.818 -0.1133 -2.9260 -0.3024
14043TIP3   OH263543   5.749   2.033   2.612  0.1898  0.4062  0.0349
14043TIP3    H163544   5.654   2.027   2.625  0.4950 -2.3199  1.7469
14043TIP3    H263545   5.780   2.092   2.680 -0.2557  1.4320 -0.6290
14044TIP3   OH263546   2.899   4.369   6.230  0.2153  0.1480 -0.3854
14044TIP3    H163547   2.813   4.327   6.233 -0.5005  1.6199  0.4060
14044TIP3    H263548   2.890   4.437   6.163  0.5769  0.6912  0.1136
14045TIP3   OH263549   0.601   6.560   3.181 -0.0719  0.0801  0.1867
14045TIP3    H163550   0.639   6.538   3.266  0.3346 -1.5327 -0.3800
14045TIP3    H263551   0.674   6.593   3.129  0.0075 -0.4353 -0.0337
14046TIP3   OH263552   3.409   1.816  12.050 -0.1210 -0.8589 -0.9865
14046TIP3    H163553   3.417   1.799  11.956  0.2246  1.3605 -1.4311
14046TIP3    H263554   3.483   1.874  12.070 -1.5673  0.7207  0.0804
14047TIP3   OH263555   3.944   5.938  13.719 -0.1459  0.0404  0.2619
14047TIP3    H163556   3.849   5.947  13.730 -0.5225  0.3135 -2.5679
14047TIP3    H263557   3.972   6.020  13.678  1.3995  0.0877  1.3203
14048TIP3   OH263558   5.414   0.799  16.382  0.1111 -0.1384  0.3351
14048TIP3    H163559   5.459   0.869  16.429  0.6324  0.3740 -0.8846
14048TIP3    H263560   5.447   0.718  16.422  0.8756  0.2708  0.5516
14049TIP3   OH263561   4.029   3.635   2.771 -0.3725  0.0345 -0.4866
14049TIP3    H163562   4.091   3.616   2.841 -1.1514  1.1984  0.5392
14049TIP3    H263563   4.076   3.695   2.713 -0.8939  1.8682  0.9148
14050TIP3   OH263564   5.950   1.683  11.074 -0.1286  0.3457  0.4161
14050TIP3    H163565   5.945   1.593  11.107 -1.2686  0.2653  0.0359
14050TIP3    H263566   6.021   1.722  11.126  0.6820 -0.8765  0.2896
14051TIP3   OH263567   5.830   1.550   3.226  0.3567  0.4400  0.6549
14051TIP3    H163568   5.767   1.518   3.291  0.4997  2.8084  2.0756
14051TIP3    H263569   5.886   1.474   3.207 -1.5201 -1.1007  1.0397
14052TIP3   OH263570   5.169   4.003   5.113  0.5662 -0.5263  0.0003
14052TIP3    H163571   5.125   4.068   5.057 -0.1662  1.0207  2.2073
14052TIP3    H263572   5.107   3.931   5.120 -0.3906  0.3212  0.6536
14053TIP3   OH263573   5.842   2.207   4.997 -0.3102 -0.0334  0.5430
14053TIP3    H163574   5.863   2.297   5.019 -1.5979  0.0389  1.6768
14053TIP3    H263575   5.766   2.186   5.053  0.1549 -1.9070  0.5455
14054TIP3   OH263576   3.508   2.837  14.382  0.4824 -0.1636 -0.3167
14054TIP3    H163577   3.419   2.851  14.349  0.4670 -0.3087 -0.3394
14054TIP3    H263578   3.551   2.787  14.312  1.3605  2.0736 -1.4694
14055TIP3   OH263579   0.342   5.022  16.939 -0.7061 -0.1440  0.1291
14055TIP3    H163580   0.266   5.023  16.882 -1.5692 -0.1283  1.2440
14055TIP3    H263581   0.386   5.105  16.923 -0.1720 -0.7072 -1.4775
14056TIP3   OH263582   4.257   1.671  12.427  0.2586 -0.0638  0.5709
14056TIP3    H163583   4.239   1.731  12.355  1.3329  2.5264  2.2885
14056TIP3    H263584   4.225   1.717  12.505  1.2739 -1.6765  2.0095
14057TIP3   OH263585   5.792   4.277   4.304 -0.0581 -0.4280 -0.1996
14057TIP3    H163586   5.777   4.322   4.221  1.3059  0.6818  0.1007
14057TIP3    H263587   5.705   4.250   4.333 -0.5337 -1.1290 -2.1157
14058TIP3   OH263588   3.719   0.274  17.182  0.0080 -0.2125 -0.0328
14058TIP3    H163589   3.709   0.213  17.255  0.8000 -2.0426 -1.3523
14058TIP3    H263590   3.780   0.340  17.214 -2.2602  1.0458  2.0649
14059TIP3   OH263591   2.215   1.640   4.644 -0.4287  0.5776  0.2756
14059TIP3    H163592   2.271   1.690   4.703  0.6226  1.0352 -1.0697
14059TIP3    H263593   2.177   1.572   4.700  0.4038  1.0875  1.5134
14060TIP3   OH263594   1.056   6.674  13.261 -0.3591  0.1642 -0.3618
14060TIP3    H163595   0.976   6.647  13.306 -1.0897 -0.1152 -1.7721
14060TIP3    H263596   1.125   6.669  13.328 -1.8323  2.5653  1.5251
14061TIP3   OH263597   4.602   1.034  12.843 -0.1111 -0.8526  0.4984
14061TIP3    H163598   4.555   1.085  12.777  1.1443  1.9766  1.6186
14061TIP3    H263599   4.533   0.995  12.897 -1.1381 -0.5441 -0.5614
14062TIP3   OH263600   1.892   1.388  14.837 -0.0614  0.2923  0.1685
14062TIP3    H163601   1.970   1.356  14.881  0.2043  0.5615 -0.1014
14062TIP3    H263602   1.822   1.329  14.864 -0.1047  1.0061  1.7227
14063TIP3   OH263603   5.779   0.026  15.564 -0.4150  0.4068 -0.2065
14063TIP3    H163604   5.749   0.003  15.652  1.3969  2.0157  0.9210
14063TIP3    H263605   5.788   0.122  15.567  3.0431  0.2350 -0.9275
14064TIP3   OH263606   4.927   2.014   5.744 -0.1222  0.2923  0.1387
14064TIP3    H163607   4.895   2.086   5.689  1.1332  0.7034 -0.0832
14064TIP3    H263608   4.862   2.006   5.814 -0.8011  0.9648 -0.4021
14065TIP3   OH263609   0.548   4.798  14.542  0.7607  0.5319  0.8473
14065TIP3    H163610   0.464   4.758  14.563  1.4873 -0.9424  1.1561
14065TIP3    H263611   0.553   4.794  14.446  0.6241  0.3097  0.8491
14066TIP3   OH263612   2.512   0.440  13.843 -0.8331 -0.2025 -0.1875
14066TIP3    H163613   2.557   0.399  13.769 -1.2646 -1.6392  0.2944
14066TIP3    H263614   2.508   0.371  13.909 -2.7669  0.1983  0.1853
14067TIP3   OH263615   3.760   5.587  13.090 -0.2446  0.2556 -0.2574
14067TIP3    H163616   3.845   5.609  13.053 -0.8835  1.5186 -1.0796
14067TIP3    H263617   3.778   5.520  13.155  1.2848  0.0120 -0.8923
14068TIP3   OH263618   2.586   1.454  15.384 -0.8545  0.5614  0.0946
14068TIP3    H163619   2.566   1.374  15.336  1.8658 -1.9880  2.6964
14068TIP3    H263620   2.676   1.476  15.358 -0.1439  0.3960  2.1582
14069TIP3   OH263621   2.137   5.484   0.296 -0.0275  0.4596 -0.4549
14069TIP3    H163622   2.206   5.493   0.230  0.3185 -0.0764 -0.1695
14069TIP3    H263623   2.060   5.523   0.255  0.6204  1.7362 -0.5025
14070TIP3   OH263624   4.581   0.893  15.574 -0.5540  0.7272 -0.0539
14070TIP3    H163625   4.653   0.837  15.548 -1.5321 -0.3358 -0.5425
14070TIP3    H263626   4.614   0.941  15.651 -0.2272 -1.7097  1.4128
14071TIP3   OH263627   3.434   4.653  12.547 -0.0934 -0.0732  0.0834
14071TIP3    H163628   3.406   4.586  12.486 -1.0669 -1.5383  2.0349
14071TIP3    H263629   3.382   4.638  12.626  0.6372  2.1265  1.0832
14072TIP3   OH263630   3.679   4.134  11.701  0.2172  0.1474  0.0655
14072TIP3    H163631   3.663   4.171  11.788  0.2850  1.6588 -0.5234
14072TIP3    H263632   3.657   4.206  11.641  0.9862 -0.5837 -1.1226
14073TIP3   OH263633   3.515   5.161   1.441 -0.2038 -0.2660 -0.4634
14073TIP3    H163634   3.542   5.250   1.465 -0.4043 -0.5302  0.8444
14073TIP3    H263635   3.498   5.165   1.347  1.0975  0.7443 -0.6945
14074TIP3   OH263636   0.235   4.501  11.072 -0.0799  1.0397 -0.4433
14074TIP3    H163637   0.282   4.470  10.995 -0.4182  1.4577 -0.8245
14074TIP3    H263638   0.164   4.437  11.085  2.1783 -1.2885  1.8510
14075TIP3   OH263639   6.664   0.730   0.046  0.2191 -0.2678  0.4366
14075TIP3    H163640   6.680   0.779   0.127  0.0904  2.2665 -0.9721
14075TIP3    H263641   6.739   0.752  -0.010  0.4883 -2.2542 -0.0453
14076TIP3   OH263642   5.206   0.662   2.204 -0.5082  0.2524 -0.5004
14076TIP3    H163643   5.191   0.606   2.128  0.2135 -0.0670 -0.4137
14076TIP3    H263644   5.154   0.741   2.186 -2.2219 -0.7742 -0.2262
14077TIP3   OH263645   0.755   0.198  15.742  0.0998 -0.2141  0.2577
14077TIP3    H163646   0.824   0.131  15.740  0.8959  0.5758  0.4760
14077TIP3    H263647   0.791   0.268  15.797 -0.3450  0.7904 -0.6874
14078TIP3   OH263648   2.447   3.498  14.550  0.2100  0.0213  0.2310
14078TIP3    H163649   2.463   3.443  14.474 -1.3847  1.1289 -0.9621
14078TIP3    H263650   2.477   3.585  14.523 -1.3449  0.6498  0.4367
14079TIP3   OH263651   1.030   1.649   4.750  0.5138 -0.3896  0.1221
14079TIP3    H163652   1.062   1.730   4.789  1.9468 -1.6157  1.6582
14079TIP3    H263653   0.936   1.663   4.740  0.6486  1.2643  0.8507
14080TIP3   OH263654   5.012   1.042   4.887 -0.2640  0.1262 -0.7457
14080TIP3    H163655   5.095   1.079   4.858 -1.1837  3.0975  0.0496
14080TIP3    H263656   4.948   1.071   4.822 -0.8774 -1.3432 -0.8508
14081TIP3   OH263657   3.685   1.209  17.010  1.0024 -0.3246  0.0405
14081TIP3    H163658   3.704   1.120  17.038 -0.2095 -1.0818 -1.3698
14081TIP3    H263659   3.728   1.265  17.074  0.2630 -1.9200  2.0340
14082TIP3   OH263660   2.753   4.443  14.673 -0.8537 -0.5303  0.5850
14082TIP3    H163661   2.678   4.387  14.651 -0.6954 -1.2194  1.7067
14082TIP3    H263662   2.724   4.490  14.752  0.7514 -2.6831  2.5994
14083TIP3   OH263663   5.750   0.350  12.882 -0.0398 -0.0265 -0.2722
14083TIP3    H163664   5.681   0.330  12.818 -1.2244 -1.4544  1.3632
14083TIP3    H263665   5.703   0.372  12.962  1.3956 -0.4065  0.7100
14084TIP3   OH263666   5.530   5.666   5.382 -0.2207 -0.4733 -0.1351
14084TIP3    H163667   5.443   5.641   5.351  0.1547 -1.9008 -0.1096
14084TIP3    H263668   5.590   5.612   5.330  0.5399 -1.0209  1.2582
14085TIP3   OH263669   1.695   2.884  16.835  0.2827 -0.1614 -0.0056
14085TIP3    H163670   1.612   2.927  16.814 -0.0604 -0.5314  0.5732
14085TIP3    H263671   1.685   2.853  16.925  0.9830 -0.3656  0.0122
14086TIP3   OH263672   1.205   4.835  12.990 -1.0779 -0.2688  0.0366
14086TIP3    H163673   1.192   4.742  12.970  0.8575 -0.0652 -2.7463
14086TIP3    H263674   1.172   4.881  12.913 -0.6116  1.2507  0.7123
14087TIP3   OH263675   6.647   3.856  14.120  0.1242 -0.3187  0.4199
14087TIP3    H163676   6.719   3.891  14.068 -1.3639 -1.1598 -2.4347
14087TIP3    H263677   6.613   3.931  14.168  0.5360  0.9019 -1.1429
14088TIP3   OH263678   4.056   1.245  13.341 -0.4443  0.0632 -0.3295
14088TIP3    H163679   4.006   1.171  13.374  0.4932 -0.0982  0.8214
14088TIP3    H263680   4.033   1.318  13.399  1.7191 -0.3857  1.2566
14089TIP3   OH263681   4.914   3.601  11.308  0.8029 -0.0011 -0.4538
14089TIP3    H163682   4.922   3.541  11.233  0.2749 -1.2907  0.4786
14089TIP3    H263683   4.857   3.554  11.370  0.4656  1.4353  0.3625
14090TIP3   OH263684   1.383   6.216  14.819  0.2903  0.6996  0.0261
14090TIP3    H163685   1.320   6.252  14.757  0.0802  1.7533  0.8252
14090TIP3    H263686   1.368   6.265  14.899 -0.8534 -1.9748  1.5937
14091TIP3   OH263687   0.162   2.850   3.303 -0.1002 -0.1944 -0.2040
14091TIP3    H163688   0.163   2.873   3.396  1.2673  0.8709 -0.4456
14091TIP3    H263689   0.230   2.783   3.294  0.0833  0.0267 -0.4977
14092TIP3   OH263690   4.964   3.212   2.680 -0.2325 -0.1591 -0.5195
14092TIP3    H163691   5.010   3.275   2.624  0.2631 -0.0868 -0.0503
14092TIP3    H263692   4.928   3.265   2.751 -0.0716 -0.3651 -0.2818
14093TIP3   OH263693   0.451   2.829  12.489  0.3269  0.0680  0.2732
14093TIP3    H163694   0.454   2.833  12.393 -1.5801  0.5844  0.1751
14093TIP3    H263695   0.510   2.758  12.512  0.2682 -0.5583 -1.3486
14094TIP3   OH263696   0.200   0.814  11.453 -0.7245 -0.1479  0.2251
14094TIP3    H163697   0.157   0.729  11.450 -0.3659 -0.3629  1.0632
14094TIP3    H263698   0.250   0.814  11.534  0.0338  0.4971 -0.2180
14095TIP3   OH263699   6.740   3.320  16.308 -0.3823  0.4865 -0.0633
14095TIP3    H163700   6.711   3.403  16.270 -0.1409  0.7545  0.3279
14095TIP3    H263701   6.811   3.291  16.250 -1.4633 -0.2226 -1.0792
14096TIP3   OH263702   0.308   0.989   2.775 -0.2410  0.4978  0.6761
14096TIP3    H163703   0.314   0.910   2.721  0.0018  0.3230  0.9578
14096TIP3    H263704   0.257   0.962   2.851  1.3639  0.1020  1.6688
14097TIP3   OH263705   1.064   4.776   2.918 -0.0811  0.0918  0.3883
14097TIP3    H163706   1.147   4.753   2.876 -1.3736 -1.2574 -1.6226
14097TIP3    H263707   1.056   4.871   2.905  0.3069 -0.0587 -1.0886
14098TIP3   OH263708   5.592   5.616   0.444  0.4740 -0.2904  0.1321
14098TIP3    H163709   5.555   5.543   0.396 -0.1565 -0.8064  1.3796
14098TIP3    H263710   5.544   5.619   0.526  1.0943  0.9723  0.4845
14099TIP3   OH263711   2.511   0.752   3.553 -0.1895 -0.2910 -0.0955
14099TIP3    H163712   2.549   0.787   3.473 -0.0967  2.3598  1.0027
14099TIP3    H263713   2.573   0.686   3.583  0.1720 -0.7332 -1.7604
14100TIP3   OH263714   5.477   0.160  15.725  0.3408 -0.7756  0.0911
14100TIP3    H163715   5.493   0.068  15.707 -0.8696 -0.5875 -2.3962
14100TIP3    H263716   5.413   0.160  15.796  1.1260 -1.7870  0.8267
14101TIP3   OH263717   1.261   3.557  11.933  0.1318  0.4794  0.1747
14101TIP3    H163718   1.351   3.584  11.918  0.0032  0.2496 -1.1841
14101TIP3    H263719   1.254   3.471  11.891 -0.3283 -0.2025  1.5811
14102TIP3   OH263720   0.592   3.515  14.067  0.0204 -0.3882 -0.2553
14102TIP3    H163721   0.649   3.458  14.118 -0.3672 -1.5400 -1.0663
14102TIP3    H263722   0.508   3.514  14.114 -0.1279 -0.8865 -0.5228
14103TIP3   OH263723   0.806   5.653   1.531 -0.5700  0.3147  0.2351
14103TIP3    H163724   0.871   5.597   1.488 -1.4926 -1.2050  0.7400
14103TIP3    H263725   0.857   5.708   1.590  0.2902 -0.7715  0.5452
14104TIP3   OH263726   0.185   0.133  10.974  0.1222 -0.0115 -0.6903
14104TIP3    H163727   0.272   0.168  10.994 -0.8924  1.2776  1.9191
14104TIP3    H263728   0.128   0.210  10.968 -1.3978 -0.9093  1.0254
14105TIP3   OH263729   3.864   4.861  13.726 -0.5897 -0.2546  0.5592
14105TIP3    H163730   3.809   4.938  13.741 -0.8735 -0.3005 -0.2216
14105TIP3    H263731   3.939   4.873  13.784 -0.8866  0.3523  0.8207
14106TIP3   OH263732   0.570   4.978  16.551 -0.1674  0.4429 -0.2159
14106TIP3    H163733   0.574   5.056  16.605 -0.7958 -0.5516  1.3185
14106TIP3    H263734   0.643   4.987  16.490 -1.2156  3.0153 -1.2149
14107TIP3   OH263735   4.687   0.192  10.989  0.2589  0.2533 -0.2502
14107TIP3    H163736   4.752   0.130  10.955  1.1283  0.7919  0.3757
14107TIP3    H263737   4.722   0.278  10.966 -0.6872  0.5375 -0.6697
14108TIP3   OH263738   0.722   5.661  14.794  0.2011  0.4269 -0.2772
14108TIP3    H163739   0.790   5.597  14.774 -0.5623 -0.0230 -1.5473
14108TIP3    H263740   0.728   5.673  14.889  0.8235 -0.9940 -0.1033
14109TIP3   OH263741   1.151   3.600  12.581 -0.6276 -0.3957  0.7430
14109TIP3    H163742   1.198   3.682  12.567  0.2985 -0.7266  1.7475
14109TIP3    H263743   1.065   3.614  12.541  1.1661 -0.7798 -3.7211
14110TIP3   OH263744   5.996   5.010  14.856  0.0963 -0.3332 -0.3832
14110TIP3    H163745   5.975   5.060  14.934 -0.9842 -1.2698 -0.0407
14110TIP3    H263746   5.937   5.044  14.788  2.0029  1.4684 -1.2468
14111TIP3   OH263747   2.316   4.903  11.047  0.0622  0.1914  0.0259
14111TIP3    H163748   2.244   4.919  10.987  0.2487 -1.7485 -0.8074
14111TIP3    H263749   2.395   4.913  10.994  0.2692 -0.5396  0.1772
14112TIP3   OH263750   0.704   4.157  13.630  0.0044 -0.0801  0.1178
14112TIP3    H163751   0.766   4.204  13.574 -0.4763  0.1072 -0.2613
14112TIP3    H263752   0.760   4.107  13.690  0.5232 -0.1045 -0.3735
14113TIP3   OH263753   3.058   3.710  16.326  0.7016 -0.4546  0.2532
14113TIP3    H163754   3.070   3.649  16.399 -0.9288 -1.5044 -0.3043
14113TIP3    H263755   2.996   3.666  16.268 -0.0739  1.4891 -0.4712
14114TIP3   OH263756   5.917   0.560   0.173 -0.2445 -0.0587 -0.2266
14114TIP3    H163757   5.984   0.604   0.119  0.7310  0.6370  1.4824
14114TIP3    H263758   5.889   0.627   0.235 -0.6705 -1.0909  0.7272
14115TIP3   OH263759   4.566   1.611  16.851 -0.3628 -0.3027 -0.3607
14115TIP3    H163760   4.593   1.702  16.846  1.7250 -0.6807  2.3066
14115TIP3    H263761   4.634   1.563  16.803 -1.1875 -0.5747 -1.3205
14116TIP3   OH263762   0.170   2.628  15.302 -0.9238  0.1292 -0.8261
14116TIP3    H163763   0.213   2.543  15.290  1.7871  1.0010  1.6340
14116TIP3    H263764   0.147   2.630  15.395 -1.0769  2.0236 -0.8747
14117TIP3   OH263765   6.044   1.610   6.345  1.1565  0.0093 -0.3472
14117TIP3    H163766   6.062   1.568   6.429  0.3795 -0.1500 -0.2527
14117TIP3    H263767   5.990   1.686   6.367  0.0272 -0.6343 -0.7825
14118TIP3   OH263768   2.060   0.552  14.077 -0.0882  0.3196 -0.5693
14118TIP3    H163769   2.033   0.590  14.160 -0.4434 -2.4797  0.7271
14118TIP3    H263770   1.981   0.552  14.023 -0.8030 -0.9505  0.4174
14119TIP3   OH263771   5.278   4.374  13.034  0.2184  0.5349 -0.3012
14119TIP3    H163772   5.313   4.408  12.952  0.1450  0.8160 -0.2179
14119TIP3    H263773   5.332   4.415  13.102 -0.0701  0.7307 -0.1854
14120TIP3   OH263774   2.125   6.748   2.878  0.0566  0.3059 -0.0645
14120TIP3    H163775   2.043   6.711   2.910 -0.5113  0.3918 -1.3591
14120TIP3    H263776   2.173   6.773   2.957 -0.3820 -1.3879  0.7899
14121TIP3   OH263777   5.336   5.639  12.763  0.4996  0.1485 -0.3117
14121TIP3    H163778   5.344   5.733  12.750 -0.0163  0.0354 -1.6385
14121TIP3    H263779   5.377   5.600  12.686 -0.5323 -0.6678 -0.4812
14122TIP3   OH263780   3.789   3.647   6.392  0.8670  0.0695  0.2195
14122TIP3    H163781   3.731   3.571   6.396  0.4861  0.2762 -1.0048
14122TIP3    H263782   3.747   3.711   6.450  1.5770 -0.8644  1.8428
14123TIP3   OH263783   3.686   1.388  16.788  0.5848 -0.1209  0.1638
14123TIP3    H163784   3.682   1.345  16.873  0.7153 -0.7119 -0.1208
14123TIP3    H263785   3.613   1.350  16.738 -0.9908  1.9356  0.7617
14124TIP3   OH263786   3.008   3.475  13.678  0.2172 -0.0980 -0.2736
14124TIP3    H163787   3.096   3.450  13.705  0.1650 -0.0821 -0.0882
14124TIP3    H263788   2.976   3.401  13.627  1.0325  0.6204 -1.9370
14125TIP3   OH263789   1.190   5.954   5.328  0.3257  0.7038  0.7619
14125TIP3    H163790   1.152   5.867   5.316  0.0181  0.8081  0.9710
14125TIP3    H263791   1.282   5.937   5.351  0.2824  0.4357  0.7383
14126TIP3   OH263792   4.280   6.422   2.499 -0.2325 -0.3049 -0.3303
14126TIP3    H163793   4.322   6.348   2.454  0.3306 -0.7038  0.8147
14126TIP3    H263794   4.222   6.380   2.563 -1.8206  0.2433 -1.3426
14127TIP3   OH263795   4.489   3.677   0.420  0.0386 -0.3500 -0.0826
14127TIP3    H163796   4.444   3.712   0.343  0.5548  0.5548  0.0159
14127TIP3    H263797   4.419   3.644   0.476 -0.4084 -0.1234 -0.5055
14128TIP3   OH263798   4.000   3.259  12.829  0.2671 -0.2001 -0.1330
14128TIP3    H163799   3.941   3.265  12.904  0.8977  1.2094  0.2672
14128TIP3    H263800   4.009   3.349  12.798  0.8511 -0.6278 -1.2653
14129TIP3   OH263801   6.168   4.725  12.060  0.1859 -0.0891 -0.3858
14129TIP3    H163802   6.238   4.663  12.040  0.5898  0.3564 -0.3611
14129TIP3    H263803   6.096   4.700  12.001  0.4019 -0.4747 -0.4909
14130TIP3   OH263804   0.294   4.118  14.137 -0.1247 -0.1245 -0.0216
14130TIP3    H163805   0.315   4.209  14.116 -0.8036  0.2677  0.9479
14130TIP3    H263806   0.245   4.087  14.061  0.4071  0.2081 -0.5070
14131TIP3   OH263807   2.706   3.637   4.021 -0.2299 -0.2195 -0.2232
14131TIP3    H163808   2.632   3.633   3.961 -0.2171 -1.6557 -0.1979
14131TIP3    H263809   2.679   3.585   4.096  0.2818  0.3973  0.3999
14132TIP3   OH263810   1.073   5.360  13.501  0.1457 -0.0420  0.3927
14132TIP3    H163811   1.124   5.441  13.509  0.3926 -0.3075  1.6142
14132TIP3    H263812   1.127   5.305  13.444  0.2383  0.4346  0.0023
14133TIP3   OH263813   4.451   0.430  12.200 -1.3591  0.0333 -0.2011
14133TIP3    H163814   4.455   0.362  12.133 -0.2300 -0.6456  0.5216
14133TIP3    H263815   4.494   0.506  12.161 -0.8712 -0.3000 -0.3209
14134TIP3   OH263816   0.275   6.477   2.140 -0.5474  0.2540 -0.1710
14134TIP3    H163817   0.183   6.489   2.165 -1.0346 -1.8723 -0.7578
14134TIP3    H263818   0.309   6.413   2.204  0.1141 -0.0384 -0.7995
14135TIP3   OH263819   0.440   4.812   2.020 -0.0588  0.1513 -0.5309
14135TIP3    H163820   0.384   4.819   1.943 -1.3602  1.0810  0.4478
14135TIP3    H263821   0.519   4.860   1.997 -1.1470  1.9525 -0.7073
14136TIP3   OH263822   1.627   3.819  16.307 -0.5168  0.2579 -0.1236
14136TIP3    H163823   1.583   3.876  16.370  0.3644 -0.2804  1.0190
14136TIP3    H263824   1.679   3.878  16.253 -0.9887  0.6959 -0.1064
14137TIP3   OH263825   1.567   4.038  12.900  0.2065 -0.3358  0.2149
14137TIP3    H163826   1.662   4.044  12.909  0.3987 -0.3078 -1.4960
14137TIP3    H263827   1.535   4.127  12.914  0.3738 -0.4294  1.2426
14138TIP3   OH263828   6.412   6.183  17.281  0.1090  0.2201 -0.2526
14138TIP3    H163829   6.324   6.148  17.293 -0.2528  1.0266 -0.4949
14138TIP3    H263830   6.400   6.263  17.230  1.0299  0.0811 -0.7233
14139TIP3   OH263831   2.421   5.563  13.947  0.3722 -0.3761  0.1603
14139TIP3    H163832   2.331   5.531  13.947  0.6933 -1.3627  1.4027
14139TIP3    H263833   2.428   5.616  13.867 -0.7198 -1.9233 -1.0124
14140TIP3   OH263834   4.423   1.748   0.606 -0.0446  0.1461 -0.0400
14140TIP3    H163835   4.438   1.721   0.515  1.5703  0.3871  0.1185
14140TIP3    H263836   4.508   1.782   0.635 -0.7012  0.6713  1.3648
14141TIP3   OH263837   1.295   5.150   5.753  0.4541  0.5017  0.4249
14141TIP3    H163838   1.252   5.222   5.800 -1.7020 -0.0253 -0.6001
14141TIP3    H263839   1.344   5.193   5.683  2.4138  1.1751  2.1132
14142TIP3   OH263840   4.318   1.477   3.497  0.3388  0.4790  0.2427
14142TIP3    H163841   4.337   1.414   3.428  1.3229  0.8581  0.1484
14142TIP3    H263842   4.223   1.482   3.500  0.2782 -0.0019 -0.6589
14143TIP3   OH263843   2.116   3.210   5.405  0.4077 -0.1039 -0.0111
14143TIP3    H163844   2.176   3.154   5.356  1.2475 -0.4611  1.3910
14143TIP3    H263845   2.068   3.150   5.462 -1.0860  0.2198 -0.8580
14144TIP3   OH263846   0.429   2.881   5.992  0.5222 -0.0824  0.0349
14144TIP3    H163847   0.512   2.835   5.977  1.3167  1.1626  0.4881
14144TIP3    H263848   0.422   2.888   6.087  0.7218  1.2155 -0.0210
14145TIP3   OH263849   3.474   6.661  14.526  0.0634 -0.5639  0.7223
14145TIP3    H163850   3.437   6.664  14.615  0.0332 -0.4398  0.7057
14145TIP3    H263851   3.559   6.705  14.534 -1.6354  3.3435 -0.1315
14146TIP3   OH263852   6.081   2.534  10.862 -0.2696 -0.4983  0.3390
14146TIP3    H163853   6.069   2.469  10.931 -2.9075 -1.2206 -0.6696
14146TIP3    H263854   5.992   2.553  10.831  0.6751  1.1351 -1.6422
14147TIP3   OH263855   5.730   3.854  13.109 -0.1324  0.2570 -0.0017
14147TIP3    H163856   5.647   3.806  13.115  1.2591 -2.1466  1.9381
14147TIP3    H263857   5.783   3.803  13.047  0.9940 -0.1489  1.2529
14148TIP3   OH263858   0.736   4.053   6.115 -0.1331  0.1420 -0.3344
14148TIP3    H163859   0.829   4.049   6.092 -0.3678  0.1280 -1.3013
14148TIP3    H263860   0.691   4.010   6.042 -0.9514  0.7518 -0.2027
14149TIP3   OH263861   3.281   6.342  14.410 -0.2377 -0.3300 -0.1472
14149TIP3    H163862   3.218   6.370  14.476 -0.6853 -2.0169  0.1645
14149TIP3    H263863   3.366   6.366  14.447 -0.2031 -3.7513  2.4962
14150TIP3   OH263864   1.475   5.690   2.363  0.0196 -0.0307  0.0241
14150TIP3    H163865   1.480   5.594   2.372 -2.1461 -0.2172 -0.1996
14150TIP3    H263866   1.430   5.719   2.442 -0.0272  0.7108 -0.2699
14151TIP3   OH263867   3.223   6.242   2.275 -1.0429  0.1188 -0.4581
14151TIP3    H163868   3.292   6.204   2.222 -0.5661 -0.5446  0.6054
14151TIP3    H263869   3.180   6.305   2.218 -2.8642 -3.0066 -2.8760
14152TIP3   OH263870   2.507   1.323  12.090  0.0396  0.1952  0.6661
14152TIP3    H163871   2.471   1.287  12.171 -2.3183  1.2043  0.1493
14152TIP3    H263872   2.479   1.414  12.090  1.3768  0.6391 -0.5527
14153TIP3   OH263873   2.614   5.233   2.661 -0.1653 -0.1973 -0.4419
14153TIP3    H163874   2.612   5.324   2.690  0.3608 -0.2389 -0.2595
14153TIP3    H263875   2.553   5.229   2.588 -0.5460  0.1953 -0.1447
14154TIP3   OH263876   2.787   4.040   0.826  0.5920 -0.0448 -0.0234
14154TIP3    H163877   2.745   4.102   0.766  1.6512  0.2984 -0.4350
14154TIP3    H263878   2.742   3.957   0.811 -0.5786  0.5258  0.2497
14155TIP3   OH263879   6.343   2.379  16.125 -0.5328 -0.1499  0.0359
14155TIP3    H163880   6.396   2.405  16.201  1.2239 -1.9336 -0.4983
14155TIP3    H263881   6.372   2.435  16.054 -0.7023  0.1292  0.1850
14156TIP3   OH263882   3.346   5.260   3.981  0.4245 -0.5372 -0.3319
14156TIP3    H163883   3.410   5.330   3.994  0.1182 -0.4168  0.5597
14156TIP3    H263884   3.273   5.283   4.038 -1.0095  0.0218 -2.2858
14157TIP3   OH263885   6.681   5.852   1.473  0.3088 -0.6207  0.0843
14157TIP3    H163886   6.703   5.877   1.383  0.8619 -0.1500  0.3428
14157TIP3    H263887   6.671   5.757   1.470 -0.1534 -0.5584 -0.5722
14158TIP3   OH263888   5.383   5.285  17.232  0.3958 -0.1979  0.1734
14158TIP3    H163889   5.335   5.363  17.262  0.2024  0.0543 -0.7684
14158TIP3    H263890   5.475   5.312  17.233  0.1882  0.9568 -2.5992
14159TIP3   OH263891   4.992   0.143   2.588 -0.3112  0.0623  0.0049
14159TIP3    H163892   5.063   0.146   2.524 -1.2452 -1.0798 -1.1479
14159TIP3    H263893   5.015   0.070   2.645  0.0409  0.4693  0.3903
14160TIP3   OH263894   0.791   4.229  17.011  0.0593 -0.0521  0.2687
14160TIP3    H163895   0.884   4.241  16.991  0.0361 -1.2398 -0.6646
14160TIP3    H263896   0.784   4.140  17.045 -0.8820 -0.4117 -0.7908
14161TIP3   OH263897   6.040   1.379  14.081 -0.2588 -0.0757 -0.0889
14161TIP3    H163898   6.091   1.304  14.051  0.1091  0.1636 -0.0801
14161TIP3    H263899   6.007   1.353  14.167  0.2281 -0.0663  0.1048
14162TIP3   OH263900   5.582   6.006  15.979  0.3431  0.2717 -0.5699
14162TIP3    H163901   5.601   6.088  16.025  0.0566 -0.2217  0.4551
14162TIP3    H263902   5.648   5.945  16.011 -0.4255 -0.3279 -0.1280
14163TIP3   OH263903   5.532   0.240   1.606  0.6750  0.6403 -0.3695
14163TIP3    H163904   5.486   0.234   1.522  0.8807  2.8759 -0.7204
14163TIP3    H263905   5.467   0.275   1.667  0.6324 -0.6227  0.3345
14164TIP3   OH263906   2.814   4.377  16.478  0.4271  0.7492  0.1489
14164TIP3    H163907   2.807   4.318  16.404  0.1708  1.4429 -0.3937
14164TIP3    H263908   2.903   4.412  16.473  0.7326  0.0839  0.7336
14165TIP3   OH263909   1.791   4.709   1.208 -0.1710  0.2683  0.4597
14165TIP3    H163910   1.854   4.641   1.231 -0.4240 -0.0185  0.3021
14165TIP3    H263911   1.802   4.775   1.277  0.0537  0.0580  0.6291
14166TIP3   OH263912   6.326   2.581   1.065  0.3931  0.5137  0.4656
14166TIP3    H163913   6.383   2.649   1.030  1.6490 -0.9149 -0.3710
14166TIP3    H263914   6.364   2.557   1.149 -0.4699  1.3243  1.1060
14167TIP3   OH263915   2.342   1.736  15.262 -0.4493 -0.0934 -0.3286
14167TIP3    H163916   2.267   1.710  15.314 -1.8507  2.1700 -1.0501
14167TIP3    H263917   2.355   1.828  15.283 -0.2996  0.5895 -2.9687
14168TIP3   OH263918   3.723   3.047  16.638  0.0222 -0.0807 -0.2247
14168TIP3    H163919   3.641   2.999  16.650  0.6556 -1.2122 -0.2942
14168TIP3    H263920   3.744   3.036  16.545  0.6696 -0.5071 -0.0365
14169TIP3   OH263921   1.214   4.131   1.562 -0.4440 -0.3107  0.2987
14169TIP3    H163922   1.205   4.200   1.495 -0.3869  0.5711  1.1781
14169TIP3    H263923   1.306   4.107   1.559 -0.4966 -0.4789 -0.1236
14170TIP3   OH263924   0.626   4.265   0.261 -0.4505  0.0524  0.0559
14170TIP3    H163925   0.672   4.263   0.177  0.2324  0.4197  0.4136
14170TIP3    H263926   0.534   4.246   0.239 -0.0507 -1.1777 -0.6010
14171TIP3   OH263927   4.832   4.221   4.479  0.2828  0.2899  0.3651
14171TIP3    H163928   4.842   4.147   4.540  3.7326 -0.4410 -0.8008
14171TIP3    H263929   4.813   4.296   4.535 -0.2390 -0.9378  1.9267
14172TIP3   OH263930   3.631   5.535   5.460  0.2209 -0.3200  0.4378
14172TIP3    H163931   3.596   5.586   5.534 -0.2504 -3.3198  2.4785
14172TIP3    H263932   3.710   5.493   5.495  0.2396 -1.4803 -0.8985
14173TIP3   OH263933   3.336   2.856   2.155  0.0486  0.5917 -0.2207
14173TIP3    H163934   3.368   2.915   2.223 -0.3465 -0.1660  0.6419
14173TIP3    H263935   3.415   2.820   2.115  0.2863  1.3671 -0.4504
14174TIP3   OH263936   1.240   5.575  10.274  0.8470 -0.0344  0.2577
14174TIP3    H163937   1.210   5.652  10.225 -1.6187 -0.5187  0.8387
14174TIP3    H263938   1.160   5.524  10.287  2.0330 -1.5654  1.8884
14175TIP3   OH263939   6.596   6.577  13.794 -0.4248 -0.8290  0.0093
14175TIP3    H163940   6.524   6.639  13.786 -0.3309 -0.9258 -1.9789
14175TIP3    H263941   6.555   6.498  13.829 -0.4220  0.4542  3.2573
14176TIP3   OH263942   4.934   4.312   2.243 -0.3035  0.2328  0.1605
14176TIP3    H163943   4.845   4.275   2.250 -0.4998  0.4533 -1.0581
14176TIP3    H263944   4.980   4.253   2.184 -0.3491  1.3998 -1.0923
14177TIP3   OH263945   2.741   4.707  15.197  0.3528 -0.2260  0.2550
14177TIP3    H163946   2.795   4.779  15.231  1.1795 -1.2638  1.1806
14177TIP3    H263947   2.778   4.628  15.235  0.4149 -1.3233 -1.9404
14178TIP3   OH263948   1.688   0.444  16.844  0.1378  0.5440  0.0269
14178TIP3    H163949   1.744   0.491  16.782  0.1428  1.0796  0.4311
14178TIP3    H263950   1.714   0.477  16.930  0.4343 -0.5003  0.3644
14179TIP3   OH263951   4.890   2.277  14.422  0.1670 -0.2882  0.2389
14179TIP3    H163952   4.967   2.245  14.470  0.5270  0.4304  0.1456
14179TIP3    H263953   4.923   2.299  14.335  0.1862  1.4470  0.6563
14180TIP3   OH263954   5.082   3.756   5.781  0.2141 -0.2280  0.1346
14180TIP3    H163955   5.027   3.699   5.726  1.1292 -0.4596 -0.5642
14180TIP3    H263956   5.068   3.844   5.746  1.3030 -0.4550 -0.9405
14181TIP3   OH263957   5.369   0.458  11.978  0.1357 -0.2414 -0.1457
14181TIP3    H163958   5.324   0.528  11.931  2.6266  1.2066 -0.5479
14181TIP3    H263959   5.450   0.445  11.929 -0.1719 -3.4000 -0.0307
14182TIP3   OH263960   1.124   5.920  11.389 -0.5854 -0.1216 -0.3558
14182TIP3    H163961   1.078   5.895  11.469  0.4820 -0.8472  0.0555
14182TIP3    H263962   1.181   5.992  11.417  1.3808 -1.7570  0.1055
14183TIP3   OH263963   2.106   2.286  13.796  0.0468 -0.2637 -0.3943
14183TIP3    H163964   2.144   2.214  13.745 -0.2004 -2.4168  2.2225
14183TIP3    H263965   2.015   2.290  13.767  0.2048 -0.6194 -0.9541
14184TIP3   OH263966   3.359   1.829   0.529  0.5393  0.1740 -0.3262
14184TIP3    H163967   3.361   1.773   0.607 -1.9598  0.7209  0.2304
14184TIP3    H263968   3.410   1.906   0.554 -0.3120  0.3946  0.8368
14185TIP3   OH263969   4.811   2.290  17.225 -0.3879  0.2909  0.1004
14185TIP3    H163970   4.879   2.358  17.233  0.1635 -0.3090  0.6518
14185TIP3    H263971   4.800   2.257  17.314 -0.0412 -0.9084 -0.2802
14186TIP3   OH263972   3.322   0.098   4.033  0.8024  0.4728 -0.3304
14186TIP3    H163973   3.400   0.091   3.978  0.9569 -0.2681 -0.0332
14186TIP3    H263974   3.356   0.116   4.121  0.6864 -0.3581 -0.0988
14187TIP3   OH263975   1.325   5.499  13.405 -0.1467 -0.7017  0.2356
14187TIP3    H163976   1.269   5.566  13.366  2.1119 -1.0780 -4.2673
14187TIP3    H263977   1.394   5.549  13.450 -0.4763 -0.1117  0.0999
14188TIP3   OH263978   1.800   2.778  16.396  0.1502 -0.1979  0.3471
14188TIP3    H163979   1.890   2.801  16.372 -0.1548 -1.0200 -1.8022
14188TIP3    H263980   1.807   2.743  16.484  1.5707  1.8774  1.1409
14189TIP3   OH263981   2.203   0.640   1.911  0.0694 -0.2911  0.6966
14189TIP3    H163982   2.188   0.734   1.923  0.7048 -0.2481  1.1754
14189TIP3    H263983   2.205   0.628   1.816 -0.5099  0.0958  0.6295
14190TIP3   OH263984   3.757   4.128   3.641 -0.7865 -0.1424  0.0513
14190TIP3    H163985   3.843   4.103   3.606 -0.0910  4.1699 -1.9154
14190TIP3    H263986   3.698   4.059   3.609  1.4003 -1.4850 -1.4279
14191TIP3   OH263987   5.685   1.654   5.940  0.2003  0.6750  0.3753
14191TIP3    H163988   5.610   1.623   5.990  0.4888 -1.0023 -0.1621
14191TIP3    H263989   5.759   1.649   6.001  0.1140  1.0834  0.5185
14192TIP3   OH263990   0.888   5.084   2.135  0.1237  0.1959 -0.3698
14192TIP3    H163991   0.809   5.125   2.101 -0.2255 -0.9311 -0.9744
14192TIP3    H263992   0.930   5.044   2.059 -0.4375 -1.9827  0.3801
14193TIP3   OH263993   4.378   5.274  11.726 -0.1837  0.2929  0.1426
14193TIP3    H163994   4.323   5.231  11.791 -1.2356  0.0336 -0.8864
14193TIP3    H263995   4.337   5.359  11.712  0.7075  0.8191  0.6564
14194TIP3   OH263996   2.355   3.341  17.217 -0.1931  0.4392 -0.9034
14194TIP3    H163997   2.417   3.269  17.211  1.8953  2.0497  0.0308
14194TIP3    H263998   2.370   3.393  17.138  1.1157  1.8688  0.2171
14195TIP3   OH263999   4.828   4.776   1.321  0.2059  0.1771 -0.4155
14195TIP3    H164000   4.756   4.718   1.347  0.1868  0.8331  1.0692
14195TIP3    H264001   4.841   4.757   1.228 -0.3776 -1.5778 -0.1854
14196TIP3   OH264002   0.442   5.360  11.466  0.1745  0.5603  0.6378
14196TIP3    H164003   0.431   5.273  11.505 -0.3353  0.9455  1.3873
14196TIP3    H264004   0.353   5.386  11.441  0.7160 -0.6558 -3.0363
14197TIP3   OH264005   3.642   0.090  15.266 -0.0320  0.3560 -0.0018
14197TIP3    H164006   3.718   0.116  15.318  2.4904  0.1757 -3.2635
14197TIP3    H264007   3.641  -0.006  15.272 -0.4621  0.3949  0.6044
14198TIP3   OH264008   0.851   0.625  11.143  0.2613  0.2366 -0.4238
14198TIP3    H164009   0.919   0.679  11.185  1.2209  1.1342 -2.9220
14198TIP3    H264010   0.853   0.652  11.051 -0.5111 -2.7955 -1.4448
14199TIP3   OH264011   2.143   1.393  10.899  0.4312  0.2927 -0.3898
14199TIP3    H164012   2.107   1.316  10.854  0.3216  0.0688  0.0698
14199TIP3    H264013   2.228   1.407  10.859  0.5242 -0.1733 -0.3639
14200TIP3   OH264014   0.242   3.989  16.625 -0.6167 -0.1740 -0.5207
14200TIP3    H164015   0.190   4.063  16.654 -0.7632 -0.4497 -0.0775
14200TIP3    H264016   0.331   4.009  16.653 -0.7731 -0.4823  0.2025
14201TIP3   OH264017   4.681   5.132   4.548 -0.0490  0.0762  0.1983
14201TIP3    H164018   4.686   5.179   4.465 -1.0892  0.8401  0.5505
14201TIP3    H264019   4.756   5.164   4.599 -1.4328  2.3923  0.9242
14202TIP3   OH264020   6.685   1.404  15.888 -0.2710 -0.2128  0.4745
14202TIP3    H164021   6.715   1.452  15.811 -1.4883 -0.3511 -0.1121
14202TIP3    H264022   6.716   1.455  15.962  1.4071 -0.3659 -0.0713
14203TIP3   OH264023   3.602   4.743   2.804  0.0610 -0.6574  0.1210
14203TIP3    H164024   3.652   4.814   2.764 -0.1223  1.3138  3.1318
14203TIP3    H264025   3.649   4.721   2.884 -2.4250 -0.5705  1.7014
14204TIP3   OH264026   0.415   4.475   0.122  0.2323 -0.7733 -0.3148
14204TIP3    H164027   0.443   4.396   0.170  1.3010  0.0792  0.5277
14204TIP3    H264028   0.327   4.454   0.091 -0.1861 -1.6755  1.3510
14205TIP3   OH264029   1.804   5.506  11.880  0.9395 -0.2990  0.8045
14205TIP3    H164030   1.719   5.462  11.888  0.9713 -0.6610 -0.5790
14205TIP3    H264031   1.796   5.559  11.800  1.7765  0.2314  1.0566
14206TIP3   OH264032   5.330   2.608  12.997  0.3592 -0.2183  0.3349
14206TIP3    H164033   5.301   2.657  12.920 -0.7490 -0.1508  0.7799
14206TIP3    H264034   5.368   2.674  13.055 -1.0284  0.1467  0.8840
14207TIP3   OH264035   6.372   2.094   6.648  0.2083 -0.4093  0.1065
14207TIP3    H164036   6.401   2.020   6.594 -1.3082 -0.4569 -0.6766
14207TIP3    H264037   6.323   2.053   6.719 -1.4408 -0.1416 -0.8405
14208TIP3   OH264038   4.586   2.767  13.391  0.3568 -0.1349  0.3725
14208TIP3    H164039   4.512   2.822  13.364  0.7437 -0.2833 -1.0658
14208TIP3    H264040   4.610   2.719  13.312  2.5392  0.5109  0.5762
14209TIP3   OH264041   0.639   5.345   5.037 -0.3670 -0.0779 -0.1185
14209TIP3    H164042   0.590   5.419   5.073 -0.2514 -0.0264 -0.0642
14209TIP3    H264043   0.722   5.346   5.086  0.1535  0.5276 -0.9750
14210TIP3   OH264044   0.979   3.478   0.344  0.1315  0.3788 -0.2294
14210TIP3    H164045   1.017   3.566   0.341  1.1469 -0.0622 -0.6122
14210TIP3    H264046   1.035   3.430   0.404 -1.2607  0.3611  1.1005
14211TIP3   OH264047   1.874   5.034   0.932  0.1137 -0.5787 -0.3060
14211TIP3    H164048   1.793   4.983   0.925  0.4620 -1.4735  1.5627
14211TIP3    H264049   1.856   5.098   1.001  0.8528 -0.5053 -0.1759
14212TIP3   OH264050   2.554   4.762   3.825  0.3173  0.2688  0.8584
14212TIP3    H164051   2.573   4.750   3.918  1.2981 -1.2390  0.5021
14212TIP3    H264052   2.632   4.806   3.791  1.0641 -1.3785  0.3321
14213TIP3   OH264053   5.352   5.024  13.597 -0.0529  0.2468 -0.4655
14213TIP3    H164054   5.358   5.080  13.520  0.3411 -1.2119 -1.5402
14213TIP3    H264055   5.278   4.966  13.578  0.0969 -0.1703  0.2150
14214TIP3   OH264056   0.888   3.255  14.837  0.3274  0.1501  0.2329
14214TIP3    H164057   0.902   3.318  14.766 -1.5171  0.3106 -0.0448
14214TIP3    H264058   0.802   3.217  14.818  2.0213 -3.7287 -0.5639
14215TIP3   OH264059   2.296   4.585   5.284  0.0078 -0.4551 -0.1806
14215TIP3    H164060   2.264   4.497   5.263  1.3400 -0.6356 -1.6210
14215TIP3    H264061   2.262   4.640   5.213  2.2500 -0.5372 -1.4069
14216TIP3   OH264062   2.691   1.738  17.313 -0.1692  1.0953  0.1315
14216TIP3    H164063   2.726   1.684  17.383  0.4689  0.2214 -0.8238
14216TIP3    H264064   2.598   1.747  17.333  0.1224  1.3827  1.4014
14217TIP3   OH264065   4.258   4.081  17.077  0.5523 -0.1097  0.1062
14217TIP3    H164066   4.176   4.036  17.057 -0.6034  2.2077 -0.6830
14217TIP3    H264067   4.271   4.067  17.171 -0.6793 -0.6387  0.2092
14218TIP3   OH264068   1.250   1.472   5.779  0.2084 -0.3448 -0.2433
14218TIP3    H164069   1.158   1.484   5.753 -0.3646 -1.5647  1.1360
14218TIP3    H264070   1.246   1.447   5.871  1.9872  0.3339  0.0463
14219TIP3   OH264071   0.154   4.589   3.045  0.2736 -0.2189  0.0936
14219TIP3    H164072   0.232   4.563   3.094  0.0553  1.1325  1.2304
14219TIP3    H264073   0.173   4.679   3.017 -0.5736 -0.1486 -0.2785
14220TIP3   OH264074   4.697   5.865  13.059  0.5914  0.4604  0.0522
14220TIP3    H164075   4.785   5.836  13.082  0.6969  1.2096  0.6388
14220TIP3    H264076   4.651   5.785  13.033  1.6313  0.1560 -0.9329
14221TIP3   OH264077   1.685   6.737   0.799 -0.1732  0.1911  0.5485
14221TIP3    H164078   1.771   6.708   0.768 -0.4827 -0.9910  0.7549
14221TIP3    H264079   1.700   6.769   0.888 -0.3139 -2.3603  1.5787
14222TIP3   OH264080   6.013   0.934  12.961 -0.2423 -0.6848  0.0927
14222TIP3    H164081   5.984   0.946  13.051  1.7106 -1.5783  0.9012
14222TIP3    H264082   5.947   0.878  12.921 -1.1192 -0.2936  0.9637
14223TIP3   OH264083   0.596   5.458  15.718 -0.3193  0.2343  0.5556
14223TIP3    H164084   0.679   5.492  15.752 -1.7985  1.1063  3.6841
14223TIP3    H264085   0.561   5.530  15.665  0.1372  0.5288  0.6458
14224TIP3   OH264086   3.328   6.155   4.509  0.0996  0.1609 -0.0494
14224TIP3    H164087   3.361   6.118   4.427 -2.2837 -0.2073 -0.9328
14224TIP3    H264088   3.266   6.223   4.482 -0.4261  0.3170  1.4381
14225TIP3   OH264089   5.194   4.389   5.172  0.3417 -0.2676  0.2579
14225TIP3    H164090   5.142   4.449   5.119  1.7642  0.0626 -0.8274
14225TIP3    H264091   5.130   4.343   5.227 -0.9334  1.1259  0.0101
14226TIP3   OH264092   4.181   1.829  12.211 -0.4476 -0.3570  0.1026
14226TIP3    H164093   4.225   1.815  12.127 -0.3229  1.5250 -0.2011
14226TIP3    H264094   4.105   1.772  12.208  0.4226 -1.5326 -0.5937
14227TIP3   OH264095   4.737   1.901   6.157  0.3651  0.2073  0.0873
14227TIP3    H164096   4.681   1.906   6.234 -2.1256 -0.2437 -1.5645
14227TIP3    H264097   4.774   1.813   6.160  2.4765  1.0714  2.0860
14228TIP3   OH264098   2.820   2.489   0.029  0.2007 -0.7065 -0.2220
14228TIP3    H164099   2.753   2.496   0.096  0.2014  0.2995 -0.3100
14228TIP3    H264100   2.890   2.438   0.070  0.0470 -0.4154  0.4051
14229TIP3   OH264101   4.511   5.907   2.891  0.3814  0.1670 -0.6033
14229TIP3    H164102   4.469   5.821   2.899  1.8276 -0.9615 -3.4804
14229TIP3    H264103   4.474   5.959   2.962 -0.2895 -2.9233  1.5045
14230TIP3   OH264104   4.901   0.302   5.104  0.0139 -0.4628 -0.2090
14230TIP3    H164105   4.980   0.249   5.117  0.1323  0.0125  1.2690
14230TIP3    H264106   4.829   0.239   5.109  0.2791 -0.9429 -1.8602
14231TIP3   OH264107   2.581   1.728   2.300  0.2918  0.0318 -0.0712
14231TIP3    H164108   2.642   1.677   2.353 -0.5497 -0.5379  0.3740
14231TIP3    H264109   2.637   1.783   2.245  1.1931 -0.0493  0.7357
14232TIP3   OH264110   4.051   3.429  15.369  0.1249  0.0573 -0.1273
14232TIP3    H164111   4.135   3.383  15.378 -0.2448 -0.3888  1.2503
14232TIP3    H264112   4.050   3.492  15.442 -0.8141 -0.0824 -0.0070
14233TIP3   OH264113   2.715   1.292  13.706  0.0645 -0.3152 -1.2042
14233TIP3    H164114   2.632   1.248  13.689  0.3302 -1.2190 -0.2935
14233TIP3    H264115   2.701   1.383  13.679 -0.7961 -0.7412 -2.2689
14234TIP3   OH264116   5.592   1.501  14.867  0.3115 -0.6501 -0.5744
14234TIP3    H164117   5.656   1.554  14.820 -0.1696  0.1171 -0.3798
14234TIP3    H264118   5.641   1.423  14.894  1.3622  0.2317  0.1771
14235TIP3   OH264119   5.458   4.967   5.762  0.3571  0.2443  0.2735
14235TIP3    H164120   5.471   4.959   5.667 -1.5127 -0.8468  0.0532
14235TIP3    H264121   5.397   5.040   5.772 -1.3595 -1.1380  0.3882
14236TIP3   OH264122   0.307   1.581  11.985  0.7993 -0.3854  0.1642
14236TIP3    H164123   0.352   1.645  11.931 -1.8447 -0.1184 -1.9435
14236TIP3    H264124   0.267   1.633  12.055  0.0046  0.0933 -0.6194
14237TIP3   OH264125   3.768   6.645   3.476  0.0891 -0.4788  1.0899
14237TIP3    H164126   3.767   6.573   3.413  0.6635 -0.3462  0.9225
14237TIP3    H264127   3.676   6.665   3.492 -0.1013  0.9069 -1.3176
14238TIP3   OH264128   5.349   4.405  14.081 -0.2260  0.7519  0.6018
14238TIP3    H164129   5.434   4.448  14.071  0.7427 -1.0847  0.4337
14238TIP3    H264130   5.364   4.338  14.147 -1.3288 -0.1309 -0.0012
14239TIP3   OH264131   3.420   3.113   5.284  0.1694  0.0338 -0.1793
14239TIP3    H164132   3.505   3.102   5.326 -1.3821 -3.1000  2.6313
14239TIP3    H264133   3.396   3.204   5.302  2.2215  0.5119  0.3793
14240TIP3   OH264134   2.696   6.698  17.068 -0.1305  0.5769  0.4037
14240TIP3    H164135   2.707   6.752  16.989  0.1651  0.0712  0.0971
14240TIP3    H264136   2.629   6.744  17.118 -1.9534 -0.2512 -1.1637
14241TIP3   OH264137   0.072   2.193  11.225 -0.7761  0.0049 -0.1559
14241TIP3    H164138   0.096   2.269  11.171 -0.4946  0.1350  0.1509
14241TIP3    H264139   0.102   2.118  11.174  0.3623  0.1676  0.2497
14242TIP3   OH264140   1.898   0.357  15.889 -0.1270  0.0938 -0.1795
14242TIP3    H164141   1.989   0.331  15.872 -0.3149  0.0350 -1.1423
14242TIP3    H264142   1.884   0.434  15.833 -1.1867 -0.9256 -1.3640
14243TIP3   OH264143   3.846   4.034  14.377 -0.4273 -0.9605  0.2806
14243TIP3    H164144   3.842   4.098  14.448 -0.7817 -0.2691 -0.3457
14243TIP3    H264145   3.802   3.956  14.412  2.0561 -1.7611  1.9109
14244TIP3   OH264146   3.565   3.487  14.266 -0.3500 -0.3035  0.2906
14244TIP3    H164147   3.602   3.544  14.198 -2.3010  1.4883  0.6215
14244TIP3    H264148   3.615   3.406  14.260  2.9038  1.5531  0.0691
14245TIP3   OH264149   5.978   3.180   3.400 -0.2798  0.2987 -0.1211
14245TIP3    H164150   5.894   3.225   3.404  0.3467  1.6407 -1.2094
14245TIP3    H264151   6.041   3.242   3.436  0.4014 -0.2637 -0.2982
14246TIP3   OH264152   2.716   4.091  15.657 -0.3538  0.6284 -0.1491
14246TIP3    H164153   2.711   4.155  15.729  0.9913 -0.9801  1.4858
14246TIP3    H264154   2.711   4.006  15.701 -2.7097 -0.4723 -2.3011
14247TIP3   OH264155   1.351   1.601  11.927 -0.6699 -0.4135 -0.3916
14247TIP3    H164156   1.317   1.611  12.015  0.2944  0.8058 -0.1361
14247TIP3    H264157   1.276   1.618  11.870 -1.8219 -3.1583  0.1335
14248TIP3   OH264158   1.538   2.947  13.211  0.0164  0.5799  0.6575
14248TIP3    H164159   1.548   3.007  13.285  2.0258  1.7168 -0.4490
14248TIP3    H264160   1.552   3.001  13.134  1.5041 -1.2053 -0.4145
14249TIP3   OH264161   0.636   2.232   0.756  0.4167 -0.2935  0.3120
14249TIP3    H164162   0.649   2.231   0.661  1.2476  0.0285  0.4120
14249TIP3    H264163   0.720   2.261   0.791 -0.2060  0.6197  1.0951
14250TIP3   OH264164   4.330   0.399  15.398 -0.0247 -0.0023  0.5185
14250TIP3    H164165   4.380   0.362  15.470  0.5601  1.1369  0.7137
14250TIP3    H264166   4.378   0.478  15.373 -0.0794 -0.5057 -1.2908
14251TIP3   OH264167   4.661   3.766   5.645  0.3523 -0.0632  0.2641
14251TIP3    H164168   4.687   3.755   5.737  1.5161  1.7196  0.1987
14251TIP3    H264169   4.744   3.773   5.598 -0.0912  3.6260 -0.2620
14252TIP3   OH264170   3.701   5.778   4.305 -0.2092 -0.3493 -0.6521
14252TIP3    H164171   3.755   5.705   4.332  3.0575  1.8809 -0.5421
14252TIP3    H264172   3.741   5.809   4.224 -1.5801  1.2110 -0.7902
14253TIP3   OH264173   5.750   6.543   6.262  0.1938 -0.1716 -0.2233
14253TIP3    H164174   5.687   6.521   6.193 -0.0291  1.8252 -0.7170
14253TIP3    H264175   5.757   6.463   6.314 -3.1395 -0.3390  0.1588
14254TIP3   OH264176   3.642   5.935   1.629  0.5787 -0.1813 -0.1981
14254TIP3    H164177   3.692   6.004   1.673  0.8296  1.1942 -2.5037
14254TIP3    H264178   3.552   5.948   1.661  0.5226  1.5724 -0.9560
14255TIP3   OH264179   5.328   2.617   5.694  0.4770 -0.4290 -0.3482
14255TIP3    H164180   5.408   2.668   5.686 -0.4665  0.8852 -2.4786
14255TIP3    H264181   5.274   2.646   5.620 -1.4946 -2.1011  0.3350
14256TIP3   OH264182   3.356   3.512   2.218 -0.4139  0.6063  0.0304
14256TIP3    H164183   3.423   3.458   2.176  0.0055 -0.8964  2.4369
14256TIP3    H264184   3.393   3.600   2.217  1.2940 -0.0703  0.6457
14257TIP3   OH264185   6.360   3.467  12.656 -0.2441 -0.8072 -0.5632
14257TIP3    H164186   6.401   3.531  12.715 -0.8856  0.5407 -1.5166
14257TIP3    H264187   6.345   3.390  12.710  1.0936 -0.3647  0.4817
14258TIP3   OH264188   2.472   2.256   2.942  0.0711 -0.2468 -0.0433
14258TIP3    H164189   2.490   2.189   3.008  0.3862  1.0461  1.2428
14258TIP3    H264190   2.521   2.333   2.973  1.4641 -0.0044 -2.5687
14259TIP3   OH264191   5.723   2.754  11.522  0.5147  0.0323  0.0679
14259TIP3    H164192   5.742   2.687  11.587 -0.4602  0.9183  1.3284
14259TIP3    H264193   5.631   2.739  11.498  0.4708  0.5277 -0.0920
14260TIP3   OH264194   4.169   5.356   6.668  0.2125 -0.0783  0.7218
14260TIP3    H164195   4.193   5.309   6.747  0.8328 -0.5767  0.2437
14260TIP3    H264196   4.225   5.319   6.599  1.0830  1.7066  0.4260
14261TIP3   OH264197   1.268   4.491   2.779 -0.1876  0.1187 -0.0478
14261TIP3    H164198   1.175   4.514   2.782 -0.7217 -1.3235 -2.9868
14261TIP3    H264199   1.270   4.397   2.794  0.8264  0.1585  0.1075
14262TIP3   OH264200   0.963   5.108   5.674 -0.1244  0.3462  0.2316
14262TIP3    H164201   1.005   5.183   5.717 -1.2282  0.3129  1.4275
14262TIP3    H264202   0.871   5.134   5.666 -0.2091 -0.2485 -0.8236
14263TIP3   OH264203   0.527   4.082   5.455 -0.1087 -0.1287 -0.2425
14263TIP3    H164204   0.498   4.074   5.364  0.9801 -0.2532 -0.5912
14263TIP3    H264205   0.502   4.171   5.481  1.7681  0.8449 -1.4960
14264TIP3   OH264206   4.673   1.311   6.267  0.1232  0.1109  0.9844
14264TIP3    H164207   4.667   1.234   6.209 -0.0324  0.5018  0.4704
14264TIP3    H264208   4.611   1.293   6.337  0.8769 -0.7245  1.4577
14265TIP3   OH264209   0.145   3.117  12.750  0.2898 -0.2846  0.1507
14265TIP3    H164210   0.212   3.091  12.814 -1.0308  1.0265  2.2135
14265TIP3    H264211   0.162   3.063  12.674  1.9790 -1.9546  1.6068
14266TIP3   OH264212   0.374   1.978  17.126  0.2590 -0.1004  0.1189
14266TIP3    H164213   0.288   1.952  17.157  0.4065  0.5379  1.1084
14266TIP3    H264214   0.377   2.073  17.140  1.4274 -0.2343  0.9434
14267TIP3   OH264215   2.748   6.235   2.610  0.2280  0.5175  0.0340
14267TIP3    H164216   2.770   6.232   2.517 -2.0667  0.8264 -0.5848
14267TIP3    H264217   2.759   6.327   2.634 -0.5990  0.7258 -0.3467
14268TIP3   OH264218   6.196   6.040   2.737  0.0955 -0.1399 -0.3490
14268TIP3    H164219   6.270   6.062   2.794  0.1549  0.0674 -0.5056
14268TIP3    H264220   6.169   5.952   2.765  0.0697 -0.0046  0.0558
14269TIP3   OH264221   3.314   2.754  12.046  0.3740  0.7314  0.5074
14269TIP3    H164222   3.238   2.801  12.081  0.1931  1.0634 -0.3079
14269TIP3    H264223   3.353   2.712  12.123 -0.3462  0.9601  1.0143
14270TIP3   OH264224   1.928   2.576   5.591  0.0200 -0.0875  0.0952
14270TIP3    H164225   1.951   2.625   5.512 -1.0032  0.5871  0.1997
14270TIP3    H264226   1.845   2.533   5.569 -0.1294 -0.1198  0.7051
14271TIP3   OH264227   5.096   0.653   0.046  0.5993  0.0847 -0.1261
14271TIP3    H164228   5.128   0.635  -0.043  0.8341  0.7043 -0.1736
14271TIP3    H264229   5.176   0.665   0.098  0.4608  0.1354  0.0752
14272TIP3   OH264230   4.975   3.504  15.972 -0.3597  0.6402  0.2768
14272TIP3    H164231   4.952   3.596  15.983 -0.4324  0.7362 -0.5623
14272TIP3    H264232   5.039   3.486  16.040 -0.1895  1.3675  0.3112
14273TIP3   OH264233   0.125   3.675   1.539 -0.3202  0.4237 -0.7878
14273TIP3    H164234   0.208   3.721   1.534  0.3008 -0.4578  0.6184
14273TIP3    H264235   0.132   3.604   1.475  0.9241 -0.9387  0.7529
14274TIP3   OH264236   3.595   4.626  14.876 -0.4343 -0.1145 -0.5335
14274TIP3    H164237   3.597   4.534  14.849 -0.6846 -0.1917 -0.3011
14274TIP3    H264238   3.562   4.623  14.966 -1.0803  0.2577 -0.7559
14275TIP3   OH264239   0.771   0.459  13.467  0.7926 -0.1332  0.0617
14275TIP3    H164240   0.806   0.548  13.462 -0.7331  0.4957  0.0367
14275TIP3    H264241   0.683   0.470  13.504  0.7933 -1.6965  0.5877
14276TIP3   OH264242   4.663   6.250  16.798 -0.1278 -0.1395  0.1636
14276TIP3    H164243   4.706   6.169  16.771 -1.7482  0.0063 -3.3999
14276TIP3    H264244   4.581   6.251  16.749 -2.0789  1.7988  3.1402
14277TIP3   OH264245   3.788   1.990   2.299 -0.5591 -0.2564  0.3522
14277TIP3    H164246   3.803   1.919   2.362 -0.2671  0.0384  0.6162
14277TIP3    H264247   3.797   2.070   2.350  3.3304  0.1839 -0.6996
14278TIP3   OH264248   1.421   0.296   4.220  0.3447  0.4203 -0.4325
14278TIP3    H164249   1.495   0.268   4.166 -0.1728  0.9081 -1.4419
14278TIP3    H264250   1.460   0.350   4.289  1.1905 -1.5277  0.6750
14279TIP3   OH264251   4.690   2.050   2.675 -0.3066  0.1141  0.2952
14279TIP3    H164252   4.672   1.968   2.722  0.8278 -0.4051 -0.1536
14279TIP3    H264253   4.684   2.118   2.743 -0.8516 -0.3764  0.7514
14280TIP3   OH264254   4.205   4.179  13.034  0.5283  0.6372 -0.4124
14280TIP3    H164255   4.266   4.105  13.036  1.0324  1.0417 -0.5209
14280TIP3    H264256   4.142   4.161  13.103  0.3211 -0.1697 -0.7988
14281TIP3   OH264257   4.171   5.765  14.969 -0.2286  0.4285 -0.2361
14281TIP3    H164258   4.198   5.677  14.995 -0.0085  0.6032  0.1379
14281TIP3    H264259   4.174   5.815  15.050  1.1513  1.1603 -0.7103
14282TIP3   OH264260   3.827   5.814  14.336 -0.1349 -0.5211 -0.5144
14282TIP3    H164261   3.898   5.872  14.365 -0.7195  0.5289 -1.1044
14282TIP3    H264262   3.848   5.729  14.374  1.9891 -0.4967 -1.5047
14283TIP3   OH264263   2.056   0.760  13.843 -0.5112 -0.0711  0.3876
14283TIP3    H164264   2.068   0.791  13.933  1.5626 -0.9227  0.4849
14283TIP3    H264265   2.124   0.693  13.833 -0.1163  0.6262 -2.0958
14284TIP3   OH264266   5.475   0.365   4.139 -0.1511 -1.2571  0.4102
14284TIP3    H164267   5.495   0.431   4.206  1.1392 -2.1779  0.9825
14284TIP3    H264268   5.429   0.413   4.071  0.8286  0.2625  0.7697
14285TIP3   OH264269   3.155   4.211   0.590 -0.3336 -0.1442  0.3658
14285TIP3    H164270   3.085   4.197   0.653 -1.0512  3.0487  0.4650
14285TIP3    H264271   3.206   4.283   0.627  1.3692 -0.5516 -1.0513
14286TIP3   OH264272   6.143   5.337  12.170 -0.0080 -0.2645  0.1401
14286TIP3    H164273   6.056   5.376  12.179  0.0695 -0.0432 -0.0620
14286TIP3    H264274   6.167   5.351  12.078  1.7710  3.0126  0.9254
14287TIP3   OH264275   2.819   5.524  15.463  0.2139  0.3004 -0.1998
14287TIP3    H164276   2.841   5.592  15.527  0.5729  0.9922 -1.0393
14287TIP3    H264277   2.903   5.484  15.441 -0.2425 -2.4327  2.4058
14288TIP3   OH264278   0.179   5.785   3.858 -0.5149 -0.2367  0.7271
14288TIP3    H164279   0.248   5.807   3.921  1.4591 -0.5135 -1.2197
14288TIP3    H264280   0.217   5.805   3.772 -1.9270 -2.6844 -0.6004
14289TIP3   OH264281   0.499   5.656  15.539 -0.4698 -0.5323  0.1505
14289TIP3    H164282   0.436   5.727  15.526  0.8385  0.9924  1.5947
14289TIP3    H264283   0.554   5.657  15.461  1.1392  1.8640  1.1969
14290TIP3   OH264284   5.157   3.010   6.079 -0.8267 -0.9954  0.2239
14290TIP3    H164285   5.166   3.081   6.017 -0.4019 -2.1260 -1.0582
14290TIP3    H264286   5.139   3.053   6.163 -0.9691  0.5743 -0.5842
14291TIP3   OH264287   3.245   6.198   1.796 -0.3975  0.3519  0.1387
14291TIP3    H164288   3.267   6.291   1.799 -1.8725  0.7634 -0.7109
14291TIP3    H264289   3.163   6.194   1.747 -0.0078 -1.4684 -0.4606
14292TIP3   OH264290   5.416   3.713   5.174  0.1449  0.2370 -0.2000
14292TIP3    H164291   5.484   3.646   5.169  0.6586  0.7278  0.0552
14292TIP3    H264292   5.373   3.710   5.089  0.8291  0.2706 -0.5540
14293TIP3   OH264293   6.133   4.644  13.668 -0.0754 -0.2805 -0.2054
14293TIP3    H164294   6.155   4.629  13.760 -1.8543 -1.4193  0.0837
14293TIP3    H264295   6.126   4.739  13.660  0.6240 -0.1438  0.6962
14294TIP3   OH264296   4.158   3.617  14.619  0.3110 -0.3240  0.1198
14294TIP3    H164297   4.104   3.668  14.559 -0.2645 -0.0658  0.8489
14294TIP3    H264298   4.125   3.527  14.611  0.5527 -0.3766 -0.2998
14295TIP3   OH264299   3.973   2.955   5.780 -1.1139 -0.2763  0.2033
14295TIP3    H164300   4.021   2.906   5.714  1.1641  1.1059  0.7346
14295TIP3    H264301   4.026   3.033   5.797 -4.1324  2.0263  0.0092
14296TIP3   OH264302   0.023   0.836  12.977 -0.7583 -0.1678  0.0595
14296TIP3    H164303  -0.057   0.821  12.928 -0.3061 -2.7913 -0.0299
14296TIP3    H264304   0.023   0.768  13.044  0.1831  1.3698  1.7169
14297TIP3   OH264305   6.478   0.997   3.152  0.0882 -0.3305  0.1780
14297TIP3    H164306   6.490   1.078   3.102  0.8416 -1.3496 -1.3847
14297TIP3    H264307   6.474   1.026   3.243  1.8658  1.3365 -0.1903
14298TIP3   OH264308   0.484   0.613  11.274 -0.2982  0.0245 -0.2001
14298TIP3    H164309   0.480   0.518  11.262 -4.0985 -0.1112  0.8106
14298TIP3    H264310   0.563   0.627  11.327  0.1683 -2.6059 -0.0544
14299TIP3   OH264311   2.251   5.608  13.099  0.1438 -0.5083  0.2440
14299TIP3    H164312   2.166   5.609  13.056 -0.1907  0.9492  0.8866
14299TIP3    H264313   2.314   5.615  13.027 -0.3178 -0.6722 -0.1793
14300TIP3   OH264314   2.900   4.152  13.608 -0.8181  0.2259 -0.4549
14300TIP3    H164315   2.909   4.210  13.532 -0.5528  1.1299  0.2508
14300TIP3    H264316   2.931   4.205  13.682  0.4012 -1.1521  0.0669
14301TIP3   OH264317   2.770   4.451  11.642  0.1744  0.1866  0.0900
14301TIP3    H164318   2.865   4.451  11.654  0.0293 -0.3609  1.4031
14301TIP3    H264319   2.753   4.525  11.583  1.1688  2.1048  2.0706
14302TIP3   OH264320   3.823   2.725  12.910  0.5769 -0.3833 -0.0275
14302TIP3    H164321   3.867   2.708  12.994  0.8971 -1.7301 -0.4371
14302TIP3    H264322   3.772   2.804  12.925  2.0440  0.4459  0.8972
14303TIP3   OH264323   2.763   6.241  11.565 -0.2006 -0.4671  0.2016
14303TIP3    H164324   2.669   6.240  11.583 -0.2190  1.1195  0.3501
14303TIP3    H264325   2.803   6.247  11.652 -0.0075 -0.1031  0.0874
14304TIP3   OH264326   3.917   2.320   6.651 -1.3147  0.7933 -0.3801
14304TIP3    H164327   3.897   2.228   6.634 -2.2348  0.8780  0.1890
14304TIP3    H264328   3.984   2.318   6.719  0.0843  0.5257 -1.6883
14305TIP3   OH264329   1.826   6.560   1.623  0.1973  0.1051 -0.6513
14305TIP3    H164330   1.777   6.525   1.549 -0.0966 -0.6571 -0.1113
14305TIP3    H264331   1.836   6.486   1.683  0.6685  0.6357 -0.0540
14306TIP3   OH264332   3.613   1.586   4.687  1.3567 -0.1341  0.4795
14306TIP3    H164333   3.630   1.514   4.625 -1.3731  0.3087 -0.9645
14306TIP3    H264334   3.606   1.664   4.631 -0.1402  0.4573  1.4313
14307TIP3   OH264335   2.174   6.675   3.634  0.3442 -0.7293 -0.5914
14307TIP3    H164336   2.198   6.653   3.724  0.5543  0.9194 -0.2031
14307TIP3    H264337   2.081   6.650   3.627  1.0168 -3.4219 -0.8396
14308TIP3   OH264338   5.791   5.981  12.205 -0.5347 -0.0804  0.6126
14308TIP3    H164339   5.769   6.002  12.296  0.2246  0.4872  0.6740
14308TIP3    H264340   5.749   6.051  12.154  0.7589  0.7982  0.7035
14309TIP3   OH264341   2.355   2.734   5.653 -0.4555  0.2424  0.0150
14309TIP3    H164342   2.275   2.705   5.696 -0.1373 -3.2034 -1.3668
14309TIP3    H264343   2.422   2.729   5.721 -0.3629 -2.9963 -0.1588
14310TIP3   OH264344   3.764   1.787   4.282  0.3734 -0.3847  0.0558
14310TIP3    H164345   3.708   1.728   4.233  0.8482 -1.3407  0.6396
14310TIP3    H264346   3.853   1.768   4.251  0.4223  0.9395 -0.6886
14311TIP3   OH264347   0.135   0.412   1.034 -0.5673 -0.3813 -0.4432
14311TIP3    H164348   0.132   0.322   1.003  0.5334  0.4226 -3.1508
14311TIP3    H264349   0.070   0.458   0.982 -0.3880  0.6003  0.1654
14312TIP3   OH264350   1.387   3.341  12.800  0.1120 -0.3756  0.6916
14312TIP3    H164351   1.431   3.297  12.873  1.8220  3.0633  1.9466
14312TIP3    H264352   1.303   3.368  12.835  0.4295  0.2077  1.0140
14313TIP3   OH264353   2.546   3.181  17.129  0.1094 -0.0020  0.2841
14313TIP3    H164354   2.638   3.206  17.144  0.1487  0.6024 -0.8527
14313TIP3    H264355   2.544   3.087  17.147  1.2311 -0.2664 -0.7853
14314TIP3   OH264356   3.214   4.013   4.482  0.4301 -0.1862  0.1066
14314TIP3    H164357   3.211   3.986   4.574 -1.4218  0.4006  0.2686
14314TIP3    H264358   3.196   3.934   4.433  0.6181 -0.3464  0.2940
14315TIP3   OH264359   5.653   5.027  14.594  0.2556 -0.0974 -0.4841
14315TIP3    H164360   5.692   5.067  14.672  0.5141  0.6694 -0.9988
14315TIP3    H264361   5.558   5.035  14.609  0.1587 -3.2040  1.4165
14316TIP3   OH264362   3.408   6.195  15.101  0.0600  0.2969 -0.4532
14316TIP3    H164363   3.446   6.168  15.018 -2.1127  0.4388 -1.5763
14316TIP3    H264364   3.481   6.232  15.150  1.5029 -0.2434 -2.0954
14317TIP3   OH264365   5.787   1.665   1.678 -0.1969 -0.0916  0.2157
14317TIP3    H164366   5.824   1.745   1.716 -0.7808 -0.3252  1.3306
14317TIP3    H264367   5.852   1.636   1.614  0.6338  0.5642  0.7447
14318TIP3   OH264368   3.943   2.260  14.755  0.0930 -0.4105 -0.1549
14318TIP3    H164369   3.883   2.216  14.695  2.1612 -0.6343 -2.1531
14318TIP3    H264370   4.024   2.210  14.750  0.2253 -0.8004  3.3359
14319TIP3   OH264371   0.598   5.036   6.074 -0.4492  0.3811  0.5102
14319TIP3    H164372   0.552   5.009   6.153 -0.3729  1.7337  1.0341
14319TIP3    H264373   0.527   5.060   6.013 -0.5186  2.7369  1.4132
14320TIP3   OH264374   4.480   5.001  14.191  0.1799  0.1125  0.1427
14320TIP3    H164375   4.553   5.058  14.164  0.0139  0.2783  0.0400
14320TIP3    H264376   4.498   4.918  14.149  1.1650 -0.3494  1.3989
14321TIP3   OH264377   4.457   1.046   5.520  0.6876  0.0124  0.5273
14321TIP3    H164378   4.414   1.059   5.435 -3.3248  0.5533  2.3836
14321TIP3    H264379   4.521   1.116   5.527 -1.0606  1.8338 -0.8594
14322TIP3   OH264380   5.840   4.119   2.756  0.3866  0.2255 -0.2217
14322TIP3    H164381   5.840   4.205   2.714 -0.2682  0.9486  1.1671
14322TIP3    H264382   5.922   4.116   2.805  0.6525 -0.1719 -0.6792
14323TIP3   OH264383   1.782   0.875   3.606 -0.7653  0.4728 -0.2031
14323TIP3    H164384   1.858   0.892   3.551  0.0970  0.1408  0.8543
14323TIP3    H264385   1.707   0.903   3.553  0.0777  0.7191 -1.2942
14324TIP3   OH264386   0.053   0.494   4.291 -0.1491  0.1873 -0.3107
14324TIP3    H164387   0.102   0.431   4.239 -1.4053 -1.2907  0.2269
14324TIP3    H264388  -0.037   0.488   4.258 -0.1144  2.5411 -1.0205
14325TIP3   OH264389   2.047   6.620  12.915 -0.2992 -0.0113 -0.8337
14325TIP3    H164390   2.073   6.528  12.908  2.0090  0.4636  0.5788
14325TIP3    H264391   1.976   6.620  12.980  0.4201 -0.7013 -0.0219
14326TIP3   OH264392   0.235   2.060  16.242 -0.4512  0.5336 -0.0706
14326TIP3    H164393   0.314   2.110  16.261 -0.6376  0.9276 -0.3204
14326TIP3    H264394   0.259   2.003  16.169 -0.5931  1.1549 -0.6142
14327TIP3   OH264395   6.638   5.261   1.025 -0.0640 -0.2934  0.1390
14327TIP3    H164396   6.575   5.268   0.954 -0.8903 -1.6408  0.6874
14327TIP3    H264397   6.722   5.248   0.981  0.2057  3.2315 -0.6447
14328TIP3   OH264398   5.555   6.236   6.035  0.3757 -0.1146 -0.1616
14328TIP3    H164399   5.549   6.330   6.016  0.2323 -0.0920 -0.0070
14328TIP3    H264400   5.648   6.220   6.048  0.5706 -0.2844 -1.6680
14329TIP3   OH264401   5.938   1.594   3.628  0.2943 -0.9597 -0.5032
14329TIP3    H164402   5.986   1.671   3.598 -0.1769 -0.0922  0.8363
14329TIP3    H264403   5.962   1.586   3.720 -2.1000 -0.4393  0.2547
14330TIP3   OH264404   2.524   4.164  13.285  0.0031  0.3725 -0.1630
14330TIP3    H164405   2.557   4.177  13.374 -0.4365 -0.4979  0.1348
14330TIP3    H264406   2.460   4.234  13.273 -1.6224 -0.8247  1.0651
14331TIP3   OH264407   3.885   6.391   0.101  0.1367  0.2286  0.5703
14331TIP3    H164408   3.969   6.423   0.134  0.6280  0.0614 -0.4995
14331TIP3    H264409   3.868   6.444   0.023 -1.2248  0.9220  1.3012
14332TIP3   OH264410   1.708   3.099   4.548 -0.4341 -0.3704 -0.0435
14332TIP3    H164411   1.642   3.047   4.502 -1.8767  0.6015  0.8133
14332TIP3    H264412   1.714   3.059   4.634  1.9073 -1.8917 -0.8318
14333TIP3   OH264413   6.256   4.820  14.584  0.2966  0.5063  0.5802
14333TIP3    H164414   6.245   4.808  14.679  2.4879 -1.2293  0.6971
14333TIP3    H264415   6.236   4.913  14.569 -0.0443  0.8362  2.7494
14334TIP3   OH264416   1.877   3.244  16.881  0.3027  0.0167  0.0691
14334TIP3    H164417   1.891   3.154  16.852  2.7422  0.0224  1.0515
14334TIP3    H264418   1.784   3.247  16.905 -0.2107 -1.7763 -1.4283
14335TIP3   OH264419   1.700   2.347   1.037  0.0587 -0.9222  0.5096
14335TIP3    H164420   1.694   2.308   1.124 -0.0968 -2.5151 -0.1778
14335TIP3    H264421   1.792   2.370   1.026  0.3485 -1.9962  0.5880
14336TIP3   OH264422   4.884   5.572   2.436  0.7363 -0.7514 -0.3742
14336TIP3    H164423   4.960   5.628   2.454  0.3655 -0.2572 -0.3310
14336TIP3    H264424   4.843   5.559   2.521 -0.6582  1.0708 -0.7022
14337TIP3   OH264425   5.044   1.078   3.307  0.2466  0.4240  0.2052
14337TIP3    H164426   5.028   1.169   3.283 -0.8817  0.3962  0.8079
14337TIP3    H264427   5.053   1.032   3.223 -1.7447  0.6500 -0.1642
14338TIP3   OH264428   2.482   5.471  14.302  0.0090 -0.4543 -0.8474
14338TIP3    H164429   2.406   5.527  14.288  0.7438  0.4002 -1.6010
14338TIP3    H264430   2.454   5.384  14.275 -1.2070 -0.5091  0.4901
14339TIP3   OH264431   1.703   4.203   2.344  0.1636  0.0242  0.0621
14339TIP3    H164432   1.709   4.200   2.248  1.1469 -1.4140  0.1414
14339TIP3    H264433   1.684   4.113   2.370 -1.7927  0.7075  1.1586
14340TIP3   OH264434   4.850   2.155   3.270  0.9319 -0.4726  0.0544
14340TIP3    H164435   4.941   2.128   3.280  1.9963  2.8014  0.4145
14340TIP3    H264436   4.826   2.189   3.356 -0.2268 -0.1767 -0.3714
14341TIP3   OH264437   4.442   3.148  16.383  0.6191  0.2672  0.5405
14341TIP3    H164438   4.360   3.131  16.429 -0.5226  0.9920 -1.1725
14341TIP3    H264439   4.493   3.200  16.445 -1.0201  1.5192  0.9157
14342TIP3   OH264440   3.717   3.979   5.498 -0.5338  0.2880 -0.4981
14342TIP3    H164441   3.754   3.892   5.485 -1.5256  0.0782 -2.1595
14342TIP3    H264442   3.624   3.964   5.515 -0.6132  0.9973 -0.2452
14343TIP3   OH264443   4.333   0.712  14.380 -0.6327 -1.0389  0.1711
14343TIP3    H164444   4.366   0.681  14.295 -2.6981  0.9218 -1.4609
14343TIP3    H264445   4.280   0.639  14.413 -0.9651 -1.3177 -0.9260
14344TIP3   OH264446   5.157   6.538  13.013 -0.0422 -0.0061 -0.3777
14344TIP3    H164447   5.181   6.628  12.989 -1.4985  0.4379 -0.2428
14344TIP3    H264448   5.241   6.491  13.014  0.7247  1.2924 -0.6433
14345TIP3   OH264449   5.357   3.140   1.591  0.5091  0.0401 -0.3955
14345TIP3    H164450   5.441   3.149   1.636  1.0184 -0.3910 -1.2458
14345TIP3    H264451   5.310   3.075   1.644 -0.3773  2.1469  1.6026
14346TIP3   OH264452   2.588   2.767  11.902 -0.0387 -0.3892 -0.0009
14346TIP3    H164453   2.654   2.759  11.971 -0.2415 -0.9381  0.1345
14346TIP3    H264454   2.517   2.817  11.943  0.9359  1.6091 -0.6317
14347TIP3   OH264455   0.295   3.642  13.185  0.4193 -0.1057  0.0195
14347TIP3    H164456   0.307   3.647  13.090 -0.1933 -1.8356 -0.1919
14347TIP3    H264457   0.365   3.696  13.221  1.8363 -0.9108 -1.3788
14348TIP3   OH264458   1.615   3.763  13.549  0.7605 -0.0945 -0.4351
14348TIP3    H164459   1.614   3.846  13.598 -1.4921 -0.9176  1.0826
14348TIP3    H264460   1.659   3.701  13.607  0.8779 -0.3599 -0.8062
14349TIP3   OH264461   6.413   2.510   4.687 -0.6014  0.0679  0.0741
14349TIP3    H164462   6.376   2.500   4.599  0.3221 -0.1613 -0.3028
14349TIP3    H264463   6.346   2.473   4.745 -1.1109 -0.0205 -0.5530
14350TIP3   OH264464   2.624   5.116  13.863 -0.0005 -0.5883  0.2021
14350TIP3    H164465   2.628   5.126  13.768 -1.4810 -0.5225  0.1293
14350TIP3    H264466   2.635   5.205  13.897  2.6847 -0.8477  0.2272
14351TIP3   OH264467   2.641   5.669  17.278 -0.3587 -0.2060 -0.0789
14351TIP3    H164468   2.557   5.657  17.323  0.7181 -0.1843  2.1031
14351TIP3    H264469   2.691   5.726  17.337  0.9174  0.4537 -1.7101
14352TIP3   OH264470   4.455   0.898  13.042  0.1409 -0.1443  0.1081
14352TIP3    H164471   4.471   0.808  13.070 -0.1964 -0.0183  0.7228
14352TIP3    H264472   4.502   0.952  13.106  0.1779  0.1213 -0.1410
14353TIP3   OH264473   2.743   3.983   6.277 -0.6136 -0.2440 -0.1950
14353TIP3    H164474   2.684   3.909   6.294  0.2251 -0.9149 -0.0880
14353TIP3    H264475   2.686   4.058   6.264 -1.4841 -0.8930 -0.1644
14354TIP3   OH264476   2.141   5.373  11.131 -0.3498 -0.1599 -0.1431
14354TIP3    H164477   2.227   5.342  11.103 -0.3999 -0.1071 -0.3528
14354TIP3    H264478   2.082   5.352  11.059 -0.6048 -0.6164  0.1953
14355TIP3   OH264479   0.456   4.801  12.153  0.3307  0.0161  0.7960
14355TIP3    H164480   0.484   4.885  12.188 -2.1913  0.5151  1.8349
14355TIP3    H264481   0.495   4.736  12.212  0.0188  0.6213  1.6904
14356TIP3   OH264482   1.337   5.223   3.189 -0.3536 -0.6084  0.2854
14356TIP3    H164483   1.258   5.268   3.160 -0.0665 -0.6473 -0.5838
14356TIP3    H264484   1.339   5.142   3.138  1.3836  0.4027 -1.3585
14357TIP3   OH264485   4.952   5.237   6.163  0.0752  0.7117  0.1615
14357TIP3    H164486   5.024   5.181   6.134 -0.6763 -0.1869 -0.0111
14357TIP3    H264487   4.914   5.191   6.237 -1.0978  0.5365 -0.5228
14358TIP3   OH264488   3.711   3.077   3.960 -0.0688 -0.2741 -0.0574
14358TIP3    H164489   3.736   3.092   3.869  0.0491 -0.7064 -0.0991
14358TIP3    H264490   3.781   3.022   3.995 -0.8544 -1.3474 -0.1273
14359TIP3   OH264491   3.580   5.677  13.464 -0.5677 -0.2109 -0.0098
14359TIP3    H164492   3.584   5.597  13.412  0.0976  0.2523 -0.6925
14359TIP3    H264493   3.669   5.691  13.495 -0.5313  0.5992 -0.4390
14360TIP3   OH264494   3.536   5.201   5.619 -0.2714  0.1849 -0.1888
14360TIP3    H164495   3.504   5.127   5.671 -1.1287  0.3803 -0.4191
14360TIP3    H264496   3.617   5.228   5.663  0.4081 -1.2844 -0.4655
14361TIP3   OH264497   2.470   5.563  11.361 -0.1546 -0.3424  0.0988
14361TIP3    H164498   2.559   5.575  11.394 -0.0450 -2.9535  1.0097
14361TIP3    H264499   2.471   5.474  11.324 -2.0440  0.0901 -1.1253
14362TIP3   OH264500   4.739   1.469  13.712 -0.2250 -0.0793  0.1705
14362TIP3    H164501   4.832   1.476  13.733  0.2558 -2.9440 -0.5790
14362TIP3    H264502   4.703   1.409  13.777 -1.1622 -0.2979 -0.5147
14363TIP3   OH264503   4.847   2.638   7.036 -0.2662  0.1181  0.0122
14363TIP3    H164504   4.817   2.583   6.964 -2.0519  0.7301  0.2377
14363TIP3    H264505   4.902   2.580   7.089 -0.5676 -0.9069 -0.7591
14364TIP3   OH264506   4.727   4.562   2.908 -0.0637  0.3350 -0.6636
14364TIP3    H164507   4.725   4.563   3.003 -1.4320 -0.5776 -0.6600
14364TIP3    H264508   4.686   4.479   2.883  0.5179  0.4251 -2.0497
14365TIP3   OH264509   3.541   3.626  12.249  0.7061 -0.2695  0.0161
14365TIP3    H164510   3.510   3.535  12.254 -0.4264  0.1734  2.0199
14365TIP3    H264511   3.510   3.656  12.163  0.7390 -1.6278 -0.5081
14366TIP3   OH264512   1.862   3.415   4.855  0.2057  0.2356  0.4116
14366TIP3    H164513   1.781   3.370   4.879 -0.9067  0.9142 -1.7530
14366TIP3    H264514   1.891   3.369   4.775  0.2405  1.9037 -0.5713
14367TIP3   OH264515   4.929   2.036  11.431 -0.0856 -0.3192 -0.0226
14367TIP3    H164516   4.908   1.964  11.371  0.9342 -1.3321  0.7812
14367TIP3    H264517   4.992   2.089  11.384  1.1660 -1.4412  0.3281
14368TIP3   OH264518   3.172   1.972   2.144  0.0958  0.2353  0.4996
14368TIP3    H164519   3.235   2.032   2.105 -1.4302  0.7206 -1.3706
14368TIP3    H264520   3.095   2.026   2.164 -0.4812 -0.6897  0.8763
14369TIP3   OH264521   4.582   6.582  16.555  0.3959  0.2343  0.2516
14369TIP3    H164522   4.610   6.490  16.557  0.0584  0.1131 -0.3858
14369TIP3    H264523   4.642   6.624  16.494 -0.0307  0.2351 -0.1731
14370TIP3   OH264524   3.377   3.593   4.656 -0.2144  0.3419  0.2194
14370TIP3    H164525   3.286   3.575   4.631 -0.9200  0.6395  2.3086
14370TIP3    H264526   3.415   3.635   4.580 -2.3655  1.8463 -0.1205
14371TIP3   OH264527   3.012   4.688  11.597 -0.7788  0.1997 -0.0849
14371TIP3    H164528   3.066   4.740  11.537 -0.6947 -0.6877 -0.8151
14371TIP3    H264529   3.075   4.640  11.650 -0.7882 -1.2754 -1.3246
14372TIP3   OH264530   3.213   3.598   3.087  0.0329 -0.0933  0.3940
14372TIP3    H164531   3.128   3.602   3.043  0.2294 -0.5747 -0.0354
14372TIP3    H264532   3.215   3.511   3.128  0.1901  0.0360  0.6648
14373TIP3   OH264533   0.427   0.589   4.158 -0.1920 -0.1151 -0.1818
14373TIP3    H164534   0.449   0.596   4.065 -0.2126  0.2163 -0.1625
14373TIP3    H264535   0.378   0.669   4.178  1.2340  0.6557  0.4960
14374TIP3   OH264536   5.734   6.234   0.873  0.1193 -0.1916 -0.7157
14374TIP3    H164537   5.669   6.163   0.877 -1.3309  1.1107 -0.3502
14374TIP3    H264538   5.698   6.296   0.810  1.3181  0.2887 -0.9508
14375TIP3   OH264539   4.015   5.377  11.605  0.2608  0.3273 -0.3091
14375TIP3    H164540   4.016   5.281  11.610  0.8468  0.3337 -0.1502
14375TIP3    H264541   3.923   5.401  11.604  0.0729 -0.1501  1.5429
14376TIP3   OH264542   0.245   2.500  11.439 -0.1162 -0.3906  0.1608
14376TIP3    H164543   0.206   2.518  11.353 -1.1924  1.4502  0.9553
14376TIP3    H264544   0.330   2.461  11.419  0.0081  0.7169 -1.7635
14377TIP3   OH264545   3.393   3.319  16.974  0.0713 -0.0779  0.0909
14377TIP3    H164546   3.306   3.359  16.970  0.6061  1.0707 -0.3769
14377TIP3    H264547   3.426   3.324  16.884  0.1468 -1.6183  0.0084
14378TIP3   OH264548   3.655   3.863  15.277  0.4300  0.1402 -0.0598
14378TIP3    H164549   3.684   3.834  15.364  0.2742  1.1049  0.3301
14378TIP3    H264550   3.707   3.941  15.259 -1.0762  1.2469  0.1646
14379TIP3   OH264551   1.644   3.859   3.439  0.7327 -0.0370 -0.3852
14379TIP3    H164552   1.702   3.907   3.498  0.9056 -0.7246  0.0106
14379TIP3    H264553   1.557   3.871   3.477  0.9758 -1.4074  0.6612
14380TIP3   OH264554   2.246   0.071   2.622 -0.3438 -0.6123  0.2097
14380TIP3    H164555   2.240   0.059   2.716 -0.0767 -0.6078  0.2264
14380TIP3    H264556   2.238   0.166   2.609 -0.4667 -0.6206  0.2201
14381TIP3   OH264557   2.857   6.745  17.291  0.1041 -0.0390  1.1553
14381TIP3    H164558   2.933   6.689  17.275 -0.2604  0.1046 -1.5072
14381TIP3    H264559   2.788   6.710  17.234 -0.9553  1.4930  1.4242
14382TIP3   OH264560   4.825   5.995   5.186  0.3260  0.0191  0.1875
14382TIP3    H164561   4.821   5.903   5.209 -0.9712  0.0376  0.0874
14382TIP3    H264562   4.796   6.041   5.265 -3.4272  0.1114 -1.0722
14383TIP3   OH264563   6.664   0.125  15.521 -0.5987  0.1255 -0.2200
14383TIP3    H164564   6.740   0.177  15.493  2.2171 -2.5019  1.8927
14383TIP3    H264565   6.636   0.081  15.441  0.4453  0.7239 -0.9609
14384TIP3   OH264566   6.498   4.455   1.341 -0.2873  0.1617  0.3109
14384TIP3    H164567   6.489   4.457   1.246 -1.0931 -1.8037  0.3103
14384TIP3    H264568   6.556   4.382   1.358 -1.5715 -0.6490  1.3950
14385TIP3   OH264569   6.201   4.889   1.826  0.5835  0.7389 -0.4914
14385TIP3    H164570   6.108   4.884   1.850  0.6541 -0.0064 -0.3526
14385TIP3    H264571   6.218   4.808   1.777  0.7508  1.6558 -2.0142
14386TIP3   OH264572   1.253   5.402  14.141  0.2752  0.8277  0.0651
14386TIP3    H164573   1.187   5.467  14.166  0.2295  1.1205 -0.7806
14386TIP3    H264574   1.229   5.377  14.052  0.7405  0.2098  0.1062
14387TIP3   OH264575   0.437   1.199   3.212  0.0283 -0.1915 -0.4681
14387TIP3    H164576   0.470   1.209   3.301  0.9973 -0.4621 -0.7761
14387TIP3    H264577   0.386   1.118   3.213 -0.1241 -0.0914 -0.1218
14388TIP3   OH264578   5.229   5.087   4.298 -0.0837  0.5346 -0.0909
14388TIP3    H164579   5.264   5.087   4.387  2.8018 -0.6142 -1.1223
14388TIP3    H264580   5.149   5.141   4.304  1.2455  2.4416  2.6950
14389TIP3   OH264581   3.994   4.380   5.413  0.3237  0.7578 -0.0029
14389TIP3    H164582   3.955   4.299   5.446 -1.7543  0.9690 -1.6714
14389TIP3    H264583   3.997   4.367   5.318  0.8849  2.2567 -0.2083
14390TIP3   OH264584   4.121   0.535   1.166 -0.0125  0.3647 -0.4576
14390TIP3    H164585   4.140   0.546   1.073  1.2345 -0.1198 -0.2914
14390TIP3    H264586   4.167   0.608   1.208  0.1358  0.1022 -0.1599
14391TIP3   OH264587   1.421   0.374  10.975 -0.0182 -0.3932  0.0485
14391TIP3    H164588   1.369   0.450  10.999  1.4298  1.1836 -1.5599
14391TIP3    H264589   1.422   0.374  10.879  0.8353 -1.8618  0.0177
14392TIP3   OH264590   0.511   2.807  17.088  0.1588  0.2094  0.0623
14392TIP3    H164591   0.575   2.866  17.050 -0.9384  0.7369 -1.0282
14392TIP3    H264592   0.554   2.721  17.086  0.5796  0.4313 -1.2909
14393TIP3   OH264593   2.849   2.639   4.099 -0.3054  0.1144 -0.5753
14393TIP3    H164594   2.927   2.665   4.148 -0.2534 -0.0481 -0.5692
14393TIP3    H264595   2.777   2.684   4.143 -0.1750  0.5344 -0.7926
14394TIP3   OH264596   0.167   4.586  16.430  0.7236  0.0073 -0.3664
14394TIP3    H164597   0.212   4.567  16.348 -0.0808  0.6720 -0.9801
14394TIP3    H264598   0.222   4.546  16.498  1.7529  0.0326 -1.1667
14395TIP3   OH264599   5.876   0.078   3.462  0.2962 -0.3710 -0.5276
14395TIP3    H164600   5.914  -0.002   3.428  2.2805  0.3266 -0.0777
14395TIP3    H264601   5.951   0.131   3.488 -0.9774  1.3818 -0.2405
14396TIP3   OH264602   1.915   0.990   1.654 -0.1944  0.2995 -0.0404
14396TIP3    H164603   1.880   1.066   1.701  1.9550  1.6586 -0.5064
14396TIP3    H264604   1.868   0.989   1.571  0.1786  1.4961 -0.2739
14397TIP3   OH264605   1.285   2.458  13.428 -0.2276  0.0227 -0.2340
14397TIP3    H164606   1.258   2.482  13.517  1.2379  0.9130  0.0125
14397TIP3    H264607   1.229   2.509  13.371  0.6466  1.5897  0.2544
14398TIP3   OH264608   3.077   2.230   0.737 -0.3222  0.2334 -0.3067
14398TIP3    H164609   3.005   2.219   0.675 -0.1113  1.1522 -0.7309
14398TIP3    H264610   3.146   2.273   0.685  1.0030 -1.7239 -0.2621
14399TIP3   OH264611   2.566   6.019  17.286 -0.5644  0.3630 -0.0937
14399TIP3    H164612   2.541   5.964  17.212 -0.9761  1.8735 -1.1282
14399TIP3    H264613   2.653   6.052  17.263 -1.0273  1.4790 -0.3176
14400TIP3   OH264614   0.494   2.816  14.144  0.0743 -0.5510  0.4124
14400TIP3    H164615   0.423   2.753  14.141 -0.5934  0.1702  0.7338
14400TIP3    H264616   0.567   2.772  14.100 -0.7993 -0.9846 -0.6503
14401TIP3   OH264617   6.586   6.321   2.344  0.3028 -0.3421 -0.1738
14401TIP3    H164618   6.652   6.316   2.413  0.2893  1.3433  0.0065
14401TIP3    H264619   6.632   6.292   2.265  0.5846 -1.3798  0.3513
14402TIP3   OH264620   1.865   5.230   3.987  0.3953 -0.1528 -0.0838
14402TIP3    H164621   1.940   5.231   3.927  0.7270 -0.7156  0.3065
14402TIP3    H264622   1.792   5.199   3.933  0.4677  0.2815 -0.4358
14403TIP3   OH264623   6.078   4.934  14.039 -0.0175  0.4629  0.2901
14403TIP3    H164624   5.998   4.952  14.088 -0.0238 -0.9437  0.8316
14403TIP3    H264625   6.062   4.972  13.953 -2.1043 -1.5331 -0.2885
14404TIP3   OH264626   4.418   2.556  13.844  0.0712  0.1807 -0.4663
14404TIP3    H164627   4.427   2.462  13.828  1.1265  0.2467 -0.3866
14404TIP3    H264628   4.353   2.586  13.781 -1.1672 -0.8018  0.3203
14405TIP3   OH264629   6.406   3.670   1.381  0.1210 -0.4936 -0.2364
14405TIP3    H164630   6.461   3.740   1.347  1.1480  0.3860  2.8775
14405TIP3    H264631   6.454   3.589   1.360  0.6601 -0.0114 -0.8875
14406TIP3   OH264632   5.332   1.369  14.892 -0.3738  0.2569 -0.3543
14406TIP3    H164633   5.372   1.452  14.917 -1.8469  0.9654 -0.2230
14406TIP3    H264634   5.339   1.368  14.796 -1.6728  1.2857 -0.4957
14407TIP3   OH264635   1.699   1.814   5.854  0.0555 -0.0291  0.1629
14407TIP3    H164636   1.690   1.741   5.793  0.4105  0.6024 -0.6763
14407TIP3    H264637   1.666   1.781   5.937  3.2251 -2.2635  0.7218
14408TIP3   OH264638   5.252   1.988  11.227 -0.1331 -0.2376 -0.0140
14408TIP3    H164639   5.233   1.984  11.133  1.7859  2.5382 -0.6356
14408TIP3    H264640   5.219   2.073  11.255 -0.5976 -0.9884  1.8643
14409TIP3   OH264641   6.342   2.180  16.894  1.1119 -0.1296 -0.1819
14409TIP3    H164642   6.401   2.172  16.819  2.5126  0.5029  0.8097
14409TIP3    H264643   6.370   2.261  16.938  0.7933 -0.8574  1.4143
14410TIP3   OH264644   0.893   0.238   4.503 -0.4363  0.2119 -0.1073
14410TIP3    H164645   0.937   0.178   4.562  0.9733  1.7704  0.4833
14410TIP3    H264646   0.824   0.277   4.556 -0.7584 -0.1822 -0.2274
14411TIP3   OH264647   1.832   5.237   5.003  0.0954 -0.0572 -0.2269
14411TIP3    H164648   1.806   5.186   4.926  1.8587 -0.7096 -0.4395
14411TIP3    H264649   1.787   5.194   5.076  1.7620 -2.2126 -0.3573
14412TIP3   OH264650   5.113   1.921  11.624  0.0479  0.0548  0.1021
14412TIP3    H164651   5.118   1.842  11.569  2.1245 -0.1305  0.4724
14412TIP3    H264652   5.074   1.987  11.567  0.9856 -0.4745 -1.2143
14413TIP3   OH264653   4.847   4.449  14.625 -0.0706 -0.1923  0.0659
14413TIP3    H164654   4.916   4.386  14.648 -0.1960  0.2946  1.8726
14413TIP3    H264655   4.891   4.534  14.626 -0.5873  0.0682  0.7285
14414TIP3   OH264656   1.472   0.558  14.016 -0.0590  0.4093  0.3590
14414TIP3    H164657   1.478   0.639  14.066 -0.5026  0.5180  0.2356
14414TIP3    H264658   1.456   0.490  14.082 -0.7083  0.5620  0.3596
14415TIP3   OH264659   4.142   3.629   3.036  0.0549  0.3925 -0.0246
14415TIP3    H164660   4.082   3.657   3.105  0.1650  1.2565 -0.2708
14415TIP3    H264661   4.127   3.535   3.028  1.2946 -0.1110  2.4172
14416TIP3   OH264662   1.758   1.577  14.680 -0.2396  0.5279  0.7208
14416TIP3    H164663   1.685   1.615  14.729 -0.3774 -0.2155  1.1139
14416TIP3    H264664   1.805   1.524  14.744  0.2913  0.5060  0.3241
14417TIP3   OH264665   0.982   0.619   1.416 -0.1066 -0.1300  0.2040
14417TIP3    H164666   1.033   0.660   1.485  1.4284 -0.2988 -0.7982
14417TIP3    H264667   1.009   0.527   1.417 -0.4417 -0.2410 -0.3056
14418TIP3   OH264668   0.603   5.556  11.589 -0.6242 -0.0123  0.1095
14418TIP3    H164669   0.531   5.501  11.557 -0.7621  0.4890 -0.4679
14418TIP3    H264670   0.681   5.501  11.583 -0.9241 -0.4908  0.5431
14419TIP3   OH264671   3.024   2.142  16.424  0.7097  0.2030 -0.3132
14419TIP3    H164672   3.020   2.151  16.519  2.5830 -0.7927 -0.0946
14419TIP3    H264673   2.939   2.104  16.400  0.8039 -1.0750  1.1873
14420TIP3   OH264674   1.015   6.738  12.834  0.0138  0.2071 -0.7039
14420TIP3    H164675   1.004   6.649  12.869  0.9594  1.5099  3.3870
14420TIP3    H264676   1.110   6.750  12.828 -0.0618  1.4227  0.2604
14421TIP3   OH264677   5.591   0.144  16.804 -0.2573  0.1302 -0.0344
14421TIP3    H164678   5.544   0.190  16.873  0.3097 -0.1375  0.5502
14421TIP3    H264679   5.523   0.100  16.754 -0.6851  0.3692  0.3283
14422TIP3   OH264680   2.227   4.600  15.435  0.0067  0.3665 -0.1173
14422TIP3    H164681   2.163   4.647  15.382  0.2144  0.0011 -0.7058
14422TIP3    H264682   2.245   4.521  15.385 -0.7871 -0.6471  1.1346
14423TIP3   OH264683   2.069   4.411   2.512 -0.2197  0.0701 -0.1545
14423TIP3    H164684   2.111   4.495   2.494  0.4493 -0.0055  0.9395
14423TIP3    H264685   2.046   4.376   2.426  3.7056 -0.7649 -1.0809
14424TIP3   OH264686   3.729   4.015   5.833 -0.3892  0.8705  0.3369
14424TIP3    H164687   3.664   4.085   5.824  0.1001  1.8837  3.3361
14424TIP3    H264688   3.812   4.061   5.848  0.4249 -0.3789 -0.2088
14425TIP3   OH264689   2.630   3.514  16.305 -0.2985  0.2640 -0.1799
14425TIP3    H164690   2.637   3.452  16.232  0.2289  0.4546 -0.2946
14425TIP3    H264691   2.655   3.598  16.267  0.4525  0.2782  0.3372
14426TIP3   OH264692   6.389   5.267  14.843 -0.5756  0.0948  0.4258
14426TIP3    H164693   6.462   5.324  14.819 -0.4906  0.3940  1.3780
14426TIP3    H264694   6.394   5.259  14.938 -1.3696 -0.4469  0.4354
14427TIP3   OH264695   6.455   2.135   2.757 -0.1212 -0.4190  0.1032
14427TIP3    H164696   6.361   2.127   2.746  0.0738 -1.8485 -0.9291
14427TIP3    H264697   6.478   2.068   2.822  0.0907  0.5272  1.0264
14428TIP3   OH264698   1.492   0.808   3.289  0.1489 -0.3463 -0.1808
14428TIP3    H164699   1.584   0.784   3.279  0.3990  0.8173 -0.9279
14428TIP3    H264700   1.444   0.743   3.239  0.4951 -1.3533  0.7573
14429TIP3   OH264701   2.447   0.925  11.967 -0.2476  0.0996  0.2059
14429TIP3    H164702   2.405   0.854  12.015  0.9910 -0.4024  0.5677
14429TIP3    H264703   2.523   0.885  11.925  0.6788  1.2745  0.7029
14430TIP3   OH264704   2.083   5.638  13.420 -0.1114 -0.4601 -0.2818
14430TIP3    H164705   2.012   5.639  13.356  1.1596 -1.5739 -1.7756
14430TIP3    H264706   2.146   5.702  13.387 -0.5834  0.9275  1.3202
14431TIP3   OH264707   2.827   6.555   3.305 -0.2144  0.1376 -0.1023
14431TIP3    H164708   2.804   6.617   3.374 -0.5514 -1.3767  1.2225
14431TIP3    H264709   2.745   6.541   3.257 -0.5203 -0.3794  0.5454
14432TIP3   OH264710   4.858   1.780  11.763 -0.2447  0.1275  0.2864
14432TIP3    H164711   4.837   1.750  11.851  0.0979  2.3522  1.1974
14432TIP3    H264712   4.946   1.817  11.770 -0.1772  0.2640 -1.0093
14433TIP3   OH264713   3.027   5.639   3.910  0.1015  0.1807  0.0570
14433TIP3    H164714   3.112   5.596   3.900  0.1955  0.6003 -1.0317
14433TIP3    H264715   2.965   5.567   3.923  0.4964 -0.1818 -0.0343
14434TIP3   OH264716   2.667   5.849  13.271 -0.1886 -0.4461  0.4950
14434TIP3    H164717   2.614   5.926  13.295  0.3657  0.3339 -0.6965
14434TIP3    H264718   2.714   5.827  13.352 -0.3569  0.4695  0.8615
14435TIP3   OH264719   4.986   2.115   1.618 -0.4258 -0.0307  0.4569
14435TIP3    H164720   5.051   2.172   1.659 -0.2617 -0.7414  1.2019
14435TIP3    H264721   5.038   2.051   1.569 -0.5465 -0.6084  1.0651
14436TIP3   OH264722   3.757   6.179   3.649  0.1730 -0.0047 -0.0526
14436TIP3    H164723   3.663   6.169   3.663  0.3739 -1.8680  0.2628
14436TIP3    H264724   3.765   6.211   3.559 -0.7515 -4.3000 -1.9349
14437TIP3   OH264725   3.151   2.391   1.533  0.2915 -0.2107  0.6841
14437TIP3    H164726   3.168   2.384   1.627  2.1093 -2.8261  0.2780
14437TIP3    H264727   3.066   2.348   1.521  1.6143 -3.1415  0.8564
14438TIP3   OH264728   2.224   6.191   1.930 -0.1175  0.1515  0.1336
14438TIP3    H164729   2.232   6.107   1.975 -0.3227  0.0478 -0.0265
14438TIP3    H264730   2.248   6.172   1.839  0.3115  0.3638  0.1964
14439TIP3   OH264731   2.881   2.035  13.096 -0.6868  0.5377 -0.0269
14439TIP3    H164732   2.909   2.101  13.159  0.1507  0.4311 -0.2696
14439TIP3    H264733   2.938   1.960  13.112 -1.3591  0.0156 -0.0241
14440TIP3   OH264734   2.639   1.720   4.981  1.1571 -0.7585  0.1595
14440TIP3    H164735   2.684   1.804   4.989  1.0119 -0.7490  0.9863
14440TIP3    H264736   2.565   1.737   4.923  0.8713 -0.1979  0.6755
14441TIP3   OH264737   4.599   5.360  11.856 -0.1360  0.1516 -0.2928
14441TIP3    H164738   4.538   5.350  11.782 -0.3229  0.5369 -0.1950
14441TIP3    H264739   4.644   5.443  11.839 -1.6708  1.3271  1.0792
14442TIP3   OH264740   5.862   6.476   1.403  0.2755  0.0413 -0.1411
14442TIP3    H164741   5.939   6.420   1.396 -0.1205 -0.4044 -1.1419
14442TIP3    H264742   5.796   6.433   1.349 -0.4166  0.8468  0.0440
14443TIP3   OH264743   3.462   4.573   0.908 -0.1515  0.5244  0.2364
14443TIP3    H164744   3.429   4.505   0.966 -0.1004  0.6669  0.4316
14443TIP3    H264745   3.469   4.651   0.963 -2.6888  1.4173 -0.5613
14444TIP3   OH264746   6.175   4.741  14.315 -0.0235 -0.2746  0.0916
14444TIP3    H164747   6.219   4.771  14.394  0.0385 -1.0577  0.3625
14444TIP3    H264748   6.170   4.646  14.324 -0.7576 -0.3047 -0.4624
14445TIP3   OH264749   0.977   1.773   1.426 -0.3820  0.2202 -0.0733
14445TIP3    H164750   1.067   1.749   1.449 -0.7174  0.1980  1.2879
14445TIP3    H264751   0.926   1.696   1.449 -1.0745  1.1219  1.5114
14446TIP3   OH264752   6.390   5.735   2.099 -0.0930  0.5636 -0.2125
14446TIP3    H164753   6.451   5.809   2.093  0.2072  0.3296 -0.0888
14446TIP3    H264754   6.332   5.757   2.171  1.3486 -0.2919  1.2790
14447TIP3   OH264755   2.685   6.478  13.466  0.1961 -0.3572  0.1201
14447TIP3    H164756   2.765   6.466  13.415  0.3993 -1.4377  0.6717
14447TIP3    H264757   2.664   6.571  13.456  1.5120 -0.0540 -0.0262
14448TIP3   OH264758   6.468   2.242  15.610  0.0617 -0.6028 -0.0511
14448TIP3    H164759   6.521   2.290  15.673  0.3094  0.6008 -1.1277
14448TIP3    H264760   6.390   2.296  15.598 -0.7030 -1.5860  0.3579
14449TIP3   OH264761   1.314   3.313  13.142  0.5410  0.1852 -0.1784
14449TIP3    H164762   1.396   3.356  13.119  0.5396  0.8198  0.9184
14449TIP3    H264763   1.314   3.311  13.237  0.2976 -1.8374 -0.1875
14450TIP3   OH264764   1.094   0.564  13.337 -0.2603 -0.2904  0.5168
14450TIP3    H164765   1.057   0.608  13.260  0.3307 -0.5048  0.1016
14450TIP3    H264766   1.030   0.578  13.406 -1.6248 -1.5361 -0.4483
14451TIP3   OH264767   0.589   0.849   3.095  0.7293 -0.2440  0.0140
14451TIP3    H164768   0.531   0.775   3.078  0.1414  0.5902 -1.8867
14451TIP3    H264769   0.576   0.868   3.188  0.9210 -2.4976  0.5782
14452TIP3   OH264770   5.873   2.785   3.533 -0.7880 -0.5897 -0.4599
14452TIP3    H164771   5.891   2.822   3.447 -0.1304 -0.0872 -0.1141
14452TIP3    H264772   5.864   2.691   3.517 -0.2991 -0.5442 -1.0235
14453TIP3   OH264773   5.592   0.636  16.042 -0.2655 -0.2800  0.1346
14453TIP3    H164774   5.607   0.553  15.998  0.0647 -0.3144  0.3034
14453TIP3    H264775   5.660   0.694  16.007 -0.6870  0.0118 -0.2151
14454TIP3   OH264776   0.447   6.715  16.915  0.0915  0.0950 -0.2159
14454TIP3    H164777   0.467   6.629  16.877 -0.3157 -0.6963  1.2925
14454TIP3    H264778   0.352   6.724  16.905  0.1922  0.5882 -0.7840
14455TIP3   OH264779   6.380   1.751   3.727  0.5188  0.2410  0.1710
14455TIP3    H164780   6.329   1.725   3.803 -0.7301  0.4239 -0.5732
14455TIP3    H264781   6.444   1.813   3.762  0.5220 -0.3184  1.2004
14456TIP3   OH264782   0.932   4.363  17.291  0.4979 -0.7869 -0.1403
14456TIP3    H164783   1.013   4.313  17.295  0.1678 -1.2546  1.3669
14456TIP3    H264784   0.863   4.298  17.308 -0.1012 -0.2124 -0.3554
14457TIP3   OH264785   0.005   2.824   4.902  0.0874 -0.5751  0.2928
14457TIP3    H164786  -0.014   2.848   4.992 -2.2348  3.5291 -1.0131
14457TIP3    H264787  -0.079   2.795   4.866  0.4587 -0.0997 -1.0392
14458TIP3   OH264788   1.670   1.518   4.692 -0.6715 -0.0097  0.1104
14458TIP3    H164789   1.581   1.518   4.728 -0.3364 -0.9193  0.9871
14458TIP3    H264790   1.721   1.466   4.754  0.4974  0.5522 -0.3385
14459TIP3   OH264791   4.870   0.428   5.344  0.1517  0.1936 -0.2271
14459TIP3    H164792   4.914   0.370   5.406 -2.4123 -0.3977  1.2071
14459TIP3    H264793   4.890   0.391   5.258  2.7490  0.2744  0.2511
14460TIP3   OH264794   3.610   3.764   1.137 -0.3544  0.2866  0.6701
14460TIP3    H164795   3.536   3.811   1.099 -0.8496 -1.0359 -0.0414
14460TIP3    H264796   3.572   3.687   1.178  0.6510 -0.6367 -0.0610
14461TIP3   OH264797   6.693   1.031   6.028 -0.3621 -0.6011  0.6486
14461TIP3    H164798   6.769   1.071   6.069 -1.2481 -0.9604  2.8003
14461TIP3    H264799   6.716   0.938   6.019  0.0121 -0.4369 -0.1412
14462TIP3   OH264800   6.189   6.050  16.415  0.6972 -0.5053 -0.3748
14462TIP3    H164801   6.151   6.120  16.361 -0.2381 -1.9894 -1.7536
14462TIP3    H264802   6.188   5.973  16.358  1.4324 -1.7171  1.1754
14463TIP3   OH264803   4.131   3.903   2.948 -0.2415  0.5955 -0.0194
14463TIP3    H164804   4.143   3.815   2.982 -2.2261 -0.2396 -1.2940
14463TIP3    H264805   4.098   3.891   2.859 -1.5656  2.5719  0.1163
14464TIP3   OH264806   5.361   6.522   2.401  0.1223  0.3662  0.3272
14464TIP3    H164807   5.442   6.496   2.357  0.1644  0.7482  0.1724
14464TIP3    H264808   5.368   6.484   2.489 -1.4196 -3.2276 -0.9410
14465TIP3   OH264809   3.087   1.736   5.861 -0.0641  0.0808  0.3227
14465TIP3    H164810   3.065   1.805   5.924 -0.5730  0.6124 -0.4238
14465TIP3    H264811   3.181   1.745   5.849 -0.0041  0.1507  0.7978
14466TIP3   OH264812   5.708   4.763   0.924  0.6418 -0.6538 -0.6484
14466TIP3    H164813   5.757   4.820   0.984  0.1626 -0.0023 -0.8559
14466TIP3    H264814   5.710   4.809   0.841 -0.0665 -0.7551 -0.7332
14467TIP3   OH264815   1.437   3.039   2.212  0.0963  0.1531 -0.3935
14467TIP3    H164816   1.531   3.039   2.232 -0.0908  1.3918  0.5811
14467TIP3    H264817   1.432   3.065   2.120  0.7025  0.0856 -0.4498
14468TIP3   OH264818   5.069   1.412   1.484  0.0508  0.0293  0.0761
14468TIP3    H164819   5.112   1.335   1.447  2.5461  1.6449 -0.5811
14468TIP3    H264820   5.054   1.389   1.576 -0.3956 -1.6590 -0.3870
14469TIP3   OH264821   2.548   6.383  11.361 -0.3026  0.6550 -0.3598
14469TIP3    H164822   2.529   6.310  11.420 -1.3547  1.6783  0.6119
14469TIP3    H264823   2.624   6.354  11.311  0.4662 -0.3657  1.3081
14470TIP3   OH264824   0.868   6.137   2.678 -0.0800 -0.4643 -0.0123
14470TIP3    H164825   0.814   6.058   2.682 -1.6403  0.2471 -3.2516
14470TIP3    H264826   0.807   6.209   2.690  1.2500  0.3792  2.4537
14471TIP3   OH264827   6.563   5.867   0.097 -0.7456 -0.1784 -0.4062
14471TIP3    H164828   6.650   5.827   0.108 -1.2136 -0.6314  2.3463
14471TIP3    H264829   6.569   5.950   0.143 -2.0820 -0.7728  0.9335
14472TIP3   OH264830   4.359   6.508   2.897 -0.3186  0.1682  0.1378
14472TIP3    H164831   4.274   6.468   2.878 -0.0725  0.0057 -0.6578
14472TIP3    H264832   4.421   6.435   2.895  0.1079  0.5275 -1.1712
14473TIP3   OH264833   5.539   6.138   1.353  0.3293  0.3146 -0.0165
14473TIP3    H164834   5.512   6.094   1.434 -3.1933  0.3794 -0.9982
14473TIP3    H264835   5.510   6.080   1.283  1.9151  0.9906 -1.3106
14474TIP3   OH264836   3.323   5.730   4.877  0.2389  0.0187  0.1763
14474TIP3    H164837   3.316   5.823   4.857 -0.0965  0.5776  2.5576
14474TIP3    H264838   3.401   5.701   4.830  1.1320  1.8359  0.4502
14475TIP3   OH264839   6.288   2.095   1.454 -0.6993  0.0876 -0.0033
14475TIP3    H164840   6.251   2.173   1.495 -1.1203 -1.1924  2.2177
14475TIP3    H264841   6.211   2.042   1.431 -0.3910 -0.7554  0.8314
14476TIP3   OH264842   6.051   4.968   3.008  0.5926  0.3846 -1.1655
14476TIP3    H164843   5.993   4.924   3.071  0.5404 -0.3520 -1.7242
14476TIP3    H264844   5.992   5.023   2.956  0.6518  1.1010 -0.5005
14477TIP3   OH264845   6.693   4.513   2.243 -0.7910 -0.3284 -0.5813
14477TIP3    H164846   6.661   4.596   2.208  0.5444 -0.1898 -1.5216
14477TIP3    H264847   6.639   4.447   2.200 -1.6161  0.0124 -0.0991
14478TIP3   OH264848   1.277   0.537  16.301 -0.1897  0.1186 -0.4549
14478TIP3    H164849   1.265   0.610  16.361 -0.9251 -0.4483  0.0994
14478TIP3    H264850   1.371   0.537  16.282  0.0743  0.2343  0.7913
14479TIP3   OH264851   5.334   2.523   5.287  0.4158 -0.4302 -0.0553
14479TIP3    H164852   5.311   2.572   5.366 -0.6203  0.7978 -1.0623
14479TIP3    H264853   5.371   2.441   5.319 -0.5831 -0.2465  1.6960
14480TIP3   OH264854   2.396   6.693  16.937 -0.3711 -0.7281 -0.0082
14480TIP3    H164855   2.451   6.629  16.891 -0.6854 -0.6369 -0.5103
14480TIP3    H264856   2.343   6.733  16.869 -0.3642 -0.1101  0.3441
14481TIP3   OH264857   3.980   2.796   0.412  0.5187 -0.2305  0.1151
14481TIP3    H164858   3.906   2.803   0.472  0.0485  0.6132 -0.5489
14481TIP3    H264859   3.940   2.780   0.326  1.0668  0.6683 -0.3254
14482TIP3   OH264860   6.752   2.845   1.844  0.3248  0.2118  0.0480
14482TIP3    H164861   6.831   2.802   1.811  0.1801 -0.0934  0.0986
14482TIP3    H264862   6.686   2.829   1.776  0.3264  0.5408 -0.0351
14483TIP3   OH264863   4.852   6.589  15.832  0.1413  0.0789 -0.5923
14483TIP3    H164864   4.912   6.527  15.874  0.0125  0.6609  0.4714
14483TIP3    H264865   4.805   6.536  15.767  1.0419 -0.6148 -0.6993
14484TIP3   OH264866   0.798   1.617   0.101 -0.3286  0.2070  0.2900
14484TIP3    H164867   0.828   1.590   0.188  0.3515  1.7792  0.5780
14484TIP3    H264868   0.878   1.644   0.055 -0.4620 -1.9560 -1.3947
14485TIP3   OH264869   5.896   0.468  14.767 -0.6608 -0.2358  0.0340
14485TIP3    H164870   5.838   0.391  14.766  0.2349 -0.9621  1.1664
14485TIP3    H264871   5.921   0.480  14.675 -3.4606  0.8214 -0.6856
14486TIP3   OH264872   4.507   6.517  15.403 -0.1413  0.5583  0.7904
14486TIP3    H164873   4.515   6.438  15.455 -2.1527  0.2929  0.7966
14486TIP3    H264874   4.504   6.486  15.312 -3.2070  0.2731  0.8635
14487TIP3   OH264875   2.222   6.743  12.348 -0.3676 -0.0282  0.3880
14487TIP3    H164876   2.240   6.659  12.391  2.8571 -0.4085 -1.3799
14487TIP3    H264877   2.245   6.809  12.414  0.0697 -0.5629  0.7786
14488TIP3   OH264878   2.652   4.421   2.628  0.2656 -0.2862  0.0384
14488TIP3    H164879   2.563   4.388   2.621 -0.9459  2.3071  1.7946
14488TIP3    H264880   2.692   4.367   2.696 -0.5419 -0.3022  0.5069
14489TIP3   OH264881   0.742   2.974  13.074 -1.2859  0.0771 -0.3277
14489TIP3    H164882   0.815   2.921  13.106 -1.7127 -1.0133 -1.1128
14489TIP3    H264883   0.665   2.920  13.089 -1.7940  0.7043 -0.6550
14490TIP3   OH264884   4.178   0.603  16.134  0.2665  0.2160  0.2884
14490TIP3    H164885   4.108   0.587  16.197  0.9298  1.4528  1.4131
14490TIP3    H264886   4.156   0.550  16.058 -0.8051 -0.9933  1.3980
14491TIP3   OH264887   6.310   6.121  14.109  0.0499  0.0154 -0.2119
14491TIP3    H164888   6.259   6.089  14.034 -0.8604  0.4290  0.2045
14491TIP3    H264889   6.284   6.064  14.182 -2.2255  2.1001  0.7343
14492TIP3   OH264890   3.268   2.826   4.376  0.3020 -0.1013 -0.6620
14492TIP3    H164891   3.250   2.844   4.283  1.3506 -0.5713 -0.9750
14492TIP3    H264892   3.286   2.732   4.378 -2.9077 -0.8059  0.5722
14493TIP3   OH264893   4.310   6.298   1.938 -0.4424  0.2158  0.1285
14493TIP3    H164894   4.348   6.327   2.022 -1.3461  3.3707 -0.4393
14493TIP3    H264895   4.310   6.203   1.944  2.4677  0.2058  2.3943
14494TIP3   OH264896   0.271   2.739   4.191 -0.0092  0.6543 -0.3468
14494TIP3    H164897   0.305   2.695   4.112  0.1685  0.3042 -0.0772
14494TIP3    H264898   0.203   2.680   4.224 -1.7083  1.8768 -1.5102
14495TIP3   OH264899   3.054   2.650  11.951 -0.8557  0.0983 -0.9190
14495TIP3    H164900   3.046   2.660  11.856  0.4950  1.0207 -0.9648
14495TIP3    H264901   3.122   2.712  11.976  0.2212 -1.5270  0.3853
14496TIP3   OH264902   0.763   0.716   1.271 -0.9588 -0.0284 -0.6824
14496TIP3    H164903   0.846   0.701   1.316 -1.4682  3.7827  2.0529
14496TIP3    H264904   0.709   0.641   1.295  0.6096 -0.9023  0.3128
14497TIP3   OH264905   0.160   6.331  14.482  0.3865 -0.1936 -0.4630
14497TIP3    H164906   0.193   6.245  14.459  3.7301  0.4133  1.4917
14497TIP3    H264907   0.182   6.386  14.407 -2.0973 -0.9723 -1.8850
14498TIP3   OH264908   0.270   3.099  16.204  0.2761  0.5833 -0.1042
14498TIP3    H164909   0.324   3.167  16.165  1.7265  0.1385  1.0290
14498TIP3    H264910   0.331   3.027  16.222 -0.5394  0.2937  1.7774
14499TIP3   OH264911   4.194   4.681  16.339 -1.0010 -0.8764  0.4265
14499TIP3    H164912   4.181   4.676  16.244 -3.7818  0.1899  0.6691
14499TIP3    H264913   4.183   4.591  16.369 -2.6561 -0.8482 -0.0247
14500TIP3   OH264914   6.647   5.140  13.916 -0.1857  0.4491  0.3220
14500TIP3    H164915   6.693   5.209  13.963  1.2651 -0.9486  1.0345
14500TIP3    H264916   6.554   5.161  13.927  0.2161  2.2273  0.5505
14501TIP3   OH264917   1.035   3.050   6.016 -0.3085 -0.1420 -0.0293
14501TIP3    H164918   1.000   2.991   5.950 -0.9901 -0.1080  0.2942
14501TIP3    H264919   1.130   3.043   6.007 -0.3399 -2.1783  0.7963
14502TIP3   OH264920   0.710   2.401   0.507 -0.2952  0.7632 -0.1991
14502TIP3    H164921   0.674   2.397   0.418  0.3294 -0.6868 -0.4070
14502TIP3    H264922   0.804   2.392   0.495 -0.1997  0.6124  0.6088
14503TIP3   OH264923   1.603   0.069  14.696 -0.1598  0.0199  0.3732
14503TIP3    H164924   1.568  -0.010  14.738  1.7597 -1.0330  0.1002
14503TIP3    H264925   1.647   0.116  14.767  0.5690 -0.2819  0.1329
14504TIP3   OH264926   5.370   5.025  14.601  0.3618 -0.1921 -0.6562
14504TIP3    H164927   5.286   4.982  14.588  0.5264 -0.6516 -0.2499
14504TIP3    H264928   5.391   5.064  14.516 -0.7755  0.8831 -0.4605
14505TIP3   OH264929   3.334   3.886  14.930 -0.0988  0.6149 -0.1894
14505TIP3    H164930   3.325   3.837  15.012 -0.6997  2.0730  0.6433
14505TIP3    H264931   3.264   3.852  14.874 -0.2115  0.1926  0.2001
14506TIP3   OH264932   5.450   2.734  12.495  0.1526  0.9563 -0.0430
14506TIP3    H164933   5.517   2.718  12.562 -0.9270  2.8441  1.5922
14506TIP3    H264934   5.498   2.771  12.421  1.9125 -4.1209 -1.8668
14507TIP3   OH264935   0.969   5.541   2.668  0.2783  0.1639 -0.1453
14507TIP3    H164936   1.039   5.481   2.645 -0.4456 -0.9771  0.5182
14507TIP3    H264937   0.952   5.524   2.761 -0.7061  0.5792 -0.2314
14508TIP3   OH264938   2.774   5.515  11.711 -0.1539  0.0995  0.1300
14508TIP3    H164939   2.864   5.523  11.680  0.1119 -0.6279  0.6949
14508TIP3    H264940   2.743   5.606  11.716  1.5773  0.6626  2.8519
14509TIP3   OH264941   3.579   0.154  13.622  0.0877 -0.6565 -0.2100
14509TIP3    H164942   3.629   0.199  13.691  2.7908 -0.9736 -1.8061
14509TIP3    H264943   3.561   0.068  13.660 -0.6976  0.0015  0.9955
14510TIP3   OH264944   4.385   6.489  10.981  0.5564  0.4024  0.7831
14510TIP3    H164945   4.423   6.544  10.912  0.1041  0.3968  0.5251
14510TIP3    H264946   4.413   6.530  11.062 -1.6362  2.3748  0.6349
14511TIP3   OH264947   4.145   5.409   4.703 -0.4287  0.0255 -0.0003
14511TIP3    H164948   4.142   5.497   4.740 -0.5725  0.5231 -1.1592
14511TIP3    H264949   4.083   5.359   4.756 -1.7337  1.0814 -0.4633
14512TIP3   OH264950   2.614   4.508   2.034  0.2597  0.5504  0.1309
14512TIP3    H164951   2.523   4.488   2.010 -0.0028  1.1391  0.6206
14512TIP3    H264952   2.659   4.517   1.949 -0.2753  0.8619 -0.1266
14513TIP3   OH264953   4.792   2.949   5.459 -0.2357  0.2906 -0.0675
14513TIP3    H164954   4.791   3.012   5.531 -0.0685 -0.4920  0.6276
14513TIP3    H264955   4.883   2.946   5.431  0.0367 -0.7083  0.8650
14514TIP3   OH264956   3.515   5.402   2.403  0.2462  0.2148 -0.2109
14514TIP3    H164957   3.429   5.364   2.421 -0.5692  2.4232  0.9280
14514TIP3    H264958   3.568   5.328   2.373 -1.6135 -1.4936  0.4833
14515TIP3   OH264959   1.089   0.168  16.970 -0.1919  0.3095  0.9753
14515TIP3    H164960   1.103   0.078  17.000 -2.2529  0.1242  1.5715
14515TIP3    H264961   1.123   0.169  16.881  0.1769 -0.9698  1.0709
14516TIP3   OH264962   0.618   1.597   1.640  0.1086 -0.1854 -0.0971
14516TIP3    H164963   0.626   1.634   1.552  0.7588  0.1652  0.1042
14516TIP3    H264964   0.709   1.586   1.669 -0.0669 -1.5632  0.0044
14517TIP3   OH264965   3.536   0.908   3.874 -0.1498 -0.0261  0.0942
14517TIP3    H164966   3.496   0.951   3.950 -0.2288 -0.2768  0.1939
14517TIP3    H264967   3.593   0.841   3.912 -1.1326 -0.9824 -0.1031
14518TIP3   OH264968   0.209   5.333  15.802 -0.2185 -0.2486  0.1307
14518TIP3    H164969   0.282   5.306  15.858 -0.5777 -1.2083  0.1545
14518TIP3    H264970   0.230   5.422  15.777 -0.0143  0.2056  1.7745
14519TIP3   OH264971   3.726   0.052  16.741  0.6743  0.1719  0.8867
14519TIP3    H164972   3.745   0.105  16.819  1.8697  0.0275  0.7178
14519TIP3    H264973   3.790   0.083  16.676 -1.6091  1.7691 -0.7659
14520TIP3   OH264974   1.549   0.393  11.411 -0.3806  0.0695  0.7359
14520TIP3    H164975   1.556   0.456  11.339  1.0344 -2.0811 -1.1286
14520TIP3    H264976   1.456   0.389  11.431 -0.6732  1.5382 -0.1584
14521TIP3   OH264977   6.036   3.119  15.264 -0.0233 -0.7351  0.4091
14521TIP3    H164978   5.993   3.110  15.348 -0.3626  0.7040  0.3959
14521TIP3    H264979   6.099   3.190  15.276  1.0519 -1.5642 -0.1088
14522TIP3   OH264980   5.978   3.224   0.957 -0.0479  0.0151  0.5310
14522TIP3    H164981   5.988   3.313   0.991  0.2733 -0.0111  0.5056
14522TIP3    H264982   5.886   3.202   0.975 -0.7551  1.1498 -1.3511
14523TIP3   OH264983   3.512   2.039   0.605 -0.4419 -0.1850  0.2749
14523TIP3    H164984   3.600   2.061   0.574 -0.3238 -0.6475  0.2735
14523TIP3    H264985   3.512   2.067   0.696 -0.4723  0.3030  0.1299
14524TIP3   OH264986   2.027   2.164   0.221 -0.0203  0.5737 -0.0971
14524TIP3    H164987   2.042   2.211   0.139 -0.2488  1.0379  0.1252
14524TIP3    H264988   1.953   2.106   0.201  0.2976  0.2570 -0.3870
14525TIP3   OH264989   3.102   2.609  17.217  0.0606  0.2470 -0.4324
14525TIP3    H164990   3.185   2.563  17.231  0.1631  0.6641  0.4163
14525TIP3    H264991   3.126   2.689  17.171  0.1706  0.4695 -0.0006
14526TIP3   OH264992   4.147   3.402  14.022  0.4178  0.1383 -0.2492
14526TIP3    H164993   4.114   3.316  13.994  1.7213  0.0456 -1.5942
14526TIP3    H264994   4.075   3.462  14.004 -0.6542 -0.6831  1.0611
14527TIP3   OH264995   2.929   1.176   3.545 -0.3248 -0.6113  0.6303
14527TIP3    H164996   2.869   1.239   3.506 -0.0596  0.1002  1.3396
14527TIP3    H264997   2.880   1.136   3.617  0.1822  0.3261  1.5256
14528TIP3   OH264998   2.765   1.336  14.738 -0.3172  0.2671  0.4305
14528TIP3    H164999   2.709   1.289  14.799  1.4716  0.0658  1.9966
14528TIP3    H265000   2.806   1.268  14.685 -0.9734  0.3738 -0.2379
14529TIP3   OH265001   5.577   4.001  11.728 -0.3450  0.1878  0.0174
14529TIP3    H165002   5.535   3.925  11.768 -0.6109  0.7363  0.7984
14529TIP3    H265003   5.655   3.966  11.686 -2.2297 -1.1105 -2.6997
14530TIP3   OH265004   6.717   4.276   3.018  0.8616  0.0651  0.0959
14530TIP3    H165005   6.805   4.312   3.010  0.3571  1.3345 -0.0027
14530TIP3    H265006   6.685   4.270   2.928 -0.2685  2.6069  0.2366
14531TIP3   OH265007   5.874   5.384  11.501  1.0959 -0.1112  0.2393
14531TIP3    H165008   5.837   5.460  11.547  0.0523 -0.3806 -0.1184
14531TIP3    H265009   5.798   5.327  11.484  1.8449 -1.1869  0.4072
14532TIP3   OH265010   1.291   0.253   2.269  0.4750  0.4693  0.4562
14532TIP3    H165011   1.313   0.168   2.229  1.2598  0.8012  0.1572
14532TIP3    H265012   1.200   0.243   2.296  0.1531 -0.0462 -0.7087
14533TIP3   OH265013   3.773   3.406  11.939 -0.3934 -0.0280  0.0104
14533TIP3    H165014   3.778   3.336  12.003 -1.4648 -3.2787 -3.0991
14533TIP3    H265015   3.864   3.428  11.919  0.0044 -1.3699  0.2549
14534TIP3   OH265016   1.172   1.020   2.665 -0.3946  0.1114  0.7377
14534TIP3    H165017   1.083   0.995   2.692  0.0366 -1.0707  1.1337
14534TIP3    H265018   1.229   0.971   2.725  0.5328  0.0014 -0.2220
14535TIP3   OH265019   5.826   2.355   0.457 -0.2539 -0.7532  0.6877
14535TIP3    H165020   5.743   2.393   0.486 -0.4973 -0.7168 -0.0373
14535TIP3    H265021   5.858   2.417   0.392  1.0261 -0.0543  1.9267
14536TIP3   OH265022   0.851   1.212  11.519 -0.5104  0.2816  0.1286
14536TIP3    H165023   0.890   1.259  11.446 -0.1331  0.2836  0.3292
14536TIP3    H265024   0.828   1.280  11.582  0.5980  0.1505  0.6841
14537TIP3   OH265025   3.796   3.694   0.600 -0.5319  0.4998 -0.0263
14537TIP3    H165026   3.701   3.689   0.611 -0.4983  0.0531  0.0770
14537TIP3    H265027   3.810   3.676   0.507 -0.5734  0.9578 -0.1249
14538TIP3   OH265028   0.208   3.449  10.718 -0.0854 -0.6404 -0.3635
14538TIP3    H165029   0.208   3.524  10.778  2.7131 -0.4194 -0.4961
14538TIP3    H265030   0.300   3.424  10.712 -0.5731 -2.1588 -2.7355
14539TIP3   OH265031   3.695   6.731  12.337 -0.6263  0.3932  0.0926
14539TIP3    H165032   3.723   6.816  12.372 -1.3561  1.3975 -1.6641
14539TIP3    H265033   3.625   6.751  12.275 -0.3117 -1.4142 -0.9434
14540TIP3   OH265034   5.753   1.476   4.706 -0.4202 -0.5012  0.5684
14540TIP3    H165035   5.693   1.423   4.654 -2.3264  1.8502  0.2009
14540TIP3    H265036   5.730   1.567   4.685  1.8715  0.5277  2.0474
14541TIP3   OH265037   5.428   3.062   3.069 -0.3991 -0.3121 -0.0585
14541TIP3    H165038   5.450   3.091   3.158  0.5460  1.9898 -0.9615
14541TIP3    H265039   5.505   3.015   3.039 -1.0608 -1.8851  0.6077
14542TIP3   OH265040   4.688   6.568   4.919 -0.7368 -0.0086 -0.3789
14542TIP3    H165041   4.689   6.539   5.010  0.1504 -1.2483 -0.7440
14542TIP3    H265042   4.764   6.625   4.910  1.0218 -2.2551 -0.9763
14543TIP3   OH265043   1.522   3.768  12.235 -0.4474 -0.1039  0.7624
14543TIP3    H165044   1.488   3.725  12.314  0.7319 -2.0844  0.2641
14543TIP3    H265045   1.617   3.759  12.242 -0.3109 -0.0517 -0.7325
14544TIP3   OH265046   5.584   6.694   3.297 -0.2353  0.5835  0.6804
14544TIP3    H165047   5.598   6.745   3.376  0.3945 -1.7924  2.1899
14544TIP3    H265048   5.518   6.629   3.322  1.7983 -1.8401  0.1065
14545TIP3   OH265049   4.906   2.369   1.516  0.0109  0.2721 -0.6755
14545TIP3    H165050   4.970   2.298   1.504 -2.3983 -2.4149  0.9631
14545TIP3    H265051   4.826   2.336   1.474 -1.3705  1.8075  0.6164
14546TIP3   OH265052   4.625   4.322  14.548 -0.3218  0.1975 -0.2216
14546TIP3    H165053   4.707   4.370  14.541 -0.3199  0.1125 -0.8455
14546TIP3    H265054   4.646   4.248  14.605 -0.0222  0.3018 -0.1915
14547TIP3   OH265055   2.843   5.589   2.391  0.5382 -0.1576  0.2133
14547TIP3    H165056   2.860   5.519   2.328  0.0268  0.0209 -0.1289
14547TIP3    H265057   2.896   5.566   2.468  0.0925 -1.1211  0.2477
14548TIP3   OH265058   4.685   1.302  16.655  0.0361 -0.8293  0.4026
14548TIP3    H165059   4.652   1.367  16.593  1.1310 -0.0328  0.6283
14548TIP3    H265060   4.607   1.267  16.697 -0.6340 -0.4372 -0.4890
14549TIP3   OH265061   0.300   0.490   4.453 -0.1604 -0.7747  0.1468
14549TIP3    H165062   0.238   0.553   4.415 -0.3562 -1.6559 -1.0484
14549TIP3    H265063   0.272   0.481   4.544 -1.0112 -0.2230 -0.0492
14550TIP3   OH265064   1.861   0.436   1.386 -0.2856 -0.3155 -0.4378
14550TIP3    H165065   1.803   0.509   1.411  0.2812 -0.0799  0.2275
14550TIP3    H265066   1.928   0.435   1.454 -0.7499 -2.0045  0.0498
14551TIP3   OH265067   2.686   4.879  13.564 -0.3821 -0.7192  0.2692
14551TIP3    H165068   2.657   4.969  13.550 -0.5765 -0.7756  0.3014
14551TIP3    H265069   2.696   4.872  13.659 -0.3047 -0.7129  0.2615
14552TIP3   OH265070   0.454   1.029  17.147  0.2243  0.4294  0.2208
14552TIP3    H165071   0.500   1.052  17.066 -1.2895  0.9155 -0.5270
14552TIP3    H265072   0.445   1.112  17.194 -0.3944  0.4441  0.0853
14553TIP3   OH265073   5.954   0.949  15.936  0.3139 -0.5016 -0.1189
14553TIP3    H165074   5.986   0.910  16.017  0.2375  1.5686  0.9869
14553TIP3    H265075   5.894   0.884  15.899  1.2537 -1.9744  0.8534
14554TIP3   OH265076   3.066   6.552  15.123  0.7976 -0.2285  0.4471
14554TIP3    H165077   3.087   6.497  15.199  2.0425  0.3207  0.5232
14554TIP3    H265078   2.975   6.579  15.137  0.8149 -0.6422  1.4203
14555TIP3   OH265079   3.640   0.605   5.136  0.1809 -0.8231  0.0454
14555TIP3    H165080   3.545   0.599   5.123  0.0338 -1.2582  1.1315
14555TIP3    H265081   3.673   0.649   5.058 -1.1240  0.9146  0.4029
14556TIP3   OH265082   0.210   3.190  10.910 -0.2076  0.3688 -0.0143
14556TIP3    H165083   0.302   3.207  10.931 -0.5436  2.2983  0.0598
14556TIP3    H265084   0.195   3.099  10.938  1.6976 -0.0337 -0.1827
14557TIP3   OH265085   5.591   5.993   4.399 -0.0695 -0.6644 -0.0633
14557TIP3    H165086   5.643   5.936   4.344  0.9249  1.0935 -1.0327
14557TIP3    H265087   5.502   5.956   4.395  0.4534 -1.8863 -0.9526
14558TIP3   OH265088   0.233   4.149   4.404  0.3213 -0.5211 -0.4623
14558TIP3    H165089   0.326   4.144   4.380  0.2560  1.6091 -1.3613
14558TIP3    H265090   0.195   4.211   4.341 -1.2211  0.4199  1.2886
14559TIP3   OH265091   2.735   2.702  15.400 -0.5543 -0.2062  0.3017
14559TIP3    H165092   2.657   2.679  15.450 -1.7125 -0.1164 -1.3640
14559TIP3    H265093   2.808   2.688  15.460 -1.8921  0.3773  2.1430
14560TIP3   OH265094   2.013   1.902   2.109  0.2676 -0.2890  0.5551
14560TIP3    H165095   2.076   1.932   2.175  1.1579 -0.3078 -0.2606
14560TIP3    H265096   2.067   1.864   2.040 -0.6013  0.2733 -0.4651
14561TIP3   OH265097   5.752   5.690   4.628 -0.1716 -0.1165  0.1869
14561TIP3    H165098   5.844   5.712   4.616 -0.3598  0.6440  0.0473
14561TIP3    H265099   5.720   5.756   4.690 -0.3781 -1.0130  1.0564
14562TIP3   OH265100   6.683   4.342   1.539 -0.2062 -0.0922 -0.7485
14562TIP3    H165101   6.692   4.370   1.630  1.9272  0.0017 -0.9323
14562TIP3    H265102   6.633   4.260   1.544  0.3781 -0.4012  0.5785
14563TIP3   OH265103   6.290   6.502  11.323  0.2649 -0.1915  0.1443
14563TIP3    H165104   6.371   6.456  11.303  0.2117 -0.2486  0.0582
14563TIP3    H265105   6.232   6.434  11.357 -0.2455 -0.4421 -1.1707
14564TIP3   OH265106   5.775   1.286  15.790 -0.0600  0.0736 -0.7098
14564TIP3    H165107   5.814   1.278  15.703  1.5677  1.9975 -0.2367
14564TIP3    H265108   5.701   1.346  15.778  0.0453  0.1855 -0.8028
14565TIP3   OH265109   4.426   5.190  11.195 -0.0017  0.8371  0.6110
14565TIP3    H165110   4.352   5.167  11.251 -0.5338  0.2406 -0.2996
14565TIP3    H265111   4.412   5.139  11.115  1.1830  1.0249  0.2629
14566TIP3   OH265112   2.405   6.529   2.711 -0.5863  0.4994  0.0274
14566TIP3    H165113   2.340   6.584   2.754 -2.1651 -0.4763 -1.0096
14566TIP3    H265114   2.416   6.454   2.770 -1.6303 -0.1128 -0.5357
14567TIP3   OH265115   4.485   6.178   0.487 -0.2094  0.2584 -0.0855
14567TIP3    H165116   4.519   6.196   0.400 -0.8650  1.2084 -0.1670
14567TIP3    H265117   4.423   6.106   0.475 -0.1984  0.3003 -0.3909
14568TIP3   OH265118   3.577   4.857   0.884  0.1197  0.3246 -0.3232
14568TIP3    H165119   3.603   4.928   0.942 -0.4553  0.5931 -0.3905
14568TIP3    H265120   3.654   4.800   0.881 -0.6025 -1.0578  2.7209
14569TIP3   OH265121   2.938   3.263   3.086 -0.6373 -0.2234 -0.2938
14569TIP3    H165122   2.918   3.179   3.045 -2.1155 -0.0424  0.0255
14569TIP3    H265123   2.893   3.328   3.032 -1.1478  0.1775  0.5947
14570TIP3   OH265124   5.851   4.939  15.347 -0.2527  0.6931 -0.0430
14570TIP3    H165125   5.867   4.986  15.428  1.2172 -0.1814  0.2070
14570TIP3    H265126   5.938   4.925  15.309 -0.7041 -1.0640 -0.5278
14571TIP3   OH265127   0.307   3.858   1.242 -0.2884  0.0514  0.2736
14571TIP3    H165128   0.346   3.776   1.210 -0.3640 -0.1480  0.6918
14571TIP3    H265129   0.343   3.869   1.330  0.6045  1.0586 -0.1911
14572TIP3   OH265130   6.732   0.292   3.023  0.2664  0.2280 -0.0385
14572TIP3    H165131   6.735   0.275   2.929 -2.4596 -0.9971  0.0029
14572TIP3    H265132   6.745   0.206   3.063  0.1871  0.5437  0.6729
14573TIP3   OH265133   4.427   6.044  16.609 -0.3140 -0.2016 -0.1212
14573TIP3    H165134   4.405   5.963  16.564 -2.1886  0.2827 -0.1583
14573TIP3    H265135   4.444   6.107  16.538  1.7228 -0.6496 -0.0986
14574TIP3   OH265136   0.432   5.664  11.030 -0.4497 -0.0110 -0.4306
14574TIP3    H165137   0.455   5.646  10.939 -0.0977  0.9043 -0.5402
14574TIP3    H265138   0.398   5.754  11.028  0.4091  0.3480  0.4685
14575TIP3   OH265139   2.104   1.350  12.705 -0.3640 -0.2252 -0.0695
14575TIP3    H165140   2.085   1.438  12.675  1.7027  0.3759  0.2057
14575TIP3    H265141   2.093   1.353  12.800 -0.2026 -0.2316 -0.0499
14576TIP3   OH265142   6.436   5.196  10.677 -0.2142  0.1198  0.0469
14576TIP3    H165143   6.482   5.214  10.595 -1.8758 -0.9781 -1.1697
14576TIP3    H265144   6.355   5.246  10.671 -0.5372 -0.2856  0.8598
14577TIP3   OH265145   4.812   1.986  12.017 -0.2895 -0.1059 -0.1275
14577TIP3    H165146   4.742   1.951  12.073 -0.8474  0.7231 -0.2865
14577TIP3    H265147   4.766   2.034  11.948  0.4330  0.2325 -0.3829
14578TIP3   OH265148   5.307   6.374   5.830 -0.5590 -0.1626  0.0304
14578TIP3    H165149   5.291   6.373   5.925 -2.7464 -0.5645 -0.2837
14578TIP3    H265150   5.402   6.384   5.822 -0.5259  3.7244  2.2544
14579TIP3   OH265151   6.163   5.790   2.853  0.5467  0.4236  0.0972
14579TIP3    H165152   6.153   5.745   2.937 -1.7830 -0.6703 -0.6788
14579TIP3    H265153   6.253   5.771   2.826  0.7134 -0.8548  1.4384
14580TIP3   OH265154   0.138   2.328   3.841 -0.1670  0.2914  0.1635
14580TIP3    H165155   0.200   2.255   3.846  3.6087  3.2216  0.3677
14580TIP3    H265156   0.184   2.395   3.790 -3.0581  2.8625  0.6776
14581TIP3   OH265157   6.022   5.079   1.589  0.1174  0.5455 -0.0114
14581TIP3    H165158   5.979   5.028   1.657  0.2330  0.3814 -0.0590
14581TIP3    H265159   6.110   5.096   1.624  0.3768 -0.0404 -0.3599
14582TIP3   OH265160   4.392   2.905   1.965  0.1460 -0.5481 -0.4028
14582TIP3    H165161   4.312   2.857   1.946 -0.4566  1.1152 -2.4140
14582TIP3    H265162   4.455   2.838   1.991 -2.5900 -1.7372  4.4570
14583TIP3   OH265163   4.803   1.220  10.890 -0.4999 -0.0964 -0.4858
14583TIP3    H165164   4.838   1.134  10.913  0.5698  0.0134 -1.6476
14583TIP3    H265165   4.876   1.267  10.851 -0.7774  1.7289  1.0224
14584TIP3   OH265166   5.333   6.391   4.161 -0.2259  0.2364  0.0237
14584TIP3    H165167   5.330   6.296   4.165  4.1417 -0.0867  0.8966
14584TIP3    H265168   5.268   6.415   4.094 -0.8049 -3.3765 -0.9019
14585TIP3   OH265169   6.238   4.642   1.702 -0.0699 -0.4476 -0.5483
14585TIP3    H165170   6.305   4.576   1.718 -0.5680 -0.9234 -0.3814
14585TIP3    H265171   6.162   4.592   1.671 -0.2237  0.1214 -1.0966
14586TIP3   OH265172   3.164   5.776  14.711 -0.3517 -0.3739  0.4972
14586TIP3    H165173   3.126   5.837  14.774  2.5368 -0.1433  2.1910
14586TIP3    H265174   3.170   5.825  14.629 -0.7005  0.6359  1.0674
14587TIP3   OH265175   5.169   1.416   3.623  0.1658  0.3016  0.2831
14587TIP3    H165176   5.171   1.477   3.549  1.6172  1.9848  1.6117
14587TIP3    H265177   5.100   1.450   3.680 -1.0480 -1.0729 -0.2822
14588TIP3   OH265178   6.189   5.697   5.101 -0.3920 -0.1928  0.0468
14588TIP3    H165179   6.129   5.638   5.056 -0.6982  0.0421  0.1426
14588TIP3    H265180   6.227   5.751   5.032  2.5190 -2.7383 -0.5475
14589TIP3   OH265181   5.344   5.307  14.726 -0.3711  0.1564  0.4219
14589TIP3    H165182   5.318   5.332  14.637  1.8461 -0.8714 -0.5852
14589TIP3    H265183   5.273   5.250  14.756 -1.7871  1.5341 -0.1535
14590TIP3   OH265184   4.119   2.756   3.111  0.2073 -0.2651 -0.5624
14590TIP3    H165185   4.033   2.744   3.150 -0.2502 -2.1540 -1.9854
14590TIP3    H265186   4.180   2.725   3.177 -0.2597  0.1670  0.0814
14591TIP3   OH265187   4.397   5.606  15.692  0.0034  0.5308 -0.7095
14591TIP3    H165188   4.304   5.620  15.674  0.3708  0.7604 -2.6798
14591TIP3    H265189   4.415   5.517  15.660  0.0973 -0.2430  1.3722
14592TIP3   OH265190   4.375   5.913   1.296  0.0145  0.4364 -0.4374
14592TIP3    H165191   4.433   5.963   1.238  2.7926 -3.3182 -1.3625
14592TIP3    H265192   4.328   5.854   1.237 -0.8315 -0.1154  0.7606
14593TIP3   OH265193   2.761   6.242   4.113  0.3393  0.3497  0.7977
14593TIP3    H165194   2.721   6.295   4.045 -0.6742  0.9880  1.8627
14593TIP3    H265195   2.720   6.156   4.104 -0.9286  0.8576  1.5550
14594TIP3   OH265196   6.323   5.035   3.663 -0.1026 -0.0750 -0.1637
14594TIP3    H165197   6.386   4.971   3.631  0.8346  1.0937 -0.7444
14594TIP3    H265198   6.376   5.107   3.696 -1.1157  0.9802 -0.7473
14595TIP3   OH265199   3.662   1.944  13.861 -0.3236  0.1719 -0.0938
14595TIP3    H165200   3.721   2.019  13.850  0.2878 -0.6109 -2.8650
14595TIP3    H265201   3.721   1.870  13.879 -0.8199  0.0518  1.1603
14596TIP3   OH265202   3.866   4.775   1.739 -0.2075  0.0139 -0.0418
14596TIP3    H165203   3.958   4.774   1.712 -0.2260  1.3552 -0.2051
14596TIP3    H265204   3.868   4.809   1.828 -0.6617  1.8940 -0.6937
14597TIP3   OH265205   5.029   0.457  15.412  0.5505  0.1307  0.3766
14597TIP3    H165206   5.037   0.537  15.464  0.2121 -0.0960  0.7834
14597TIP3    H265207   5.056   0.387  15.471 -1.2348 -0.2911  0.7410
14598TIP3   OH265208   2.233   6.560   5.231  0.3913 -0.2052 -0.2996
14598TIP3    H165209   2.286   6.553   5.152 -0.1428 -2.5870 -0.5217
14598TIP3    H265210   2.204   6.470   5.249 -0.8384  0.5146  1.6828
14599TIP3   OH265211   3.163   4.327   5.504  0.0060 -0.4862  0.0604
14599TIP3    H165212   3.242   4.276   5.491  1.1269  1.4274 -1.0802
14599TIP3    H265213   3.178   4.409   5.456 -3.4734 -0.8112 -1.9685
14600TIP3   OH265214   4.189   3.248  13.442  0.0332 -0.6347  0.3488
14600TIP3    H165215   4.179   3.153  13.449  0.5860 -0.5698  2.4510
14600TIP3    H265216   4.274   3.267  13.482 -0.3679  0.8133  0.5698
14601TIP3   OH265217   3.295   0.554   3.437 -0.2327  0.1352 -0.0705
14601TIP3    H165218   3.299   0.460   3.418  0.3516  0.2586 -0.6170
14601TIP3    H265219   3.207   0.568   3.472  0.1569 -0.8687  1.4165
14602TIP3   OH265220   6.623   4.239  15.359  0.1905 -0.1120  0.0899
14602TIP3    H165221   6.677   4.195  15.293 -0.9512  0.2480 -1.1364
14602TIP3    H265222   6.552   4.279  15.308  0.3506  1.8674  1.3251
14603TIP3   OH265223   5.501   2.018  11.753 -0.0480 -0.2715 -0.2744
14603TIP3    H165224   5.536   1.949  11.697 -1.2177  1.0314 -2.7932
14603TIP3    H265225   5.557   2.094  11.736 -1.3092  0.5611 -0.8694
14604TIP3   OH265226   5.597   1.749   5.702  0.0375 -0.5210 -0.1220
14604TIP3    H165227   5.636   1.719   5.784  1.1357  1.6265  0.2302
14604TIP3    H265228   5.655   1.715   5.633 -0.2418 -1.3710  0.0542
14605TIP3   OH265229   1.677   0.992  14.252  0.1273  1.0398 -0.3085
14605TIP3    H165230   1.771   0.976  14.259 -0.1202 -0.0115  0.8935
14605TIP3    H265231   1.668   1.047  14.173  1.6656  0.6273 -0.8067
14606TIP3   OH265232   6.316   6.628  13.659 -0.5016  0.2528 -0.7791
14606TIP3    H165233   6.249   6.614  13.725  0.4858 -1.3015 -0.0327
14606TIP3    H265234   6.299   6.561  13.592  0.6689 -0.6111 -0.2428
14607TIP3   OH265235   2.713   1.595  15.639 -0.4434 -0.5145  0.0900
14607TIP3    H165236   2.806   1.580  15.620 -0.5608 -1.6495  0.3089
14607TIP3    H265237   2.667   1.552  15.567 -0.8065  0.3331 -0.1982
14608TIP3   OH265238   1.343   5.971   2.921 -0.3984 -0.3996  0.0969
14608TIP3    H165239   1.349   5.886   2.965 -0.4426 -0.7231 -0.5164
14608TIP3    H265240   1.257   5.971   2.879 -0.4675  0.0173  0.2325
14609TIP3   OH265241   4.717   5.455  15.498  0.4142 -0.2774  0.3131
14609TIP3    H165242   4.624   5.471  15.481  0.8922  0.0701 -2.5128
14609TIP3    H265243   4.762   5.525  15.452  2.1185 -0.4438  1.6185
14610TIP3   OH265244   5.668   0.995   5.024 -0.3439 -0.1150 -0.7188
14610TIP3    H165245   5.673   0.899   5.015 -1.8647 -0.1785 -1.1424
14610TIP3    H265246   5.580   1.017   4.993 -0.0860  1.4083 -0.4177
14611TIP3   OH265247   0.629   1.605  12.468 -0.4803 -0.1212 -0.1241
14611TIP3    H165248   0.591   1.593  12.381  2.6449 -1.4710 -1.4340
14611TIP3    H265249   0.721   1.626  12.452 -0.1590  1.3602  2.8597
14612TIP3   OH265250   4.437   4.516   3.045 -0.5753  0.6591  0.0951
14612TIP3    H165251   4.415   4.490   2.955  0.5749 -0.6750  0.1772
14612TIP3    H265252   4.480   4.601   3.035 -1.4118  1.0263 -0.5042
14613TIP3   OH265253   4.376   5.887   5.813  0.3714  0.6167 -0.2274
14613TIP3    H165254   4.289   5.918   5.838  0.5357  0.2841  0.7906
14613TIP3    H265255   4.435   5.930   5.874  0.6994 -0.9151  0.5890
14614TIP3   OH265256   4.158   2.109   0.361 -0.1316 -0.0833 -0.3057
14614TIP3    H165257   4.141   2.050   0.434 -2.2445  0.2928 -0.4224
14614TIP3    H265258   4.243   2.148   0.380 -0.6207 -0.0143  1.9638
14615TIP3   OH265259   2.911   1.362  16.167 -0.0688  0.3340  0.2247
14615TIP3    H165260   2.880   1.349  16.077  0.2839 -1.1082  0.2811
14615TIP3    H265261   2.834   1.349  16.222 -0.1424  0.5216  0.1648
14616TIP3   OH265262   2.844   4.205  15.264 -0.1589 -0.4022 -0.2706
14616TIP3    H165263   2.800   4.259  15.199  0.1417  0.3438  0.1263
14616TIP3    H265264   2.783   4.133  15.281 -1.6322  1.0345  0.8764
14617TIP3   OH265265   2.218   4.759   1.056 -0.4406 -0.1914 -0.0825
14617TIP3    H165266   2.185   4.841   1.019 -0.3906 -0.0394  0.2106
14617TIP3    H265267   2.142   4.700   1.055 -0.3560 -0.2982 -0.7424
14618TIP3   OH265268   0.951   1.778   2.707 -0.1777  0.6280  0.9431
14618TIP3    H165269   0.867   1.815   2.680  0.3319  0.4709 -1.0325
14618TIP3    H265270   1.016   1.839   2.670  0.5885  0.3732  1.8475
14619TIP3   OH265271   5.185   1.151   1.424  0.2225 -0.2563  0.1834
14619TIP3    H165272   5.278   1.157   1.447  1.2023  1.2894 -3.4807
14619TIP3    H265273   5.181   1.084   1.356 -0.5889  2.1083 -2.2819
14620TIP3   OH265274   4.323   5.731   5.427  0.0140 -0.0691  0.1547
14620TIP3    H165275   4.273   5.758   5.350 -0.1696  1.3406  0.7314
14620TIP3    H265276   4.410   5.769   5.414  0.6906 -1.7191 -0.3958
14621TIP3   OH265277   6.399   5.612   6.401 -0.3897 -0.2143  0.3553
14621TIP3    H165278   6.394   5.689   6.344  1.2900 -0.2346  0.1094
14621TIP3    H265279   6.309   5.597   6.429 -0.8271  1.5846  0.0795
14622TIP3   OH265280   1.427   4.374  16.413  0.3680  0.0159 -0.2293
14622TIP3    H165281   1.372   4.348  16.339  1.1850 -0.0945 -0.8049
14622TIP3    H265282   1.389   4.328  16.488 -0.4231  0.0690 -0.5799
14623TIP3   OH265283   4.757   1.861  15.390  0.3360  0.1140 -0.1378
14623TIP3    H165284   4.717   1.849  15.477  0.3527  1.4535  0.0820
14623TIP3    H265285   4.698   1.815  15.330 -2.6872  3.4371 -0.0642
14624TIP3   OH265286   6.071   4.470   4.731  0.4246 -0.2396  0.4569
14624TIP3    H165287   5.982   4.472   4.697 -0.1276  0.4892  1.8864
14624TIP3    H265288   6.124   4.441   4.656 -0.6504  1.7248 -1.1883
14625TIP3   OH265289   5.108   0.024  13.946  0.6816  0.0007  0.1127
14625TIP3    H165290   5.056   0.089  13.899  3.2620  1.1684 -1.3945
14625TIP3    H265291   5.110  -0.052  13.888  1.6624  0.4540 -0.4843
14626TIP3   OH265292   2.786   0.468  16.325 -0.1647  0.0923 -0.1245
14626TIP3    H165293   2.870   0.471  16.371  0.2754  1.2215 -0.9556
14626TIP3    H265294   2.756   0.378  16.334  0.7768 -0.1335  0.8233
14627TIP3   OH265295   2.099   3.366  11.197 -0.0683  0.0921  0.0237
14627TIP3    H165296   2.189   3.354  11.167  0.1384 -0.0769  0.6807
14627TIP3    H265297   2.058   3.280  11.187  0.8267 -0.7912  2.8272
14628TIP3   OH265298   3.709   6.556  14.689  0.2258 -0.1736 -0.3578
14628TIP3    H165299   3.769   6.571  14.762 -1.8157  2.4275  0.9931
14628TIP3    H265300   3.622   6.555  14.729 -0.8957 -0.0199 -2.6006
14629TIP3   OH265301   1.863   3.541   4.461 -0.2868  0.3246 -0.1164
14629TIP3    H165302   1.873   3.481   4.536 -3.1960 -1.2301 -0.7936
14629TIP3    H265303   1.821   3.618   4.498 -2.5387 -0.7926 -0.1477
14630TIP3   OH265304   2.525   6.201  12.341 -0.3449 -0.0359  0.2723
14630TIP3    H165305   2.609   6.161  12.318  0.2162  0.9492  0.5537
14630TIP3    H265306   2.461   6.159  12.283  0.3917 -0.5656 -0.1653
14631TIP3   OH265307   5.873   0.889  12.282  0.3684 -0.1635  0.2914
14631TIP3    H165308   5.960   0.859  12.257 -0.1512 -0.7780 -0.8352
14631TIP3    H265309   5.813   0.831  12.236 -0.6575  1.1152 -0.0356
14632TIP3   OH265310   5.404   0.565   4.317 -0.2127 -0.2762  0.4868
14632TIP3    H165311   5.466   0.638   4.321 -0.0555 -0.4079  0.4705
14632TIP3    H265312   5.325   0.597   4.360 -0.3796  0.1374 -0.1108
14633TIP3   OH265313   6.238   2.288   5.823 -0.2899 -0.8757  0.1997
14633TIP3    H165314   6.311   2.230   5.799 -0.9404 -2.1968  1.2618
14633TIP3    H265315   6.224   2.271   5.916 -1.3035  0.1146  0.2486
14634TIP3   OH265316   0.463   5.176   5.130  0.2837 -0.2408  0.2586
14634TIP3    H165317   0.532   5.227   5.087 -1.3580  2.2553  0.3670
14634TIP3    H265318   0.405   5.149   5.058  0.4519 -0.8693  0.3499
14635TIP3   OH265319   3.645   3.644  11.442 -0.5927  0.5328  0.0793
14635TIP3    H165320   3.697   3.711  11.487  0.5010  1.0865 -1.8784
14635TIP3    H265321   3.656   3.664  11.349 -2.2321 -0.9304 -0.4793
14636TIP3   OH265322   6.072   1.834  17.329  1.0849  0.4116  0.2832
14636TIP3    H165323   6.042   1.845  17.239  0.0818 -1.4764  0.3374
14636TIP3    H265324   5.994   1.848  17.383  1.3706  0.2031  0.7636
14637TIP3   OH265325   1.731   6.357  13.606 -0.7572  0.0629  0.1468
14637TIP3    H165326   1.825   6.365  13.621 -0.7265  1.6125 -0.6510
14637TIP3    H265327   1.714   6.263  13.610  1.0212 -0.3454 -0.7192
14638TIP3   OH265328   1.417   4.447  12.346 -0.1242  0.2599  0.1178
14638TIP3    H165329   1.345   4.510  12.342  0.6531  1.2254  0.7006
14638TIP3    H265330   1.408   4.405  12.431 -0.7356 -0.5614 -0.3353
14639TIP3   OH265331   2.062   3.214  13.992  0.0126  0.7003 -0.4485
14639TIP3    H165332   2.083   3.155  13.919  0.9115  0.3254  0.0914
14639TIP3    H265333   1.974   3.187  14.019  0.8131 -1.1523  0.4759
14640TIP3   OH265334   1.483   3.498  13.112  0.2501  0.0778 -0.1215
14640TIP3    H165335   1.554   3.437  13.090  0.2412  0.4857 -1.3340
14640TIP3    H265336   1.520   3.554  13.181  0.8893 -0.1134 -0.2984
14641TIP3   OH265337   6.155   6.558   6.274  0.0981 -0.3499 -0.3449
14641TIP3    H165338   6.105   6.523   6.348  1.5260 -1.0623  0.3317
14641TIP3    H265339   6.116   6.643   6.257 -1.0633 -0.6995  0.4235
14642TIP3   OH265340   0.221   6.180   0.855  0.1218 -0.6723  0.3361
14642TIP3    H165341   0.178   6.252   0.810 -0.2089 -2.3251 -2.1932
14642TIP3    H265342   0.158   6.151   0.921 -2.5012 -2.4436 -2.6547
14643TIP3   OH265343   3.189   4.104  10.639 -0.1350 -0.0775 -0.2375
14643TIP3    H165344   3.207   4.133  10.729 -0.0754  1.1949 -0.6366
14643TIP3    H265345   3.249   4.030  10.626  0.4092  0.2081  0.5120
14644TIP3   OH265346   2.786   3.330   5.690  0.0905  0.3556 -0.6536
14644TIP3    H165347   2.721   3.267   5.660 -0.5333  0.9902 -0.6508
14644TIP3    H265348   2.780   3.328   5.786  0.4240  0.0577 -0.6365
14645TIP3   OH265349   4.427   5.549  16.049 -0.5916  0.1291 -0.2223
14645TIP3    H165350   4.417   5.460  16.016 -2.0276  0.9639 -2.2438
14645TIP3    H265351   4.349   5.564  16.102 -0.4677  0.2740 -0.0802
14646TIP3   OH265352   6.416   6.105   3.058 -0.7557  0.0434 -0.0284
14646TIP3    H165353   6.394   6.074   3.145  0.5355 -1.3974 -0.1626
14646TIP3    H265354   6.337   6.150   3.027 -1.3233  0.3312  1.7469
14647TIP3   OH265355   1.291   4.689  14.363  0.3115 -0.2468  0.3793
14647TIP3    H165356   1.330   4.627  14.302  1.3187  0.5528  0.1800
14647TIP3    H265357   1.210   4.719  14.320  0.2324 -0.8225  0.1281
14648TIP3   OH265358   6.594   4.579  15.556 -0.1435  0.3963 -0.2194
14648TIP3    H165359   6.567   4.499  15.511 -0.7725  1.1122 -1.1770
14648TIP3    H265360   6.529   4.591  15.625 -0.6104  0.5708 -0.6775
14649TIP3   OH265361   0.047   2.791   2.856 -0.0553 -0.1512 -1.0784
14649TIP3    H165362   0.139   2.768   2.863 -0.1818 -1.2735 -2.6612
14649TIP3    H265363   0.013   2.780   2.945  0.7516 -2.3681 -0.9909
14650TIP3   OH265364   3.049   4.012  15.340  0.2654  0.0593  0.0249
14650TIP3    H165365   2.971   4.062  15.315 -0.5755 -0.9848  0.4899
14650TIP3    H265366   3.054   4.022  15.435  1.5292  1.2671 -0.1356
14651TIP3   OH265367   5.591   0.450  16.332  0.5669 -0.4694  0.6227
14651TIP3    H165368   5.511   0.415  16.294 -0.4552  0.5633  1.7443
14651TIP3    H265369   5.660   0.424  16.270 -1.0166  1.4602 -2.1686
14652TIP3   OH265370   4.475   0.832  12.526  0.0238 -0.2505 -0.1844
14652TIP3    H165371   4.480   0.766  12.596 -2.4651 -1.0097 -0.6195
14652TIP3    H265372   4.385   0.825  12.493  0.3666  1.8520 -1.7646
14653TIP3   OH265373   3.349   1.956   3.260 -0.2515 -0.1615 -0.4583
14653TIP3    H165374   3.289   2.029   3.277  0.5870  0.3808  0.2250
14653TIP3    H265375   3.415   1.962   3.329  0.5122 -0.8411 -1.1080
14654TIP3   OH265376   5.917   3.570  12.113 -0.1257 -0.3538 -0.4282
14654TIP3    H165377   5.959   3.629  12.175 -1.7896  2.8077 -2.0685
14654TIP3    H265378   5.842   3.534  12.161  1.8581 -2.7354  1.1443
14655TIP3   OH265379   1.610   0.679  16.259  0.4842 -0.4965 -0.1039
14655TIP3    H165380   1.658   0.711  16.183  0.0056 -1.6196 -0.9015
14655TIP3    H265381   1.618   0.584  16.255  0.6791 -0.5656  1.4215
14656TIP3   OH265382   0.285   4.302  10.621 -0.7973  0.8590  0.2113
14656TIP3    H165383   0.316   4.342  10.703  2.4626  1.3231 -1.1036
14656TIP3    H265384   0.290   4.208  10.637 -1.8954  0.9239  1.0802
14657TIP3   OH265385   6.243   4.974   6.496  0.1843 -0.2424  0.1902
14657TIP3    H165386   6.261   4.971   6.403  0.6385  1.1810  0.2135
14657TIP3    H265387   6.203   5.060   6.510 -1.1986 -0.9826  1.0889
14658TIP3   OH265388   3.443   1.857   3.957  0.8753  0.1853  0.0547
14658TIP3    H165389   3.488   1.894   3.881  0.3152  1.3334  0.2606
14658TIP3    H265390   3.350   1.872   3.940  0.4319 -2.8849 -0.7479
14659TIP3   OH265391   3.753   2.712   3.495  0.0401  0.0692  0.5611
14659TIP3    H165392   3.784   2.795   3.530 -2.5879  0.7212  1.5927
14659TIP3    H265393   3.734   2.658   3.572 -1.3442 -0.2384  0.0502
14660TIP3   OH265394   4.961   0.547   0.982 -0.5616  0.0294 -0.5080
14660TIP3    H165395   4.968   0.589   0.896  1.2045  0.2383 -0.3015
14660TIP3    H265396   4.878   0.578   1.017 -0.7673  0.8562 -1.6675
14661TIP3   OH265397   3.424   1.570  17.359 -0.1519 -0.1447  0.2757
14661TIP3    H165398   3.496   1.593  17.300  0.0255  1.4738  1.0539
14661TIP3    H265399   3.463   1.571  17.447 -0.7271 -1.0755  0.5625
14662TIP3   OH265400   2.234   1.329   3.343 -0.4851 -0.0365  0.0545
14662TIP3    H165401   2.217   1.242   3.380 -0.9296  1.1364  2.9374
14662TIP3    H265402   2.308   1.317   3.284 -0.6525 -2.3816  0.2402
14663TIP3   OH265403   4.230   2.949  11.730 -0.2371  0.3421 -0.2217
14663TIP3    H165404   4.304   2.970  11.787 -1.5178  1.5917  1.0825
14663TIP3    H265405   4.270   2.929  11.646  1.6170  0.3489  0.5976
14664TIP3   OH265406   6.436   5.912   3.664 -0.2841  0.5268  0.1194
14664TIP3    H165407   6.451   5.928   3.757 -0.4238  0.1864  0.2046
14664TIP3    H265408   6.400   5.823   3.661  4.8449 -1.8763 -0.6332
14665TIP3   OH265409   3.668   3.313  16.140  0.2842  0.6897  0.2651
14665TIP3    H165410   3.711   3.228  16.142  0.8047  0.8004 -2.3949
14665TIP3    H265411   3.662   3.339  16.232  0.8161 -1.8325  1.0954
14666TIP3   OH265412   2.692   1.605  11.259  0.0956 -0.7365 -0.0442
14666TIP3    H165413   2.643   1.639  11.184  0.2677  0.8054  0.5106
14666TIP3    H265414   2.627   1.553  11.307 -0.3630 -0.6798 -0.5878
14667TIP3   OH265415   1.313   3.655  15.863  0.5764  0.1499 -0.4595
14667TIP3    H165416   1.348   3.575  15.823  0.1712 -0.1587 -0.1981
14667TIP3    H265417   1.228   3.630  15.899  1.0215  0.3522  0.8034
14668TIP3   OH265418   4.839   0.192   2.864  0.1213  0.3731  0.2970
14668TIP3    H165419   4.768   0.185   2.800  0.6695  1.8465 -0.4978
14668TIP3    H265420   4.862   0.101   2.883  0.3165 -0.1361 -2.0206
14669TIP3   OH265421   6.209   5.786   4.414  0.3555  0.2803  0.3690
14669TIP3    H165422   6.146   5.779   4.342 -0.1969  1.3767  0.7141
14669TIP3    H265423   6.275   5.847   4.382  1.1580 -0.7139  0.0840
14670TIP3   OH265424   6.145   6.226  11.817  0.6840 -0.2513  0.2363
14670TIP3    H165425   6.065   6.275  11.836 -0.0983 -0.5139 -2.0715
14670TIP3    H265426   6.215   6.292  11.819 -0.0725  0.6202 -0.9422
14671TIP3   OH265427   6.703   5.049   2.510 -0.3162 -0.0431 -0.2584
14671TIP3    H165428   6.710   5.041   2.605 -1.0110 -0.2934 -0.2169
14671TIP3    H265429   6.624   5.101   2.497  0.2782  0.7580 -0.6859
14672TIP3   OH265430   2.991   0.411  12.142 -0.0886  0.8136 -0.2335
14672TIP3    H165431   2.901   0.383  12.161 -0.2209  0.8279 -0.8350
14672TIP3    H265432   3.044   0.332  12.152  0.0527  1.0912  1.5352
14673TIP3   OH265433   5.190   4.241   6.946 -0.3592 -0.3837 -0.5164
14673TIP3    H165434   5.277   4.202   6.935  0.8248  1.8232  0.3388
14673TIP3    H265435   5.173   4.285   6.863 -0.2515 -0.0621 -0.3682
14674TIP3   OH265436   3.230   2.217   4.149 -0.0071  0.1356 -0.2741
14674TIP3    H165437   3.154   2.263   4.111 -0.1773  0.4754  0.4671
14674TIP3    H265438   3.279   2.285   4.194 -0.1806 -0.3812  0.7128
14675TIP3   OH265439   5.197   4.440   3.660 -0.1729 -0.4713  0.2001
14675TIP3    H165440   5.165   4.472   3.576 -1.0486  1.1641  1.1138
14675TIP3    H265441   5.119   4.417   3.709  0.3054 -1.0238  0.7191
14676TIP3   OH265442   3.761   2.636   5.258  0.7595 -0.5428 -0.2048
14676TIP3    H165443   3.735   2.585   5.334  0.2433 -0.1888 -0.1416
14676TIP3    H265444   3.789   2.720   5.294  0.8518 -0.5000 -0.3744
14677TIP3   OH265445   4.077   2.466   0.608  0.3149  0.2225 -0.0728
14677TIP3    H165446   4.157   2.484   0.558  1.5927 -2.3414  0.8707
14677TIP3    H265447   4.094   2.506   0.694  0.6090 -0.3346  0.1324
14678TIP3   OH265448   2.477   2.112  15.114 -0.2630 -0.0753 -0.1094
14678TIP3    H165449   2.498   2.121  15.207 -2.7306 -2.8577  0.8763
14678TIP3    H265450   2.551   2.064  15.077 -0.3128 -1.0512  1.0020
14679TIP3   OH265451   6.668   3.101  13.885  0.2355  0.6943 -0.3807
14679TIP3    H165452   6.666   3.010  13.856 -1.1848  0.2407  1.0022
14679TIP3    H265453   6.660   3.152  13.804  0.2546 -0.4193 -1.1022
14680TIP3   OH265454   3.183   3.535  12.545  0.0331 -0.0084  0.5667
14680TIP3    H165455   3.151   3.623  12.525 -0.2459 -0.3887 -0.7381
14680TIP3    H265456   3.187   3.533  12.640  1.9751  2.0914  0.6241
14681TIP3   OH265457   6.255   3.178   1.576  0.5391  0.2782 -0.2630
14681TIP3    H165458   6.246   3.269   1.603 -1.3501 -0.6446  2.7322
14681TIP3    H265459   6.296   3.135   1.651 -0.2535 -1.6359 -0.8701
14682TIP3   OH265460   4.385   0.055   1.431  0.3917 -0.1102  0.6541
14682TIP3    H165461   4.363   0.141   1.396  0.1429 -1.2644 -2.3464
14682TIP3    H265462   4.313   0.034   1.490 -0.6022  0.9293 -0.1452
14683TIP3   OH265463   4.197   0.967   5.644  0.1432  0.2206  0.0854
14683TIP3    H165464   4.194   1.038   5.708 -0.7287 -0.8524  1.3295
14683TIP3    H265465   4.290   0.951   5.629  0.3469  1.2047  0.2798
14684TIP3   OH265466   3.115   4.577   1.978  0.4985 -0.0638  0.5634
14684TIP3    H165467   3.082   4.499   1.935 -1.7875  1.5852 -0.9258
14684TIP3    H265468   3.053   4.646   1.953  1.8160  2.0157  2.6331
14685TIP3   OH265469   6.524   4.582   0.089  0.5303  0.3057  0.1106
14685TIP3    H165470   6.563   4.526   0.156  1.9050 -0.7938 -1.5284
14685TIP3    H265471   6.585   4.578   0.016 -0.9479  1.4032 -1.2497
14686TIP3   OH265472   3.222   5.904   3.356  0.1417  0.0971 -0.2247
14686TIP3    H165473   3.215   5.843   3.429 -2.1322  0.3027 -0.2180
14686TIP3    H265474   3.244   5.988   3.397  2.0430 -0.3893 -0.1282
14687TIP3   OH265475   5.856   0.533   2.365 -0.0701  0.4102  0.7323
14687TIP3    H165476   5.949   0.515   2.358  0.3046  1.2255  2.8637
14687TIP3    H265477   5.816   0.447   2.379  0.6339  0.2549  1.9088
14688TIP3   OH265478   5.692   4.382  15.827  0.1049 -0.1566  0.0257
14688TIP3    H165479   5.601   4.400  15.849 -1.0277 -1.8803 -2.7669
14688TIP3    H265480   5.732   4.469  15.819 -1.0806  0.6140  1.7994
14689TIP3   OH265481   4.626   0.669  16.257  0.3785  0.4745 -0.1704
14689TIP3    H165482   4.562   0.671  16.328 -0.0854  1.6209 -0.5901
14689TIP3    H265483   4.579   0.630  16.183  0.5481  0.1834 -0.1217
14690TIP3   OH265484   2.467   1.208   0.439 -0.2436 -0.5003  0.4048
14690TIP3    H165485   2.520   1.288   0.432 -2.1854  0.7476 -1.4799
14690TIP3    H265486   2.380   1.240   0.464 -0.9290 -2.0939  0.1393
14691TIP3   OH265487   2.088   1.963  14.439 -0.3819 -0.0366  0.5596
14691TIP3    H165488   2.053   2.011  14.514  0.2962 -0.3977  1.1211
14691TIP3    H265489   2.156   1.906  14.476 -1.3063 -1.5986 -0.0466
14692TIP3   OH265490   2.104   1.197   5.860  0.3522  0.1510  0.2254
14692TIP3    H165491   2.108   1.149   5.777  1.1190 -1.2426  1.0217
14692TIP3    H265492   2.195   1.204   5.888  0.0759  0.2746  1.1331
14693TIP3   OH265493   5.274   4.519  17.043 -0.2791 -0.3350 -0.3201
14693TIP3    H165494   5.336   4.445  17.043  0.9148  0.6414 -0.5991
14693TIP3    H265495   5.301   4.573  17.116 -0.0016  0.7530 -1.2062
14694TIP3   OH265496   5.167   2.750   5.018 -0.3190 -0.6514  0.3316
14694TIP3    H165497   5.234   2.762   4.951 -1.4093 -2.3842 -1.1831
14694TIP3    H265498   5.189   2.665   5.058 -2.3890 -2.0301 -1.2649
14695TIP3   OH265499   2.507   4.527  15.119  0.1790 -0.0891  0.4215
14695TIP3    H165500   2.529   4.511  15.210  0.0498 -1.4112  0.2361
14695TIP3    H265501   2.480   4.442  15.085  0.4100  0.3396 -0.9048
14696TIP3   OH265502   0.735   4.770   4.380  0.3031  0.5470 -0.6788
14696TIP3    H165503   0.727   4.703   4.312 -0.4616  0.5166 -0.5701
14696TIP3    H265504   0.652   4.817   4.376 -2.6412 -3.2201  4.1706
14697TIP3   OH265505   0.237   3.795   0.500 -0.7490 -0.2853 -0.0090
14697TIP3    H165506   0.193   3.778   0.583 -0.6152  0.3055  0.1901
14697TIP3    H265507   0.170   3.783   0.434 -0.9888 -0.2490  0.2267
14698TIP3   OH265508   4.770   0.061   4.537  0.1289  0.0456  0.0543
14698TIP3    H165509   4.701   0.118   4.502  0.1513 -2.0719 -4.0721
14698TIP3    H265510   4.725  -0.021   4.556  1.0558 -0.4612  0.0868
14699TIP3   OH265511   3.877   1.906   6.074 -0.1245  0.0675  0.5552
14699TIP3    H165512   3.904   1.897   5.983  0.3605 -2.3219  0.8782
14699TIP3    H265513   3.791   1.865   6.078 -1.0051  1.8084  0.8633
14700TIP3   OH265514   3.371   1.305  10.832 -0.4584  0.4098  0.1931
14700TIP3    H165515   3.455   1.317  10.786 -0.6420  0.2115 -0.2069
14700TIP3    H265516   3.355   1.210  10.825 -0.3893  0.3483  0.8493
14701TIP3   OH265517   3.633   2.132   2.123  0.2145 -0.7659 -0.2082
14701TIP3    H165518   3.659   2.127   2.030  0.2873  0.0528 -0.2430
14701TIP3    H265519   3.687   2.066   2.166  1.9093  0.4248 -0.4007
14702TIP3   OH265520   0.516   2.275   3.325 -0.3308 -0.2779  0.0231
14702TIP3    H165521   0.522   2.216   3.251 -0.9887  0.6737 -0.8131
14702TIP3    H265522   0.461   2.347   3.294  0.2389  0.6479  1.0927
14703TIP3   OH265523   4.120   4.961   2.167  0.3286 -0.3129  0.2752
14703TIP3    H165524   4.154   4.982   2.254 -1.4279 -1.6439  1.3664
14703TIP3    H265525   4.155   4.874   2.148  0.9141  0.0798 -0.4964
14704TIP3   OH265526   2.367   2.237  16.826 -0.1017  1.0309 -0.0108
14704TIP3    H165527   2.343   2.153  16.788 -0.4641  1.1095  0.0456
14704TIP3    H265528   2.285   2.275  16.855  0.0668  1.3879  0.0027
14705TIP3   OH265529   4.785   2.735   3.499 -0.1292 -0.7775 -0.1921
14705TIP3    H165530   4.756   2.708   3.585  0.4450 -0.8514 -0.0143
14705TIP3    H265531   4.778   2.830   3.499  0.1327 -0.7588  0.0334
14706TIP3   OH265532   1.697   3.667   0.487 -0.4227 -0.3236 -0.1623
14706TIP3    H165533   1.666   3.625   0.567 -3.4198  1.9002  0.0267
14706TIP3    H265534   1.658   3.615   0.416  0.1211 -0.7909 -0.1288
14707TIP3   OH265535   6.710   4.050   3.589 -0.1306  0.1255  0.4125
14707TIP3    H165536   6.752   4.014   3.511 -2.1047 -2.3114  0.3701
14707TIP3    H265537   6.783   4.068   3.649  1.2740  0.4667 -1.3168
14708TIP3   OH265538   0.703   4.533   2.488  0.0980 -0.0036  0.0768
14708TIP3    H165539   0.662   4.577   2.413  2.1100  1.6833 -0.1243
14708TIP3    H265540   0.690   4.594   2.561  3.1580  1.2228 -0.2615
14709TIP3   OH265541   5.101   2.672   5.504  0.0910 -0.5409 -0.4559
14709TIP3    H165542   5.041   2.684   5.431  0.6803 -1.0735 -1.0461
14709TIP3    H265543   5.064   2.724   5.575 -0.7408 -0.3941 -0.9891
14710TIP3   OH265544   1.298   6.717  12.240  0.2865  0.5846  0.3199
14710TIP3    H165545   1.211   6.743  12.212 -0.1382 -2.7500 -2.0751
14710TIP3    H265546   1.284   6.638  12.292  1.8371 -0.5113 -0.8225
14711TIP3   OH265547   6.359   1.558  15.343  0.1451  0.2523 -0.6594
14711TIP3    H165548   6.354   1.562  15.438  1.0644  0.3980 -0.6051
14711TIP3    H265549   6.303   1.485  15.319  1.0010 -0.6877  0.1116
14712TIP3   OH265550   5.137   0.842  11.652  0.6608  0.1554  0.0725
14712TIP3    H165551   5.222   0.851  11.694  0.8754 -0.6998 -0.1593
14712TIP3    H265552   5.155   0.794  11.571  0.0453  0.4820 -0.2616
14713TIP3   OH265553   0.187   1.471   4.297  0.1727 -0.8067  0.5342
14713TIP3    H165554   0.159   1.535   4.231  0.3386 -0.7588  0.5104
14713TIP3    H265555   0.282   1.472   4.292  0.3754  1.2909  2.6830
14714TIP3   OH265556   2.644   1.309   5.988 -0.1422 -0.6509 -0.0801
14714TIP3    H165557   2.678   1.226   6.022 -0.8330 -0.6840  0.5565
14714TIP3    H265558   2.675   1.313   5.898  0.7253 -1.1344  0.1920
14715TIP3   OH265559   4.261   5.224  10.668  0.2395  0.3338  0.2149
14715TIP3    H165560   4.273   5.315  10.639 -1.7602  0.3406 -0.7724
14715TIP3    H265561   4.349   5.187  10.666  0.8355  1.6989 -1.3480
14716TIP3   OH265562   3.666   0.165   2.706  0.9253  0.5606 -0.1767
14716TIP3    H165563   3.749   0.162   2.753  0.6490  0.2708  0.3024
14716TIP3    H265564   3.659   0.079   2.665  0.3448  0.1777  0.6993
14717TIP3   OH265565   6.635   3.350  14.396 -0.0079  0.4198 -0.4603
14717TIP3    H165566   6.669   3.306  14.318  2.0049  1.4857 -0.2592
14717TIP3    H265567   6.613   3.278  14.456 -1.5501 -0.4087 -1.9499
14718TIP3   OH265568   0.676   3.746  16.145 -0.4911  0.2025 -0.8757
14718TIP3    H165569   0.698   3.802  16.070  0.5841 -0.0030 -0.7328
14718TIP3    H265570   0.675   3.806  16.219  0.5227  0.0875 -0.7451
14719TIP3   OH265571   5.668   0.402  15.947  0.6268  0.1387  0.1489
14719TIP3    H165572   5.748   0.427  15.901 -0.2900  0.0753 -1.5962
14719TIP3    H265573   5.685   0.313  15.978  0.5842 -0.6700 -1.9677
14720TIP3   OH265574   0.883   0.206  14.937 -0.7105 -0.7657 -0.6276
14720TIP3    H165575   0.976   0.226  14.948 -0.8788 -0.0426 -0.4900
14720TIP3    H265576   0.844   0.226  15.021 -1.1493 -0.1668 -0.9702
14721TIP3   OH265577   4.720   6.179   3.245 -0.6941 -0.3046 -0.7294
14721TIP3    H165578   4.650   6.228   3.203  0.8646  1.1520 -1.8128
14721TIP3    H265579   4.779   6.155   3.174  0.3368 -0.7056  0.2229
14722TIP3   OH265580   4.379   2.921  11.490  0.0369 -0.4015 -0.4295
14722TIP3    H165581   4.397   2.827  11.492  0.7420 -0.2851  2.7410
14722TIP3    H265582   4.335   2.935  11.406  0.6189 -3.4004 -1.3394
14723TIP3   OH265583   4.613   4.630   1.317 -0.2862 -0.0836  0.2956
14723TIP3    H165584   4.534   4.600   1.361  0.3815 -0.3711  1.3547
14723TIP3    H265585   4.583   4.664   1.233 -1.3542 -1.5705  0.0298
14724TIP3   OH265586   6.455   5.961   3.384 -0.0704 -0.1245  0.4587
14724TIP3    H165587   6.533   6.016   3.393  0.2656 -0.3866 -0.6480
14724TIP3    H265588   6.421   5.952   3.473  0.6800  0.6903  0.8444
14725TIP3   OH265589   4.867   5.640  15.370  0.8238  0.1234  0.0448
14725TIP3    H165590   4.945   5.619  15.422  1.3690 -1.0285 -1.1651
14725TIP3    H265591   4.889   5.609  15.282 -0.9520 -0.0634 -0.3575
14726TIP3   OH265592   3.620   1.205  14.747 -0.2273  0.0127  0.2267
14726TIP3    H165593   3.678   1.279  14.728  0.9256 -0.7840  0.5163
14726TIP3    H265594   3.661   1.131  14.702 -0.6968 -0.6955  0.9507
14727TIP3   OH265595   4.255   3.188   2.270 -0.2681  0.5775 -0.0038
14727TIP3    H165596   4.173   3.203   2.318 -2.2719  1.1109 -3.2885
14727TIP3    H265597   4.268   3.268   2.220 -0.4025 -1.1779 -3.0810
14728TIP3   OH265598   0.054   5.780   2.387 -0.2893  0.1734 -0.5608
14728TIP3    H165599   0.123   5.739   2.439 -2.0702 -1.3193  0.7872
14728TIP3    H265600   0.088   5.866   2.364  0.9528  0.5809  2.3869
14729TIP3   OH265601   3.366   1.409  11.094  0.3908 -0.2724  0.3421
14729TIP3    H165602   3.453   1.446  11.102 -0.1715  1.2702 -0.2400
14729TIP3    H265603   3.356   1.389  11.001 -0.0206 -0.0105  0.3228
14730TIP3   OH265604   5.221   0.950   3.777 -0.0379 -0.4894  0.3460
14730TIP3    H165605   5.266   1.031   3.753  0.6723 -0.9821  0.0018
14730TIP3    H265606   5.160   0.935   3.704  1.2513 -1.3257 -0.5945
14731TIP3   OH265607   2.294   0.889   2.520 -0.0584 -0.1188 -0.5092
14731TIP3    H165608   2.261   0.953   2.457 -0.2586 -0.7495 -1.0514
14731TIP3    H265609   2.350   0.940   2.578  1.4823  0.2262 -2.1873
14732TIP3   OH265610   1.073   6.121   5.128  0.0462 -0.1091  0.0341
14732TIP3    H165611   1.064   6.097   5.220  1.3862 -1.6065 -0.1853
14732TIP3    H265612   1.162   6.096   5.105  0.4933  2.2664 -1.1215
14733TIP3   OH265613   5.161   2.188   4.287  0.1468 -0.2955  0.1631
14733TIP3    H165614   5.163   2.239   4.367 -0.9168 -0.2923  0.2011
14733TIP3    H265615   5.203   2.105   4.310 -0.4271 -0.4120  0.8065
14734TIP3   OH265616   3.743   4.404  12.092  0.2073  0.1396 -0.1712
14734TIP3    H165617   3.834   4.428  12.070  0.4876 -0.7861 -0.0554
14734TIP3    H265618   3.691   4.477  12.058  1.0963  1.3651  0.9659
14735TIP3   OH265619   2.801   0.257  17.204  0.2850  0.2499  0.5969
14735TIP3    H165620   2.816   0.164  17.190  1.0426  0.4629 -0.0797
14735TIP3    H265621   2.743   0.261  17.280 -3.3843 -0.9486 -1.8486
14736TIP3   OH265622   4.170   3.010   0.766 -0.6432 -0.0714 -0.1042
14736TIP3    H165623   4.188   2.947   0.696 -1.3596 -0.7425  0.2948
14736TIP3    H265624   4.173   2.958   0.846  0.8921  0.8295  0.4605
14737TIP3   OH265625   1.503   5.776   0.555  0.4362 -0.4007  0.2988
14737TIP3    H165626   1.575   5.721   0.526 -0.0155 -0.9966  0.3025
14737TIP3    H265627   1.541   5.831   0.624  1.3624  0.6188 -0.9811
14738TIP3   OH265628   1.830   3.402   2.880 -0.6279  0.7124 -0.4186
14738TIP3    H165629   1.921   3.419   2.905 -0.4357  0.9617 -1.2426
14738TIP3    H265630   1.778   3.451   2.944 -0.1583  1.2805 -0.4539
14739TIP3   OH265631   2.197   3.936  12.550 -0.2032  0.0537  1.1282
14739TIP3    H165632   2.268   3.894  12.598  0.0762  1.8649  2.4322
14739TIP3    H265633   2.237   3.968  12.469  0.4501  0.8596  1.7503
14740TIP3   OH265634   3.221   1.028   4.805  0.0962 -0.1609  0.2586
14740TIP3    H165635   3.294   0.968   4.791  0.1051  0.4305 -2.7369
14740TIP3    H265636   3.149   0.971   4.836  0.4526 -1.5569 -1.3486
14741TIP3   OH265637   4.786   1.453   6.003  0.0508  0.1837 -0.3717
14741TIP3    H165638   4.754   1.405   6.080  1.4024 -1.6972 -0.8982
14741TIP3    H265639   4.707   1.476   5.954 -0.6837 -1.0853  0.1793
14742TIP3   OH265640   4.879   3.745  11.019 -0.2196  0.1425  0.2073
14742TIP3    H165641   4.971   3.745  11.048 -0.1644  1.3284  0.0888
14742TIP3    H265642   4.830   3.775  11.096 -0.3843  0.5421 -0.0513
14743TIP3   OH265643   5.678   2.000   3.156  0.3280  0.0431  0.0150
14743TIP3    H165644   5.607   2.042   3.108  0.8418 -0.0114 -0.8142
14743TIP3    H265645   5.756   2.051   3.132  0.9696 -1.3667 -1.0243
14744TIP3   OH265646   5.039   4.562   3.847  0.2832 -0.5767  0.0402
14744TIP3    H165647   5.075   4.649   3.828 -0.8050 -0.2524 -0.6084
14744TIP3    H265648   5.065   4.544   3.937  0.5667  0.3911  0.1628
14745TIP3   OH265649   4.181   2.213   0.018  0.1669 -0.5639  0.0699
14745TIP3    H165650   4.150   2.147  -0.044 -0.7663 -0.2685  0.2114
14745TIP3    H265651   4.264   2.178   0.051 -0.8146 -2.1991  0.9446
14746TIP3   OH265652   2.518   5.015   0.683  0.6738 -0.6219  0.1097
14746TIP3    H165653   2.449   4.960   0.645  0.3748 -0.8792  1.0077
14746TIP3    H265654   2.472   5.068   0.748  0.7640  1.4022 -1.3637
14747TIP3   OH265655   0.505   3.123   1.667  0.5595 -0.5169 -0.3129
14747TIP3    H165656   0.571   3.155   1.729  1.2381  2.2236 -2.2605
14747TIP3    H265657   0.536   3.154   1.582 -2.2191 -0.9208 -1.5649
14748TIP3   OH265658   3.997   0.212   2.042 -0.1232 -0.0166  0.2689
14748TIP3    H165659   4.029   0.171   2.123 -0.7407 -1.4005 -0.1589
14748TIP3    H265660   3.931   0.274   2.072  1.0446  0.9511  0.9581
14749TIP3   OH265661   6.071   0.852  15.215 -0.6361 -0.6343 -0.2393
14749TIP3    H165662   6.161   0.841  15.244 -1.0149 -1.0810  0.8155
14749TIP3    H265663   6.061   0.947  15.202  0.8487 -0.7897 -3.3881
14750TIP3   OH265664   1.115   4.829  15.806 -0.0445 -0.3115  0.4610
14750TIP3    H165665   1.115   4.753  15.748 -0.9951 -1.1516  1.5118
14750TIP3    H265666   1.186   4.812  15.868 -0.6849 -0.6822  1.1035
14751TIP3   OH265667   5.705   0.444   1.656  0.1257  0.1468  0.6722
14751TIP3    H165668   5.627   0.500   1.659  0.2482  0.3738 -0.2124
14751TIP3    H265669   5.672   0.357   1.634  0.0403  0.0828  1.0559
14752TIP3   OH265670   2.385   5.691   4.899  0.4591  0.1553 -0.0481
14752TIP3    H165671   2.329   5.768   4.909  1.1598  1.0229 -2.3092
14752TIP3    H265672   2.348   5.627   4.960 -1.9186  1.2934 -0.1781
14753TIP3   OH265673   0.167   2.480   5.390  0.1717 -0.2958 -0.1855
14753TIP3    H165674   0.262   2.471   5.403  0.2604 -2.1560 -1.7007
14753TIP3    H265675   0.128   2.440   5.467  0.5930  0.4843  0.4484
14754TIP3   OH265676   0.111   3.923  12.658  0.1004 -0.1621 -0.5512
14754TIP3    H165677   0.123   3.840  12.613  2.4558  0.7528 -1.7577
14754TIP3    H265678   0.038   3.965  12.613  0.0131 -0.8471 -1.0582
14755TIP3   OH265679   5.373   0.826   3.009 -0.3893 -0.2607  0.4741
14755TIP3    H165680   5.325   0.784   2.938 -0.4224  1.5292 -0.6303
14755TIP3    H265681   5.322   0.904   3.031  0.8924  0.5577  0.7240
14756TIP3   OH265682   6.446   5.687  11.588 -0.1459 -0.6212  0.2481
14756TIP3    H165683   6.380   5.673  11.655 -0.0586 -1.8577  0.0869
14756TIP3    H265684   6.491   5.767  11.615 -0.8078 -0.5204  1.0841
14757TIP3   OH265685   0.523   5.032   3.686 -0.1642  0.4786  0.2570
14757TIP3    H165686   0.550   5.124   3.685 -1.0828  0.7598  0.0542
14757TIP3    H265687   0.497   5.017   3.777 -1.6206  0.9253 -0.0628
14758TIP3   OH265688   0.287   5.720  14.188  0.1063  0.0711 -0.4220
14758TIP3    H165689   0.227   5.681  14.251  0.3048 -0.6209 -0.6483
14758TIP3    H265690   0.309   5.806  14.225 -2.0473  0.9294 -0.9593
14759TIP3   OH265691   4.260   4.977   6.754 -0.4127  0.1709  0.1512
14759TIP3    H165692   4.348   4.941   6.738 -0.2953  0.3360  0.4223
14759TIP3    H265693   4.276   5.061   6.796 -0.7112  0.0711  0.4670
14760TIP3   OH265694   0.126   0.701  13.665 -0.2107  0.0017 -0.0676
14760TIP3    H165695   0.205   0.756  13.663 -0.5152  0.4526 -1.7154
14760TIP3    H265696   0.066   0.744  13.603 -0.6676 -1.8771 -0.9979
14761TIP3   OH265697   6.077   2.246   0.459  0.1302 -0.4021 -0.0352
14761TIP3    H165698   5.988   2.277   0.475  0.5183  0.6610  0.0657
14761TIP3    H265699   6.083   2.165   0.510 -0.2362  0.3775  1.2698
14762TIP3   OH265700   2.584   6.379   5.045  0.4481 -0.0186 -0.7639
14762TIP3    H165701   2.551   6.442   5.109 -0.0984  1.0841 -2.0827
14762TIP3    H265702   2.505   6.339   5.009  0.7168 -0.0099 -1.3578
14763TIP3   OH265703   2.619   6.577   1.501  0.3078 -0.3020  0.7033
14763TIP3    H165704   2.676   6.629   1.444 -0.7578 -0.3266 -0.4315
14763TIP3    H265705   2.537   6.626   1.503  0.3810 -0.2118  2.4010
14764TIP3   OH265706   6.272   4.266  14.424  0.8708  0.8759 -0.6346
14764TIP3    H165707   6.222   4.213  14.362 -2.0351  0.9852  1.4063
14764TIP3    H265708   6.342   4.208  14.455  1.1833  0.1902 -2.4983
14765TIP3   OH265709   2.366   0.872   5.359 -0.1760 -0.3080  0.0638
14765TIP3    H165710   2.412   0.890   5.277 -0.0107  0.2630  0.2768
14765TIP3    H265711   2.273   0.879   5.336 -0.1363 -0.3978 -0.1261
14766TIP3   OH265712   6.340   1.764   2.476 -0.1263  0.3508 -0.0277
14766TIP3    H165713   6.352   1.669   2.481 -2.4228 -0.1240 -2.0692
14766TIP3    H265714   6.411   1.799   2.530 -0.8348 -2.5481  3.1454
14767TIP3   OH265715   2.338   1.754   5.466  0.3213 -0.1215 -0.0245
14767TIP3    H165716   2.289   1.689   5.517 -0.8847  0.7688 -0.0004
14767TIP3    H265717   2.341   1.718   5.377  1.6495 -1.2554  0.4430
14768TIP3   OH265718   1.612   4.264  14.946  0.2169  0.2806  0.0256
14768TIP3    H165719   1.669   4.207  14.894 -0.3108  0.4892 -0.7918
14768TIP3    H265720   1.671   4.304  15.010  1.0000  0.5095 -0.8153
14769TIP3   OH265721   1.881   6.464   6.394 -0.1880  0.5332  0.3486
14769TIP3    H165722   1.977   6.462   6.402 -0.1243  2.1136  0.3813
14769TIP3    H265723   1.854   6.536   6.451 -1.4173  0.0639  0.3903
14770TIP3   OH265724   0.372   4.566  13.136 -0.6989  0.7915  0.4002
14770TIP3    H165725   0.330   4.486  13.167 -0.0551  0.4844  0.4926
14770TIP3    H265726   0.365   4.627  13.210  1.2884 -0.1028  1.4040
14771TIP3   OH265727   5.721   6.097   3.003  0.0176 -0.4822 -0.0332
14771TIP3    H165728   5.719   6.081   3.098  1.5532 -0.2650  0.0505
14771TIP3    H265729   5.813   6.109   2.982 -0.3766  0.3305 -1.4288
14772TIP3   OH265730   2.122   3.124   4.496 -0.3833  0.2566  0.1855
14772TIP3    H165731   2.155   3.140   4.407 -2.0276  3.0264  0.0013
14772TIP3    H265732   2.083   3.036   4.491 -0.3559  0.3118 -1.7957
14773TIP3   OH265733   3.143   5.961  11.714 -0.0434  0.1426  0.3806
14773TIP3    H165734   3.197   6.012  11.774  0.3439  2.2015 -1.5951
14773TIP3    H265735   3.055   5.964  11.752 -0.0313  2.3239  0.3686
14774TIP3   OH265736   1.804   2.877  13.639 -0.9034  0.1789 -0.1028
14774TIP3    H165737   1.741   2.872  13.567 -0.4896 -0.9240 -0.4086
14774TIP3    H265738   1.865   2.805  13.622  0.1566  0.9202  0.4546
14775TIP3   OH265739   5.697   3.444   6.358 -0.2642  0.0597 -0.2894
14775TIP3    H165740   5.703   3.477   6.447 -1.0293  0.8617 -0.5169
14775TIP3    H265741   5.739   3.358   6.361  0.1919  0.3073  0.7155
14776TIP3   OH265742   5.838   4.002  12.865 -0.0691 -0.0633 -0.0262
14776TIP3    H165743   5.922   3.958  12.880 -0.0121 -0.8413 -2.2513
14776TIP3    H265744   5.800   4.010  12.952  0.9945 -2.3996  0.7557
14777TIP3   OH265745   1.508   1.596  12.229  0.1025 -0.2193 -0.3255
14777TIP3    H165746   1.531   1.514  12.271 -0.9187 -0.9907 -1.1902
14777TIP3    H265747   1.565   1.661  12.269 -0.5133 -0.9596  1.9237
14778TIP3   OH265748   2.932   0.637  17.083  0.4971  0.1634 -0.7465
14778TIP3    H165749   2.911   0.569  17.019 -1.1844  1.1410 -1.3164
14778TIP3    H265750   2.956   0.589  17.163  0.5668 -1.0748 -1.4873
14779TIP3   OH265751   6.026   4.339   4.979 -0.0103  0.2177  0.0400
14779TIP3    H165752   6.085   4.380   4.916  0.3046 -1.1602 -0.5926
14779TIP3    H265753   5.977   4.275   4.928 -1.5161  0.7839  0.7148
14780TIP3   OH265754   4.673   4.434  16.103  0.2692  0.3230  0.5400
14780TIP3    H165755   4.651   4.465  16.191  0.9242  1.6075  0.2878
14780TIP3    H265756   4.730   4.359  16.117 -1.2069 -0.7200  1.1941
14781TIP3   OH265757   3.010   5.156   0.190  0.4670  0.1353  0.4584
14781TIP3    H165758   2.964   5.199   0.119  1.7486 -0.0616 -0.5419
14781TIP3    H265759   2.942   5.134   0.254 -0.4069  2.3549  0.3652
14782TIP3   OH265760   1.248   3.818  14.360  0.0142 -0.8260  0.0757
14782TIP3    H165761   1.159   3.784  14.347  0.2438 -2.0127  1.3390
14782TIP3    H265762   1.299   3.777  14.289 -0.8887  2.0748 -2.4527
14783TIP3   OH265763   3.821   2.286  14.356  0.0700  0.1044  0.4824
14783TIP3    H165764   3.916   2.295  14.358  0.2478 -0.9192 -1.2191
14783TIP3    H265765   3.788   2.369  14.391  1.5725  0.6994  0.5444
14784TIP3   OH265766   6.170   0.524   2.360  0.0704 -0.1270 -0.2621
14784TIP3    H165767   6.188   0.612   2.326  0.9234 -0.9981 -2.1573
14784TIP3    H265768   6.252   0.498   2.403  1.1394 -1.3813 -2.8941
14785TIP3   OH265769   5.451   5.176  15.585  1.0660 -0.1877  0.0746
14785TIP3    H165770   5.386   5.154  15.651  0.6949 -0.0836 -0.2552
14785TIP3    H265771   5.405   5.169  15.502  0.6829  2.5685 -0.0428
14786TIP3   OH265772   4.652   4.438  11.422  1.0317 -0.0139 -0.2530
14786TIP3    H165773   4.639   4.424  11.516  1.3772  1.3286  0.0084
14786TIP3    H265774   4.565   4.458  11.388  0.5602 -2.3514 -0.5975
14787TIP3   OH265775   3.960   3.781   4.133 -0.5960  0.2109 -0.2591
14787TIP3    H165776   4.037   3.725   4.138 -0.3425  0.5132 -0.6880
14787TIP3    H265777   3.886   3.720   4.133 -0.3332 -0.1155 -0.4777
14788TIP3   OH265778   3.103   3.534   2.058 -0.4180  0.1109  0.3879
14788TIP3    H165779   3.188   3.507   2.093  0.0164 -0.5190 -1.1059
14788TIP3    H265780   3.117   3.625   2.030 -0.0627 -0.1570 -0.3392
14789TIP3   OH265781   5.483   6.440   0.014 -0.0306 -0.3862  0.3137
14789TIP3    H165782   5.396   6.478   0.011  0.2695  0.2568 -0.8592
14789TIP3    H265783   5.481   6.380   0.089 -2.0186 -1.6963 -0.6979
14790TIP3   OH265784   2.144   1.686  12.114 -0.3922  0.3821  0.5424
14790TIP3    H165785   2.094   1.624  12.062 -1.3170  1.3620  0.2192
14790TIP3    H265786   2.136   1.654  12.204  0.7296 -0.9939  0.1856
14791TIP3   OH265787   2.170   5.957  14.215 -0.0351  0.9397  0.6717
14791TIP3    H165788   2.257   5.957  14.255 -0.0254 -1.9243  0.8207
14791TIP3    H265789   2.183   5.994  14.128  1.2171  0.9862  0.8682
14792TIP3   OH265790   5.041   0.902   2.810  0.0463  0.0055 -0.7508
14792TIP3    H165791   4.994   0.897   2.727 -0.3386  2.3395 -0.7568
14792TIP3    H265792   5.122   0.853   2.796 -0.7152 -0.9470 -1.9680
14793TIP3   OH265793   1.780   3.713  11.858 -0.2947 -0.0897 -0.1213
14793TIP3    H165794   1.760   3.785  11.798  2.3435  2.2489  1.5376
14793TIP3    H265795   1.764   3.634  11.807 -1.1604  1.6863 -2.8302
14794TIP3   OH265796   5.195   5.621   3.083  0.2692  0.9914  0.6909
14794TIP3    H165797   5.193   5.711   3.051  1.6630  0.6234 -0.5272
14794TIP3    H265798   5.276   5.584   3.048 -0.8922 -1.1447  0.0561
14795TIP3   OH265799   5.442   4.372   2.324 -0.3749  0.3635  0.7271
14795TIP3    H165800   5.377   4.427   2.280 -0.8259 -0.0282  0.8966
14795TIP3    H265801   5.391   4.318   2.384  0.2295  0.8853  1.7361
14796TIP3   OH265802   3.203   3.360   0.417 -0.0557  0.3097  0.5161
14796TIP3    H165803   3.230   3.340   0.328  1.7135 -0.2010  1.1281
14796TIP3    H265804   3.214   3.455   0.425 -1.3508  0.5373 -0.1338
14797TIP3   OH265805   6.541   4.744   4.668  0.7343 -0.4025 -0.2103
14797TIP3    H165806   6.473   4.734   4.601 -0.0358  1.6931  0.1840
14797TIP3    H265807   6.610   4.794   4.625  0.3264  0.7788  0.4735
14798TIP3   OH265808   4.876   4.412   0.151 -0.6490 -0.0624  0.2707
14798TIP3    H165809   4.828   4.454   0.080 -1.8479 -2.1999 -0.2565
14798TIP3    H265810   4.813   4.406   0.223 -0.1751 -0.0131  0.6971
14799TIP3   OH265811   0.075   5.764  15.205  0.4259  0.1535  0.1605
14799TIP3    H165812   0.083   5.804  15.292 -0.5479 -0.2642  0.4584
14799TIP3    H265813   0.114   5.677  15.215  0.4259  0.1519  0.1471
14800TIP3   OH265814   5.633   1.531  15.914  0.0070 -0.2436 -0.0736
14800TIP3    H165815   5.701   1.585  15.954  2.5013 -1.7811 -1.9147
14800TIP3    H265816   5.632   1.451  15.967 -1.3949  0.2944  0.7503
14801TIP3   OH265817   6.345   1.939  15.772  0.8245 -0.4102 -0.0305
14801TIP3    H165818   6.394   1.990  15.836  2.2782  0.6014 -1.8499
14801TIP3    H265819   6.261   1.984  15.764  0.2663 -1.0635  1.7540
14802TIP3   OH265820   3.299   4.940   3.070 -0.3349  0.4684 -0.4564
14802TIP3    H165821   3.245   4.905   3.141  0.1711 -0.1013 -0.3452
14802TIP3    H265822   3.385   4.952   3.109  0.0101 -0.0768 -1.0341
14803TIP3   OH265823   5.851   3.727   4.715 -0.0153 -0.1262  0.2301
14803TIP3    H165824   5.847   3.727   4.620 -1.9494 -0.8232  0.2574
14803TIP3    H265825   5.940   3.756   4.736  0.5576 -0.2996 -1.7709
14804TIP3   OH265826   4.436   6.057  13.526  0.4419  0.3954  0.0704
14804TIP3    H165827   4.353   6.035  13.568 -0.6455  0.5615 -1.8825
14804TIP3    H265828   4.442   5.997  13.452  1.5059  1.1698 -0.4888
14805TIP3   OH265829   2.198   5.479   1.523 -0.2525 -0.0659 -0.1021
14805TIP3    H165830   2.178   5.390   1.493  3.0901 -0.3915 -1.9178
14805TIP3    H265831   2.248   5.518   1.451  0.4379  2.4694  1.5865
14806TIP3   OH265832   6.704   3.895   6.121 -0.6485 -0.1857 -0.1599
14806TIP3    H165833   6.658   3.888   6.205 -0.8350 -0.3240 -0.2732
14806TIP3    H265834   6.792   3.926   6.145 -1.6511  3.0231 -0.1553
14807TIP3   OH265835   0.856   2.185   3.427 -0.1832 -0.2974  0.2944
14807TIP3    H165836   0.874   2.127   3.353  0.0866  0.6428 -0.3997
14807TIP3    H265837   0.819   2.128   3.494 -1.3387 -1.0139 -0.9091
14808TIP3   OH265838   5.429   5.314  13.223 -0.6281 -0.3300 -0.0018
14808TIP3    H165839   5.367   5.243  13.242 -1.2259  0.3873  0.7732
14808TIP3    H265840   5.474   5.329  13.306  0.3003 -0.5575 -0.4511
14809TIP3   OH265841   0.268   3.555  15.226 -0.6667  0.3026 -0.8386
14809TIP3    H165842   0.181   3.589  15.246 -0.6098  0.2496 -0.4880
14809TIP3    H265843   0.299   3.609  15.154 -0.2416  1.5601  0.2595
14810TIP3   OH265844   0.348   0.605   1.080 -0.2662 -0.1946  0.7667
14810TIP3    H165845   0.304   0.690   1.074  0.3779  0.5182  3.9195
14810TIP3    H265846   0.278   0.540   1.067 -1.0875  0.8354 -0.0916
14811TIP3   OH265847   0.445   3.269   5.528  0.1654  0.2224  0.0225
14811TIP3    H165848   0.484   3.182   5.542  0.7411  0.4535 -0.1284
14811TIP3    H265849   0.437   3.276   5.433  1.3792  0.8702 -0.0534
14812TIP3   OH265850   1.696   1.509   0.156 -0.0028 -0.3632  0.8747
14812TIP3    H165851   1.765   1.576   0.165  0.0230 -0.2752  0.0459
14812TIP3    H265852   1.732   1.446   0.094 -0.5359 -0.4898  0.6923
14813TIP3   OH265853   3.347   1.565  14.667  0.8354  0.3680 -0.0062
14813TIP3    H165854   3.333   1.552  14.761  0.1297 -1.8027 -0.3493
14813TIP3    H265855   3.372   1.479  14.635  0.3931  0.9210 -1.9299
14814TIP3   OH265856   3.651   6.150   5.011 -0.2714 -0.2006  0.0688
14814TIP3    H165857   3.562   6.113   5.017 -0.0049 -0.9205 -0.2544
14814TIP3    H265858   3.677   6.165   5.102 -1.5101  2.0140  0.1281
14815TIP3   OH265859   2.584   1.780  15.793 -0.3339  0.0490  0.4768
14815TIP3    H165860   2.641   1.724  15.740 -0.6813 -0.5235  0.7057
14815TIP3    H265861   2.603   1.869  15.762  0.5269 -0.1519  0.4042
14816TIP3   OH265862   3.472   0.849  15.575  0.1084 -0.4509 -0.4015
14816TIP3    H165863   3.463   0.894  15.491  1.0854 -1.8726 -1.3017
14816TIP3    H265864   3.557   0.806  15.571 -0.9136 -2.6893  0.2302
14817TIP3   OH265865   5.527   5.508  15.409  0.3406  0.3719 -0.0259
14817TIP3    H165866   5.567   5.542  15.489 -1.9555 -1.3493  1.9916
14817TIP3    H265867   5.578   5.429  15.388 -1.3487 -1.4465  2.1615
14818TIP3   OH265868   4.858   1.756  11.281 -0.2326 -0.1341 -0.9365
14818TIP3    H165869   4.906   1.673  11.281  0.7488  0.4276 -1.2909
14818TIP3    H265870   4.773   1.733  11.319  0.0241 -1.2999 -1.0097
14819TIP3   OH265871   6.072   2.165  15.360 -0.2273 -0.2827  0.3090
14819TIP3    H165872   6.101   2.088  15.312 -2.2845  0.0755 -1.6480
14819TIP3    H265873   6.111   2.239  15.314  2.4367 -0.0279  2.6666
14820TIP3   OH265874   3.083   3.556  10.788 -0.3627 -0.3416 -0.2735
14820TIP3    H165875   3.167   3.534  10.828 -0.2189  1.4587  0.4961
14820TIP3    H265876   3.054   3.474  10.746  0.7844 -1.5458  1.1829
14821TIP3   OH265877   2.061   1.346  12.971 -0.2816  0.1474 -0.6158
14821TIP3    H165878   2.031   1.411  13.034 -2.2372  0.4510 -1.7985
14821TIP3    H265879   2.057   1.263  13.019 -1.1809  0.4409 -0.1700
14822TIP3   OH265880   2.254   3.696   1.545 -0.0011 -0.7012 -0.2444
14822TIP3    H165881   2.180   3.642   1.573  0.5673 -2.1042 -1.3400
14822TIP3    H265882   2.310   3.637   1.496  1.3402  0.5884 -0.3412
14823TIP3   OH265883   3.273   2.402   3.732  0.0023 -0.2739  0.3284
14823TIP3    H165884   3.273   2.424   3.826 -1.3551  0.7822  0.1160
14823TIP3    H265885   3.295   2.309   3.730  0.7547 -0.1651  1.6398
14824TIP3   OH265886   1.883   3.900   2.073  0.0692 -0.1293 -0.2490
14824TIP3    H165887   1.917   3.864   1.991 -0.3330 -0.8227 -0.1198
14824TIP3    H265888   1.873   3.994   2.056  1.2423 -0.0431 -0.5595
14825TIP3   OH265889   3.525   2.173   3.034 -0.2471 -0.3634 -0.4763
14825TIP3    H165890   3.505   2.081   3.018  0.2667 -0.4604 -0.5777
14825TIP3    H265891   3.526   2.181   3.130  0.5735 -0.6653 -0.4521
14826TIP3   OH265892   3.056   2.868   2.414 -0.4097 -0.0479 -0.1783
14826TIP3    H165893   3.089   2.939   2.360  1.1669 -0.2650  0.4375
14826TIP3    H265894   3.027   2.910   2.495 -0.3429  0.0020 -0.1806
14827TIP3   OH265895   1.413   3.417  15.831 -0.8515 -0.3213  0.6220
14827TIP3    H165896   1.452   3.348  15.778 -0.6879 -0.0048  0.3267
14827TIP3    H265897   1.320   3.396  15.834 -0.9123 -0.1665 -0.0578
14828TIP3   OH265898   4.805   0.746  15.994 -0.4786  0.2276 -0.7545
14828TIP3    H165899   4.839   0.834  15.977 -0.0823  0.6828  1.9241
14828TIP3    H265900   4.712   0.759  16.013 -0.2859  0.2086  0.2891
14829TIP3   OH265901   4.692   1.060  14.679  0.1387 -0.5498  0.3987
14829TIP3    H165902   4.614   1.012  14.705 -1.2074  0.0718 -2.1242
14829TIP3    H265903   4.662   1.149  14.664  1.3173 -0.2842 -0.5591
14830TIP3   OH265904   0.636   3.001  10.622 -0.4568 -0.1573 -0.2346
14830TIP3    H165905   0.551   2.972  10.588 -1.2406  1.1903  0.4946
14830TIP3    H265906   0.639   3.095  10.603  1.2827 -0.3219 -1.0519
14831TIP3   OH265907   3.392   6.443   2.020 -0.0624 -0.2341  0.4428
14831TIP3    H165908   3.370   6.350   2.027  0.5636 -0.4419 -0.3404
14831TIP3    H265909   3.315   6.483   1.978 -0.3070 -0.3947  0.7288
14832TIP3   OH265910   4.097   0.479   0.089  0.2013  0.0424 -0.1766
14832TIP3    H165911   4.191   0.471   0.101  0.0702  0.3544  1.2508
14832TIP3    H265912   4.079   0.437   0.005  1.0308 -4.1517  1.5338
14833TIP3   OH265913   0.327   1.887   1.340 -0.0950  0.5829  1.0003
14833TIP3    H165914   0.334   1.982   1.346  3.3579  0.8802 -2.8931
14833TIP3    H265915   0.416   1.856   1.360  0.7476 -1.0137 -3.9468
14834TIP3   OH265916   5.264   4.171   2.365 -0.3224 -0.1085 -0.0468
14834TIP3    H165917   5.265   4.166   2.270  1.2136  0.5142 -0.0961
14834TIP3    H265918   5.325   4.103   2.394 -0.0838  0.2956  0.4347
14835TIP3   OH265919   3.676   2.911  13.564  0.1060 -0.1131 -0.2676
14835TIP3    H165920   3.764   2.874  13.560 -0.2649 -1.0358 -0.0352
14835TIP3    H265921   3.618   2.836  13.570 -0.7340  0.4700 -0.8277
14836TIP3   OH265922   5.253   3.727   1.623  0.2570  0.7354  0.4186
14836TIP3    H165923   5.332   3.674   1.608  0.5165  0.4608  2.4795
14836TIP3    H265924   5.183   3.677   1.582  0.8836  0.0619  0.1438
14837TIP3   OH265925   4.177   4.825  15.767  0.3421  0.4700 -0.5736
14837TIP3    H165926   4.133   4.798  15.848  0.8952  1.9300  0.2559
14837TIP3    H265927   4.110   4.816  15.699 -1.2507  2.4321  0.6206
14838TIP3   OH265928   3.420   4.708  14.218  0.0026  0.6619 -0.3423
14838TIP3    H165929   3.469   4.719  14.300 -1.4261 -2.5177  1.1016
14838TIP3    H265930   3.329   4.726  14.241 -0.5206 -0.9743 -1.0051
14839TIP3   OH265931   3.027   4.544  14.432 -0.4987 -0.4130 -0.0454
14839TIP3    H165932   3.113   4.530  14.473 -0.8119 -1.6906  0.2086
14839TIP3    H265933   2.979   4.464  14.449 -1.7841  0.3192 -0.1407
14840TIP3   OH265934   1.476   3.695   2.317  0.1215  0.1560  0.1036
14840TIP3    H165935   1.546   3.732   2.263  0.1231  0.3707  0.2523
14840TIP3    H265936   1.511   3.693   2.406 -0.3100  0.9320  0.3016
14841TIP3   OH265937   3.241   0.237   3.672 -0.3447  0.1657  0.7587
14841TIP3    H165938   3.166   0.289   3.644  0.9304  1.6997  0.0921
14841TIP3    H265939   3.254   0.174   3.601 -0.3973  0.5422  0.4136
14842TIP3   OH265940   0.582   3.209  12.778 -0.2700 -0.0670 -0.3983
14842TIP3    H165941   0.597   3.300  12.805 -1.4782 -0.0026  0.1646
14842TIP3    H265942   0.663   3.164  12.799  2.0612  1.6310 -4.5994
14843TIP3   OH265943   6.629   6.231   2.950 -0.3153  0.1485 -0.0394
14843TIP3    H165944   6.575   6.281   2.889  0.0750 -0.5572 -0.9873
14843TIP3    H265945   6.566   6.186   3.007 -0.6902  0.5003 -0.1765
14844TIP3   OH265946   6.674   1.466  11.996  0.4456 -0.0519 -0.1470
14844TIP3    H165947   6.582   1.485  12.013  1.3381  3.6844  1.5068
14844TIP3    H265948   6.698   1.399  12.060 -0.8687 -0.3191  0.0824
14845TIP3   OH265949   4.859   6.671   6.480 -0.3568  0.7012 -0.2844
14845TIP3    H165950   4.764   6.676   6.470 -0.2682 -0.3455 -2.1069
14845TIP3    H265951   4.875   6.581   6.506  0.2627  0.1342 -2.4563
14846TIP3   OH265952   0.764   5.161   2.834  0.3146 -0.0104  0.0017
14846TIP3    H165953   0.765   5.218   2.756  1.3232 -0.2271 -0.1525
14846TIP3    H265954   0.715   5.211   2.899 -1.4897 -0.2719 -1.0880
14847TIP3   OH265955   4.100   1.069  12.658  0.1813 -0.1940 -0.8499
14847TIP3    H165956   4.195   1.061  12.655  0.1712 -2.1352  1.3955
14847TIP3    H265957   4.073   1.018  12.734 -2.8586 -1.5510 -2.6254
14848TIP3   OH265958   2.979   0.499   5.947 -0.1773 -0.6091  0.0989
14848TIP3    H165959   2.980   0.474   6.039  0.9291 -1.2044 -0.0494
14848TIP3    H265960   2.897   0.465   5.913 -1.8076  1.7795  1.3980
14849TIP3   OH265961   5.386   0.826  12.806 -0.1802  0.4203 -0.3502
14849TIP3    H165962   5.339   0.909  12.811  0.0714  0.4698  2.0068
14849TIP3    H265963   5.474   0.846  12.837  0.1184 -0.5780 -0.5186
14850TIP3   OH265964   3.132   1.340   3.741  0.0828 -0.7310 -0.5771
14850TIP3    H165965   3.041   1.332   3.714  0.3889 -1.2731 -1.5185
14850TIP3    H265966   3.149   1.434   3.742 -0.0630 -0.6723 -1.9501
14851TIP3   OH265967   1.327   3.475  16.613 -0.3363  0.4434 -0.0455
14851TIP3    H165968   1.336   3.526  16.694 -0.4528  0.1797  0.1341
14851TIP3    H265969   1.269   3.528  16.559 -2.3959 -0.5639  1.0361
14852TIP3   OH265970   2.465   0.159   3.302  0.5089  0.0407  0.6813
14852TIP3    H165971   2.488   0.242   3.262  1.5025 -1.6129 -2.5775
14852TIP3    H265972   2.536   0.142   3.365  1.1029  0.9728  0.2758
14853TIP3   OH265973   5.676   1.698   5.205 -0.0358 -0.2749  0.1201
14853TIP3    H165974   5.616   1.625   5.187 -1.7477  1.1243 -0.0661
14853TIP3    H265975   5.673   1.751   5.126 -0.9913  1.4475  1.2543
14854TIP3   OH265976   3.968   5.059  14.374  0.5920 -0.6692  0.1293
14854TIP3    H165977   4.026   5.135  14.361  1.3052 -1.3090 -0.6059
14854TIP3    H265978   4.002   4.993  14.312 -1.6355 -0.6824 -1.1827
14855TIP3   OH265979   2.617   4.804   0.366 -0.8091  0.6201  0.2643
14855TIP3    H165980   2.617   4.873   0.433 -0.2494  0.2758  0.6206
14855TIP3    H265981   2.624   4.723   0.416 -0.3538  0.3629 -0.2194
14856TIP3   OH265982   5.246   0.915   1.265  0.5100 -0.1683 -0.1330
14856TIP3    H165983   5.313   0.868   1.216 -0.8351 -1.7151 -0.5721
14856TIP3    H265984   5.215   0.852   1.331 -1.6259 -0.1068 -0.9885
14857TIP3   OH265985   2.895   4.782   2.466  0.1471 -0.0794 -0.1284
14857TIP3    H165986   2.858   4.695   2.449  0.8922  0.1099 -3.3192
14857TIP3    H265987   2.987   4.774   2.439  0.3142  1.6270 -0.1458
14858TIP3   OH265988   0.283   5.074  17.205 -0.2829 -0.5083  0.1081
14858TIP3    H165989   0.324   5.018  17.270 -1.1900 -0.6449  0.5719
14858TIP3    H265990   0.333   5.058  17.124 -0.1213 -1.4692  0.3944
14859TIP3   OH265991   0.143   4.919  13.435 -0.1411 -0.4699 -0.5038
14859TIP3    H165992   0.142   4.893  13.527 -2.5707 -0.2598 -0.4177
14859TIP3    H265993   0.145   5.015  13.437 -0.7859 -0.4482 -0.6402
14860TIP3   OH265994   2.897   3.559  16.187  0.1003  0.0112 -0.6373
14860TIP3    H165995   2.895   3.484  16.247  0.0444  1.2946  1.0601
14860TIP3    H265996   2.918   3.521  16.102  2.0201 -1.7238  0.4981
14861TIP3   OH265997   4.201   4.151   4.777  0.3703  0.2024  0.5567
14861TIP3    H165998   4.225   4.134   4.686 -0.8558  0.7592  0.1029
14861TIP3    H265999   4.111   4.184   4.772 -0.0474 -0.6296  2.0507
14862TIP3   OH266000   6.040   3.570  12.797  0.3066  0.2707 -0.0339
14862TIP3    H166001   6.019   3.627  12.724  1.6098  0.8286  0.0091
14862TIP3    H266002   6.024   3.481  12.764 -0.9388  0.6035 -0.3627
14863TIP3   OH266003   4.030   2.446   1.896  0.3139 -0.4642 -0.4908
14863TIP3    H166004   3.940   2.449   1.864 -0.2616  1.0323  1.1017
14863TIP3    H266005   4.022   2.462   1.990  2.2301 -0.4734 -0.2987
14864TIP3   OH266006   4.016   1.282  11.807 -0.4881 -0.1853 -0.1246
14864TIP3    H166007   4.100   1.301  11.849 -1.6667  0.1155  2.3175
14864TIP3    H266008   4.037   1.267  11.715  2.5213 -2.1582  0.7406
14865TIP3   OH266009   0.235   2.993  11.669 -0.0466 -0.1419 -0.0812
14865TIP3    H166010   0.152   2.957  11.641  0.4829 -1.7470  0.3231
14865TIP3    H266011   0.298   2.922  11.656  0.9811  0.5218  1.0492
14866TIP3   OH266012   4.786   0.081  12.204  0.8834 -0.6247  0.2307
14866TIP3    H166013   4.834   0.120  12.277 -1.0183  0.9897  0.7368
14866TIP3    H266014   4.758   0.157  12.152  0.5891 -1.6291 -1.1152
14867TIP3   OH266015   4.569   5.304   0.908  0.2891 -0.0904 -0.2626
14867TIP3    H166016   4.598   5.367   0.842  1.1700 -0.4251 -0.2145
14867TIP3    H266017   4.543   5.227   0.858 -0.6598  0.2468 -0.3127
14868TIP3   OH266018   4.856   0.504  11.425 -0.4479 -0.4121 -0.3806
14868TIP3    H166019   4.879   0.506  11.332  2.3334  1.1415  0.2218
14868TIP3    H266020   4.925   0.450  11.465  1.0389  2.4258  1.2476
14869TIP3   OH266021   3.998   3.605   6.219 -0.5091  0.3733 -0.3708
14869TIP3    H166022   3.931   3.587   6.285  1.4430  1.3699  2.0648
14869TIP3    H266023   4.063   3.658   6.265  1.6434  0.0096 -2.7636
14870TIP3   OH266024   2.404   5.419  16.591 -0.4578  0.1036 -0.0124
14870TIP3    H166025   2.498   5.413  16.607 -0.5284 -0.5781  0.1841
14870TIP3    H266026   2.374   5.328  16.588 -0.8865  0.2572 -1.4406
14871TIP3   OH266027   6.574   1.812   6.072 -0.8013  0.1699 -0.0957
14871TIP3    H166028   6.584   1.810   6.167  1.4816 -0.3583 -0.2862
14871TIP3    H266029   6.531   1.730   6.050 -0.7893  0.0236  0.4239
14872TIP3   OH266030   2.100   3.830  11.580  0.3102 -0.5073  0.0177
14872TIP3    H166031   2.040   3.761  11.605 -2.6436  2.2365  1.2263
14872TIP3    H266032   2.101   3.890  11.654  1.0024  1.8163 -1.7290
14873TIP3   OH266033   4.993   2.075  16.265 -0.0765  0.1253  0.2937
14873TIP3    H166034   5.039   2.101  16.345  2.0304 -0.6226 -0.5991
14873TIP3    H266035   4.966   2.158  16.224  3.1907  0.8725 -0.6201
14874TIP3   OH266036   3.880   5.799   5.065  0.0644 -0.2004  0.4845
14874TIP3    H166037   3.847   5.867   5.006  0.1581 -0.3380  0.2708
14874TIP3    H266038   3.802   5.766   5.110  0.1124  0.5638  1.1400
14875TIP3   OH266039   0.926   3.756   6.129 -0.0687 -0.4408 -0.2073
14875TIP3    H166040   0.958   3.844   6.111 -2.2642  0.7857  1.3612
14875TIP3    H266041   0.945   3.741   6.222 -0.5148 -1.2473 -0.2325
14876TIP3   OH266042   5.238   5.526  13.427 -0.2876 -0.5499  0.2920
14876TIP3    H166043   5.175   5.571  13.484 -1.7692 -1.3263 -0.6785
14876TIP3    H266044   5.321   5.571  13.444 -1.5631  2.2640 -0.2828
14877TIP3   OH266045   4.978   5.435  17.366 -0.1413  0.9026  0.4338
14877TIP3    H166046   4.964   5.479  17.282  1.2836  0.3883 -0.1054
14877TIP3    H266047   4.893   5.399  17.389 -0.2271 -0.4511 -1.6726
14878TIP3   OH266048   1.492   3.815   0.799  0.3976  0.1026 -0.2079
14878TIP3    H166049   1.420   3.754   0.786  1.3303 -0.9922 -0.3215
14878TIP3    H266050   1.559   3.764   0.844  0.4537  1.5639  1.4615
14879TIP3   OH266051   0.246   0.172  13.707  0.7052  0.1787  0.0559
14879TIP3    H166052   0.298   0.198  13.631 -0.0528  1.1585 -0.1428
14879TIP3    H266053   0.156   0.184  13.679  0.4095  0.1695  0.9848
14880TIP3   OH266054   5.915   5.567   2.642  0.0349 -1.0176 -0.2643
14880TIP3    H166055   5.900   5.483   2.600 -1.3197  0.1121 -2.1949
14880TIP3    H266056   5.861   5.565   2.721 -0.2929 -1.8016 -0.5007
14881TIP3   OH266057   1.984   0.944  13.645  0.1165 -0.1477 -0.2722
14881TIP3    H166058   2.022   0.890  13.714  0.9724  2.0472  1.0622
14881TIP3    H266059   1.983   0.887  13.568 -0.6751 -2.6198  1.4445
14882TIP3   OH266060   3.649   0.772  12.047 -0.6296 -0.2181 -0.0180
14882TIP3    H166061   3.742   0.780  12.067 -0.1710 -2.7928 -0.6616
14882TIP3    H266062   3.633   0.834  11.976  0.0453  1.7968  1.5183
14883TIP3   OH266063   2.587   3.347  15.066 -0.0707 -0.3889  0.4816
14883TIP3    H166064   2.568   3.434  15.102  0.2407 -0.2433  0.2944
14883TIP3    H266065   2.544   3.346  14.981 -0.2800 -0.5097  0.5857
14884TIP3   OH266066   1.157   3.168   4.236 -0.1908 -0.0507  0.2114
14884TIP3    H166067   1.253   3.167   4.228 -0.2845 -0.0760 -0.9612
14884TIP3    H266068   1.140   3.121   4.318  0.7806 -0.2153  0.3354
14885TIP3   OH266069   3.609   2.036  12.343 -0.3654 -0.1566  0.1811
14885TIP3    H166070   3.616   2.131  12.347  0.4028 -0.1566 -0.7479
14885TIP3    H266071   3.695   2.004  12.373 -0.4566 -0.5396  0.0443
14886TIP3   OH266072   1.198   5.870  16.119 -0.0927 -0.1500  0.9863
14886TIP3    H166073   1.198   5.774  16.122 -1.1802 -0.1496  1.1575
14886TIP3    H266074   1.172   5.897  16.207  1.6442  0.3450  1.3934
14887TIP3   OH266075   3.157   4.758   4.938  0.2802 -0.0297  0.5045
14887TIP3    H166076   3.147   4.747   4.844 -0.0969 -0.4245  0.5861
14887TIP3    H266077   3.143   4.851   4.954 -0.7270 -0.1343  0.2964
14888TIP3   OH266078   5.343   5.018   0.418  0.4393  0.3319 -0.3839
14888TIP3    H166079   5.339   5.034   0.323  0.3382  0.7528 -0.3086
14888TIP3    H266080   5.285   4.944   0.432 -1.3332  1.6638 -0.3450
14889TIP3   OH266081   6.655   4.801  13.917 -0.0426  0.6352 -0.4545
14889TIP3    H166082   6.619   4.767  13.835 -1.2347  0.0402  0.2854
14889TIP3    H266083   6.582   4.848  13.957 -0.4421 -1.6410  1.6735
14890TIP3   OH266084   5.904   1.117  15.129  0.0128 -0.1338  0.0022
14890TIP3    H166085   5.880   1.075  15.047 -0.4563 -0.6545  0.3982
14890TIP3    H266086   5.866   1.205  15.124 -0.2604 -0.2675 -0.2092
14891TIP3   OH266087   1.098   2.458  11.977  0.5381 -0.1970 -0.0586
14891TIP3    H166088   1.064   2.548  11.984  0.0599 -0.4667  1.8871
14891TIP3    H266089   1.044   2.417  11.910 -1.1177  0.2357  0.9357
14892TIP3   OH266090   0.629   2.364  14.420  0.2198 -0.1237  0.4033
14892TIP3    H166091   0.723   2.350  14.411 -0.0873 -1.3699 -1.3154
14892TIP3    H266092   0.603   2.306  14.491  0.5621 -0.7445  0.0328
14893TIP3   OH266093   1.451   5.607   5.245 -0.4142  0.3454 -0.0169
14893TIP3    H166094   1.474   5.630   5.335  1.0451 -0.1532 -0.2224
14893TIP3    H266095   1.536   5.600   5.200 -0.6853 -3.7766 -0.3274
14894TIP3   OH266096   2.370   2.608  11.863  0.5036 -0.4308 -0.3576
14894TIP3    H166097   2.448   2.651  11.896  0.5490  0.9859 -2.1933
14894TIP3    H266098   2.402   2.533  11.813  0.8002  0.8326 -2.1154
14895TIP3   OH266099   0.353   5.773  11.715 -0.0035 -0.2557 -0.6769
14895TIP3    H166100   0.332   5.864  11.694 -1.9104  0.1121  2.1927
14895TIP3    H266101   0.278   5.723  11.681  0.4863 -0.6153 -1.2392
14896TIP3   OH266102   2.345   6.245  17.348 -0.7126  0.2524  0.1174
14896TIP3    H166103   2.284   6.217  17.279  0.2117  1.0105 -1.0592
14896TIP3    H266104   2.430   6.212  17.320 -0.1019  1.6546  0.2016
14897TIP3   OH266105   3.893   2.666  16.109 -0.2862 -0.0090 -0.3560
14897TIP3    H166106   3.903   2.610  16.186 -1.5555  1.3049  0.8141
14897TIP3    H266107   3.872   2.604  16.038 -0.1976 -1.1467  0.5754
14898TIP3   OH266108   5.845   1.352   5.679 -0.1366 -0.0248  0.3639
14898TIP3    H166109   5.751   1.361   5.694 -0.3716 -0.7239 -0.5776
14898TIP3    H266110   5.885   1.386   5.759 -1.2218 -1.0857  1.4116
14899TIP3   OH266111   0.417   4.230   3.082 -0.3777  0.1385  0.0649
14899TIP3    H166112   0.420   4.282   3.001 -1.4752 -1.7082 -1.2216
14899TIP3    H266113   0.495   4.174   3.077  1.0416  1.8315  1.6563
14900TIP3   OH266114   1.416   6.482   2.984 -0.4915 -0.7333  0.3371
14900TIP3    H166115   1.376   6.564   2.956 -1.1192 -0.8328  0.9210
14900TIP3    H266116   1.391   6.419   2.916 -1.5425 -0.8453  0.7955
14901TIP3   OH266117   3.189   2.688   3.695 -0.3854 -0.0273  0.7183
14901TIP3    H166118   3.203   2.594   3.702  0.4517  0.1212  1.0547
14901TIP3    H266119   3.108   2.703   3.745  0.0985 -0.4086  1.6467
14902TIP3   OH266120   6.218   2.592  16.240 -0.1555 -0.4552  0.0208
14902TIP3    H166121   6.127   2.581  16.267 -0.8679  0.7810 -1.7256
14902TIP3    H266122   6.242   2.508  16.201 -1.3367 -0.0880 -1.5990
14903TIP3   OH266123   3.319   3.195   4.181 -0.0812  0.3665 -0.1826
14903TIP3    H166124   3.342   3.128   4.116  0.7366  0.9260 -0.4846
14903TIP3    H266125   3.242   3.160   4.225 -0.9245  0.1718 -1.7487
14904TIP3   OH266126   1.857   0.965   6.043 -0.0798  0.2561  0.2893
14904TIP3    H166127   1.945   0.991   6.017  0.2503 -0.5816  0.5183
14904TIP3    H266128   1.862   0.958   6.139 -0.1673 -0.5734  0.2383
14905TIP3   OH266129   4.877   1.889   0.097  0.7202 -0.2098 -0.1278
14905TIP3    H166130   4.785   1.904   0.077  0.8418  0.7486  0.0277
14905TIP3    H266131   4.888   1.794   0.086 -0.3052 -0.3496 -0.0314
14906TIP3   OH266132   4.198   1.905   5.828 -0.2588  0.1335  0.4386
14906TIP3    H166133   4.211   1.884   5.735 -3.3058 -1.0189  0.1835
14906TIP3    H266134   4.165   1.994   5.828 -0.8431 -0.0763  0.3313
14907TIP3   OH266135   3.558   4.156  13.397  0.0481  0.1685  0.2359
14907TIP3    H166136   3.501   4.190  13.467  0.8764 -0.4985  1.2621
14907TIP3    H266137   3.645   4.185  13.422  0.2403  0.7824 -1.0824
14908TIP3   OH266138   3.368   5.822  17.346  0.5584  0.5205 -0.6237
14908TIP3    H166139   3.311   5.896  17.323 -1.4748 -0.2014  1.6840
14908TIP3    H266140   3.412   5.850  17.426 -1.8029 -1.3852  1.4921
14909TIP3   OH266141   1.159   3.844   1.615 -0.2550  0.9428  0.3130
14909TIP3    H166142   1.179   3.935   1.632 -0.8750  0.8833  1.4165
14909TIP3    H266143   1.109   3.815   1.691 -1.4672  0.1332 -0.7266
14910TIP3   OH266144   3.361   4.635   3.542 -0.1727  0.3836 -0.6869
14910TIP3    H166145   3.443   4.613   3.497 -0.6495  0.0258 -1.4005
14910TIP3    H266146   3.386   4.643   3.634  0.8852  1.4340 -1.0404
14911TIP3   OH266147   1.550   1.985  11.369  0.2589  0.0423  0.0916
14911TIP3    H166148   1.488   1.913  11.356 -1.1030  1.1973 -0.0754
14911TIP3    H266149   1.627   1.960  11.319 -0.4099 -1.0302 -0.4398
14912TIP3   OH266150   4.469   3.823  14.560 -0.0859  0.2861 -0.6534
14912TIP3    H166151   4.416   3.770  14.501 -0.6146  0.9686 -0.7998
14912TIP3    H266152   4.558   3.787  14.551 -0.1184  0.4904 -1.9984
14913TIP3   OH266153   4.783   5.607   0.332  0.5802  0.0433  0.1027
14913TIP3    H166154   4.861   5.644   0.290 -0.3447  2.5891  0.4747
14913TIP3    H266155   4.783   5.645   0.420 -1.8903  1.3651 -0.4048
14914TIP3   OH266156   3.663   1.221  11.289  0.3568  0.9001 -0.1962
14914TIP3    H166157   3.577   1.257  11.312  0.5352  0.7969  0.7031
14914TIP3    H266158   3.649   1.175  11.207 -0.8282 -0.4208  0.6898
14915TIP3   OH266159   5.587   1.290  13.692  0.5579  0.0317  0.3005
14915TIP3    H166160   5.617   1.369  13.736  2.2982 -1.2196  1.4968
14915TIP3    H266161   5.507   1.266  13.739  0.3315  0.7443  0.2946
14916TIP3   OH266162   4.425   2.812  12.292 -0.1093  0.1943  0.5976
14916TIP3    H166163   4.350   2.817  12.234  0.4191  0.8497 -0.0463
14916TIP3    H266164   4.416   2.889  12.349  0.3543  0.5790  0.1598
14917TIP3   OH266165   0.405   4.478   4.127 -0.0380 -0.6896  0.3218
14917TIP3    H166166   0.435   4.396   4.087  1.0681  0.4556 -1.3206
14917TIP3    H266167   0.343   4.514   4.063  0.0837  0.1342  0.6639
14918TIP3   OH266168   4.462   4.707   6.001 -0.2277 -0.4867  0.3197
14918TIP3    H166169   4.488   4.691   5.910  1.2503  0.9152  0.4591
14918TIP3    H266170   4.542   4.695   6.052 -0.4275  1.1846  1.1131
14919TIP3   OH266171   5.012   5.569  10.478 -0.0898  0.3862 -0.7678
14919TIP3    H166172   4.923   5.605  10.483 -0.6011 -0.8000 -0.9108
14919TIP3    H266173   5.049   5.586  10.565  0.2660  2.5831 -1.2822
14920TIP3   OH266174   2.587   5.489   1.338 -0.3749  0.1518  0.5195
14920TIP3    H166175   2.500   5.527   1.328 -0.0061  1.1447  0.9712
14920TIP3    H266176   2.647   5.559   1.311  0.2848 -0.5869  0.0110
14921TIP3   OH266177   0.155   0.649   1.340 -0.4377 -0.8689 -0.2701
14921TIP3    H166178   0.215   0.574   1.332  0.5657  0.0165 -1.3005
14921TIP3    H266179   0.198   0.719   1.292 -1.4182  0.3585  0.5964
14922TIP3   OH266180   0.356   2.529   1.508 -0.6096  0.4485  0.3409
14922TIP3    H166181   0.371   2.468   1.435  0.6154  0.6116  0.4276
14922TIP3    H266182   0.394   2.484   1.583  1.0679  1.6261  0.2578
14923TIP3   OH266183   2.673   5.685   5.454  0.3897 -0.0015  0.0445
14923TIP3    H166184   2.618   5.607   5.447 -0.7498  0.6289  1.3606
14923TIP3    H266185   2.666   5.727   5.369  1.4551 -1.5727 -0.8742
14924TIP3   OH266186   6.424   4.585   1.084 -0.0808  0.2417  0.2049
14924TIP3    H166187   6.410   4.677   1.108 -2.5057  0.3914 -1.4115
14924TIP3    H266188   6.474   4.588   1.003 -0.3392  0.1339  0.0423
14925TIP3   OH266189   5.233   6.352   6.514  0.5243  0.5202 -0.7310
14925TIP3    H166190   5.265   6.263   6.504 -0.4264  0.1000 -0.1795
14925TIP3    H266191   5.141   6.342   6.540  0.7512  1.6484  0.5974
14926TIP3   OH266192   4.652   1.922   3.864  0.2546  0.7605 -0.5261
14926TIP3    H166193   4.692   2.000   3.901 -1.1913  0.8862  0.8808
14926TIP3    H266194   4.626   1.948   3.776  2.2284  0.9828 -1.0947
14927TIP3   OH266195   3.751   0.217   5.042  0.0438  0.4532 -0.0194
14927TIP3    H166196   3.776   0.166   4.964  0.3865  0.2320  0.2348
14927TIP3    H266197   3.729   0.304   5.008  0.0879  0.3260 -0.3766
14928TIP3   OH266198   1.251   5.849   4.754  0.2566  0.2477  0.3612
14928TIP3    H166199   1.238   5.766   4.800  2.6713  0.2007  1.1351
14928TIP3    H266200   1.344   5.849   4.731  0.0453  2.1975 -0.7621
14929TIP3   OH266201   1.874   6.031   1.808  0.2787  0.2869  0.1211
14929TIP3    H166202   1.782   6.050   1.825  0.3619 -0.1020  1.0491
14929TIP3    H266203   1.914   6.117   1.795 -0.4557  0.4056 -1.7324
14930TIP3   OH266204   6.675   5.624   3.341 -0.1627  0.0396 -0.3104
14930TIP3    H166205   6.731   5.698   3.315 -2.0073  2.0171  1.0147
14930TIP3    H266206   6.714   5.593   3.423  1.0510 -1.0131 -1.2450
14931TIP3   OH266207   4.945   6.311  15.740  0.3797 -0.1688 -0.0730
14931TIP3    H166208   4.937   6.338  15.649 -1.0001  2.7503  0.7945
14931TIP3    H266209   4.866   6.261  15.758  0.8262 -1.0669 -0.5205
14932TIP3   OH266210   2.205   1.134  14.287  0.6420  0.2524  0.0398
14932TIP3    H166211   2.221   1.202  14.353  0.1379 -0.3135  0.7589
14932TIP3    H266212   2.292   1.113  14.253  1.0475 -0.2577  1.3489
14933TIP3   OH266213   2.572   6.070  11.043 -0.3338  0.3426  0.0223
14933TIP3    H166214   2.511   5.998  11.025  1.6303 -1.1287 -1.1884
14933TIP3    H266215   2.555   6.133  10.973 -0.6308  0.0686 -0.1590
14934TIP3   OH266216   1.843   6.621  13.133 -0.6549  0.3938  0.0939
14934TIP3    H166217   1.775   6.554  13.130 -0.0709 -0.5159  3.0317
14934TIP3    H266218   1.807   6.689  13.190  0.4019  0.4224  0.7673
14935TIP3   OH266219   5.285   3.075   2.076 -0.2672  0.2652  0.0449
14935TIP3    H166220   5.342   3.007   2.040  0.7399  0.9254  0.3196
14935TIP3    H266221   5.259   3.043   2.162 -0.7698 -0.2932 -0.3153
14936TIP3   OH266222   6.551   4.045   0.390  0.2110  0.3201  0.0235
14936TIP3    H166223   6.524   4.097   0.315 -1.1034  0.8889  0.8562
14936TIP3    H266224   6.570   4.110   0.459  1.9810 -0.1532  0.0380
14937TIP3   OH266225   5.666   4.440   4.005  0.6892 -0.1060 -0.3196
14937TIP3    H166226   5.681   4.380   3.932 -0.6758 -0.6707 -0.1490
14937TIP3    H266227   5.672   4.527   3.966 -0.3318 -0.4046 -1.1853
14938TIP3   OH266228   1.869   1.807  15.721 -0.0857 -0.0513 -0.1142
14938TIP3    H166229   1.787   1.789  15.674  0.1332 -0.3477 -0.3841
14938TIP3    H266230   1.855   1.768  15.807 -0.0467 -0.5397 -0.3214
14939TIP3   OH266231   3.619   6.441  11.595 -0.8199  0.3786  0.0258
14939TIP3    H166232   3.601   6.444  11.501 -0.1877 -0.0753 -0.1160
14939TIP3    H266233   3.611   6.532  11.623 -1.9353  0.3864 -0.2857
14940TIP3   OH266234   4.056   4.918   1.042  0.4169 -0.0930 -0.2127
14940TIP3    H166235   4.135   4.895   0.993 -0.1367 -0.4665 -0.9543
14940TIP3    H266236   4.062   5.013   1.054  2.0096 -0.3771  1.6145
14941TIP3   OH266237   2.419   1.512   2.480 -0.1048 -0.0364 -0.2946
14941TIP3    H166238   2.466   1.486   2.559 -1.7881 -0.7487  0.5430
14941TIP3    H266239   2.486   1.546   2.422  1.4079 -0.9145  0.8516
14942TIP3   OH266240   0.118   5.433   6.014  0.0990 -0.1505  0.0503
14942TIP3    H166241   0.206   5.431   6.051  0.4111 -2.3419 -0.6453
14942TIP3    H266242   0.128   5.396   5.926 -1.1678  1.7278 -0.9559
14943TIP3   OH266243   0.309   4.247  13.604  0.4490 -0.5460 -0.0683
14943TIP3    H166244   0.278   4.157  13.594 -0.3190 -0.2465 -0.4015
14943TIP3    H266245   0.232   4.296  13.633  0.0792  0.5656 -2.6468
14944TIP3   OH266246   2.107   1.615   2.422  0.2602 -0.3821 -0.7982
14944TIP3    H166247   2.198   1.596   2.399  0.2505 -0.1854 -1.0027
14944TIP3    H266248   2.091   1.563   2.501  0.4256 -0.7275 -0.9913
14945TIP3   OH266249   0.133   5.674  13.649 -0.0599 -0.2470  0.0013
14945TIP3    H166250   0.145   5.720  13.732 -0.5155  1.5095 -0.8441
14945TIP3    H266251   0.046   5.635  13.655  0.2548 -0.8732  0.6587
14946TIP3   OH266252   6.281   2.261  13.367  0.2801 -0.0795  0.0824
14946TIP3    H166253   6.226   2.323  13.320 -0.1394  0.3884  1.1561
14946TIP3    H266254   6.294   2.301  13.453 -0.5442 -1.7579  1.0458
14947TIP3   OH266255   1.985   5.121  13.672  0.1449  0.1176 -0.3435
14947TIP3    H166256   2.059   5.156  13.623 -0.3816  2.2000  0.2503
14947TIP3    H266257   2.008   5.030  13.689  1.5362  0.0795 -2.1041
14948TIP3   OH266258   1.454   0.648   3.055  0.1474 -0.4663 -0.7313
14948TIP3    H166259   1.544   0.619   3.062  1.5498  3.4615  0.0714
14948TIP3    H266260   1.446   0.684   2.967 -0.5692 -0.5763 -0.7235
14949TIP3   OH266261   3.756   3.670   5.656  0.0405 -0.1352  0.3048
14949TIP3    H166262   3.795   3.601   5.709 -1.3954 -1.1876  0.0371
14949TIP3    H266263   3.770   3.642   5.566 -0.3805  0.0080  0.1913
14950TIP3   OH266264   4.618   0.171   5.149 -0.6214  0.2678 -0.1885
14950TIP3    H166265   4.611   0.079   5.125 -3.1447 -0.0333  1.3202
14950TIP3    H266266   4.616   0.218   5.066  0.3817 -1.0162 -0.9646
14951TIP3   OH266267   0.320   4.479   0.668  0.0811 -0.2452 -0.7530
14951TIP3    H166268   0.409   4.469   0.701  0.8097  1.9023 -1.9283
14951TIP3    H266269   0.294   4.390   0.644  0.9478 -1.3084  1.8054
14952TIP3   OH266270   2.524   4.261   2.237 -0.1163 -0.1943 -0.2493
14952TIP3    H166271   2.612   4.222   2.244  0.3198  0.5662 -1.2859
14952TIP3    H266272   2.514   4.281   2.144 -0.1558  2.5125  0.2650
14953TIP3   OH266273   2.960   2.995   1.550  0.3918  0.5214  0.4303
14953TIP3    H166274   3.032   3.032   1.500 -0.5076  0.5776 -0.9029
14953TIP3    H266275   2.889   3.059   1.541  0.2407  0.6057  1.9498
14954TIP3   OH266276   4.367   6.488  15.007  0.3686  0.6566 -0.1925
14954TIP3    H166277   4.437   6.499  14.943  2.1226  1.2786  1.7232
14954TIP3    H266278   4.321   6.409  14.978  2.2616 -0.1566 -1.1911
14955TIP3   OH266279   5.194   0.872  12.362 -0.1439  0.0582  0.1829
14955TIP3    H166280   5.143   0.867  12.280 -1.2312  0.5308  0.8044
14955TIP3    H266281   5.179   0.961  12.393  0.4494 -0.0504  0.7888
14956TIP3   OH266282   2.304   3.529   3.592  0.5236 -0.1788  0.0308
14956TIP3    H166283   2.314   3.556   3.501 -0.0409  2.9983  0.7981
14956TIP3    H266284   2.211   3.511   3.603  0.1973  1.6382  0.4641
14957TIP3   OH266285   0.384   2.365  13.187 -0.3402  0.1879 -0.7326
14957TIP3    H166286   0.461   2.401  13.142 -0.1338  2.8584  1.4741
14957TIP3    H266287   0.372   2.422  13.263 -2.4676 -2.2371  0.9275
14958TIP3   OH266288   3.399   5.882  10.766 -0.2258 -0.6120 -0.5150
14958TIP3    H166289   3.393   5.927  10.682  0.0748  1.7897  0.6567
14958TIP3    H266290   3.468   5.817  10.753  0.0787 -0.0370 -2.0382
14959TIP3   OH266291   1.070   1.426  16.580  0.4047  0.5562 -0.1553
14959TIP3    H166292   1.137   1.371  16.539 -0.3935 -0.1265 -0.5732
14959TIP3    H266293   0.997   1.425  16.519 -0.8487 -0.5444  1.2654
14960TIP3   OH266294   0.638   1.170  16.014 -0.3246  0.4927  0.4327
14960TIP3    H166295   0.582   1.160  15.936  0.5957 -0.8506 -0.1048
14960TIP3    H266296   0.622   1.091  16.065 -0.6245  1.1838  1.4278
14961TIP3   OH266297   0.691   6.371  16.936  0.8271 -0.1755 -0.5803
14961TIP3    H166298   0.708   6.294  16.881 -1.2725 -2.2348  1.4018
14961TIP3    H266299   0.770   6.380  16.990  1.1139 -0.9447 -0.8570
14962TIP3   OH266300   0.739   0.682   2.279  0.6894 -0.3610  0.2834
14962TIP3    H166301   0.728   0.753   2.342  0.9526  0.4313 -0.5336
14962TIP3    H266302   0.832   0.660   2.283  0.5249 -0.9702  0.8510
14963TIP3   OH266303   0.993   0.490   3.648 -0.0522 -0.7129 -0.4330
14963TIP3    H166304   1.074   0.507   3.696 -0.0590  1.2599 -1.0600
14963TIP3    H266305   0.982   0.395   3.653  0.7461 -0.7510  2.1379
14964TIP3   OH266306   6.091   2.640   2.650 -0.1956 -0.3234 -0.4485
14964TIP3    H166307   6.148   2.658   2.575 -1.1792  2.2087 -0.6832
14964TIP3    H266308   6.142   2.670   2.726 -0.8856  1.3094 -0.5935
14965TIP3   OH266309   2.103   0.809   5.860 -0.0165  0.0006 -0.2536
14965TIP3    H166310   2.091   0.889   5.808 -1.8837  0.4332  0.7583
14965TIP3    H266311   2.186   0.772   5.829  0.8268  2.2425 -0.8645
14966TIP3   OH266312   3.338   5.383  15.527 -0.7101 -0.0831  0.4809
14966TIP3    H166313   3.289   5.453  15.483  0.5513 -0.1670 -1.1269
14966TIP3    H266314   3.282   5.358  15.600 -3.4395 -0.6523 -1.6494
14967TIP3   OH266315   5.883   0.850  13.479  0.5394 -0.4414  0.3327
14967TIP3    H166316   5.797   0.885  13.453  0.9652  0.3349 -0.0737
14967TIP3    H266317   5.874   0.755  13.472  0.6579 -0.3280 -2.8251
14968TIP3   OH266318   3.618   5.296   0.044 -0.3628 -0.7612  0.0204
14968TIP3    H166319   3.531   5.261   0.028 -0.3154 -0.5354 -0.7616
14968TIP3    H266320   3.671   5.261  -0.028 -0.2214  0.5758 -0.5424
14969TIP3   OH266321   5.072   6.538  15.547 -0.0845  0.8024 -0.1201
14969TIP3    H166322   5.119   6.456  15.561 -0.3098  0.9332  1.4937
14969TIP3    H266323   5.095   6.593  15.622  0.1565  2.2854 -1.2168
14970TIP3   OH266324   6.010   3.961  14.971  0.3988 -0.8262 -0.2170
14970TIP3    H166325   6.061   3.970  14.891  0.0685  1.6786 -0.2296
14970TIP3    H266326   5.953   3.885  14.955  1.1967 -1.1265 -1.8449
14971TIP3   OH266327   1.614   2.188   4.135 -0.5295 -0.1431  0.5095
14971TIP3    H166328   1.566   2.124   4.188 -0.2078 -1.2660 -0.5271
14971TIP3    H266329   1.626   2.146   4.050 -0.8156  1.5176 -0.4133
14972TIP3   OH266330   6.671   3.979  11.391  0.0043 -0.9778  0.5710
14972TIP3    H166331   6.717   3.909  11.345  1.2205 -0.1591  0.5033
14972TIP3    H266332   6.616   4.019  11.323  0.9222 -0.5123  0.0883
14973TIP3   OH266333   4.974   0.782  16.750 -0.1336 -0.0783 -0.1498
14973TIP3    H166334   5.036   0.724  16.793  0.8321  0.1185 -1.2419
14973TIP3    H266335   4.947   0.844  16.819 -0.5046 -1.2445  0.7872
14974TIP3   OH266336   3.828   4.464  12.913 -0.1704  0.1852  0.4908
14974TIP3    H166337   3.846   4.535  12.974 -0.2285  0.9048 -0.3188
14974TIP3    H266338   3.892   4.475  12.843 -0.4611 -0.2968  0.1413
14975TIP3   OH266339   5.820   4.989  16.598  0.5272  0.2013  0.6547
14975TIP3    H166340   5.882   5.027  16.536  1.7160 -2.5915 -0.0393
14975TIP3    H266341   5.868   4.917  16.639 -1.8764 -1.3211  0.9885
14976TIP3   OH266342   0.688   3.739   2.416  0.0520 -0.4273  0.2024
14976TIP3    H166343   0.623   3.802   2.387  1.8711  1.1505 -0.6592
14976TIP3    H266344   0.767   3.791   2.431  1.5219 -2.4372 -0.1631
14977TIP3   OH266345   1.180   5.165   5.131  0.0112 -0.1599 -0.1927
14977TIP3    H166346   1.241   5.115   5.186  1.2340  0.6770 -0.7438
14977TIP3    H266347   1.167   5.110   5.054  1.2638  0.2789 -0.7461
14978TIP3   OH266348   4.320   3.664  14.268 -0.5132  0.4724 -0.0328
14978TIP3    H166349   4.233   3.638  14.237 -0.6978  1.6721 -0.5459
14978TIP3    H266350   4.327   3.757  14.246  0.5972  0.5788  0.7069
14979TIP3   OH266351   4.602   6.055  11.197 -0.2977 -0.2825 -0.1512
14979TIP3    H166352   4.604   6.062  11.292  0.4180  0.0178 -0.1866
14979TIP3    H266353   4.575   6.142  11.167 -2.1856 -0.8244 -0.1786
14980TIP3   OH266354   4.403   6.172   5.374 -0.6985 -0.0849  0.3860
14980TIP3    H166355   4.391   6.190   5.467  0.6411 -0.1690  0.5852
14980TIP3    H266356   4.315   6.150   5.343 -1.7435  2.9565  0.9320
14981TIP3   OH266357   6.053   2.241  12.603  0.8293 -0.0810  0.1644
14981TIP3    H166358   5.989   2.258  12.673  1.7357  2.1975  0.5163
14981TIP3    H266359   6.048   2.318  12.547  0.5787 -1.5900 -1.9946
14982TIP3   OH266360   3.634   0.745   4.278 -0.1898  0.1250 -0.3515
14982TIP3    H166361   3.593   0.674   4.328  0.5963 -0.1882 -0.1201
14982TIP3    H266362   3.722   0.752   4.316 -0.2124  1.1292 -0.4752
14983TIP3   OH266363   0.773   6.073  16.370  0.1787 -0.7248  0.4110
14983TIP3    H166364   0.778   6.044  16.461  2.9327  0.4273  0.7480
14983TIP3    H266365   0.759   5.993  16.320 -0.7982 -1.4541  1.7854
14984TIP3   OH266366   1.468   4.836  12.729 -0.3333 -0.2762  0.6080
14984TIP3    H166367   1.432   4.860  12.814 -0.5645 -0.3799  0.5390
14984TIP3    H266368   1.553   4.880  12.726 -0.2238 -0.4582  0.9872
14985TIP3   OH266369   4.629   5.686  11.533  0.3932 -0.3607 -0.1072
14985TIP3    H166370   4.689   5.619  11.564  0.6241 -0.4400 -0.7098
14985TIP3    H266371   4.679   5.735  11.467  0.4248  0.7687  0.7288
14986TIP3   OH266372   4.829   0.167   6.353  0.2523  0.0592 -0.0598
14986TIP3    H166373   4.840   0.086   6.402  0.6443  0.7971  1.1299
14986TIP3    H266374   4.737   0.189   6.362 -0.0698 -0.7353 -1.2079
14987TIP3   OH266375   2.404   2.884  13.846 -0.4272  0.3509  0.6058
14987TIP3    H166376   2.480   2.826  13.846 -0.3959  0.3915  0.8308
14987TIP3    H266377   2.395   2.912  13.755 -0.6972 -0.3402  0.4183
14988TIP3   OH266378   5.940   2.401   4.160  0.3106  0.1500  0.1788
14988TIP3    H166379   5.898   2.326   4.119 -1.1246  0.3556  1.1949
14988TIP3    H266380   6.032   2.397   4.131  0.3775 -2.2142  0.5522
14989TIP3   OH266381   2.681   1.430   5.527 -0.4359 -0.3113  0.3075
14989TIP3    H166382   2.603   1.409   5.578 -0.8417 -0.6040 -0.4129
14989TIP3    H266383   2.648   1.478   5.451  0.0017 -1.0385 -0.3641
14990TIP3   OH266384   6.485   1.527  17.168 -0.1114  0.3412 -0.0673
14990TIP3    H166385   6.524   1.614  17.167  0.1982  0.2302 -1.6843
14990TIP3    H266386   6.397   1.540  17.130 -0.4063  0.0887  0.5226
14991TIP3   OH266387   1.417   6.680  16.407 -0.0735 -0.1156  0.0784
14991TIP3    H166388   1.486   6.746  16.419  0.2753 -0.8411  2.6669
14991TIP3    H266389   1.444   6.631  16.329  1.5302  0.5917  0.1368
14992TIP3   OH266390   4.333   4.455   2.457 -0.4575 -0.4604  0.2109
14992TIP3    H166391   4.365   4.517   2.392  1.7631 -1.3218  0.4218
14992TIP3    H266392   4.324   4.372   2.409 -0.9524 -0.5851  0.5040
14993TIP3   OH266393   6.232   0.903   0.467  0.2114 -0.4530  0.3181
14993TIP3    H166394   6.251   0.991   0.499  0.5715 -0.8343  1.2028
14993TIP3    H266395   6.222   0.850   0.547 -1.9680 -0.8301 -0.1242
14994TIP3   OH266396   6.407   0.408  14.044 -0.6480 -0.2100 -0.7368
14994TIP3    H166397   6.380   0.469  14.113  0.5101 -1.6538  1.0784
14994TIP3    H266398   6.394   0.457  13.963 -1.7234  1.6924  0.5015
14995TIP3   OH266399   0.139   4.141   3.771  0.1264  0.4290  0.1883
14995TIP3    H166400   0.202   4.196   3.818 -1.9256  3.4102 -0.3063
14995TIP3    H266401   0.179   4.054   3.771  3.3325  1.7461  1.5090
14996TIP3   OH266402   4.622   0.042   1.131  0.4340  0.2524  0.0473
14996TIP3    H166403   4.608   0.001   1.046 -1.8706 -0.1640  0.5618
14996TIP3    H266404   4.634   0.135   1.111 -0.6895  0.2587 -0.7312
14997TIP3   OH266405   0.455   5.205   3.289 -0.2251  0.3345  0.2659
14997TIP3    H166406   0.468   5.111   3.286 -1.3653  0.1836 -0.4373
14997TIP3    H266407   0.536   5.239   3.327  0.3305 -0.8911  0.2239
14998TIP3   OH266408   4.742   3.265  12.747 -0.4383 -0.2674 -0.5001
14998TIP3    H166409   4.805   3.291  12.680  1.1160  0.4136  1.1346
14998TIP3    H266410   4.788   3.200  12.800 -1.3328 -0.2238  0.3717
14999TIP3   OH266411   1.817   4.797   2.723  0.0455 -0.3135 -0.0985
14999TIP3    H166412   1.753   4.750   2.776  2.1426 -2.4653  0.7145
14999TIP3    H266413   1.833   4.740   2.648  1.0060  0.1819 -0.2895
15000TIP3   OH266414   5.637   0.614  15.621  0.3130  0.1346 -0.8515
15000TIP3    H166415   5.548   0.648  15.634  0.7699  0.3037  2.7039
15000TIP3    H266416   5.626   0.519  15.617  0.0601 -0.0035  1.7264
15001TIP3   OH266417   5.087   6.438   4.813  0.1916  0.1550 -0.2332
15001TIP3    H166418   5.096   6.351   4.773 -1.5857 -0.1010 -0.1565
15001TIP3    H266419   5.076   6.497   4.738  1.5911  0.3761 -0.2955
15002TIP3   OH266420   4.204   3.971  11.363 -0.3609  0.0703 -0.3129
15002TIP3    H166421   4.116   4.006  11.373  0.2642  1.4078  0.7691
15002TIP3    H266422   4.206   3.936  11.273 -2.1792 -0.6372 -0.1117
15003TIP3   OH266423   1.506   2.915   1.192 -0.1029 -0.5204 -0.1767
15003TIP3    H166424   1.592   2.942   1.224 -1.0018  0.9441  1.1555
15003TIP3    H266425   1.514   2.821   1.175  1.9173 -0.2900 -0.7099
15004TIP3   OH266426   1.702   4.340   2.940 -0.0462  0.1807  0.4482
15004TIP3    H166427   1.709   4.250   2.908  0.3997 -0.4298  2.1396
15004TIP3    H266428   1.779   4.384   2.903  0.8727 -0.7023  1.2383
15005TIP3   OH266429   5.069   4.889   2.217  0.1310 -0.0350  0.1248
15005TIP3    H166430   5.154   4.882   2.173 -0.5892 -0.0955 -1.3103
15005TIP3    H266431   5.028   4.803   2.205  0.2983 -0.3930  1.8138
15006TIP3   OH266432   4.521   1.242  16.099  0.5269 -0.9770 -0.3988
15006TIP3    H166433   4.483   1.262  16.013  2.3926 -0.0979 -1.0928
15006TIP3    H266434   4.524   1.147  16.103  1.3110 -1.0328 -1.7687
15007TIP3   OH266435   4.517   5.648   4.790  0.0128 -0.1128 -0.0149
15007TIP3    H166436   4.516   5.583   4.860 -0.5454 -0.1931 -0.0980
15007TIP3    H266437   4.476   5.726   4.828  2.4491  0.9161  0.7576
15008TIP3   OH266438   6.723   1.775  15.608 -0.2578  0.0960  0.0082
15008TIP3    H166439   6.789   1.741  15.547 -0.3023 -1.7984  0.9480
15008TIP3    H266440   6.752   1.864  15.627  1.6514 -0.4433 -0.1659
15009TIP3   OH266441   4.946   6.157  16.900 -0.2335  0.0459 -0.2144
15009TIP3    H166442   4.885   6.100  16.853 -0.6909  1.1200 -0.9790
15009TIP3    H266443   4.985   6.212  16.832 -0.5439  1.3067  0.5933
15010TIP3   OH266444   3.175   0.958  12.432  0.3975 -0.4592 -0.0268
15010TIP3    H166445   3.139   1.027  12.377  0.3544 -2.3744 -2.5802
15010TIP3    H266446   3.106   0.891  12.434  0.3947 -0.4790  2.4374
15011TIP3   OH266447   1.557   6.289   0.966  0.7481  0.0187  0.5621
15011TIP3    H166448   1.481   6.251   0.921  1.4492 -0.5276 -0.1892
15011TIP3    H266449   1.588   6.220   1.024  2.1704 -0.7327 -0.9826
15012TIP3   OH266450   5.859   1.112  13.885 -0.6834 -1.3516  0.6076
15012TIP3    H166451   5.825   1.042  13.829 -0.8495  0.7650 -2.1340
15012TIP3    H266452   5.948   1.127  13.854 -0.7163 -0.2261  1.0117
15013TIP3   OH266453   6.499   5.706   5.652 -0.1302 -0.5836 -0.0214
15013TIP3    H166454   6.558   5.782   5.657  0.1927 -0.8626  0.5222
15013TIP3    H266455   6.413   5.744   5.635 -0.7201  0.3124  4.0420
15014TIP3   OH266456   5.469   5.885  11.930 -0.2161  0.2007 -0.1757
15014TIP3    H166457   5.503   5.874  11.842  2.6568  0.1772  0.8313
15014TIP3    H266458   5.421   5.968  11.928 -0.5288  0.0052 -1.8126
15015TIP3   OH266459   6.517   1.388  13.534 -0.0395  0.1693 -0.1917
15015TIP3    H166460   6.554   1.305  13.563  0.3838  0.9585  1.7160
15015TIP3    H266461   6.591   1.435  13.496  0.9564  1.4628  2.9860
15016TIP3   OH266462   4.752   3.710   5.892 -0.1294 -0.1997  0.4062
15016TIP3    H166463   4.819   3.650   5.859  0.4393  0.8187 -0.3466
15016TIP3    H266464   4.704   3.659   5.957  2.1648 -0.5874  1.8996
15017TIP3   OH266465   0.704   2.831   2.520 -0.1028  0.3582  0.1739
15017TIP3    H166466   0.765   2.819   2.593  0.3667 -0.9205 -0.3827
15017TIP3    H266467   0.623   2.791   2.550  0.9000 -2.8518 -0.9562
15018TIP3   OH266468   3.924   6.497   2.384  0.2286  0.4195 -0.7097
15018TIP3    H166469   4.019   6.501   2.370  0.8984 -1.4995  2.3475
15018TIP3    H266470   3.890   6.462   2.302  2.7029 -2.5182 -0.6689
15019TIP3   OH266471   2.199   3.280   4.237 -0.2776 -0.1477 -0.0677
15019TIP3    H166472   2.179   3.372   4.252 -0.9964 -0.5540  1.6145
15019TIP3    H266473   2.277   3.282   4.182  0.6127  1.4778  1.1606
15020TIP3   OH266474   1.235   2.226   0.854  0.3722  0.3685  0.5240
15020TIP3    H166475   1.153   2.184   0.878  1.0269 -1.5509 -0.4309
15020TIP3    H266476   1.209   2.304   0.806 -0.9425 -0.9928 -1.0752
15021TIP3   OH266477   5.583   4.055   0.527 -0.1489  0.0448 -0.1489
15021TIP3    H166478   5.495   4.068   0.561  0.0181  1.3912 -0.1718
15021TIP3    H266479   5.588   4.112   0.450  0.2227 -1.2380 -1.1060
15022TIP3   OH266480   2.790   6.039  12.313  0.0440  0.3228  0.4688
15022TIP3    H166481   2.881   6.028  12.342  0.4706  0.2726 -0.8107
15022TIP3    H266482   2.749   5.955  12.330  0.6605 -0.1547 -0.2977
15023TIP3   OH266483   0.354   4.674   2.565 -0.5967  0.2360 -0.1411
15023TIP3    H166484   0.332   4.724   2.486 -0.4611 -1.9247 -1.6227
15023TIP3    H266485   0.269   4.660   2.608 -0.8981  0.0083 -0.7973
15024TIP3   OH266486   5.174   1.040  13.673 -0.1005 -0.4450  0.6702
15024TIP3    H166487   5.232   1.047  13.596  0.2632 -3.3028  0.5460
15024TIP3    H266488   5.112   0.971  13.649 -1.0425 -0.2131  2.3324
15025TIP3   OH266489   5.681   3.037  11.891 -0.2698 -0.0361  0.2874
15025TIP3    H166490   5.702   3.021  11.983  1.3013 -0.2302 -0.0821
15025TIP3    H266491   5.609   2.977  11.872  1.1780 -1.9796  0.6741
15026TIP3   OH266492   6.710   3.779   3.150 -0.1688  0.4270 -0.0775
15026TIP3    H166493   6.680   3.828   3.226  1.0561  0.2806  0.5200
15026TIP3    H266494   6.778   3.835   3.111  1.4883 -0.9027  0.8088
15027TIP3   OH266495   3.048   5.942  16.472  0.0636  0.0386 -0.0886
15027TIP3    H166496   3.038   5.868  16.412 -1.2655  0.4664 -0.4383
15027TIP3    H266497   3.130   5.983  16.447  0.5989 -1.0581 -0.1806
15028TIP3   OH266498   5.212   2.444  12.388  0.3822 -0.2867  0.0534
15028TIP3    H166499   5.303   2.452  12.358 -0.1112  1.0367 -1.2087
15028TIP3    H266500   5.190   2.352  12.373  2.3282 -1.4281  3.0344
15029TIP3   OH266501   4.344   5.597   2.370  0.8858  0.1877  0.4684
15029TIP3    H166502   4.419   5.538   2.364 -0.4117 -1.4335 -0.7369
15029TIP3    H266503   4.301   5.574   2.452  1.1914  0.4971  0.7189
15030TIP3   OH266504   5.803   1.774   6.319 -0.6439  0.2831 -0.5889
15030TIP3    H166505   5.805   1.864   6.351  1.7128 -0.5725  2.1188
15030TIP3    H266506   5.729   1.734   6.366 -0.0484  0.1909  0.3010
15031TIP3   OH266507   4.531   3.559  16.961  0.1926  0.5404  0.0776
15031TIP3    H166508   4.502   3.642  16.922 -1.8791  0.4015  1.1474
15031TIP3    H266509   4.480   3.552  17.042 -0.4338 -2.2199 -0.4337
15032TIP3   OH266510   0.953   3.714  16.835  0.3030  0.5481 -0.6061
15032TIP3    H166511   1.000   3.636  16.805  1.6564  1.5551 -1.1789
15032TIP3    H266512   1.020   3.770  16.874 -0.7590  1.1285  0.4683
15033TIP3   OH266513   2.256   6.659  11.356  0.0993 -1.0293  0.1293
15033TIP3    H166514   2.271   6.683  11.265 -0.8700 -1.4491 -0.1529
15033TIP3    H266515   2.207   6.577  11.352 -2.1275  0.1676  0.9477
15034TIP3   OH266516   3.053   3.993  16.378 -0.6823 -0.0313  0.0985
15034TIP3    H166517   2.964   4.022  16.396 -0.9264 -0.9788  0.4643
15034TIP3    H266518   3.059   3.906  16.417 -0.0952 -0.6530 -1.2863
15035TIP3   OH266519   3.570   1.052  14.054 -0.4896  0.2205  0.1442
15035TIP3    H166520   3.522   1.059  14.137 -2.0689  0.2681 -0.7372
15035TIP3    H266521   3.586   0.958  14.044 -2.8949 -0.1502 -0.8610
15036TIP3   OH266522   4.026   1.487  16.123  0.2186 -0.0231 -0.0192
15036TIP3    H166523   3.943   1.515  16.161  0.2171 -2.0117  1.6447
15036TIP3    H266524   4.092   1.529  16.178  0.3377  1.2046 -1.0690
15037TIP3   OH266525   1.782   1.654   0.445 -0.0249  0.1840  0.1895
15037TIP3    H166526   1.756   1.596   0.516  1.6520  2.2172  2.6392
15037TIP3    H266527   1.845   1.603   0.393 -0.7039 -1.0814  0.5681
15038TIP3   OH266528   6.342   6.392  11.804 -0.5002 -0.0606 -0.4437
15038TIP3    H166529   6.382   6.459  11.859 -1.1044  0.6815 -0.8839
15038TIP3    H266530   6.356   6.423  11.714 -1.2535 -0.2400 -0.6334
15039TIP3   OH266531   5.684   0.980  16.983  0.2891 -0.2192  0.5303
15039TIP3    H166532   5.645   1.024  17.059 -0.0834 -1.9881  1.4215
15039TIP3    H266533   5.776   0.968  17.007  0.3313 -0.1846  0.3911
15040TIP3   OH266534   6.172   0.443   2.999 -0.2965  0.0372 -0.0109
15040TIP3    H166535   6.191   0.537   3.001 -1.0892  0.2625 -1.4254
15040TIP3    H266536   6.204   0.410   3.083 -0.0816  1.5829  0.5507
15041TIP3   OH266537   5.928   5.113   3.311 -0.7640 -0.1513 -0.0602
15041TIP3    H166538   5.883   5.153   3.385 -2.3493 -0.7273 -0.6682
15041TIP3    H266539   6.011   5.080   3.348 -0.9510  0.6910  1.1513
15042TIP3   OH266540   1.783   0.686  14.490  0.0051 -0.0339 -0.3031
15042TIP3    H166541   1.758   0.652  14.404  0.7892  0.8743 -0.9029
15042TIP3    H266542   1.876   0.665  14.498 -0.0392 -0.0262  0.2905
15043TIP3   OH266543   3.131   3.431  14.185 -0.7511 -0.0238  0.6211
15043TIP3    H166544   3.063   3.456  14.122 -0.7325 -1.7118 -0.1290
15043TIP3    H266545   3.087   3.372  14.245  0.3464 -2.5180 -0.8722
15044TIP3   OH266546   5.468   0.568   1.743 -0.0783  0.0317  0.5411
15044TIP3    H166547   5.474   0.564   1.838  1.4069  0.6753  0.5088
15044TIP3    H266548   5.491   0.659   1.722 -3.3133  0.8110 -0.2943
15045TIP3   OH266549   5.394   4.659  17.240  0.4592 -0.0574 -0.3814
15045TIP3    H166550   5.374   4.720  17.310 -2.1599 -0.9889 -0.2000
15045TIP3    H266551   5.465   4.700  17.191  0.8615  1.6288  1.5273
15046TIP3   OH266552   3.744   6.479  12.454 -0.2141 -0.5258 -0.1985
15046TIP3    H166553   3.790   6.515  12.530  0.4518 -2.0955  0.1894
15046TIP3    H266554   3.731   6.554  12.396 -0.3773  0.6306  1.2749
15047TIP3   OH266555   2.378   5.307  10.956 -0.0848  0.3812 -0.3998
15047TIP3    H166556   2.441   5.260  11.012  1.4243  2.6820 -0.0296
15047TIP3    H266557   2.355   5.244  10.888 -0.5793 -1.9207  1.7484
15048TIP3   OH266558   5.661   1.020   1.852  0.1969 -0.5449 -0.3569
15048TIP3    H166559   5.640   1.077   1.926 -2.6471  0.0164 -1.4331
15048TIP3    H266560   5.701   1.078   1.787  1.4703 -0.7657  0.2061
15049TIP3   OH266561   0.180   4.495  15.931  0.3077 -1.0751  0.1505
15049TIP3    H166562   0.128   4.502  15.851  0.8926 -0.3288 -0.1698
15049TIP3    H266563   0.116   4.474  15.999 -0.9087  2.4762  0.2858
15050TIP3   OH266564   0.619   5.638  14.526 -0.3592  0.3574 -0.1001
15050TIP3    H166565   0.648   5.633  14.617  0.9263 -1.1971 -0.5596
15050TIP3    H266566   0.533   5.680  14.531 -1.6122 -2.1763  2.1494
15051TIP3   OH266567   5.683   4.664   4.490  0.3512 -0.1032 -0.3427
15051TIP3    H166568   5.618   4.733   4.473  2.4974  2.5612  1.3539
15051TIP3    H266569   5.644   4.611   4.559 -1.1912 -0.4394 -1.4046
15052TIP3   OH266570   1.945   0.629   2.102 -0.1161  0.1877 -0.3423
15052TIP3    H166571   1.930   0.721   2.122 -1.4841 -0.1845  0.4199
15052TIP3    H266572   2.036   0.626   2.070  0.0456  1.7354 -0.0886
15053TIP3   OH266573   1.884   3.636   1.550  0.7501 -1.2567 -0.1393
15053TIP3    H166574   1.809   3.655   1.607  1.6979 -1.1091  1.0736
15053TIP3    H266575   1.914   3.549   1.578  0.9864 -1.3532 -0.6809
15054TIP3   OH266576   6.751   3.710   1.776 -0.0431  0.1378  0.3007
15054TIP3    H166577   6.746   3.616   1.759 -1.7887  0.2613 -0.1024
15054TIP3    H266578   6.807   3.744   1.706  0.7228 -0.6046  0.5358
15055TIP3   OH266579   4.261   2.257  14.201  0.4240  0.0681  0.6799
15055TIP3    H166580   4.233   2.324  14.138 -1.5440 -1.2457  0.0734
15055TIP3    H266581   4.319   2.200  14.151  0.2063 -0.0238  0.5320
15056TIP3   OH266582   1.279   1.030  15.294  0.5732 -0.2741 -0.2386
15056TIP3    H166583   1.292   1.072  15.208  1.2582  0.5405  0.2505
15056TIP3    H266584   1.187   1.049  15.315 -0.3129 -2.4192 -1.7809
15057TIP3   OH266585   1.565   2.397  11.013  0.3005 -0.3322  0.4794
15057TIP3    H166586   1.485   2.438  10.980  0.5841  0.0648  0.2773
15057TIP3    H266587   1.607   2.361  10.935  2.9030  3.8491 -0.3764
15058TIP3   OH266588   5.359   2.647  16.031  0.5637  0.1034  0.5273
15058TIP3    H166589   5.324   2.734  16.051 -1.1656  0.1745 -2.1482
15058TIP3    H266590   5.303   2.587  16.081  0.3512  0.4576  0.7209
15059TIP3   OH266591   0.499   1.333  15.355 -0.1203  0.2137 -0.4394
15059TIP3    H166592   0.406   1.315  15.347 -0.2608 -0.0776  1.4866
15059TIP3    H266593   0.511   1.366  15.444  1.7594 -0.7966 -0.2498
15060TIP3   OH266594   5.772   1.935   3.412  0.5250  0.4845  0.4208
15060TIP3    H166595   5.747   1.976   3.329 -1.1830 -1.3864 -0.0518
15060TIP3    H266596   5.794   2.009   3.470  0.5097  1.8742 -1.2839
15061TIP3   OH266597   3.687   3.624  14.061 -0.3069  0.7385  0.2306
15061TIP3    H166598   3.633   3.570  14.003  0.5150  1.1852 -0.9789
15061TIP3    H266599   3.721   3.693  14.005  2.3325 -0.0868  0.6917
15062TIP3   OH266600   6.750   5.806   4.727 -0.5827 -0.0794  0.2696
15062TIP3    H166601   6.748   5.817   4.632 -1.1127  0.3399  0.3248
15062TIP3    H266602   6.828   5.854   4.755 -0.0806 -0.7153 -0.0083
15063TIP3   OH266603   6.089   5.922  16.989  0.5232  0.0872 -0.3625
15063TIP3    H166604   6.079   5.877  16.905 -1.5391  0.4631 -0.3540
15063TIP3    H266605   6.018   5.889  17.043  1.7960 -0.1140  1.2693
15064TIP3   OH266606   5.062   4.375  16.370  0.2739 -0.1568  0.3431
15064TIP3    H166607   5.054   4.432  16.447 -0.8638  1.1862 -0.7117
15064TIP3    H266608   4.972   4.348  16.352  0.7038 -1.6853  0.3388
15065TIP3   OH266609   0.376   0.313  14.183 -0.2530 -0.1694 -0.0063
15065TIP3    H166610   0.450   0.304  14.244  0.7328  1.0255 -0.9605
15065TIP3    H266611   0.402   0.262  14.106 -0.8423 -0.5019  0.0143
15066TIP3   OH266612   3.481   1.401  15.836 -0.3374 -0.4096 -0.1934
15066TIP3    H166613   3.456   1.486  15.799 -0.3458 -0.2834  0.0989
15066TIP3    H266614   3.551   1.370  15.779  0.5199  0.3632  0.4097
15067TIP3   OH266615   5.728   6.207   4.723  0.0060 -0.9482  0.4834
15067TIP3    H166616   5.692   6.118   4.715  2.4531 -2.1072  1.4145
15067TIP3    H266617   5.718   6.228   4.816 -2.1125  0.5392 -0.0062
15068TIP3   OH266618   2.245   6.419   0.158  0.0907  0.0527  0.4421
15068TIP3    H166619   2.285   6.469   0.229 -0.5083  2.9621 -1.0858
15068TIP3    H266620   2.316   6.404   0.095 -0.2098  1.2464 -0.2176
15069TIP3   OH266621   6.663   5.363  12.598 -0.1318 -0.3124  0.2650
15069TIP3    H166622   6.632   5.449  12.625 -1.9424 -1.4378  2.0716
15069TIP3    H266623   6.738   5.345  12.654  0.3543  0.1466 -0.2336
15070TIP3   OH266624   1.851   1.136   4.674 -0.6369  0.0585  0.0060
15070TIP3    H166625   1.917   1.095   4.617 -1.3808  0.2948 -1.0645
15070TIP3    H266626   1.849   1.081   4.752  0.2759 -0.3983 -0.2832
15071TIP3   OH266627   0.880   2.423  15.828  0.7538 -0.1405 -0.2334
15071TIP3    H166628   0.889   2.490  15.760 -0.3960 -1.7283 -2.0544
15071TIP3    H266629   0.922   2.346  15.791 -1.9431 -1.7258 -0.1930
15072TIP3   OH266630   0.964   0.664   4.136 -0.0850 -0.5980 -0.0703
15072TIP3    H166631   0.976   0.750   4.176  0.4026 -0.1232 -1.1917
15072TIP3    H266632   0.984   0.602   4.206 -1.3282  0.1777  1.0166
15073TIP3   OH266633   3.418   4.952   5.067 -0.4750 -0.6571 -0.1803
15073TIP3    H166634   3.322   4.949   5.066 -0.5430  0.0813  1.2874
15073TIP3    H266635   3.444   4.880   5.124 -0.3373  0.8757  1.8242
15074TIP3   OH266636   2.459   6.685  14.701 -0.1575 -0.3437 -0.0825
15074TIP3    H166637   2.383   6.631  14.682 -2.8575  1.8326  3.2653
15074TIP3    H266638   2.452   6.759  14.640 -0.3441 -0.4588 -0.2018
15075TIP3   OH266639   4.990   3.401   4.103 -0.7040  0.4053 -0.1074
15075TIP3    H166640   4.898   3.403   4.075 -0.3974  1.0846 -1.1296
15075TIP3    H266641   5.030   3.475   4.059  0.4213 -0.0769  0.0635
15076TIP3   OH266642   2.916   0.310  15.193  0.2172 -0.1884  0.4977
15076TIP3    H166643   2.962   0.227  15.203 -0.5235 -0.5367  1.1813
15076TIP3    H266644   2.844   0.305  15.256 -0.9700  0.1713 -0.7790
15077TIP3   OH266645   2.965   0.130  11.818  0.2928 -0.4221 -0.7774
15077TIP3    H166646   2.986   0.046  11.777  0.9779  0.1774 -1.6935
15077TIP3    H266647   3.044   0.154  11.866  0.2056 -0.1677 -0.7579
15078TIP3   OH266648   6.447   5.836  16.441  0.0997 -0.0986  0.2303
15078TIP3    H166649   6.439   5.906  16.506  0.1793  0.3729 -0.2500
15078TIP3    H266650   6.370   5.847  16.385  0.3487 -0.1108 -0.1161
15079TIP3   OH266651   5.842   1.908  16.154 -0.6950 -0.1408 -0.1158
15079TIP3    H166652   5.884   1.856  16.086 -1.5783 -0.6540 -0.2909
15079TIP3    H266653   5.751   1.875  16.157 -1.3105  1.4732 -0.3010
15080TIP3   OH266654   1.420   2.440  14.711  0.5603 -0.5861  0.1803
15080TIP3    H166655   1.361   2.493  14.657  1.2143  2.0069  1.8139
15080TIP3    H266656   1.465   2.383  14.649 -1.5492 -0.6150 -1.4600
15081TIP3   OH266657   5.838   4.943   1.098  0.3234 -0.8707 -0.5618
15081TIP3    H166658   5.932   4.955   1.110  0.2613 -0.4606 -0.4688
15081TIP3    H266659   5.798   5.002   1.162 -0.0040 -0.4541 -1.1472
15082TIP3   OH266660   6.296   5.391  16.574  0.6866  0.3273 -0.0448
15082TIP3    H166661   6.244   5.465  16.602  0.2262  0.0699 -0.2145
15082TIP3    H266662   6.368   5.430  16.523 -0.4595  0.5679 -1.5476
15083TIP3   OH266663   5.134   4.899  10.984  0.7965  0.1427 -0.4937
15083TIP3    H166664   5.166   4.827  10.930  0.3194 -0.5741  0.1658
15083TIP3    H266665   5.213   4.946  11.011  1.1284 -0.2817 -0.7180
15084TIP3   OH266666   4.242   0.240   3.325 -0.2634 -0.2913 -0.1369
15084TIP3    H166667   4.177   0.275   3.386  0.3048 -0.9718  0.8873
15084TIP3    H266668   4.211   0.267   3.239 -0.6901  1.3466  0.4985
15085TIP3   OH266669   4.590   4.788  14.691 -1.0182 -0.3204 -0.1050
15085TIP3    H166670   4.658   4.775  14.757 -2.2727  1.1048  1.5598
15085TIP3    H266671   4.549   4.702  14.681  0.7826 -1.1358 -0.9407
15086TIP3   OH266672   3.443   3.356   3.681 -0.5792  0.4624 -0.0826
15086TIP3    H166673   3.490   3.284   3.640 -0.3934  0.4715  0.1156
15086TIP3    H266674   3.362   3.316   3.713  1.1497 -0.5357  3.4285
15087TIP3   OH266675   3.250   1.085  12.665  0.6399  0.0468 -0.0767
15087TIP3    H166676   3.273   1.023  12.734 -0.6835 -2.2734 -1.5614
15087TIP3    H266677   3.218   1.030  12.593 -1.3630  2.4990 -1.2392
15088TIP3   OH266678   2.065   4.740   4.396  0.1550 -0.0987 -0.5623
15088TIP3    H166679   2.118   4.728   4.317  1.1786 -0.7564  0.2009
15088TIP3    H266680   1.988   4.685   4.381  1.4857 -2.1771 -0.1065
15089TIP3   OH266681   1.467   2.258  13.409 -0.2876 -0.1364 -0.0739
15089TIP3    H166682   1.394   2.318  13.425 -0.4213 -0.7322  1.7254
15089TIP3    H266683   1.542   2.297  13.453  0.2142 -0.1251 -0.9116
15090TIP3   OH266684   6.142   5.770   0.932  0.0804  0.3292 -0.1357
15090TIP3    H166685   6.223   5.722   0.943  0.8136  1.1951 -1.4432
15090TIP3    H266686   6.073   5.706   0.949  1.0203 -0.8792 -0.7148
15091TIP3   OH266687   0.115   5.640  16.013 -0.9451 -0.5427 -0.2512
15091TIP3    H166688   0.085   5.564  15.964 -0.7706 -1.7847  1.4740
15091TIP3    H266689   0.144   5.604  16.097 -1.5159  1.5154  0.8870
15092TIP3   OH266690   5.396   1.982   2.505  0.0429 -0.7177  0.0528
15092TIP3    H166691   5.343   1.908   2.533  0.1887 -0.5948  0.6725
15092TIP3    H266692   5.410   2.034   2.585 -2.2421  1.3929 -0.7922
15093TIP3   OH266693   4.190   1.575   1.800 -0.1250 -0.2541 -0.5283
15093TIP3    H166694   4.237   1.522   1.864  0.4159 -0.9853 -1.5000
15093TIP3    H266695   4.143   1.640   1.852  0.4762 -0.6865  0.5848
15094TIP3   OH266696   3.313   0.976   0.089 -0.1934 -0.0489  0.0117
15094TIP3    H166697   3.330   0.914   0.018  0.2985  0.4915 -0.3470
15094TIP3    H266698   3.398   0.990   0.130 -0.3195  0.3129  0.1547
15095TIP3   OH266699   0.157   5.220   0.128  0.6761 -0.3610 -0.4280
15095TIP3    H166700   0.124   5.309   0.135  1.6847  0.0711 -0.8547
15095TIP3    H266701   0.162   5.188   0.218 -0.0228 -0.1174 -0.3031
15096TIP3   OH266702   3.192   4.447  13.796 -0.3185  0.0926  0.1823
15096TIP3    H166703   3.193   4.431  13.702  1.2845 -1.1033  0.3510
15096TIP3    H266704   3.233   4.532  13.807  1.2122 -0.5752 -0.1250
15097TIP3   OH266705   2.643   1.289  16.160 -0.6722 -0.5017  0.1941
15097TIP3    H166706   2.617   1.198  16.148 -0.3832 -0.8472  1.8797
15097TIP3    H266707   2.564   1.340  16.142 -0.6452 -1.0065 -1.4740
15098TIP3   OH266708   1.511   0.895  15.969  0.6671 -0.1914  0.0452
15098TIP3    H166709   1.552   0.957  16.029  1.2817 -0.0795 -0.4712
15098TIP3    H266710   1.567   0.897  15.891  0.7329 -1.4419  0.0458
15099TIP3   OH266711   0.545   6.201   4.036  0.2573 -0.1045 -0.1413
15099TIP3    H166712   0.565   6.272   3.975 -0.5382  0.3633  0.1337
15099TIP3    H266713   0.617   6.203   4.099  0.6736 -0.0859 -0.6042
15100TIP3   OH266714   6.188   6.743  16.197 -0.0675 -0.2356  0.4295
15100TIP3    H166715   6.270   6.787  16.220  0.6322 -2.2588  2.1913
15100TIP3    H266716   6.124   6.813  16.191  0.9641  1.0867  3.0653
15101TIP3   OH266717   0.808   0.231  16.109 -0.2546 -0.2618  0.1556
15101TIP3    H166718   0.885   0.282  16.083 -0.0494 -0.1680  0.9160
15101TIP3    H266719   0.776   0.276  16.188 -1.4634  0.0793 -0.5062
15102TIP3   OH266720   1.104   5.346   5.778 -0.1139  0.0049  0.0643
15102TIP3    H166721   1.025   5.382   5.738 -1.1112 -1.9309  0.1711
15102TIP3    H266722   1.140   5.418   5.829 -1.2153  1.2422 -0.8527
15103TIP3   OH266723   0.007   4.212   4.736  0.5665  0.2575  0.4261
15103TIP3    H166724   0.067   4.274   4.694  0.1629  0.3690  0.0086
15103TIP3    H266725  -0.079   4.252   4.726  0.5672  0.8875  2.4326
15104TIP3   OH266726   3.922   0.409  16.530  0.2044 -0.8389  0.1997
15104TIP3    H166727   3.930   0.314  16.522 -0.7367 -0.9446  0.3988
15104TIP3    H266728   3.954   0.428  16.619  0.8695 -0.9017 -0.0212
15105TIP3   OH266729   5.400   2.055   1.120  0.1878 -0.7246  0.2112
15105TIP3    H166730   5.375   1.999   1.046  1.3760  0.9236 -1.5436
15105TIP3    H266731   5.434   1.994   1.185 -0.9897 -2.2528 -0.5342
15106TIP3   OH266732   0.255   2.834   5.176  0.3419  0.0313  0.1796
15106TIP3    H166733   0.278   2.835   5.269 -0.4827 -3.3387  0.5611
15106TIP3    H266734   0.162   2.857   5.174  0.0195 -1.1760  0.3941
15107TIP3   OH266735   0.792   1.503  16.863  0.6056  0.0196 -0.1328
15107TIP3    H166736   0.860   1.475  16.923  0.7660  0.5335 -0.0728
15107TIP3    H266737   0.727   1.432  16.866  0.1176  0.4977  1.4191
15108TIP3   OH266738   3.354   1.607   2.075  0.7597  0.0085  0.1767
15108TIP3    H166739   3.396   1.669   2.015  0.2898 -0.8321 -1.0717
15108TIP3    H266740   3.275   1.651   2.105  0.7784  0.2889 -0.1760
15109TIP3   OH266741   2.207   4.024   0.219  0.0654 -0.3716  0.2809
15109TIP3    H166742   2.273   3.964   0.253  0.6018  0.5985  0.9981
15109TIP3    H266743   2.140   3.966   0.181  1.0726 -1.3823 -0.0293
15110TIP3   OH266744   1.991   4.607   4.713  0.3876  0.2375  0.0878
15110TIP3    H166745   1.959   4.684   4.665  1.4032  0.9891  0.5736
15110TIP3    H266746   1.915   4.548   4.718 -0.4487  1.2651 -0.1662
15111TIP3   OH266747   6.106   2.815  15.281 -0.2536  0.0974  0.3875
15111TIP3    H166748   6.093   2.909  15.269 -3.8246 -0.3196  0.0675
15111TIP3    H266749   6.096   2.801  15.375  0.7915  0.0487  0.5085
15112TIP3   OH266750   4.844   6.265  13.658  0.0917  0.2897 -0.4615
15112TIP3    H166751   4.802   6.313  13.586 -1.5013  1.9558  1.4642
15112TIP3    H266752   4.786   6.190  13.674  0.9267 -0.5913 -1.4514
15113TIP3   OH266753   5.298   5.413   2.463 -0.1271 -0.7174  0.0064
15113TIP3    H166754   5.231   5.469   2.425 -0.9611 -1.1274  0.8458
15113TIP3    H266755   5.325   5.356   2.391 -1.9313 -1.7135  0.0655
15114TIP3   OH266756   0.332   0.300  13.315  0.7515 -0.2024 -0.4506
15114TIP3    H166757   0.396   0.264  13.255  1.9619  0.4237  0.4192
15114TIP3    H266758   0.379   0.310  13.398 -1.1122 -1.9621  0.9276
15115TIP3   OH266759   0.468   5.955   2.019  0.4311  0.1995  0.7352
15115TIP3    H166760   0.482   5.917   1.932 -0.3655  0.2816  0.5589
15115TIP3    H266761   0.450   6.047   2.002 -0.2208  0.1178  0.9349
15116TIP3   OH266762   2.988   2.479   2.980  0.2639  0.2902  0.2370
15116TIP3    H166763   3.081   2.503   2.980  0.5515 -0.7849  0.0999
15116TIP3    H266764   2.942   2.563   2.977  1.2039  0.9087  1.7944
15117TIP3   OH266765   4.136   3.717  16.690  0.4358 -0.0910  0.1771
15117TIP3    H166766   4.164   3.671  16.770  1.5903 -0.0159 -0.1598
15117TIP3    H266767   4.218   3.740  16.647 -0.1621 -1.4991 -1.8395
15118TIP3   OH266768   2.589   3.686  13.720  0.6024 -0.0460 -0.1716
15118TIP3    H166769   2.593   3.619  13.652 -0.6359 -0.1061 -0.2150
15118TIP3    H266770   2.560   3.765  13.674 -0.4390 -0.1367  0.3093
15119TIP3   OH266771   1.969   3.133   1.331 -0.5342 -0.1115  0.0497
15119TIP3    H166772   2.020   3.157   1.408 -0.0545 -2.4448  0.5415
15119TIP3    H266773   1.879   3.158   1.351  0.1111  2.8476 -0.2838
15120TIP3   OH266774   6.376   3.828   0.402 -0.4544  0.3279  0.2498
15120TIP3    H166775   6.445   3.895   0.402 -1.2876  1.2337  1.1361
15120TIP3    H266776   6.355   3.815   0.310  0.2855  0.6872  0.0176
15121TIP3   OH266777   1.630   1.474  15.145 -1.0360  0.2390 -0.0001
15121TIP3    H166778   1.634   1.379  15.146 -1.3300  0.2112 -1.0275
15121TIP3    H266779   1.591   1.497  15.230  0.2171 -0.4704  0.8019
15122TIP3   OH266780   4.054   2.243   2.421  0.4148 -0.4560  1.0146
15122TIP3    H166781   3.961   2.221   2.414  0.2742  0.1648  0.8852
15122TIP3    H266782   4.065   2.273   2.512  0.0634  1.3515  0.4908
15123TIP3   OH266783   4.175   0.646   3.477  0.0583 -0.0627  0.5729
15123TIP3    H166784   4.234   0.699   3.531 -1.4718  0.4315  1.8197
15123TIP3    H266785   4.185   0.682   3.389  0.7825  0.7355  0.9671
15124TIP3   OH266786   2.394   2.004   2.078 -0.4266  0.4116 -0.2953
15124TIP3    H166787   2.360   1.917   2.056 -0.5246  0.5729 -0.7767
15124TIP3    H266788   2.325   2.043   2.131 -1.2398  0.9287 -1.6848
15125TIP3   OH266789   1.278   6.681  12.825 -0.8882 -0.2516  1.1895
15125TIP3    H166790   1.227   6.612  12.783 -0.7771  0.0790  0.5040
15125TIP3    H266791   1.322   6.638  12.897 -0.0837 -1.1029  0.2107
15126TIP3   OH266792   5.221   5.687  14.441  0.3790  0.1901  0.3369
15126TIP3    H166793   5.271   5.655  14.367 -0.8543 -0.8164 -0.0929
15126TIP3    H266794   5.176   5.765  14.408 -0.1511 -0.2433  0.0163
15127TIP3   OH266795   6.083   6.479   2.050  0.2340  0.1852  0.5442
15127TIP3    H166796   6.011   6.516   2.099 -2.1246 -2.4322 -0.6390
15127TIP3    H266797   6.135   6.432   2.115 -0.8993 -0.3986  1.0564
15128TIP3   OH266798   0.672   2.213   2.447 -0.4364  0.5247 -0.9489
15128TIP3    H166799   0.691   2.273   2.518  0.3366  2.4477 -2.7019
15128TIP3    H266800   0.752   2.210   2.394 -1.0643 -0.6280 -1.9017
15129TIP3   OH266801   4.992   4.694  12.666  0.1417  0.4134  0.1334
15129TIP3    H166802   5.078   4.662  12.638  0.2436  1.2458 -0.5722
15129TIP3    H266803   4.991   4.785  12.637 -1.0780  0.3407 -0.0795
15130TIP3   OH266804   2.862   3.520   5.940 -0.3273  0.0612  0.9475
15130TIP3    H166805   2.809   3.442   5.957 -1.8761  0.4591 -1.5682
15130TIP3    H266806   2.805   3.593   5.961 -0.0900  0.5069  0.0980
15131TIP3   OH266807   3.659   6.039  13.797 -0.7201 -0.2901  0.4521
15131TIP3    H166808   3.620   5.955  13.824 -2.7419  0.4317 -0.0540
15131TIP3    H266809   3.623   6.103  13.859 -0.5120  0.4535 -0.1769
15132TIP3   OH266810   3.028   4.867   1.497 -0.1143  0.5465 -0.1240
15132TIP3    H166811   3.113   4.910   1.509  0.7011 -1.3934  1.7283
15132TIP3    H266812   3.016   4.866   1.402  2.3946  0.0817 -0.5182
15133TIP3   OH266813   1.882   0.958   3.885 -0.3855  0.6787  0.3397
15133TIP3    H166814   1.874   0.931   3.793 -1.4693  2.5545 -0.1643
15133TIP3    H266815   1.811   0.911   3.929 -0.4689  0.5068  0.0309
15134TIP3   OH266816   5.278   0.957   4.426 -0.5090 -0.4266  0.0123
15134TIP3    H166817   5.316   0.957   4.338 -0.5209  0.4875  0.0040
15134TIP3    H266818   5.241   0.869   4.436 -3.1026  0.3028 -2.0256
15135TIP3   OH266819   4.154   1.288   0.672 -0.2974  0.5253 -0.1009
15135TIP3    H166820   4.071   1.319   0.707 -0.6759 -0.1855 -0.3583
15135TIP3    H266821   4.130   1.233   0.597  0.4930  1.8893 -1.3988
15136TIP3   OH266822   4.929   4.840   2.624 -0.1962  0.3228  0.4766
15136TIP3    H166823   4.889   4.873   2.704 -0.4584 -0.3597  0.6392
15136TIP3    H266824   4.898   4.749   2.618  1.2242 -0.1966  0.5469
15137TIP3   OH266825   4.624   3.129   0.297  0.3279  0.0839 -0.0533
15137TIP3    H166826   4.632   3.217   0.334 -0.4699  0.0669  0.1816
15137TIP3    H266827   4.605   3.143   0.204  0.9368  0.1402 -0.1783
15138TIP3   OH266828   2.554   5.886  15.344  0.5632  0.2448 -0.1044
15138TIP3    H166829   2.536   5.934  15.263 -1.5381 -0.3216 -0.0387
15138TIP3    H266830   2.573   5.797  15.314 -2.4946 -0.5684  0.0118
15139TIP3   OH266831   0.085   0.077   4.736 -0.6249 -0.1799  0.0880
15139TIP3    H166832   0.116   0.142   4.673 -1.0409 -1.0679 -1.0796
15139TIP3    H266833   0.151   0.077   4.806 -0.1639  0.8476 -0.3371
15140TIP3   OH266834   2.697   2.099   3.230  0.4708  0.6707  0.4916
15140TIP3    H166835   2.767   2.164   3.235  0.1296  1.1564 -0.6178
15140TIP3    H266836   2.619   2.144   3.262  0.9109 -0.3668  3.3334
15141TIP3   OH266837   4.537   4.419   4.271 -0.0871 -0.2077  0.0308
15141TIP3    H166838   4.529   4.435   4.365  1.7527 -1.6770  0.4913
15141TIP3    H266839   4.631   4.404   4.257  0.1561  2.7496 -2.5332
15142TIP3   OH266840   2.227   2.894   5.474  0.7237 -0.2049 -0.1194
15142TIP3    H166841   2.270   2.967   5.430  0.6015  0.6740  1.1599
15142TIP3    H266842   2.293   2.857   5.532  0.0996  0.5283  1.1193
15143TIP3   OH266843   2.108   5.333   4.708 -0.0899 -1.0444  0.1603
15143TIP3    H166844   2.144   5.339   4.620 -0.1259 -1.4434  0.1160
15143TIP3    H266845   2.018   5.304   4.695 -1.2112  2.0463  0.1177
15144TIP3   OH266846   1.195   1.963  14.758  0.6989  0.1164  0.1166
15144TIP3    H166847   1.177   2.033  14.821 -0.2267 -0.6334  0.7086
15144TIP3    H266848   1.168   1.883  14.803  0.4081 -0.4807 -1.0786
15145TIP3   OH266849   3.730   0.774   0.002 -0.2759  0.2660 -0.3879
15145TIP3    H166850   3.680   0.852  -0.022 -2.8163 -1.8557 -2.6683
15145TIP3    H266851   3.803   0.771  -0.060 -0.3389  0.6705 -0.4783
15146TIP3   OH266852   5.855   4.509   5.790  0.0272 -0.0143 -0.3233
15146TIP3    H166853   5.855   4.526   5.884  2.2576  2.2276 -0.6088
15146TIP3    H266854   5.790   4.570   5.754 -0.2221 -0.2774 -0.3225
15147TIP3   OH266855   5.983   6.652  15.954  0.6280 -0.6899 -0.0612
15147TIP3    H166856   5.976   6.561  15.927  1.6120 -0.8892  0.3255
15147TIP3    H266857   5.899   6.691  15.929  0.0449 -1.7901  0.1321
15148TIP3   OH266858   5.902   2.548   0.266  0.4839  0.0511 -0.1966
15148TIP3    H166859   5.871   2.560   0.176 -0.5020  0.4340  0.1840
15148TIP3    H266860   5.986   2.594   0.269 -0.8031  2.4947 -0.1564
15149TIP3   OH266861   0.900   5.495   2.109 -0.0035 -0.1975  0.0722
15149TIP3    H166862   0.886   5.509   2.203  0.0745 -0.1404  0.0752
15149TIP3    H266863   0.946   5.574   2.080 -2.2046  0.9753 -0.5125
15150TIP3   OH266864   5.043   5.927   2.490  0.1622 -0.0479  0.1600
15150TIP3    H166865   5.074   5.986   2.421  2.8760 -1.7117 -0.1747
15150TIP3    H266866   5.081   5.961   2.570 -0.2064 -0.0355  0.3327
15151TIP3   OH266867   0.701   3.284   5.179  0.2312 -0.2827 -0.3051
15151TIP3    H166868   0.620   3.234   5.177  0.1073 -0.1906  1.4113
15151TIP3    H266869   0.682   3.361   5.233  1.5653 -0.4973  0.5233
15152TIP3   OH266870   2.689   0.782  12.847 -0.0419  0.0622 -0.3759
15152TIP3    H166871   2.714   0.709  12.790  2.6289  0.8601 -0.3436
15152TIP3    H266872   2.600   0.760  12.876 -0.3873 -1.7946 -2.5303
15153TIP3   OH266873   2.523   2.968  15.439 -0.1075 -0.5074 -0.0907
15153TIP3    H166874   2.443   2.917  15.447 -1.0236  0.7167 -1.1376
15153TIP3    H266875   2.501   3.038  15.378  1.1547  1.0375  1.1532
15154TIP3   OH266876   2.812   3.798  15.803  0.2406 -0.3681 -0.0502
15154TIP3    H166877   2.720   3.803  15.829  0.2328 -2.1974  0.4073
15154TIP3    H266878   2.860   3.840  15.874 -0.3682  4.4073 -2.0920
15155TIP3   OH266879   4.128   4.695   2.134 -0.1295 -0.1755 -0.1161
15155TIP3    H166880   4.052   4.708   2.190  0.2656  0.5234  0.2865
15155TIP3    H266881   4.104   4.625   2.074 -1.4449  0.6685 -0.6183
15156TIP3   OH266882   2.072   5.188   3.828 -0.0698 -0.2322 -0.1447
15156TIP3    H166883   2.056   5.247   3.754  1.2663 -0.2179 -0.4599
15156TIP3    H266884   2.085   5.102   3.787  2.9611  0.1606 -0.2326
15157TIP3   OH266885   4.815   4.790  14.849 -0.2126  0.2915 -0.2485
15157TIP3    H166886   4.866   4.829  14.920  0.1217  1.0367 -0.8834
15157TIP3    H266887   4.878   4.777  14.778 -0.4848 -0.7126 -0.3171
15158TIP3   OH266888   2.823   3.190  10.904 -0.6113 -0.3825 -0.4364
15158TIP3    H166889   2.908   3.225  10.930 -0.6889  0.5595 -1.3988
15158TIP3    H266890   2.843   3.129  10.833 -0.7128 -0.3886 -0.4603
15159TIP3   OH266891   0.033   1.973  14.372 -0.4761 -0.0997  0.8681
15159TIP3    H166892   0.032   2.020  14.288 -1.1272  2.3819  2.1453
15159TIP3    H266893   0.039   2.043  14.438 -0.4514 -1.9273  2.9135
15160TIP3   OH266894   5.096   0.357   0.149  0.1665  0.1220 -0.0357
15160TIP3    H166895   5.171   0.384   0.202  1.7572 -0.4051 -1.9012
15160TIP3    H266896   5.082   0.429   0.088  0.1565 -0.4117 -0.6860
15161TIP3   OH266897   2.912   5.626   3.079 -0.6049  0.2325  0.8079
15161TIP3    H166898   2.844   5.621   3.146 -1.2330  0.6032  0.2051
15161TIP3    H266899   2.896   5.550   3.023 -1.1086  0.8258  0.1285
15162TIP3   OH266900   6.346   1.229  16.960 -0.3070  0.4149  0.5626
15162TIP3    H166901   6.295   1.308  16.980 -0.3031  0.4114  0.5860
15162TIP3    H266902   6.369   1.238  16.867 -3.1021 -1.1024 -0.3892
15163TIP3   OH266903   4.769   5.939   3.690  0.6472  0.0287  0.5960
15163TIP3    H166904   4.858   5.917   3.661  0.1394 -0.8223 -0.3707
15163TIP3    H266905   4.720   5.953   3.609 -0.1496  0.3110  1.1199
15164TIP3   OH266906   4.473   6.266  17.076  0.5200  0.0415  0.1560
15164TIP3    H166907   4.500   6.279  16.985 -3.2593 -0.8241 -1.2720
15164TIP3    H266908   4.443   6.175  17.079 -2.4535  0.9443  1.2850
15165TIP3   OH266909   2.607   2.107  14.146 -0.3121  0.4097  0.1608
15165TIP3    H166910   2.527   2.114  14.197 -0.4684 -1.5397  0.2513
15165TIP3    H266911   2.655   2.188  14.165 -2.4061  1.8258 -0.2353
15166TIP3   OH266912   4.500   0.091   0.594  0.0650 -0.2538 -0.6212
15166TIP3    H166913   4.474   0.175   0.558 -3.4425 -1.4684 -1.3680
15166TIP3    H266914   4.417   0.048   0.617  1.6242 -3.6366 -0.6646
15167TIP3   OH266915   6.282   4.728   6.586  0.5292 -0.6000 -0.1466
15167TIP3    H166916   6.273   4.810   6.538  1.9773  0.5508  1.4179
15167TIP3    H266917   6.206   4.724   6.644  0.0783 -0.7521 -0.7387
15168TIP3   OH266918   4.002   1.949  15.962 -0.2109 -0.0857 -0.2064
15168TIP3    H166919   4.014   1.961  16.056  2.0642 -2.1985 -0.1134
15168TIP3    H266920   4.003   1.854  15.950 -0.0863  0.1351 -2.4186
15169TIP3   OH266921   6.455   6.266   1.930 -0.2448  0.3125  0.1004
15169TIP3    H166922   6.429   6.242   2.019 -1.2554 -1.8404 -0.6925
15169TIP3    H266923   6.474   6.182   1.887 -0.8069  1.1958 -2.0060
15170TIP3   OH266924   1.174   0.143   1.695  0.1426 -0.2779 -0.2619
15170TIP3    H166925   1.108   0.145   1.764 -0.0097 -1.2713 -0.3600
15170TIP3    H266926   1.257   0.149   1.743 -0.0050  0.6334 -0.1147
15171TIP3   OH266927   0.269   4.471   4.391  0.2113 -0.4305  0.3278
15171TIP3    H166928   0.175   4.487   4.385 -0.1172 -1.3813  2.1336
15171TIP3    H266929   0.296   4.450   4.302 -1.4187 -0.7808 -0.1190
15172TIP3   OH266930   3.107   2.821   5.609  1.0543 -0.4914  0.6503
15172TIP3    H166931   3.151   2.905   5.618  1.3231 -0.6175  0.5077
15172TIP3    H266932   3.025   2.831   5.658 -0.5316  0.9760 -2.0635
15173TIP3   OH266933   4.705   5.272  13.072 -0.0615  0.3363 -0.2815
15173TIP3    H166934   4.741   5.350  13.115 -0.7268  0.3270  0.3125
15173TIP3    H266935   4.659   5.225  13.141  0.6839 -0.8168 -0.5435
15174TIP3   OH266936   5.453   2.973   5.719 -0.0722  0.0063 -0.2776
15174TIP3    H166937   5.484   2.909   5.654 -2.8230 -0.4591 -1.2312
15174TIP3    H266938   5.427   2.920   5.794  0.1323  0.2825 -0.0063
15175TIP3   OH266939   5.803   0.317  13.226 -0.3609  0.3435  0.1556
15175TIP3    H166940   5.743   0.380  13.187 -0.5976 -0.9659 -1.7428
15175TIP3    H266941   5.871   0.304  13.159  0.4037 -0.4089  1.0481
15176TIP3   OH266942   1.443   5.314   6.206  0.6796 -0.8821  0.3321
15176TIP3    H166943   1.372   5.321   6.142  1.3123  1.5446 -0.1862
15176TIP3    H266944   1.493   5.238   6.177  0.3525 -0.4634 -1.4587
15177TIP3   OH266945   0.763   0.774   3.649 -0.0919  0.1208 -0.5030
15177TIP3    H166946   0.726   0.800   3.733  1.3777  2.0522 -0.3832
15177TIP3    H266947   0.712   0.824   3.584  0.6172  0.8301 -0.5251
15178TIP3   OH266948   6.710   2.555   0.337 -0.1354 -0.7766 -0.4401
15178TIP3    H166949   6.708   2.623   0.270  0.4759  0.2372  0.5260
15178TIP3    H266950   6.630   2.505   0.323 -0.8659  0.4541 -0.8678
15179TIP3   OH266951   2.004   1.892  13.854 -0.1928  0.5771  0.2378
15179TIP3    H166952   2.018   1.822  13.790  1.4710  2.4430 -1.5778
15179TIP3    H266953   1.917   1.875  13.890 -0.1838 -1.9033 -0.7508
15180TIP3   OH266954   6.256   1.022   1.612 -0.9780 -0.0822 -0.3524
15180TIP3    H166955   6.162   1.042   1.605 -0.7336  0.6166 -2.1669
15180TIP3    H266956   6.277   0.978   1.530  0.5966  1.1795 -0.6657
15181TIP3   OH266957   6.476   3.634  16.484 -0.2613 -0.3964  0.4899
15181TIP3    H166958   6.462   3.668  16.395  1.5891 -1.4532 -0.2620
15181TIP3    H266959   6.487   3.712  16.538 -2.6423  0.3064  0.0781
15182TIP3   OH266960   6.588   1.076   1.911 -0.0978  0.4299 -0.1119
15182TIP3    H166961   6.504   1.031   1.905  0.7242 -1.2144 -0.0736
15182TIP3    H266962   6.580   1.151   1.852 -1.5939  0.3469 -0.0471
15183TIP3   OH266963   5.680   2.263   3.560 -0.0466  0.0378  0.2797
15183TIP3    H166964   5.615   2.277   3.628 -1.2414 -1.1426 -0.5617
15183TIP3    H266965   5.756   2.227   3.606  0.1280  1.6230  1.3042
15184TIP3   OH266966   3.211   0.523  17.223  0.4657  0.6316 -0.1607
15184TIP3    H166967   3.274   0.500  17.291  0.6586  3.0310  0.5438
15184TIP3    H266968   3.126   0.497  17.258  0.5153  2.1971  1.2257
15185TIP3   OH266969   5.589   2.552   0.802 -0.2495  0.1160  0.0519
15185TIP3    H166970   5.543   2.577   0.882 -1.6836  1.8979 -1.2227
15185TIP3    H266971   5.532   2.487   0.761 -1.2875  1.6555 -1.0817
15186TIP3   OH266972   0.050   5.224   4.063 -0.0784  0.4683  0.2257
15186TIP3    H166973   0.011   5.175   4.135 -1.6159 -0.7005 -1.3290
15186TIP3    H266974   0.073   5.309   4.102  1.2898 -0.8920  2.6162
15187TIP3   OH266975   0.808   0.948   3.396 -0.1279  0.0098 -0.1721
15187TIP3    H166976   0.826   0.854   3.391 -0.3662 -0.1455  1.4030
15187TIP3    H266977   0.718   0.954   3.428 -0.3971  0.7935 -1.0279
15188TIP3   OH266978   2.202   6.334   5.942  0.3294 -0.0794  0.4971
15188TIP3    H166979   2.112   6.319   5.971  0.2254  1.0247  0.7799
15188TIP3    H266980   2.193   6.387   5.863  0.7505  0.6042  0.9032
15189TIP3   OH266981   0.583   2.680  13.354 -0.2179 -0.1554  0.1108
15189TIP3    H166982   0.617   2.748  13.412 -0.3978 -0.3900  0.4907
15189TIP3    H266983   0.578   2.723  13.268 -1.9229  0.8507  0.6490
15190TIP3   OH266984   0.778   6.527   0.544 -0.3477 -0.4669 -0.5093
15190TIP3    H166985   0.801   6.619   0.560  1.2363 -1.0387  0.8453
15190TIP3    H266986   0.685   6.529   0.522 -0.7378  1.3091  1.0323
15191TIP3   OH266987   0.316   3.287  15.412  0.1966 -0.1767  0.2351
15191TIP3    H166988   0.299   3.334  15.494  1.4422  0.5283  0.1151
15191TIP3    H266989   0.379   3.342  15.365  0.6046 -1.2696 -0.5508
15192TIP3   OH266990   4.827   0.059  13.461  0.2885 -0.4815  0.2905
15192TIP3    H166991   4.884   0.129  13.492 -0.2063 -0.4544  1.1598
15192TIP3    H266992   4.877   0.016  13.391  1.9605 -1.3180  1.9239
15193TIP3   OH266993   0.563   0.758   1.854 -0.2999 -0.7716  0.1643
15193TIP3    H166994   0.472   0.786   1.864  0.2896  1.2795  0.2629
15193TIP3    H266995   0.564   0.708   1.773 -1.7569 -2.1090  0.9081
15194TIP3   OH266996   3.169   5.446   5.108 -0.6511 -0.7710  0.0370
15194TIP3    H166997   3.108   5.508   5.149 -1.1310 -1.8439  0.9851
15194TIP3    H266998   3.114   5.375   5.077 -0.0066 -1.1699 -0.2035
15195TIP3   OH266999   0.520   6.145   6.168  0.4613 -0.4586  0.0785
15195TIP3    H167000   0.534   6.172   6.258 -0.9704 -1.0920  0.5212
15195TIP3    H267001   0.465   6.214   6.130 -0.4443 -1.0717  0.2417
15196TIP3   OH267002   2.471   5.440  16.191 -0.5370 -0.1813  0.1890
15196TIP3    H167003   2.437   5.507  16.252 -0.9300 -0.3841  0.1932
15196TIP3    H267004   2.537   5.487  16.140 -1.2288  0.3717 -0.2159
15197TIP3   OH267005   0.400   0.186  13.059  0.4727 -0.1361 -0.0736
15197TIP3    H167006   0.309   0.202  13.086  1.0209  1.6668  0.9138
15197TIP3    H267007   0.393   0.153  12.970 -1.2411 -2.2463  0.7527
15198TIP3   OH267008   2.509   3.892   3.915 -0.0296 -0.4224 -0.3164
15198TIP3    H167009   2.553   3.894   4.000 -0.4781  0.5303 -0.0928
15198TIP3    H267010   2.544   3.969   3.869 -0.3305 -0.5249 -0.7217
15199TIP3   OH267011   4.945   1.127  15.656  0.3346  0.3948 -0.3481
15199TIP3    H167012   4.962   1.216  15.626  0.2320  0.1844 -1.0414
15199TIP3    H267013   4.973   1.071  15.583  0.4597 -0.1463  0.1040
15200TIP3   OH267014   5.131   6.254  11.953 -0.3700  0.2093  0.4482
15200TIP3    H167015   5.197   6.225  11.890 -1.5918 -0.4185 -0.6195
15200TIP3    H267016   5.048   6.239  11.908 -1.2003  3.6178  0.5998
15201TIP3   OH267017   5.481   0.470  12.541  0.0864 -0.5396  0.4513
15201TIP3    H167018   5.560   0.523  12.534 -1.3689  1.6135 -0.7099
15201TIP3    H267019   5.409   0.533  12.539 -1.7185 -2.4798  0.3783
15202TIP3   OH267020   6.212   6.294   0.317  0.0185  0.2802  0.2352
15202TIP3    H167021   6.291   6.311   0.264  0.9851  0.5050  1.6863
15202TIP3    H267022   6.218   6.358   0.388 -0.0580 -1.4306  1.8555
15203TIP3   OH267023   5.558   4.063  13.143 -0.1938 -0.1515  0.3635
15203TIP3    H167024   5.476   4.040  13.101  0.3476  0.2927 -0.9993
15203TIP3    H267025   5.618   3.991  13.121  0.3940  0.5957 -0.5716
15204TIP3   OH267026   5.401   5.090   1.134 -0.6610  0.2167 -0.3480
15204TIP3    H167027   5.372   4.999   1.136 -0.4138  0.1435 -0.0661
15204TIP3    H267028   5.384   5.119   1.045  0.9411 -0.6406 -0.9581
15205TIP3   OH267029   6.093   5.886  13.201  0.2715  0.3903  0.0513
15205TIP3    H167030   6.087   5.856  13.111 -0.9798  0.9146 -0.0624
15205TIP3    H267031   6.005   5.872  13.237  0.0902  2.3186  0.4803
15206TIP3   OH267032   5.353   0.084  17.158  0.2657  0.2196  0.4724
15206TIP3    H167033   5.346   0.176  17.131 -1.1926  0.1494  0.4865
15206TIP3    H267034   5.319   0.083  17.247 -1.0416 -0.5006  0.0077
15207TIP3   OH267035   3.340   3.356  11.479 -0.3924 -0.3221 -0.2158
15207TIP3    H167036   3.362   3.435  11.429 -0.6880  0.9426  1.5613
15207TIP3    H267037   3.281   3.307  11.421 -2.8862  2.3591 -0.2060
15208TIP3   OH267038   6.316   1.653  14.702 -0.5075 -0.1933  0.2006
15208TIP3    H167039   6.284   1.592  14.769 -2.5254  0.8283  0.2530
15208TIP3    H267040   6.369   1.716  14.750 -0.9399 -0.1716  0.6614
15209TIP3   OH267041   4.689   2.626   6.085  0.1095 -0.1707  0.0824
15209TIP3    H167042   4.688   2.607   5.992 -1.5592 -2.1114  0.4312
15209TIP3    H267043   4.605   2.670   6.101 -0.2995 -1.1971  0.8771
15210TIP3   OH267044   4.400   3.978   2.772 -0.3644  0.2251 -0.3912
15210TIP3    H167045   4.480   3.983   2.824 -0.8062  0.8678  0.2485
15210TIP3    H267046   4.339   4.037   2.816 -1.0605  0.0561 -1.1032
15211TIP3   OH267047   4.162   3.985   6.217 -0.1466 -0.3055  0.7631
15211TIP3    H167048   4.116   3.916   6.264 -3.0005  0.1190 -1.1875
15211TIP3    H267049   4.115   4.065   6.238  0.2286  0.3119 -0.6457
15212TIP3   OH267050   6.596   1.847  14.530  0.0337 -0.3358 -0.9838
15212TIP3    H167051   6.655   1.906  14.483  2.0340  0.2234  1.9675
15212TIP3    H267052   6.653   1.785  14.574 -1.6748 -0.8898  0.6045
15213TIP3   OH267053   1.819   1.087   2.197  0.6073  0.5104  0.5299
15213TIP3    H167054   1.727   1.090   2.223  0.4192 -1.2514  0.1729
15213TIP3    H267055   1.828   1.157   2.133 -0.6412  0.3279  0.1281
15214TIP3   OH267056   2.668   0.940  14.400 -0.3692 -0.1742 -0.3953
15214TIP3    H167057   2.707   0.956  14.486  2.2695 -1.0680 -1.3267
15214TIP3    H267058   2.691   1.017  14.349  0.0497 -0.6418 -0.9180
15215TIP3   OH267059   4.628   5.715  15.523 -0.0813  0.0958 -0.3432
15215TIP3    H167060   4.698   5.748  15.466 -0.1369  0.6185 -0.1128
15215TIP3    H267061   4.671   5.693  15.605  0.1586 -1.5338 -0.8748
15216TIP3   OH267062   5.728   2.578   5.788 -0.0389 -0.0988  0.5123
15216TIP3    H167063   5.701   2.612   5.703  0.5006 -1.1269 -0.0856
15216TIP3    H267064   5.660   2.515   5.811 -0.2890  0.3223  0.9457
15217TIP3   OH267065   1.909   5.519   4.446  0.4012  0.1223  0.1633
15217TIP3    H167066   1.988   5.571   4.461  1.4035 -1.5262  0.8887
15217TIP3    H267067   1.937   5.449   4.387 -0.9463  0.4663 -0.9091
15218TIP3   OH267068   1.617   6.514   3.527  0.4774  0.2382 -0.3885
15218TIP3    H167069   1.593   6.534   3.437 -1.2663  0.9645  0.1875
15218TIP3    H267070   1.577   6.429   3.545  0.9143  0.0425 -0.3431
15219TIP3   OH267071   5.630   4.663   5.396 -0.1895  0.2076 -0.5351
15219TIP3    H167072   5.568   4.624   5.333 -0.6226 -1.1633  0.6779
15219TIP3    H267073   5.706   4.685   5.343 -0.9475  0.0848 -1.7281
15220TIP3   OH267074   6.460   5.188   5.864 -0.7726  0.0288 -0.6951
15220TIP3    H167075   6.478   5.106   5.818  0.5899 -0.6699  0.9510
15220TIP3    H267076   6.472   5.256   5.798 -0.1109 -0.9996 -1.6704
15221TIP3   OH267077   6.003   5.814  12.962  0.1373  0.2228  0.6518
15221TIP3    H167078   6.002   5.882  12.894 -1.5450  0.2701  0.7018
15221TIP3    H267079   6.028   5.734  12.914  2.1342  0.8109  0.5970
15222TIP3   OH267080   2.006   5.904   1.561 -0.3838 -0.2336 -0.3883
15222TIP3    H167081   2.085   5.888   1.612 -0.6210 -0.4918 -0.0981
15222TIP3    H267082   1.934   5.892   1.623 -0.6863 -0.7954 -0.8431
15223TIP3   OH267083   6.620   0.495  16.413 -0.0216  0.0927  0.1907
15223TIP3    H167084   6.702   0.506  16.365  0.7821 -1.0086  1.2472
15223TIP3    H267085   6.552   0.512  16.349  1.0198 -0.9552 -1.2422
15224TIP3   OH267086   5.462   3.452   0.788  0.6459 -0.1210 -0.6656
15224TIP3    H167087   5.545   3.405   0.795  0.6746 -0.3783 -2.2508
15224TIP3    H267088   5.418   3.411   0.713 -1.3993 -0.7028  0.7725
15225TIP3   OH267089   3.627   5.956   5.725 -0.0933  0.1649 -0.6538
15225TIP3    H167090   3.624   5.967   5.820 -0.0251  0.5201 -0.6923
15225TIP3    H267091   3.667   5.870   5.713  0.5724  0.4269 -0.3740
15226TIP3   OH267092   0.276   3.498   3.785 -0.1862  0.8461  0.3576
15226TIP3    H167093   0.334   3.487   3.710 -0.5540 -0.3464  0.2282
15226TIP3    H267094   0.333   3.485   3.861 -0.1138  0.5273  0.2501
15227TIP3   OH267095   3.122   4.670   4.685 -0.1549 -0.0375 -0.0291
15227TIP3    H167096   3.204   4.624   4.703  1.8514  1.1398 -4.5824
15227TIP3    H267097   3.070   4.608   4.634 -0.8171  0.2315  0.3038
15228TIP3   OH267098   3.603   0.998  17.309 -0.2413 -0.0475  0.0980
15228TIP3    H167099   3.565   1.068  17.362 -0.7022 -1.6149  1.9428
15228TIP3    H267100   3.540   0.986  17.237 -1.3719 -0.1361  1.0667
15229TIP3   OH267101   4.220   6.529  12.554 -0.2895  0.2163  0.1958
15229TIP3    H167102   4.218   6.624  12.567 -0.2405  0.4067 -1.1184
15229TIP3    H267103   4.255   6.495  12.637  2.9842  1.6131 -0.4533
15230TIP3   OH267104   1.802   4.227   0.689 -0.2543  0.1119 -0.1588
15230TIP3    H167105   1.767   4.176   0.762 -0.5719 -0.2102 -0.5322
15230TIP3    H267106   1.725   4.258   0.642 -0.0984  1.9586  0.7454
15231TIP3   OH267107   4.655   5.731  15.067 -0.5457  0.0662  0.0120
15231TIP3    H167108   4.652   5.747  14.973 -2.0381 -0.2725 -0.0284
15231TIP3    H267109   4.609   5.806  15.106  0.0754  0.2135  0.4792
15232TIP3   OH267110   6.328   2.905  16.479 -0.2980 -0.2992  0.0811
15232TIP3    H167111   6.410   2.866  16.509 -0.1490 -0.0517  0.0027
15232TIP3    H267112   6.261   2.843  16.506  0.0238 -1.1395 -1.0009
15233TIP3   OH267113   5.870   1.382   6.285  0.9028  0.5779 -0.7606
15233TIP3    H167114   5.924   1.345   6.355 -1.6620 -1.2128  0.4156
15233TIP3    H267115   5.890   1.476   6.288 -0.1871  0.9152  3.5920
15234TIP3   OH267116   3.471   2.025   4.427  0.4913 -1.1411  0.4417
15234TIP3    H167117   3.441   2.036   4.337  0.0517 -0.4003  0.6717
15234TIP3    H267118   3.541   2.090   4.437 -1.1597  0.5671  1.3798
15235TIP3   OH267119   4.309   3.578   4.972  0.0903  0.1134  0.4275
15235TIP3    H167120   4.368   3.623   5.032 -1.1820  1.4325  0.7471
15235TIP3    H267121   4.295   3.639   4.901 -0.5536 -0.3497  0.1463
15236TIP3   OH267122   4.049   1.096   2.328 -0.0055 -0.1787  0.6025
15236TIP3    H167123   4.015   1.155   2.396  1.0719  0.3601  0.7046
15236TIP3    H267124   4.068   1.153   2.254  1.8144 -0.2347  0.9858
15237TIP3   OH267125   6.155   0.084  13.634 -0.4544 -0.7814 -0.2199
15237TIP3    H167126   6.184   0.135  13.710  1.7764  0.9378 -2.0661
15237TIP3    H267127   6.212   0.007  13.634  1.9811  0.8773 -1.8884
15238TIP3   OH267128   4.762   2.878   4.530  0.2966 -0.0081  0.4275
15238TIP3    H167129   4.688   2.935   4.513 -0.0967 -0.4334  0.6755
15238TIP3    H267130   4.723   2.799   4.567  0.5411 -1.5227 -2.2762
15239TIP3   OH267131   5.197   0.957   2.380 -0.0232  0.0413  0.1773
15239TIP3    H167132   5.229   0.869   2.401 -2.8489 -0.7115  1.8372
15239TIP3    H267133   5.228   1.011   2.452 -0.2478 -0.1260  0.4036
15240TIP3   OH267134   5.453   4.299  16.084  0.8145  0.5859 -0.8358
15240TIP3    H167135   5.390   4.331  16.019  0.2540 -0.1727 -0.6800
15240TIP3    H267136   5.460   4.370  16.148 -3.4663 -0.9150  1.7062
15241TIP3   OH267137   4.344   4.566  16.880  0.1360 -0.4202  0.6118
15241TIP3    H167138   4.308   4.478  16.868 -0.2367 -0.2544  0.4879
15241TIP3    H267139   4.268   4.624  16.872  0.5770  0.0228 -0.8284
15242TIP3   OH267140   0.580   0.782  13.305  0.1366  0.4162  0.4787
15242TIP3    H167141   0.520   0.745  13.369 -1.3138  0.5989 -0.7145
15242TIP3    H267142   0.539   0.864  13.278 -0.3306 -0.5158 -2.0147
15243TIP3   OH267143   0.166   4.383   2.033  0.0320  0.0873  0.1167
15243TIP3    H167144   0.144   4.472   2.060  0.6468 -0.0641  1.2096
15243TIP3    H267145   0.226   4.352   2.101 -0.5528 -1.3312  0.0228
15244TIP3   OH267146   1.406   3.404  13.684 -0.0534  0.6075  0.9001
15244TIP3    H167147   1.428   3.311  13.688 -2.2506 -0.0337 -0.1703
15244TIP3    H267148   1.380   3.427  13.773 -1.4930 -0.4157  0.7886
15245TIP3   OH267149   3.972   6.104  15.246  0.5172  0.3033  0.8921
15245TIP3    H167150   3.974   6.199  15.235  0.4119  0.2785  0.6370
15245TIP3    H267151   3.952   6.090  15.338 -1.5518  0.5358  0.5282
15246TIP3   OH267152   5.982   1.331   4.830 -0.2386  0.1845  0.6370
15246TIP3    H167153   5.888   1.320   4.814  0.1923 -1.8126 -0.8696
15246TIP3    H267154   6.019   1.347   4.743  1.0264 -0.9585  0.9361
15247TIP3   OH267155   1.567   3.779  13.847  0.4157 -0.0086 -0.1829
15247TIP3    H167156   1.638   3.720  13.823  0.1908  0.1995 -1.4491
15247TIP3    H267157   1.489   3.723  13.849  0.8303 -0.6294  3.0790
15248TIP3   OH267158   2.469   2.722   1.848  0.3356  0.2860 -0.3634
15248TIP3    H167159   2.527   2.793   1.820  4.0045 -2.5009 -0.5050
15248TIP3    H267160   2.470   2.660   1.775 -2.6712 -0.1037 -0.2060
15249TIP3   OH267161   1.908   4.661  14.312  0.1015  0.1924 -0.1178
15249TIP3    H167162   1.823   4.617  14.318 -1.2469  2.4278 -1.4364
15249TIP3    H267163   1.930   4.658  14.219  1.2520  0.0880  0.1372
15250TIP3   OH267164   5.360   6.188   0.802  0.4009  0.0283 -0.2201
15250TIP3    H167165   5.298   6.194   0.729  0.0001 -0.1592  0.1059
15250TIP3    H267166   5.435   6.240   0.773  0.1314  0.1829 -0.6539
15251TIP3   OH267167   6.387   1.227  11.484 -0.1989  0.1206  0.0883
15251TIP3    H167168   6.464   1.282  11.488  0.6407 -1.0644  1.0363
15251TIP3    H267169   6.414   1.150  11.435 -1.7417  1.0630 -2.4370
15252TIP3   OH267170   5.578   1.133  17.224  0.1251  0.3090  0.3985
15252TIP3    H167171   5.633   1.160  17.297 -0.0640  0.5083  0.4683
15252TIP3    H267172   5.509   1.081  17.264  1.5426 -1.9694  0.0855
15253TIP3   OH267173   1.462   3.377  11.364 -0.4996  0.3905  0.0124
15253TIP3    H167174   1.533   3.314  11.372 -1.4161 -0.8507 -1.0568
15253TIP3    H267175   1.386   3.332  11.401 -1.5762  0.1001 -2.3865
15254TIP3   OH267176   0.871   6.127  13.988 -0.0001 -0.2901 -0.1756
15254TIP3    H167177   0.835   6.050  13.944 -1.9309  0.4952 -0.0797
15254TIP3    H267178   0.800   6.159  14.044  1.3632  0.5120  1.2080
15255TIP3   OH267179   0.157   4.267  15.473 -0.1533 -0.3294 -0.3244
15255TIP3    H167180   0.094   4.251  15.401 -0.2764 -1.3310 -0.0062
15255TIP3    H267181   0.224   4.323  15.434 -1.4173  1.0653 -0.5800
15256TIP3   OH267182   6.339   3.833   0.906  0.2878 -0.4393 -0.2851
15256TIP3    H167183   6.369   3.826   0.815  2.3481 -0.0326  0.3040
15256TIP3    H267184   6.347   3.743   0.940 -0.3269 -0.5590 -0.4407
15257TIP3   OH267185   4.004   4.748  15.969  0.6721 -0.2773 -0.0814
15257TIP3    H167186   3.947   4.719  15.897 -0.7672  0.5400  0.6697
15257TIP3    H267187   3.957   4.722  16.048 -0.0914  2.7872  0.6188
15258TIP3   OH267188   1.163   5.224   0.962 -0.0029  0.4298  0.5661
15258TIP3    H167189   1.253   5.255   0.970  1.0159 -2.4598  1.5490
15258TIP3    H267190   1.118   5.258   1.039  0.9636 -0.1504  1.3997
15259TIP3   OH267191   0.713   3.854   4.947 -0.4053 -0.1746 -0.7186
15259TIP3    H167192   0.704   3.823   5.037  1.1723 -2.5906 -1.3076
15259TIP3    H267193   0.742   3.945   4.956 -1.0985 -0.0887  1.1617
15260TIP3   OH267194   3.132   5.898   5.860 -0.5013  0.2036 -0.1778
15260TIP3    H167195   3.224   5.920   5.876 -0.5806  0.0027  0.5783
15260TIP3    H267196   3.109   5.949   5.782 -0.1110  1.2643  0.3677
15261TIP3   OH267197   4.959   4.646   2.154  0.4364  0.1927 -0.3349
15261TIP3    H167198   4.966   4.644   2.058 -0.0765 -0.1756 -0.3704
15261TIP3    H267199   4.966   4.554   2.180  1.5390  0.3758  0.0611
15262TIP3   OH267200   2.636   4.959  11.305 -0.6258 -0.1536 -0.0051
15262TIP3    H167201   2.548   4.923  11.294 -0.8189 -0.1374  1.3152
15262TIP3    H267202   2.623   5.041  11.351 -0.0097  0.5847 -1.0947
15263TIP3   OH267203   5.297   6.202   5.072 -0.0323  0.3658  0.3438
15263TIP3    H167204   5.334   6.146   5.003 -1.1377  1.4770 -1.2183
15263TIP3    H267205   5.213   6.161   5.092 -0.2684  0.7347  0.1185
15264TIP3   OH267206   5.900   1.501  16.801  0.5481 -0.0373  0.2841
15264TIP3    H167207   5.985   1.528  16.766 -1.2890  3.2262 -2.1849
15264TIP3    H267208   5.910   1.407  16.817  4.6770  0.2609  0.5354
15265TIP3   OH267209   6.127   1.700  10.837  0.5871  0.0787  0.1830
15265TIP3    H167210   6.212   1.716  10.878  1.5391 -3.5319 -0.0489
15265TIP3    H267211   6.070   1.674  10.910  0.6544 -0.7502 -0.0514
15266TIP3   OH267212   1.969   4.301   4.934 -0.2772 -0.2020 -0.2400
15266TIP3    H167213   2.051   4.315   4.887  0.4878 -0.3054  1.0133
15266TIP3    H267214   1.995   4.263   5.017 -1.5057  0.7283  0.6231
15267TIP3   OH267215   2.073   4.927   3.785 -0.9481  0.4652  0.2048
15267TIP3    H167216   2.013   4.852   3.792 -0.7165  0.4324  2.8334
15267TIP3    H267217   2.158   4.887   3.764 -0.6475 -0.2044  2.3780
15268TIP3   OH267218   0.038   6.052   1.926  0.4591 -0.2267 -0.1975
15268TIP3    H167219   0.104   6.061   1.857  0.0448 -1.7522 -0.8332
15268TIP3    H267220   0.024   5.958   1.933  0.5420 -0.1074  2.0510
15269TIP3   OH267221   3.913   6.330  13.940  0.1327 -0.6233 -0.5177
15269TIP3    H167222   3.935   6.255  13.996 -0.5254 -0.3004  0.1941
15269TIP3    H267223   3.941   6.406  13.991 -0.9301 -0.3023 -0.3974
15270TIP3   OH267224   3.327   1.071  11.166 -0.2611  0.8381 -0.1463
15270TIP3    H167225   3.388   0.998  11.176 -0.0031  1.0383 -0.2242
15270TIP3    H267226   3.355   1.135  11.233 -1.1425  0.4289  0.6351
15271TIP3   OH267227   5.054   4.671   5.940  0.6177 -0.0475  0.4275
15271TIP3    H167228   4.960   4.687   5.942  0.9433  2.1256  1.6035
15271TIP3    H267229   5.084   4.712   5.859  0.4891 -1.4646 -0.3728
15272TIP3   OH267230   5.091   2.314  14.637  0.2835 -0.0361 -0.8651
15272TIP3    H167231   5.156   2.364  14.687  0.3032 -0.2399 -0.6820
15272TIP3    H267232   5.111   2.223  14.657 -0.5881 -0.0887 -0.1151
15273TIP3   OH267233   3.860   0.917  15.960 -0.3515 -0.5425 -0.2611
15273TIP3    H167234   3.921   0.844  15.947  0.8782  0.6482 -1.6250
15273TIP3    H267235   3.902   0.972  16.025 -1.3850 -1.1255  0.9328
15274TIP3   OH267236   0.621   0.153  16.681  0.4763  0.4973 -0.4122
15274TIP3    H167237   0.643   0.234  16.635  0.5846 -0.4469 -2.1062
15274TIP3    H267238   0.554   0.112  16.627 -0.2482 -0.1076  0.9122
15275TIP3   OH267239   1.375   1.259   5.669  0.3613  0.5175  0.2242
15275TIP3    H167240   1.327   1.334   5.705 -1.7243 -1.1614  1.1669
15275TIP3    H267241   1.462   1.264   5.709  0.5836  2.8414 -0.3799
15276TIP3   OH267242   4.521   2.695   0.826 -0.4027  0.3593  0.1428
15276TIP3    H167243   4.521   2.681   0.732  2.5006 -0.0425  0.1176
15276TIP3    H267244   4.507   2.790   0.836  2.8932  1.0998 -0.9997
15277TIP3   OH267245   1.647   5.001   5.132 -0.2472  0.0530 -0.2558
15277TIP3    H167246   1.611   5.056   5.202 -1.9396 -0.6180 -0.5463
15277TIP3    H267247   1.613   4.914   5.150  1.8006 -0.7907 -0.2198
15278TIP3   OH267248   0.990   2.981  14.854  0.2734  0.4328 -0.0836
15278TIP3    H167249   0.945   3.048  14.906 -0.1199 -1.3867  2.0768
15278TIP3    H267250   0.920   2.930  14.813  0.4337 -0.4456  0.7014
15279TIP3   OH267251   2.473   4.284  11.895 -0.4573  0.1519  0.4610
15279TIP3    H167252   2.432   4.299  11.980  0.1096 -1.3654  1.0281
15279TIP3    H267253   2.524   4.204  11.906  1.7679  1.3250 -0.5380
15280TIP3   OH267254   4.424   3.687   0.755  0.0084 -0.4501  0.9390
15280TIP3    H167255   4.382   3.677   0.841 -1.6477 -0.1061  0.1908
15280TIP3    H267256   4.465   3.773   0.758 -1.4045  0.2439  0.8395
15281TIP3   OH267257   4.363   4.166   6.746 -0.6863 -0.2222 -0.2390
15281TIP3    H167258   4.420   4.206   6.812 -1.7565 -0.5777  0.9300
15281TIP3    H267259   4.424   4.130   6.681  0.3870  0.3064  0.4319
15282TIP3   OH267260   0.389   0.667  15.720  0.3998 -0.1561 -0.1877
15282TIP3    H167261   0.425   0.739  15.772  1.3695  0.4283 -1.6008
15282TIP3    H267262   0.381   0.703  15.632 -2.4366 -0.7083 -0.2328
15283TIP3   OH267263   4.510   2.423  15.569  0.1054 -0.4553  0.5940
15283TIP3    H167264   4.502   2.330  15.549 -0.5836 -0.3770  0.4665
15283TIP3    H267265   4.434   2.442  15.624 -0.1180  0.1689  0.0841
15284TIP3   OH267266   4.932   6.682   4.872  0.2488  0.0432 -0.3172
15284TIP3    H167267   4.974   6.596   4.875  0.2162 -0.0424 -1.6183
15284TIP3    H267268   4.958   6.718   4.788  2.5121  2.5141  1.3026
15285TIP3   OH267269   1.284   2.052  15.812 -0.1857  0.0125 -0.3109
15285TIP3    H167270   1.283   1.960  15.838  0.2645  0.2957  0.7986
15285TIP3    H267271   1.224   2.057  15.738 -1.4769 -0.8853  0.6292
15286TIP3   OH267272   4.787   3.204   5.637 -0.2213  0.0889  0.0901
15286TIP3    H167273   4.849   3.261   5.592  0.3731  1.1608  2.1003
15286TIP3    H267274   4.830   3.183   5.720 -1.6879 -0.8598  0.6535
15287TIP3   OH267275   1.659   1.876  13.664  0.1632 -0.5716 -0.0911
15287TIP3    H167276   1.712   1.897  13.586 -0.0072 -0.8500 -0.2831
15287TIP3    H267277   1.628   1.787  13.649  0.1974 -0.6591  0.3369
15288TIP3   OH267278   2.982   3.436   2.708 -0.2546  0.0977  0.2596
15288TIP3    H167279   2.889   3.459   2.704  0.1144  1.7137  0.4069
15288TIP3    H267280   3.003   3.404   2.621 -0.9162 -0.1357  0.1844
15289TIP3   OH267281   2.708   0.742   1.900 -0.0549 -0.0126  0.9332
15289TIP3    H167282   2.631   0.764   1.848  1.3094  2.7557 -0.0859
15289TIP3    H267283   2.781   0.748   1.838  1.1265 -1.5425  2.0993
15290TIP3   OH267284   0.421   2.293   2.486 -0.0401  0.0590 -0.0203
15290TIP3    H167285   0.365   2.287   2.409 -0.4191 -0.2805  0.2818
15290TIP3    H267286   0.494   2.235   2.468 -0.6893 -0.8866  0.3479
15291TIP3   OH267287   3.722   5.042   2.962  0.3489 -0.3714  0.6474
15291TIP3    H167288   3.730   5.016   2.871  1.8226  0.2863  0.5481
15291TIP3    H267289   3.709   5.137   2.959 -2.4159 -0.6457  1.0724
15292TIP3   OH267290   0.646   0.528  15.500  0.4824 -0.0207  0.0061
15292TIP3    H167291   0.674   0.541  15.591  0.5629  0.3922 -0.0759
15292TIP3    H267292   0.721   0.490  15.456  0.7426  0.5799 -0.0858
15293TIP3   OH267293   1.676   5.313  11.425  0.1924  0.2186  0.2098
15293TIP3    H167294   1.696   5.219  11.420  1.1439  0.2800  2.0654
15293TIP3    H267295   1.637   5.324  11.511 -0.4938  1.4555 -0.2434
15294TIP3   OH267296   3.591   4.282   2.444  0.1179  0.0158  0.1362
15294TIP3    H167297   3.560   4.210   2.498  2.3079 -0.6683  0.5544
15294TIP3    H267298   3.517   4.343   2.441 -0.5991 -0.6296  2.6127
15295TIP3   OH267299   1.074   2.174   0.548  0.0650 -0.5680 -0.4833
15295TIP3    H167300   1.032   2.259   0.535  1.6062  0.1926 -0.7185
15295TIP3    H267301   1.140   2.169   0.480 -0.1388 -2.0830 -0.6096
15296TIP3   OH267302   1.354   4.533   3.721 -0.1340  0.4089  0.4882
15296TIP3    H167303   1.426   4.576   3.767  1.0871 -0.1961 -0.7930
15296TIP3    H267304   1.338   4.453   3.770  0.3583  0.3395  0.5348
15297TIP3   OH267305   0.129   4.947   5.419  0.0074 -0.1693 -0.8659
15297TIP3    H167306   0.098   4.969   5.507 -1.3005 -0.4853 -1.2296
15297TIP3    H267307   0.157   5.031   5.382 -1.6568  0.3699 -0.9795
15298TIP3   OH267308   2.503   2.604   4.881 -0.1503  0.9608  0.1828
15298TIP3    H167309   2.417   2.574   4.852 -0.0635 -1.1219  1.8982
15298TIP3    H267310   2.543   2.642   4.802 -1.4993 -0.6841 -1.3703
15299TIP3   OH267311   5.383   1.593   5.821  0.0386  0.1718 -0.4052
15299TIP3    H167312   5.347   1.665   5.872  0.1281 -0.4980  0.6443
15299TIP3    H267313   5.444   1.634   5.759  0.3154  0.9587  0.3799
15300TIP3   OH267314   2.722   6.408  16.887  0.3870  0.3439 -0.2087
15300TIP3    H167315   2.691   6.362  16.964 -0.0461 -0.3020 -0.7628
15300TIP3    H267316   2.814   6.426  16.905  0.1647  0.6741  0.6749
15301TIP3   OH267317   2.659   2.823  12.595  0.1531 -0.5021  0.0582
15301TIP3    H167318   2.618   2.854  12.676 -0.1645 -0.6726 -0.0351
15301TIP3    H267319   2.658   2.898  12.536 -0.0995 -0.5290  0.0279
15302TIP3   OH267320   5.959   6.634  14.903  0.5290  0.4377 -0.1179
15302TIP3    H167321   6.024   6.564  14.903 -0.3195 -0.4019 -1.7792
15302TIP3    H267322   5.947   6.656  14.811  0.4273  2.4725  0.3403
15303TIP3   OH267323   0.625   1.596  13.131 -0.3552 -0.4197 -0.6111
15303TIP3    H167324   0.573   1.518  13.149 -0.9514  0.2469  0.7006
15303TIP3    H267325   0.560   1.666  13.120  0.1562  0.8605  3.0274
15304TIP3   OH267326   0.284   0.805  14.885  0.2214 -0.5904 -0.0872
15304TIP3    H167327   0.271   0.857  14.964  0.5169  0.8571 -0.9563
15304TIP3    H267328   0.376   0.778  14.888  0.1882 -0.6845  0.1329
15305TIP3   OH267329   5.596   3.615  15.204 -0.5557 -0.1472  0.0034
15305TIP3    H167330   5.676   3.650  15.165 -0.3586 -0.7220 -0.1187
15305TIP3    H267331   5.598   3.646  15.294 -0.9168  1.0316 -0.3712
15306TIP3   OH267332   5.928   6.555  13.473 -0.0772  0.2256  0.5111
15306TIP3    H167333   6.012   6.589  13.443 -1.1767  1.7356 -1.0624
15306TIP3    H267334   5.904   6.488  13.409 -0.3412  0.2091  0.6256
15307TIP3   OH267335   5.811   1.137   6.054 -0.0800 -0.4033  0.2193
15307TIP3    H167336   5.728   1.149   6.100 -1.3702 -0.6531 -1.9083
15307TIP3    H267337   5.859   1.219   6.070 -0.7419 -0.2111  1.3967
15308TIP3   OH267338   5.644   0.971  10.852 -0.1130 -0.4657 -0.3232
15308TIP3    H167339   5.718   0.920  10.884 -0.5262 -1.4781 -0.9473
15308TIP3    H267340   5.641   1.048  10.909  0.4372 -1.1950  0.7152
15309TIP3   OH267341   4.495   4.805   2.971  0.5360  0.1802  0.0924
15309TIP3    H167342   4.485   4.892   3.008  1.4562 -0.0413  0.9041
15309TIP3    H267343   4.586   4.780   2.992  0.2863 -0.9665 -0.1166
15310TIP3   OH267344   2.944   4.294  13.850  0.0336  0.4742 -0.4627
15310TIP3    H167345   3.019   4.352  13.866  0.5963 -0.3110 -0.1867
15310TIP3    H267346   2.914   4.270  13.938 -0.8757  1.1893 -0.5645
15311TIP3   OH267347   3.888   3.778   1.353 -0.0886 -0.2097  0.0587
15311TIP3    H167348   3.872   3.684   1.359 -0.3601 -0.3045 -1.6618
15311TIP3    H267349   3.983   3.785   1.343  0.1018 -0.1823  1.6320
15312TIP3   OH267350   1.686   6.369   0.734  0.0187  0.4364 -0.1896
15312TIP3    H167351   1.629   6.341   0.805  1.0496  1.0466  0.9128
15312TIP3    H267352   1.715   6.287   0.693 -0.5856  0.0767  0.0956
15313TIP3   OH267353   4.600   4.415   1.542 -0.1996  0.3229  0.1883
15313TIP3    H167354   4.528   4.477   1.554 -1.5571 -1.2653  0.5918
15313TIP3    H267355   4.679   4.465   1.565 -1.2780  1.7566  0.9303
15314TIP3   OH267356   6.039   0.526  14.527  0.2002 -0.2860 -0.0896
15314TIP3    H167357   6.005   0.529  14.437  0.1647 -1.4800 -0.1346
15314TIP3    H267358   6.130   0.500  14.517  0.4016  0.3109  0.1847
15315TIP3   OH267359   5.394   0.719   3.716 -0.4116  0.0768 -0.4020
15315TIP3    H167360   5.351   0.667   3.648 -1.6867  0.8382 -0.2316
15315TIP3    H267361   5.335   0.794   3.729 -0.3175 -0.1583  1.6939
15316TIP3   OH267362   1.205   4.091   3.800  0.1349 -0.6464 -0.0704
15316TIP3    H167363   1.238   4.019   3.853  0.9540 -2.5436 -2.9510
15316TIP3    H267364   1.110   4.088   3.812  0.2226 -1.6837  0.4773
15317TIP3   OH267365   4.928   3.193   1.213  0.2679 -0.0217  0.0660
15317TIP3    H167366   4.834   3.200   1.194  0.5522  1.7576 -0.8229
15317TIP3    H267367   4.967   3.165   1.130  0.3910 -2.4671  0.8631
15318TIP3   OH267368   2.729   5.648   5.760 -0.8651  0.1012  0.3716
15318TIP3    H167369   2.693   5.595   5.689 -2.4544 -1.4241  2.1902
15318TIP3    H267370   2.715   5.739   5.732 -0.3259 -0.4202 -1.7472
15319TIP3   OH267371   3.977   0.934   6.567  0.0811  0.9522 -0.2204
15319TIP3    H167372   4.005   0.847   6.539 -1.3243  0.2153  0.5509
15319TIP3    H267373   3.886   0.923   6.592  0.7846  1.8316  3.2645
15320TIP3   OH267374   0.754   4.213   0.974  0.2727  0.3461  0.8007
15320TIP3    H167375   0.702   4.172   1.043  0.6898 -1.0949  0.2950
15320TIP3    H267376   0.797   4.287   1.017  2.1907 -1.7136  2.6922
15321TIP3   OH267377   2.501   3.072  12.346  0.5282 -0.1712  0.0708
15321TIP3    H167378   2.549   3.028  12.277  0.5384 -0.7838  0.4640
15321TIP3    H267379   2.566   3.090  12.414  0.1013 -1.6123  0.9003
15322TIP3   OH267380   5.993   1.598  16.111 -0.6361 -0.1288 -0.1388
15322TIP3    H167381   6.037   1.651  16.177 -0.0930  1.7958 -1.9424
15322TIP3    H267382   5.978   1.658  16.037 -3.1690 -1.6022 -0.9615
15323TIP3   OH267383   1.157   1.837   3.997  0.4161 -0.4493 -0.0687
15323TIP3    H167384   1.220   1.764   3.999 -1.3927 -2.1327 -0.7446
15323TIP3    H267385   1.105   1.825   4.077 -0.2346 -0.2398 -0.4558
15324TIP3   OH267386   6.408   4.019  15.330  0.5781 -0.0346  0.0774
15324TIP3    H167387   6.381   4.008  15.421  1.8424  3.0940  0.9999
15324TIP3    H267388   6.335   4.064  15.288  0.3015 -0.7942 -0.2705
15325TIP3   OH267389   5.447   6.476  15.347  0.0366 -0.6108 -0.5177
15325TIP3    H167390   5.393   6.548  15.316 -0.8695 -0.2645  1.6478
15325TIP3    H267391   5.405   6.448  15.428  2.8603 -0.5820  1.1090
15326TIP3   OH267392   1.649   6.152  12.568  0.1484 -0.2817 -0.3568
15326TIP3    H167393   1.668   6.185  12.656  0.1615 -3.2055  0.8600
15326TIP3    H267394   1.708   6.201  12.511  0.3164  1.5345  1.2643
15327TIP3   OH267395   1.360   5.981  16.524 -0.5963 -0.8114 -0.2522
15327TIP3    H167396   1.399   5.927  16.456 -1.0321 -0.4651 -0.7840
15327TIP3    H267397   1.423   6.052  16.538 -0.6272 -0.7365 -0.4869
15328TIP3   OH267398   0.291   1.864  14.395 -0.5047  0.4171  0.1411
15328TIP3    H167399   0.275   1.769  14.396 -0.1202  0.1153 -4.1567
15328TIP3    H267400   0.204   1.903  14.398 -0.7412 -0.1225  0.4543
15329TIP3   OH267401   3.433   2.865  15.649  0.2102 -0.1711 -0.3880
15329TIP3    H167402   3.401   2.775  15.649 -2.7755  0.6927 -3.1123
15329TIP3    H267403   3.499   2.868  15.580 -0.1266 -0.1632 -0.7117
15330TIP3   OH267404   6.083   0.105   6.187  0.0447 -0.1946 -0.6020
15330TIP3    H167405   6.081   0.200   6.200 -1.0262 -0.3424  0.5098
15330TIP3    H267406   6.013   0.088   6.124  0.4134 -0.2320 -1.0089
15331TIP3   OH267407   5.304   4.095  12.089 -0.0151 -0.4890 -1.0251
15331TIP3    H167408   5.213   4.099  12.059 -0.5820  1.1426  0.7237
15331TIP3    H267409   5.322   4.002  12.099 -0.9852 -0.9129 -2.7643
15332TIP3   OH267410   1.122   0.110  15.525  0.7239  0.3087 -0.1909
15332TIP3    H167411   1.206   0.066  15.531 -0.3094 -1.5549  2.9219
15332TIP3    H267412   1.120   0.168  15.602 -1.1216 -0.3236  0.2896
15333TIP3   OH267413   0.994   2.612  16.011 -0.1919  0.4450 -0.5896
15333TIP3    H167414   1.057   2.569  16.070 -1.9607  0.8848  1.7914
15333TIP3    H267415   0.949   2.539  15.968 -0.4725 -0.0101  0.4277
15334TIP3   OH267416   5.246   2.136  15.779 -0.2924  0.3730  0.1645
15334TIP3    H167417   5.178   2.072  15.754 -0.6647  0.4003  1.0756
15334TIP3    H267418   5.328   2.097  15.748 -0.4685 -0.7561  1.0770
15335TIP3   OH267419   3.190   3.733   2.311 -0.3106 -0.2572 -0.4412
15335TIP3    H167420   3.211   3.643   2.336 -2.0933 -0.9187 -1.1277
15335TIP3    H267421   3.202   3.737   2.217 -0.2785  0.2108 -0.4234
15336TIP3   OH267422   2.873   6.282  13.815  0.2685  0.0282  0.1848
15336TIP3    H167423   2.859   6.254  13.905  1.4900 -0.5598  0.2282
15336TIP3    H267424   2.934   6.216  13.779 -0.5956 -0.0468 -1.2280
15337TIP3   OH267425   5.000   1.970   2.839  0.3231 -0.9469  0.3257
15337TIP3    H167426   4.976   2.045   2.893 -1.1747 -2.6833  2.2647
15337TIP3    H267427   5.012   2.006   2.751  0.1819  1.6005  1.2688
15338TIP3   OH267428   6.672   6.686   4.290 -0.0014  0.1634 -0.6390
15338TIP3    H167429   6.603   6.742   4.326 -0.5499 -0.4010 -0.7925
15338TIP3    H267430   6.625   6.626   4.231  0.7153  0.2566 -1.3154
15339TIP3   OH267431   3.635   2.659   4.497 -0.7659  0.1603 -0.0887
15339TIP3    H167432   3.645   2.740   4.546  1.2282 -1.0700  1.6904
15339TIP3    H267433   3.658   2.682   4.407  1.7269  1.1940  0.7439
15340TIP3   OH267434   3.338   5.170   4.751 -0.4978 -0.5649 -0.1259
15340TIP3    H167435   3.300   5.188   4.665 -1.4589 -2.3533 -0.1336
15340TIP3    H267436   3.355   5.256   4.789  2.7718  0.3930 -3.2206
15341TIP3   OH267437   5.582   6.733   0.891  0.3910  0.2779 -0.8528
15341TIP3    H167438   5.547   6.815   0.854  0.5101  1.1519  0.8723
15341TIP3    H267439   5.506   6.676   0.898  0.1552  0.5213 -1.3235
15342TIP3   OH267440   5.176   2.679  15.396  0.5655 -0.1052 -1.1514
15342TIP3    H167441   5.170   2.770  15.425  0.0186  0.0980 -1.8706
15342TIP3    H267442   5.248   2.642  15.447 -1.0774 -0.1257  1.3158
15343TIP3   OH267443   6.374   5.137  16.617 -0.1028 -0.4372  0.4516
15343TIP3    H167444   6.446   5.134  16.680 -1.5117  0.3718  2.1895
15343TIP3    H267445   6.353   5.231  16.610 -1.6075 -0.7224  0.7606
15344TIP3   OH267446   2.576   0.387   6.792  0.5552  0.1739 -0.2267
15344TIP3    H167447   2.481   0.379   6.784  0.4237  0.5410  0.8118
15344TIP3    H267448   2.599   0.329   6.865  1.4826 -1.9360 -2.0605
15345TIP3   OH267449   6.598   4.126   3.976  0.6731 -0.5627  0.2929
15345TIP3    H167450   6.565   4.143   3.888  2.0048 -0.3446 -0.1779
15345TIP3    H267451   6.532   4.165   4.034 -0.0212 -0.3757 -0.6044
15346TIP3   OH267452   4.903   0.982  14.129  0.0976 -0.6783  0.4573
15346TIP3    H167453   4.835   1.044  14.155  0.6397 -0.2547  0.8837
15346TIP3    H267454   4.936   0.947  14.211 -0.8650 -2.2858  0.2027
15347TIP3   OH267455   5.549   3.798   3.686  0.4259 -0.0510 -0.2425
15347TIP3    H167456   5.592   3.799   3.601  1.1158 -0.8270  0.0835
15347TIP3    H267457   5.597   3.732   3.736 -0.8742 -0.6385  0.2707
15348TIP3   OH267458   0.454   4.026   5.178 -0.2877 -0.0233 -0.0325
15348TIP3    H167459   0.487   4.082   5.108 -1.0931  1.5329  0.7836
15348TIP3    H267460   0.370   3.994   5.145  0.7569 -1.9178 -1.0494
15349TIP3   OH267461   1.406   4.026   1.296  0.4206  0.4990  0.5917
15349TIP3    H167462   1.408   3.999   1.388 -0.0727 -0.9314  0.2082
15349TIP3    H267463   1.355   4.107   1.297 -0.4546 -0.0267  1.4752
15350TIP3   OH267464   6.369   0.181  13.012  0.0355  0.5125  0.0533
15350TIP3    H167465   6.430   0.115  12.981  1.0915  1.6022 -0.2550
15350TIP3    H267466   6.283   0.148  12.988  0.5193 -0.8739  0.1623
15351TIP3   OH267467   5.567   5.577   1.548 -0.4842 -0.6394 -0.0644
15351TIP3    H167468   5.615   5.505   1.589  0.0438 -0.3835 -0.2197
15351TIP3    H267469   5.493   5.536   1.504 -0.2771 -1.0627 -0.0172
15352TIP3   OH267470   0.365   4.105   4.776 -0.4846  0.4014  0.3392
15352TIP3    H167471   0.322   4.183   4.741  0.5658  1.0947  0.5475
15352TIP3    H267472   0.412   4.136   4.853  0.1144 -0.3968  0.3038
15353TIP3   OH267473   4.615   4.857   4.563  0.0418 -0.1273 -0.0081
15353TIP3    H167474   4.706   4.835   4.540  0.2066 -1.2795  1.6180
15353TIP3    H267475   4.617   4.951   4.579  1.4787 -0.4309  2.0459
15354TIP3   OH267476   0.488   2.680   1.900  0.0202 -0.2188  0.1619
15354TIP3    H167477   0.534   2.743   1.956 -2.4963  0.5955  1.4624
15354TIP3    H267478   0.445   2.733   1.834 -1.4425 -0.6263  0.7594
15355TIP3   OH267479   2.518   0.176   2.277  0.4019 -0.2450 -0.1072
15355TIP3    H167480   2.491   0.262   2.310  0.8781  0.0501 -0.4601
15355TIP3    H267481   2.446   0.117   2.301 -2.5845  1.1778 -4.4012
15356TIP3   OH267482   1.169   3.565   1.045  0.0786 -0.3554  0.1571
15356TIP3    H167483   1.218   3.488   1.072  1.5551  0.2058 -0.7266
15356TIP3    H267484   1.223   3.639   1.073 -1.4601  0.3953  1.2845
15357TIP3   OH267485   5.707   4.908  16.353 -0.1680 -0.7055  0.9248
15357TIP3    H167486   5.723   4.904  16.448 -0.4730  0.9917  1.0782
15357TIP3    H267487   5.760   4.981  16.323 -0.6844 -0.7316 -0.0882
15358TIP3   OH267488   1.816   4.421  13.395  0.1103  0.3550  0.5793
15358TIP3    H167489   1.912   4.422  13.404  0.1243 -0.7615  0.7373
15358TIP3    H267490   1.798   4.336  13.354 -0.5463  1.9558 -2.7600
15359TIP3   OH267491   4.936   3.874   4.102 -0.1846 -0.5743  0.4000
15359TIP3    H167492   4.886   3.885   4.183  1.2625  1.4031  1.0973
15359TIP3    H267493   5.004   3.810   4.124  0.7160  0.5721  1.0421
15360TIP3   OH267494   4.188   5.479  13.679 -0.7545  0.5468  0.0364
15360TIP3    H167495   4.275   5.441  13.668 -0.2500  1.6400  0.1756
15360TIP3    H267496   4.187   5.555  13.621 -0.9497  1.6115  1.3769
15361TIP3   OH267497   1.444   2.108   5.694 -0.3237 -0.3022  0.0109
15361TIP3    H167498   1.494   2.117   5.775 -0.7462 -1.3037  0.3949
15361TIP3    H267499   1.490   2.164   5.632 -0.4799  1.1680  1.1517
15362TIP3   OH267500   4.415   5.784  15.900 -0.3784 -0.0265  0.2037
15362TIP3    H167501   4.404   5.736  15.818 -1.8355 -1.9084  1.4167
15362TIP3    H267502   4.433   5.716  15.966 -0.3954  1.3044  1.6539
15363TIP3   OH267503   1.556   5.518  16.907  0.4078 -0.0700  0.6996
15363TIP3    H167504   1.599   5.597  16.941 -0.4264  0.5125  0.4412
15363TIP3    H267505   1.600   5.500  16.824  0.5879  0.1427  0.7489
15364TIP3   OH267506   4.293   5.097   1.995  0.1023 -0.5708 -0.1682
15364TIP3    H167507   4.250   5.084   2.079 -0.8425 -1.8989 -0.8242
15364TIP3    H267508   4.364   5.159   2.013 -0.0631 -0.8593  1.5950
15365TIP3   OH267509   5.617   1.035   3.997  0.2076  0.5860 -0.0855
15365TIP3    H167510   5.662   1.107   4.043 -0.8864  0.4135  1.3362
15365TIP3    H267511   5.575   1.078   3.922  0.8233  1.1598 -0.1126
15366TIP3   OH267512   1.565   6.694  10.944  0.8095 -0.0690  0.0591
15366TIP3    H167513   1.587   6.603  10.963  1.7899  0.5573  2.2120
15366TIP3    H267514   1.470   6.699  10.958  1.0316 -0.3579  1.9287
15367TIP3   OH267515   4.280   3.382   5.656  0.1326 -0.5142 -0.1201
15367TIP3    H167516   4.332   3.459   5.680  0.5955 -0.2363 -1.8440
15367TIP3    H267517   4.223   3.413   5.586  0.7227 -1.8528 -1.2441
15368TIP3   OH267518   2.725   2.573   1.175 -0.3778 -0.3132  0.4127
15368TIP3    H167519   2.746   2.546   1.085 -0.9299 -1.8735  0.7365
15368TIP3    H267520   2.729   2.669   1.172 -0.8065 -0.3159 -1.3788
15369TIP3   OH267521   3.408   1.710  12.306  0.1717  0.5002 -0.0125
15369TIP3    H167522   3.373   1.632  12.263 -1.1680  0.4852  1.0562
15369TIP3    H267523   3.401   1.779  12.240  0.1577  0.0125 -0.5277
15370TIP3   OH267524   4.186   5.184  11.914  0.9204 -0.6065 -0.2216
15370TIP3    H167525   4.136   5.248  11.964 -3.1694 -2.9089 -0.8847
15370TIP3    H267526   4.208   5.116  11.978  0.4683 -1.0037 -0.4752
15371TIP3   OH267527   3.064   0.294  11.606  0.1636 -0.1147 -0.3193
15371TIP3    H167528   3.091   0.209  11.640 -1.3025 -0.0915  1.0363
15371TIP3    H267529   3.122   0.311  11.532  1.3679 -1.6640  0.2353
15372TIP3   OH267530   1.035   3.448   2.104 -0.7761  0.0106 -0.2397
15372TIP3    H167531   1.085   3.516   2.148 -1.8207  0.3020  0.5275
15372TIP3    H267532   1.025   3.379   2.169  0.0273 -0.7810 -0.9202
15373TIP3   OH267533   1.188   2.084  13.615 -0.4573  0.1720 -0.1371
15373TIP3    H167534   1.214   2.062  13.704 -0.5815  0.1030 -0.1190
15373TIP3    H267535   1.256   2.047  13.559 -2.8330 -4.3185 -0.5091
15374TIP3   OH267536   4.024   2.952  15.976  1.0291 -0.9419  0.0813
15374TIP3    H167537   4.072   2.997  16.046 -1.0889  1.2127  0.2722
15374TIP3    H267538   3.990   2.872  16.018  2.1502 -1.1431  0.6667
15375TIP3   OH267539   0.464   3.800  13.717 -0.1457  0.4922  0.1469
15375TIP3    H167540   0.393   3.787  13.780  0.3418  2.2109  1.1165
15375TIP3    H267541   0.466   3.719  13.666 -2.1025 -0.0068  0.7797
15376TIP3   OH267542   4.716   6.619  13.623 -0.5145 -0.6856  0.4770
15376TIP3    H167543   4.651   6.580  13.565  0.4418 -0.5232 -0.7350
15376TIP3    H267544   4.754   6.691  13.573  1.2805 -1.3734  0.7633
15377TIP3   OH267545   1.968   2.985   6.177 -0.3629 -0.1546 -0.2804
15377TIP3    H167546   2.023   3.062   6.158  1.5477 -1.6129 -0.9478
15377TIP3    H267547   1.892   2.996   6.120  1.4268 -0.3487 -2.8613
15378TIP3   OH267548   5.253   5.078  12.153  0.6574  0.3142 -0.0976
15378TIP3    H167549   5.264   5.015  12.082  1.0068  0.5913 -0.2879
15378TIP3    H267550   5.210   5.153  12.113 -0.2607 -0.0092  0.2435
15379TIP3   OH267551   5.319   6.051   0.127  0.1523 -0.2395 -0.0338
15379TIP3    H167552   5.303   6.105   0.050  1.7915 -0.9212 -0.9191
15379TIP3    H267553   5.253   6.078   0.191 -1.3482  0.2366 -1.7269
15380TIP3   OH267554   0.715   5.933  15.231 -0.4143 -0.3376 -0.0909
15380TIP3    H167555   0.788   5.970  15.180  0.5300 -0.7209  0.9454
15380TIP3    H267556   0.658   6.008  15.248  0.3536  0.2139  0.1087
15381TIP3   OH267557   5.579   3.790   5.852  0.3952  0.2253  0.5111
15381TIP3    H167558   5.504   3.808   5.910  0.0630 -1.0972  0.5315
15381TIP3    H267559   5.546   3.723   5.792  1.1104  0.7255 -0.4514
15382TIP3   OH267560   4.018   3.828  14.910  0.0230 -0.3002  0.2316
15382TIP3    H167561   4.051   3.740  14.925  0.6978 -0.1954 -0.4928
15382TIP3    H267562   4.079   3.865  14.846 -1.1036  0.1692 -0.6120
15383TIP3   OH267563   1.617   4.971  14.710  0.0372 -0.3492 -0.6010
15383TIP3    H167564   1.551   4.911  14.676 -1.2859  0.6276  0.1114
15383TIP3    H267565   1.673   4.917  14.766  1.7916 -1.8155 -3.5617
15384TIP3   OH267566   2.281   1.560  16.342  0.1295  0.1555 -0.2677
15384TIP3    H167567   2.304   1.519  16.259 -1.4250 -2.0355  0.2911
15384TIP3    H267568   2.194   1.526  16.362 -0.9587  3.1656  0.7033
15385TIP3   OH267569   0.289   1.932   2.023  0.4524 -0.4114  0.3959
15385TIP3    H167570   0.306   1.979   1.941  0.8818 -0.4717  0.4497
15385TIP3    H267571   0.243   1.853   1.995  2.2100 -1.3483  0.0006
15386TIP3   OH267572   5.889   5.220   0.691 -0.6263 -0.4758  0.4361
15386TIP3    H167573   5.848   5.305   0.676 -0.2456 -0.4444 -0.5226
15386TIP3    H267574   5.819   5.156   0.678 -0.5719 -0.3801 -0.4281
15387TIP3   OH267575   3.375   2.856  12.726  0.5778  0.0275  0.3836
15387TIP3    H167576   3.421   2.796  12.668 -0.0076  0.6065 -0.6979
15387TIP3    H267577   3.282   2.840  12.709  0.3565 -0.5575  1.9527
15388TIP3   OH267578   0.885   2.081  12.366 -0.0618  0.1921 -0.1564
15388TIP3    H167579   0.933   1.998  12.367  0.2986  0.4027  0.7780
15388TIP3    H267580   0.862   2.096  12.457  1.3139  1.9376 -0.0518
15389TIP3   OH267581   1.274   6.066  10.422  0.2608 -0.2322  0.2904
15389TIP3    H167582   1.217   6.126  10.470  0.6645  0.6013 -0.2495
15389TIP3    H267583   1.363   6.093  10.447  0.4585 -0.2539 -0.3682
15390TIP3   OH267584   1.946   6.647   3.037 -0.3012  0.3234 -0.8335
15390TIP3    H167585   1.860   6.609   3.018 -0.1146  0.4806 -2.0551
15390TIP3    H267586   1.961   6.626   3.129 -0.4660 -2.0265 -1.2922
15391TIP3   OH267587   5.564   5.338  13.465 -0.1579  0.5746  0.0018
15391TIP3    H167588   5.541   5.317  13.556 -2.2283  0.0132 -0.5993
15391TIP3    H267589   5.652   5.377  13.471  0.0636 -0.1233  2.1407
15392TIP3   OH267590   5.347   1.421  13.531 -0.6412 -0.6970  0.0190
15392TIP3    H167591   5.286   1.349  13.543  0.9947 -1.8903  1.5976
15392TIP3    H267592   5.373   1.447  13.619  1.5577 -0.6625 -0.5542
15393TIP3   OH267593   4.966   4.475  17.284 -0.0416  0.1081 -0.2064
15393TIP3    H167594   5.015   4.458  17.364 -2.2943 -0.7637  1.0717
15393TIP3    H267595   4.953   4.570  17.283  0.6947  0.2139  0.0061
15394TIP3   OH267596   0.085   0.806   1.065  0.4483  0.0978  0.5208
15394TIP3    H167597   0.098   0.736   1.001  0.3698 -1.1968  1.8386
15394TIP3    H267598   0.065   0.884   1.014 -1.2017 -1.2331 -0.9811
15395TIP3   OH267599   1.421   0.198   1.856 -0.0988  0.1483 -0.3899
15395TIP3    H167600   1.496   0.140   1.866 -0.7248 -0.6553 -0.2048
15395TIP3    H267601   1.434   0.266   1.921  0.5884  0.1496 -0.5264
15396TIP3   OH267602   0.748   5.292  11.938  0.2933  0.2100  0.1764
15396TIP3    H167603   0.683   5.294  12.008  0.3363 -1.3865  0.3042
15396TIP3    H267604   0.728   5.213  11.888  2.3817 -0.6087  0.5057
15397TIP3   OH267605   2.446   6.174   1.425 -0.7592  0.1130  0.0847
15397TIP3    H167606   2.443   6.133   1.512 -0.9152 -0.8376 -0.3686
15397TIP3    H267607   2.505   6.249   1.437 -1.2022  0.3121  1.1440
15398TIP3   OH267608   0.936   0.333   2.747  0.0237  0.0164  0.4992
15398TIP3    H167609   0.964   0.367   2.663 -1.6551 -1.6707 -0.8449
15398TIP3    H267610   0.859   0.385   2.770 -1.5279 -1.6092 -0.7299
15399TIP3   OH267611   3.053   5.386   5.877 -0.3940 -0.5233 -0.4539
15399TIP3    H167612   3.139   5.377   5.834 -0.3592  0.6386 -0.6582
15399TIP3    H267613   3.047   5.479   5.899 -1.1751 -0.7807  0.4844
15400TIP3   OH267614   3.286   4.671   5.670  0.2001  0.4111 -0.3119
15400TIP3    H167615   3.295   4.661   5.575  0.5193 -0.4783 -0.1931
15400TIP3    H267616   3.255   4.586   5.701  0.7809  0.4704  0.4647
15401TIP3   OH267617   0.605   1.633  13.466 -0.2202  0.2669 -0.9114
15401TIP3    H167618   0.533   1.686  13.500 -0.0532  0.8688 -1.4612
15401TIP3    H267619   0.580   1.612  13.376 -0.6915 -1.3710 -0.4236
15402TIP3   OH267620   0.737   2.875  12.010  0.3657  0.2569  0.2542
15402TIP3    H167621   0.740   2.876  11.915  0.5570  0.7505  0.2622
15402TIP3    H267622   0.722   2.966  12.035 -4.0237 -0.3508  0.5856
15403TIP3   OH267623   5.482   2.917  15.196  0.2619  0.4120 -0.6878
15403TIP3    H167624   5.548   2.925  15.127  2.4528 -1.2579  1.0591
15403TIP3    H267625   5.449   2.828  15.186 -0.5741  0.7057 -0.5469
15404TIP3   OH267626   2.415   3.034   5.746  0.0953 -0.6640 -1.1033
15404TIP3    H167627   2.367   3.112   5.717  0.1510  0.4088  1.4297
15404TIP3    H267628   2.350   2.983   5.793  0.8643 -0.2997  0.4203
15405TIP3   OH267629   1.062   6.244   0.672 -0.1503  0.2464  0.6551
15405TIP3    H167630   1.131   6.310   0.663  0.6451 -0.7067 -0.5756
15405TIP3    H267631   1.096   6.167   0.627 -2.3668  0.0000 -0.7577
15406TIP3   OH267632   0.273   0.382  10.731 -0.0835  0.0934  0.0933
15406TIP3    H167633   0.283   0.353  10.640 -2.1659  1.2558 -0.5869
15406TIP3    H267634   0.294   0.476  10.727 -0.5282  0.2209  0.7443
15407TIP3   OH267635   5.210   5.989   6.010  0.1588  0.7098 -0.4343
15407TIP3    H167636   5.291   6.025   5.973  0.9407 -0.5063  0.0523
15407TIP3    H267637   5.238   5.922   6.072 -1.2295 -0.3678 -0.9003
15408TIP3   OH267638   5.988   5.468   1.563  0.0751 -0.0580 -0.5435
15408TIP3    H167639   6.077   5.473   1.597  0.1121 -1.6013 -0.3309
15408TIP3    H267640   5.985   5.534   1.494  1.0966  0.6334  0.0517
15409TIP3   OH267641   3.993   3.990   0.202 -0.0326  0.2230 -0.9329
15409TIP3    H167642   4.083   3.970   0.229  0.2811  1.2236 -1.1906
15409TIP3    H267643   3.958   3.907   0.173 -0.7190 -1.2239  3.4024
15410TIP3   OH267644   5.785   2.758  14.583  0.4635  0.3472  0.1769
15410TIP3    H167645   5.813   2.819  14.651  0.1019  1.6156 -0.7427
15410TIP3    H267646   5.739   2.814  14.520 -0.4909 -1.0100 -0.3765
15411TIP3   OH267647   6.676   3.280  15.911  0.4152 -0.5631  0.3822
15411TIP3    H167648   6.762   3.262  15.949  0.6625 -0.1105  0.0453
15411TIP3    H267649   6.684   3.368  15.873 -0.8837  0.5479  2.4594
15412TIP3   OH267650   4.186   4.781   1.552  0.4157 -0.7691 -0.7782
15412TIP3    H167651   4.147   4.841   1.490 -0.8804 -1.7722 -0.9799
15412TIP3    H267652   4.178   4.824   1.637  2.8907  0.9524 -1.3187
15413TIP3   OH267653   0.120   2.887  10.588 -0.0860 -0.3758  0.3224
15413TIP3    H167654   0.048   2.825  10.591  0.2758 -0.7846  2.8438
15413TIP3    H267655   0.097   2.954  10.653  0.9905  0.4076 -0.0763
15414TIP3   OH267656   5.061   1.898  12.977  0.5435  0.0748  0.0151
15414TIP3    H167657   5.124   1.896  13.049 -1.0462  0.7149  1.4800
15414TIP3    H267658   5.022   1.811  12.977  0.0995  0.2736  0.3375
15415TIP3   OH267659   6.029   6.178  13.158 -0.4364  0.0960  0.6395
15415TIP3    H167660   6.041   6.086  13.180 -0.0310 -0.2613 -0.9531
15415TIP3    H267661   5.943   6.181  13.116 -0.2340  0.3643  0.2444
15416TIP3   OH267662   0.356   5.430   6.124  0.3995  0.6933  0.0710
15416TIP3    H167663   0.376   5.415   6.216  0.2116  0.1215  0.0196
15416TIP3    H267664   0.439   5.458   6.086  0.2069  2.1700  0.6644
15417TIP3   OH267665   2.072   1.050  16.498 -0.3858 -0.6891  0.6076
15417TIP3    H167666   2.035   1.054  16.410 -2.8148 -1.3940  1.5121
15417TIP3    H267667   2.098   0.958  16.509 -2.6116 -1.2593  1.5145
15418TIP3   OH267668   0.097   5.888  14.597 -0.2307 -0.1279  0.1883
15418TIP3    H167669   0.088   5.793  14.601 -0.5254 -0.0666  1.0521
15418TIP3    H267670   0.191   5.903  14.599 -0.1997 -0.3712  1.0032
15419TIP3   OH267671   2.054   1.791  17.336  0.1892  0.5980  0.4366
15419TIP3    H167672   2.051   1.696  17.328 -0.3091  0.5990  0.5927
15419TIP3    H267673   2.001   1.824  17.263  2.7885  0.8688 -1.4757
15420TIP3   OH267674   2.400   5.912   5.634  0.6091  0.6097 -0.1971
15420TIP3    H167675   2.490   5.908   5.664  0.8381 -0.5279 -1.0057
15420TIP3    H267676   2.404   5.962   5.552  0.4514  0.8573 -0.0560
15421TIP3   OH267677   5.902   1.001   0.524 -0.1807 -0.7184 -0.1573
15421TIP3    H167678   5.984   1.038   0.556 -0.7890  1.6357 -1.1029
15421TIP3    H267679   5.839   1.018   0.594  0.1913 -3.0746  0.8339
15422TIP3   OH267680   2.234   4.320  12.491  0.3744  0.0928 -0.4057
15422TIP3    H167681   2.247   4.234  12.452 -1.4005 -0.5763  0.3471
15422TIP3    H267682   2.152   4.352  12.453 -0.5026  0.1630  1.4096
15423TIP3   OH267683   4.846   5.253  15.239  0.0295 -0.4542 -0.5806
15423TIP3    H167684   4.817   5.210  15.159  1.5157 -0.4987 -1.1350
15423TIP3    H267685   4.791   5.331  15.246  0.7078  0.2580 -2.3848
15424TIP3   OH267686   6.515   1.845  15.115  0.6069  0.5693 -0.1467
15424TIP3    H167687   6.446   1.786  15.145  1.9005 -0.5586  0.7104
15424TIP3    H267688   6.484   1.932  15.139 -0.1440  0.0111  0.9734
15425TIP3   OH267689   0.516   6.170  12.332 -0.2955 -0.3849  0.2729
15425TIP3    H167690   0.484   6.252  12.293  1.9047  0.2188 -0.4366
15425TIP3    H267691   0.549   6.197  12.418  2.9074  0.1667 -0.9698
15426TIP3   OH267692   1.848   0.895   1.983 -1.0079  0.1348 -0.7436
15426TIP3    H167693   1.854   0.949   2.061 -2.6595  2.6728 -2.2489
15426TIP3    H267694   1.755   0.878   1.971 -0.5841 -2.9931 -0.4745
15427TIP3   OH267695   3.714   3.041  16.375 -0.1339 -0.2612  0.3734
15427TIP3    H167696   3.765   2.966  16.346  0.6804 -0.0629  1.2617
15427TIP3    H267697   3.763   3.117  16.341 -0.1905 -0.0916  0.6709
15428TIP3   OH267698   2.132   1.080  15.084  0.0043  0.1605  0.0253
15428TIP3    H167699   2.174   1.116  15.162 -1.9763 -0.0997  1.2813
15428TIP3    H267700   2.113   1.157  15.030  0.8078  0.4052  0.0757
15429TIP3   OH267701   3.267   4.172  13.911  0.3317  0.8664  0.0838
15429TIP3    H167702   3.197   4.226  13.948  0.6491 -0.4665  2.9270
15429TIP3    H267703   3.343   4.229  13.911  0.0254  1.2863  0.3486
15430TIP3   OH267704   2.023   6.194  13.444 -0.2624 -0.0086  0.9354
15430TIP3    H167705   1.957   6.136  13.482  0.6259  0.1597  2.8590
15430TIP3    H267706   2.023   6.271  13.501  0.2050  0.8590 -0.2124
15431TIP3   OH267707   4.886   1.645  14.893  0.0683 -0.1753 -0.2217
15431TIP3    H167708   4.834   1.607  14.822 -1.6736 -0.5332  1.1762
15431TIP3    H267709   4.932   1.571  14.932 -1.8161 -0.6327  1.2702
15432TIP3   OH267710   1.174   6.117   4.208 -1.0981  0.0009  0.0795
15432TIP3    H167711   1.154   6.185   4.144  0.3339  0.4238  0.0463
15432TIP3    H267712   1.108   6.130   4.277 -1.5008  0.7364 -0.4225
15433TIP3   OH267713   2.350   5.250  14.982 -0.1661  0.3925 -0.6840
15433TIP3    H167714   2.309   5.335  14.965  0.5934  0.6355 -1.3541
15433TIP3    H267715   2.400   5.231  14.903  0.0341 -0.4707 -0.3588
15434TIP3   OH267716   2.969   4.660   1.201 -0.0418  0.5945 -0.3854
15434TIP3    H167717   2.896   4.704   1.157 -1.0396  0.5510  1.1169
15434TIP3    H267718   2.973   4.573   1.162 -0.7169  0.6526 -0.5903
15435TIP3   OH267719   4.120   3.258  15.734  0.2943  0.2680 -0.0245
15435TIP3    H167720   4.090   3.169  15.717  0.8512  0.1676 -0.5475
15435TIP3    H267721   4.061   3.292  15.801 -0.4408 -0.2047 -0.4200
15436TIP3   OH267722   2.936   0.195  14.722 -0.3932 -0.4238 -0.4499
15436TIP3    H167723   2.981   0.126  14.770  1.6461 -0.3590 -2.1363
15436TIP3    H267724   2.870   0.228  14.783  0.2600 -2.1516  1.2702
15437TIP3   OH267725   0.504   1.503   3.214 -0.0795  0.5523  0.2128
15437TIP3    H167726   0.553   1.500   3.296 -1.3889 -0.1988  1.0065
15437TIP3    H267727   0.486   1.411   3.194  0.5927  0.6928 -1.1728
15438TIP3   OH267728   5.221   1.484  12.134 -0.3252  0.4054 -0.1504
15438TIP3    H167729   5.306   1.500  12.092 -1.5280 -0.2258 -3.0893
15438TIP3    H267730   5.224   1.536  12.214  2.9029  0.2226 -0.0223
15439TIP3   OH267731   5.515   2.967   4.496 -0.2404 -0.0602  0.1647
15439TIP3    H167732   5.481   3.027   4.430  0.6363 -0.4254 -0.6372
15439TIP3    H267733   5.501   2.880   4.459 -1.1232 -0.3477  1.1350
15440TIP3   OH267734   6.314   2.607  15.648 -0.2265 -0.2740 -1.1622
15440TIP3    H167735   6.371   2.609  15.571 -2.1647 -0.0050 -2.6623
15440TIP3    H267736   6.281   2.518  15.651  0.1868 -0.4066 -0.3501
15441TIP3   OH267737   2.348   4.663  12.731  0.2541  0.3764 -0.3641
15441TIP3    H167738   2.407   4.712  12.674  2.0820  0.4356  1.4768
15441TIP3    H267739   2.374   4.572  12.719  3.0826  0.5947  2.7607
15442TIP3   OH267740   1.003   6.123   2.205 -0.1915  0.0957  0.1116
15442TIP3    H167741   1.010   6.035   2.168 -0.5446 -0.1104  0.5270
15442TIP3    H267742   0.928   6.162   2.161  2.0199  1.5098 -2.7191
15443TIP3   OH267743   2.096   5.409  17.031 -0.2800  0.3433  0.1788
15443TIP3    H167744   2.066   5.318  17.025  0.1482  0.2624 -0.9398
15443TIP3    H267745   2.059   5.441  17.113  1.3622 -1.5235  1.7791
15444TIP3   OH267746   4.597   3.779  16.700  0.2253 -0.2757  0.1989
15444TIP3    H167747   4.612   3.867  16.732 -1.8276  0.0524  0.4322
15444TIP3    H267748   4.671   3.761  16.642  2.2251  0.4294  2.3961
15445TIP3   OH267749   0.992   1.979  11.860  0.2542  0.2168  0.5766
15445TIP3    H167750   0.961   2.056  11.907 -0.5727  0.9180 -1.0691
15445TIP3    H267751   0.934   1.971  11.785 -0.7441 -2.9576  1.4915
15446TIP3   OH267752   4.498   5.320  12.585  0.0778  0.3850 -0.4605
15446TIP3    H167753   4.446   5.316  12.665  0.2259 -0.3062 -0.3922
15446TIP3    H267754   4.585   5.350  12.614  0.4346 -0.8627 -0.1969
15447TIP3   OH267755   0.330   3.453  14.172  0.1109 -0.1934 -0.6516
15447TIP3    H167756   0.282   3.401  14.237 -1.3389  1.4699 -0.2951
15447TIP3    H267757   0.283   3.438  14.090  0.0185  0.1111 -0.6566
15448TIP3   OH267758   3.566   1.566   3.440 -0.1661 -0.0582  0.3203
15448TIP3    H167759   3.607   1.542   3.358 -0.9216 -2.3622  0.5553
15448TIP3    H267760   3.486   1.514   3.444 -1.2475  1.5682  1.5608
15449TIP3   OH267761   0.703   5.316   2.354 -0.9285 -0.2913  0.1443
15449TIP3    H167762   0.622   5.266   2.350 -0.4543 -1.0450 -0.3254
15449TIP3    H267763   0.753   5.276   2.425  0.5525 -2.2520 -1.8645
15450TIP3   OH267764   6.105   2.303  16.311 -0.1443 -0.1051 -0.0853
15450TIP3    H167765   6.195   2.296  16.278 -0.5968 -2.8302 -1.0224
15450TIP3    H267766   6.057   2.348  16.241  0.5063  1.5344  0.5033
15451TIP3   OH267767   5.011   2.177  13.259  0.2199 -0.2021 -0.4049
15451TIP3    H167768   5.031   2.270  13.252  0.9606 -0.3330 -0.1534
15451TIP3    H267769   5.025   2.156  13.352  0.2661 -0.6050 -0.4988
15452TIP3   OH267770   2.268   5.458   0.773  0.0493 -0.5969  0.1994
15452TIP3    H167771   2.288   5.494   0.687  0.6788 -0.5076  0.3795
15452TIP3    H267772   2.174   5.473   0.784  0.3226  1.2471  0.3823
15453TIP3   OH267773   2.065   1.607  13.667 -1.1299 -0.3389  0.5965
15453TIP3    H167774   2.035   1.563  13.747 -1.4444  0.0091  0.6687
15453TIP3    H267775   2.153   1.571  13.652 -1.8379 -1.9235 -0.0297
15454TIP3   OH267776   4.322   3.939   4.080 -0.6736 -0.0754  0.3723
15454TIP3    H167777   4.309   3.987   4.161  0.7626 -1.5213  1.5227
15454TIP3    H267778   4.414   3.953   4.057 -0.5811 -1.1448  0.0069
15455TIP3   OH267779   5.370   6.630  13.258  0.4326  0.2998 -0.0387
15455TIP3    H167780   5.466   6.627  13.255  0.5373  1.6831  0.7515
15455TIP3    H267781   5.347   6.583  13.338  0.3897 -0.6909 -0.6236
15456TIP3   OH267782   6.546   1.909   5.614 -0.1812 -0.0303  0.1544
15456TIP3    H167783   6.570   1.977   5.550 -0.6254  0.6507  0.7043
15456TIP3    H267784   6.458   1.883   5.589  0.6484 -1.7593 -1.1948
15457TIP3   OH267785   5.657   5.905  15.669 -0.4005  0.2402 -0.3024
15457TIP3    H167786   5.615   5.946  15.745  1.2118 -1.0561  1.3558
15457TIP3    H267787   5.733   5.960  15.650 -0.3018  0.0604 -0.4326
15458TIP3   OH267788   3.719   6.269   3.978  0.3981 -0.2071 -0.3005
15458TIP3    H167789   3.687   6.360   3.975  0.8699 -0.0393 -0.3917
15458TIP3    H267790   3.812   6.276   3.956  0.6507 -0.6125  0.5936
15459TIP3   OH267791   3.577   1.540  14.917  0.0632 -0.1043 -0.4156
15459TIP3    H167792   3.619   1.626  14.917  1.1895 -0.6153 -1.5219
15459TIP3    H267793   3.641   1.483  14.874 -0.9110 -1.3705 -0.2273
15460TIP3   OH267794   6.702   1.947   5.213  0.0364 -0.1345 -0.0810
15460TIP3    H167795   6.756   1.987   5.281 -0.9723  2.1117 -0.5258
15460TIP3    H267796   6.673   1.864   5.252  0.0845  0.7384  1.9643
15461TIP3   OH267797   3.563   2.727   4.064  0.3497  0.2908  0.1766
15461TIP3    H167798   3.657   2.711   4.065  0.7798  2.2072 -1.5473
15461TIP3    H267799   3.528   2.657   4.007  0.9177  0.3019 -0.1985
15462TIP3   OH267800   4.513   0.953  16.116 -0.2175  0.6804  0.7296
15462TIP3    H167801   4.441   0.925  16.172  0.8964  1.2498  2.5608
15462TIP3    H267802   4.591   0.911  16.154  0.6834  1.6755  0.0490
15463TIP3   OH267803   5.817   3.676   0.753 -1.3430 -0.5741  0.6232
15463TIP3    H167804   5.876   3.684   0.678 -0.4485 -1.0348  1.2559
15463TIP3    H267805   5.757   3.751   0.745 -0.8182 -0.2300 -0.1636
15464TIP3   OH267806   4.940   6.221   0.382  0.0467  0.0710  0.4537
15464TIP3    H167807   4.983   6.139   0.358 -0.3025 -0.4259  1.4949
15464TIP3    H267808   5.000   6.261   0.445  0.6011  1.0149 -0.6320
15465TIP3   OH267809   5.252   1.180   3.983 -0.2098  0.5638  0.0600
15465TIP3    H167810   5.249   1.106   3.923  0.0562  1.9227 -1.7230
15465TIP3    H267811   5.160   1.201   3.999 -0.2773  0.4590 -0.1957
15466TIP3   OH267812   3.404   0.161  14.772 -0.7551  0.1184  0.1041
15466TIP3    H167813   3.345   0.234  14.789  0.3430  1.3306 -1.0911
15466TIP3    H267814   3.350   0.097  14.724 -0.8304  1.7975 -2.2136
15467TIP3   OH267815   4.199   4.608   2.645 -0.1574 -0.6732 -0.1868
15467TIP3    H167816   4.225   4.525   2.605 -0.7443 -0.8633 -0.1874
15467TIP3    H267817   4.106   4.596   2.666 -0.3381  0.1096 -0.5030
15468TIP3   OH267818   1.531   4.802   3.074 -0.3646  0.4590 -0.2518
15468TIP3    H167819   1.526   4.712   3.042 -0.1441  0.2167  0.3691
15468TIP3    H267820   1.513   4.795   3.168  0.8261  0.9103  0.0345
15469TIP3   OH267821   5.568   2.836  10.918 -0.3311  0.8697 -0.1627
15469TIP3    H167822   5.485   2.854  10.874 -0.6389  3.2653  1.2644
15469TIP3    H267823   5.634   2.873  10.859 -0.4632  1.0361 -0.2067
15470TIP3   OH267824   2.497   2.545  15.773  0.3620  0.2436 -0.0074
15470TIP3    H167825   2.446   2.552  15.854 -1.6375 -0.0344 -1.1654
15470TIP3    H267826   2.575   2.496  15.798 -0.6366 -0.6305  1.5874
15471TIP3   OH267827   1.908   4.644  13.193 -0.4907  0.1395 -0.1753
15471TIP3    H167828   1.870   4.633  13.280  0.8834  0.4541  0.4804
15471TIP3    H267829   1.891   4.560  13.150  0.7505 -0.8572  1.1830
15472TIP3   OH267830   4.949   6.431   6.577 -0.3358 -0.1074  0.0969
15472TIP3    H167831   4.997   6.480   6.644  0.3208 -0.0004 -0.4364
15472TIP3    H267832   4.908   6.359   6.624  0.5201 -0.3176  0.5484
15473TIP3   OH267833   0.213   1.546  17.293  0.2354 -0.3161 -0.9091
15473TIP3    H167834   0.156   1.505  17.358 -1.0640 -0.9491 -2.3731
15473TIP3    H267835   0.154   1.602  17.241  1.4828  1.2660 -0.7001
15474TIP3   OH267836   4.961   3.693  14.050 -0.6831  0.1181  0.3174
15474TIP3    H167837   5.034   3.631  14.036 -0.5590  0.0581  1.1923
15474TIP3    H267838   4.945   3.730  13.963  0.3865  0.1224  0.1020
15475TIP3   OH267839   1.737   0.382  12.482 -0.3336  0.0251 -0.1669
15475TIP3    H167840   1.683   0.384  12.561 -1.2096  1.5267 -0.7503
15475TIP3    H267841   1.783   0.466  12.483 -0.2565  0.0029 -1.1784
15476TIP3   OH267842   4.210   3.291  12.228  0.1113 -0.1517 -0.2680
15476TIP3    H167843   4.145   3.360  12.216 -0.3740 -0.7580 -1.2724
15476TIP3    H267844   4.187   3.249  12.311 -0.1409  0.3008 -0.1101
15477TIP3   OH267845   1.892   0.133   1.413  0.2129 -0.1623 -0.2565
15477TIP3    H167846   1.892   0.223   1.381 -1.1217 -0.6443 -1.7487
15477TIP3    H267847   1.836   0.135   1.490 -0.7975  0.0755 -0.9845
15478TIP3   OH267848   5.495   0.078  16.369  0.3702  0.0112  0.5944
15478TIP3    H167849   5.447   0.009  16.416 -0.2956  0.1639  0.1558
15478TIP3    H267850   5.428   0.143  16.349  0.6238 -0.1012 -0.6606
15479TIP3   OH267851   1.155   1.322   5.222 -0.0729 -0.3729 -0.1287
15479TIP3    H167852   1.091   1.379   5.263  0.8776  1.4149 -1.0032
15479TIP3    H267853   1.235   1.335   5.273  0.4681  0.0193 -1.0444
15480TIP3   OH267854   3.628   4.011   0.920 -0.3827 -0.2838 -0.1690
15480TIP3    H167855   3.686   4.028   0.846 -1.6206 -0.1889 -1.1449
15480TIP3    H267856   3.682   3.963   0.982  0.4656 -1.0985 -1.4828
15481TIP3   OH267857   0.714   2.616   1.553  0.0545 -0.1680  0.1372
15481TIP3    H167858   0.735   2.636   1.645 -1.1593  1.4783  0.1065
15481TIP3    H267859   0.641   2.675   1.532  2.1268  1.6389 -2.7392
15482TIP3   OH267860   3.579   2.828   5.566 -0.5667 -0.3549 -0.5836
15482TIP3    H167861   3.627   2.910   5.554  1.6075 -1.3889  0.3813
15482TIP3    H267862   3.558   2.798   5.478 -0.9803  0.9902 -0.9557
15483TIP3   OH267863   5.284   6.393  11.509 -0.1328 -0.2492  0.1580
15483TIP3    H167864   5.310   6.485  11.519  3.4685 -1.1508  0.3077
15483TIP3    H267865   5.322   6.366  11.426 -2.4208 -1.3022 -0.6154
15484TIP3   OH267866   3.371   6.443  16.437  0.5259  0.1536  0.2566
15484TIP3    H167867   3.303   6.377  16.443  0.5085 -0.0269 -1.5336
15484TIP3    H267868   3.334   6.512  16.382  1.2170  0.7817  0.5572
15485TIP3   OH267869   2.116   4.550   1.686  0.0021 -0.5170 -0.0621
15485TIP3    H167870   2.035   4.586   1.650  0.2179  1.1189  0.9570
15485TIP3    H267871   2.185   4.587   1.631  0.1100 -1.5149 -0.6250
15486TIP3   OH267872   4.145   5.057   6.486  0.3815  0.5127  0.6563
15486TIP3    H167873   4.150   5.002   6.565 -1.0132 -0.2644  0.2408
15486TIP3    H267874   4.059   5.099   6.492  0.9352  1.7366  0.3461
15487TIP3   OH267875   4.934   3.106  13.128 -0.0679  0.6417  0.2186
15487TIP3    H167876   5.007   3.048  13.105  0.4493  0.4075  2.3020
15487TIP3    H267877   4.974   3.193  13.134  0.2178  0.4097  2.0308
15488TIP3   OH267878   1.338   3.120  14.054  0.6166  0.1912 -0.4012
15488TIP3    H167879   1.243   3.113  14.048  0.5278 -2.3596  2.1566
15488TIP3    H267880   1.366   3.140  13.964 -2.3346  2.4589 -0.9640
15489TIP3   OH267881   6.274   0.106  16.837 -0.1796  0.0481  0.4596
15489TIP3    H167882   6.295   0.068  16.922 -0.7733  0.5876  0.8476
15489TIP3    H267883   6.193   0.154  16.851 -1.3846 -1.4974 -0.8759
15490TIP3   OH267884   1.068   6.735  14.709  1.0226 -0.6236  0.2234
15490TIP3    H167885   1.011   6.724  14.785 -1.1195 -0.8356 -1.3202
15490TIP3    H267886   1.035   6.672  14.645  1.8787  0.4947 -1.3850
15491TIP3   OH267887   5.529   0.044  14.664  0.2946  0.1691  0.1650
15491TIP3    H167888   5.514   0.087  14.580  2.2622  2.5134  0.9072
15491TIP3    H267889   5.442   0.032  14.702 -0.7253 -1.7289 -2.4708
15492TIP3   OH267890   5.878   4.999   4.100  0.5243 -0.5484  0.1268
15492TIP3    H167891   5.968   4.967   4.094 -0.0148 -1.8485 -2.4743
15492TIP3    H267892   5.824   4.924   4.076 -1.3082  0.1424  1.8394
15493TIP3   OH267893   1.003   3.956   4.328 -0.2079 -0.1329 -0.4790
15493TIP3    H167894   1.052   4.015   4.385  0.6705 -0.8854 -0.4216
15493TIP3    H267895   0.958   3.896   4.388 -0.0165 -0.3542 -0.5539
15494TIP3   OH267896   0.722   3.859  14.900 -0.4002  0.3195  0.5050
15494TIP3    H167897   0.733   3.914  14.822  0.4098  0.6921  0.8657
15494TIP3    H267898   0.773   3.780  14.880 -3.0470 -1.2013 -0.7866
15495TIP3   OH267899   3.818   3.794   2.899  0.3924  0.0376 -0.1717
15495TIP3    H167900   3.877   3.731   2.859 -0.0366 -0.2097 -0.4236
15495TIP3    H267901   3.739   3.743   2.919 -0.0401  0.5433 -0.5770
15496TIP3   OH267902   6.511   5.306  17.218 -0.8202 -0.1481 -0.0509
15496TIP3    H167903   6.516   5.231  17.278 -0.5750 -0.3379 -0.3061
15496TIP3    H267904   6.571   5.284  17.147  0.7973  1.1666  0.8413
15497TIP3   OH267905   2.733   1.671   3.602 -0.4216 -0.0422 -0.1235
15497TIP3    H167906   2.708   1.754   3.561  1.2262 -0.4246 -2.0815
15497TIP3    H267907   2.755   1.695   3.692 -2.0334  1.2351 -0.0144
15498TIP3   OH267908   3.017   2.362  12.057 -0.2352 -0.5865  0.0238
15498TIP3    H167909   3.102   2.359  12.101 -0.2831 -0.4266  0.1283
15498TIP3    H267910   3.014   2.449  12.017 -0.9198 -0.0632  1.1668
15499TIP3   OH267911   0.171   1.737   5.387  0.0809 -0.4878  0.2059
15499TIP3    H167912   0.114   1.718   5.312  0.0220 -0.8265  0.3362
15499TIP3    H267913   0.194   1.651   5.423 -0.9554 -0.2996  1.3759
15500TIP3   OH267914   6.210   2.785  14.185 -0.2988  0.1544  0.1068
15500TIP3    H167915   6.215   2.770  14.279  0.8724 -0.6639 -0.0551
15500TIP3    H267916   6.144   2.853  14.175 -1.4795 -0.7533  1.3910
15501TIP3   OH267917   6.603   4.106   2.438 -0.8037  0.1138 -0.2030
15501TIP3    H167918   6.589   4.199   2.454  0.8496  0.2362  0.7506
15501TIP3    H267919   6.684   4.103   2.386  0.1353 -0.8368  1.2361
15502TIP3   OH267920   5.941   5.387   5.105  0.0251  0.5662 -0.1189
15502TIP3    H167921   5.961   5.294   5.111  0.5926  0.6899 -0.0710
15502TIP3    H267922   5.976   5.414   5.020  0.7205  0.9430  0.2804
15503TIP3   OH267923   5.324   4.016  15.834 -0.4905  0.1843 -0.2370
15503TIP3    H167924   5.366   3.980  15.913 -0.4080  1.2135  0.2073
15503TIP3    H267925   5.294   3.939  15.786  0.2801 -0.5023  0.3438
15504TIP3   OH267926   6.227   5.743   3.996 -0.1856 -0.2613  0.4079
15504TIP3    H167927   6.319   5.763   4.014  0.8834 -3.3652 -0.8601
15504TIP3    H267928   6.200   5.810   3.932  1.5916  0.0277 -0.0924
15505TIP3   OH267929   5.449   3.913  15.007 -0.1998 -0.2874 -0.5789
15505TIP3    H167930   5.369   3.883  15.050  1.0688 -1.6704  0.9251
15505TIP3    H267931   5.486   3.977  15.068 -0.4757  0.8583 -1.5843
15506TIP3   OH267932   5.146   1.265   6.244 -0.2008 -0.8364 -0.2819
15506TIP3    H167933   5.126   1.244   6.153 -1.2246  0.4725 -0.4024
15506TIP3    H267934   5.217   1.329   6.238  0.3107 -1.3866 -0.1153
15507TIP3   OH267935   3.692   0.513  14.179  0.4134 -0.5500 -0.0385
15507TIP3    H167936   3.749   0.483  14.250 -0.8826  1.2150  1.9067
15507TIP3    H267937   3.605   0.480  14.204  0.0678 -0.6479 -1.3174
15508TIP3   OH267938   3.044   0.017   5.895 -0.4484  0.0203  0.3761
15508TIP3    H167939   3.079   0.104   5.910 -1.0614  0.2580  0.4459
15508TIP3    H267940   3.069  -0.004   5.805 -1.0078  0.6101  0.0789
15509TIP3   OH267941   4.986   2.057  14.880 -0.1477 -0.2955 -0.7677
15509TIP3    H167942   5.067   2.085  14.922 -1.0405  0.7606  0.3095
15509TIP3    H267943   5.000   2.078  14.787  0.6162  0.3630 -0.5236
15510TIP3   OH267944   6.715   6.002  14.879 -0.6942 -0.0065  0.5935
15510TIP3    H167945   6.755   5.988  14.794 -0.9230 -0.4330  0.5511
15510TIP3    H267946   6.651   6.071  14.865  0.3743  1.0568  0.7758
15511TIP3   OH267947   0.928   4.325   6.242 -0.4824 -0.0135  0.0405
15511TIP3    H167948   0.833   4.333   6.231 -0.5451  1.7000  1.4588
15511TIP3    H267949   0.954   4.405   6.288  1.5558 -0.8012  0.3588
15512TIP3   OH267950   3.153   2.828  14.536  0.7216  0.4046 -0.1614
15512TIP3    H167951   3.150   2.909  14.585  2.5217 -1.2414  3.0069
15512TIP3    H267952   3.106   2.847  14.455 -1.9585  3.5361  1.8725
15513TIP3   OH267953   5.547   3.927   0.113  0.3328 -0.0142 -0.1468
15513TIP3    H167954   5.497   4.009   0.123  0.9440  0.3589 -0.1229
15513TIP3    H267955   5.636   3.955   0.095  1.2024 -0.6246  2.7269
15514TIP3   OH267956   3.278   3.941  16.217  0.4083  0.2921 -0.8610
15514TIP3    H167957   3.330   3.991  16.279 -0.0248  0.0925 -0.3248
15514TIP3    H267958   3.198   3.919  16.265  0.4649 -0.6567 -1.1764
15515TIP3   OH267959   5.986   2.924   3.279 -0.3330 -0.2786  0.4140
15515TIP3    H167960   6.007   3.012   3.310  1.8654 -1.1373  1.6093
15515TIP3    H267961   6.055   2.904   3.216  1.1962 -2.2501  2.5135
15516TIP3   OH267962   0.846   6.721  16.547  0.3319 -0.2689  0.1157
15516TIP3    H167963   0.872   6.794  16.604  2.6049  0.6966 -1.9709
15516TIP3    H267964   0.797   6.762  16.476 -1.5689 -1.3185  0.7511
15517TIP3   OH267965   3.865   4.648  16.645  0.3856 -0.0484  0.0348
15517TIP3    H167966   3.914   4.698  16.710  0.5844 -1.2513  0.8434
15517TIP3    H267967   3.841   4.712  16.578 -0.1749  1.3147  1.4845
15518TIP3   OH267968   4.086   0.370   3.516 -0.3569 -0.5294 -0.5347
15518TIP3    H167969   4.118   0.460   3.513  1.0462 -0.9950 -0.3897
15518TIP3    H267970   3.997   0.374   3.482  0.6168  0.5128 -3.1452
15519TIP3   OH267971   3.825   0.572  13.319 -0.0269 -0.2407 -0.2064
15519TIP3    H167972   3.734   0.547  13.340 -0.0774  1.3206  1.7481
15519TIP3    H267973   3.819   0.666  13.299  1.1292 -0.1892 -0.3249
15520TIP3   OH267974   1.295   2.742  17.272  0.0658  0.2165 -0.0888
15520TIP3    H167975   1.219   2.770  17.324 -1.4825 -0.4847 -1.8631
15520TIP3    H267976   1.369   2.746  17.333 -1.4913  0.3183  1.8841
15521TIP3   OH267977   5.004   2.613   1.055 -0.0013  0.5825 -0.3383
15521TIP3    H167978   4.958   2.679   1.107  1.1320  1.0336  0.1361
15521TIP3    H267979   5.096   2.640   1.059  0.3204 -0.3409 -1.1721
15522TIP3   OH267980   3.864   1.997   3.846 -0.6560 -0.1011 -0.6146
15522TIP3    H167981   3.836   1.941   3.918 -0.6853 -1.0520 -1.3402
15522TIP3    H267982   3.896   2.077   3.888 -1.3595 -0.3367  0.4010
15523TIP3   OH267983   5.723   0.586  12.544  0.2162  0.0119 -0.1739
15523TIP3    H167984   5.682   0.661  12.587 -0.5005 -1.3291  1.5851
15523TIP3    H267985   5.816   0.608  12.544 -0.0613  1.3023 -0.5487
15524TIP3   OH267986   5.981   6.584   0.201  0.0788 -0.4364  0.1625
15524TIP3    H167987   6.039   6.526   0.152  0.9235 -1.3448  2.1236
15524TIP3    H267988   5.893   6.557   0.176  0.4602 -0.5948 -1.1177
15525TIP3   OH267989   5.177   1.056  16.753  0.0048  0.2916 -0.1806
15525TIP3    H167990   5.261   1.073  16.796  0.3383 -0.5322 -0.4954
15525TIP3    H267991   5.117   1.038  16.825  0.5531 -1.0402 -0.0289
15526TIP3   OH267992   1.622   5.026  13.785 -0.5897 -0.0638 -0.3756
15526TIP3    H167993   1.685   5.006  13.854 -2.9288 -1.7195  1.4497
15526TIP3    H267994   1.618   4.946  13.733  0.2033  0.7251 -1.6979
15527TIP3   OH267995   4.296   0.974   4.289 -0.0744  0.2927 -0.1172
15527TIP3    H167996   4.250   0.892   4.270  2.6021 -1.6443  1.1431
15527TIP3    H267997   4.298   1.020   4.204 -2.8269 -0.1689 -0.5535
15528TIP3   OH267998   6.254   5.019  16.364 -0.3709 -0.2303 -0.3204
15528TIP3    H167999   6.278   5.083  16.297  1.5016 -0.4843  0.0390
15528TIP3    H268000   6.283   5.060  16.446 -0.7855 -0.7814  0.1075
15529TIP3   OH268001   1.943   4.109   1.572 -0.1732 -0.6132 -0.1257
15529TIP3    H168002   1.996   4.181   1.538 -1.4494  0.2258 -0.4110
15529TIP3    H268003   1.980   4.031   1.531  1.7651 -0.2669  0.8170
15530TIP3   OH268004   5.364   4.882  15.479  0.0685  0.5699  0.3101
15530TIP3    H168005   5.301   4.953  15.492  0.2589  0.5631  1.3240
15530TIP3    H268006   5.408   4.904  15.397 -0.1474  1.4145  0.4133
15531TIP3   OH268007   4.362   2.239   1.382  0.2677 -0.2217  0.1440
15531TIP3    H168008   4.433   2.231   1.446  1.6470 -1.8381 -1.4702
15531TIP3    H268009   4.369   2.159   1.330 -1.4705  0.5525 -1.3565
15532TIP3   OH268010   5.532   5.569  14.522  0.1955  0.0149  0.5277
15532TIP3    H168011   5.593   5.495  14.513 -0.3265 -0.1572 -2.6663
15532TIP3    H268012   5.445   5.528  14.520 -0.0820  0.6258 -0.5416
15533TIP3   OH268013   0.234   4.733   1.506  0.8448 -1.0683 -0.1175
15533TIP3    H168014   0.274   4.723   1.419 -0.9762 -1.2834 -0.9864
15533TIP3    H268015   0.143   4.706   1.493  0.6573 -1.5975  1.9964
15534TIP3   OH268016   5.300   0.655  15.385  0.1784  0.4175  0.1496
15534TIP3    H168017   5.373   0.659  15.324 -0.9912 -0.6056 -1.3773
15534TIP3    H268018   5.326   0.590  15.450  0.2119 -0.7149 -0.9826
15535TIP3   OH268019   5.271   4.430   4.057 -0.0502  0.3322  0.4495
15535TIP3    H168020   5.224   4.464   4.134  1.6576  0.6945  1.3913
15535TIP3    H268021   5.268   4.501   3.993  0.3505  0.8798  1.0222
15536TIP3   OH268022   1.486   0.939   5.532  0.9547 -0.1480 -0.0938
15536TIP3    H168023   1.514   0.888   5.608  1.0033 -0.1786 -0.1318
15536TIP3    H268024   1.564   0.987   5.505  1.0537 -0.4568 -0.3775
15537TIP3   OH268025   0.220   4.236   1.646 -0.0072  0.0304 -0.1529
15537TIP3    H168026   0.295   4.294   1.632 -0.7058  1.0270  0.1596
15537TIP3    H268027   0.144   4.286   1.615 -0.4400 -1.4039 -1.5625
15538TIP3   OH268028   1.997   5.146   6.095  0.3172  0.2239 -0.5088
15538TIP3    H168029   1.998   5.235   6.132 -2.7798  0.7584 -1.3814
15538TIP3    H268030   1.913   5.110   6.122  0.4552 -1.5262 -2.1769
15539TIP3   OH268031   2.653   2.819   2.536  0.6179 -0.1407  0.0709
15539TIP3    H168032   2.696   2.811   2.451 -0.5978 -1.7151 -0.4493
15539TIP3    H268033   2.601   2.738   2.544 -3.4303  2.1833 -0.0230
15540TIP3   OH268034   1.144   2.562   6.330 -0.2342  0.4452 -0.0906
15540TIP3    H168035   1.135   2.580   6.424 -1.6790  1.5369 -0.4016
15540TIP3    H268036   1.054   2.553   6.299  0.2490 -0.4724 -1.2785
15541TIP3   OH268037   2.042   1.495  14.241 -0.1659 -0.5606  0.0428
15541TIP3    H168038   2.002   1.553  14.178 -0.8069 -0.4560  0.5370
15541TIP3    H268039   2.055   1.413  14.194 -0.4480 -0.4181 -0.2827
15542TIP3   OH268040   3.609   5.684   5.823  0.0591 -0.4431 -0.0244
15542TIP3    H168041   3.525   5.707   5.862 -0.9126 -2.0462 -1.0441
15542TIP3    H268042   3.673   5.703   5.891 -1.3465 -1.1313  1.5734
15543TIP3   OH268043   1.776   5.784  10.263 -0.2069  0.1293 -0.3752
15543TIP3    H168044   1.832   5.826  10.197 -0.5124  0.6332 -0.3221
15543TIP3    H268045   1.821   5.799  10.345 -0.5065  0.7022 -0.3095
15544TIP3   OH268046   1.083   6.585   1.210 -0.0734 -0.3279 -0.4281
15544TIP3    H168047   1.122   6.557   1.127 -2.0275 -3.1837 -0.5314
15544TIP3    H268048   0.999   6.623   1.186 -0.1191 -0.0316  0.1778
15545TIP3   OH268049   3.407   2.274  13.771  0.0567  0.0899  0.4142
15545TIP3    H168050   3.312   2.278  13.778  0.0468  0.3699  0.1426
15545TIP3    H268051   3.424   2.229  13.688  0.1622 -0.5383  0.7758
15546TIP3   OH268052   3.886   0.233   2.836 -0.0364  0.3918 -0.5495
15546TIP3    H168053   3.924   0.253   2.750 -0.7510  0.0962 -0.9385
15546TIP3    H268054   3.962   0.214   2.892  0.3730 -1.3157 -1.6013
15547TIP3   OH268055   0.071   5.147  12.353 -0.2258 -0.0896  0.2365
15547TIP3    H168056   0.014   5.073  12.332  0.0892 -0.1479 -0.4718
15547TIP3    H268057   0.158   5.109  12.360 -0.2012  0.0706  0.8410
15548TIP3   OH268058   3.952   0.837  12.136  0.3674  0.3086  0.4733
15548TIP3    H168059   3.928   0.913  12.083 -0.0539  0.1805  0.4816
15548TIP3    H268060   4.042   0.818  12.110 -0.3687 -0.8082 -1.4698
15549TIP3   OH268061   3.594   5.624   6.190  0.8888  0.5167  0.3398
15549TIP3    H168062   3.576   5.624   6.284  2.1452 -1.3348  0.6327
15549TIP3    H268063   3.507   5.631   6.150  0.2090  0.0406  1.6552
15550TIP3   OH268064   5.564   1.362  14.268 -0.2875 -0.1759  0.3855
15550TIP3    H168065   5.470   1.368  14.251 -0.9586 -3.1071  2.2824
15550TIP3    H268066   5.602   1.330  14.186 -0.8731  1.1971 -0.4489
15551TIP3   OH268067   0.826   4.856   0.090 -0.5886  0.2821  0.0901
15551TIP3    H168068   0.757   4.791   0.078  0.0651 -0.2590 -0.8464
15551TIP3    H268069   0.892   4.812   0.143 -0.7509  0.6459  0.5993
15552TIP3   OH268070   2.368   0.634   2.610 -0.5086 -0.0255 -0.1587
15552TIP3    H168071   2.289   0.588   2.584 -1.8968  1.1047  1.7966
15552TIP3    H268072   2.360   0.721   2.572  0.3690 -0.2467 -0.8870
15553TIP3   OH268073   0.891   0.974   0.713  0.2562 -0.3090 -0.0673
15553TIP3    H168074   0.810   0.981   0.763 -0.0281 -0.8487 -0.4374
15553TIP3    H268075   0.960   0.966   0.779 -0.0884 -0.7687  0.2425
15554TIP3   OH268076   4.582   6.104  15.318  0.1209  0.2125 -0.2181
15554TIP3    H168077   4.569   6.036  15.252  0.5580  0.3856 -0.4931
15554TIP3    H268078   4.578   6.186  15.269 -0.5129  0.3914  0.1281
15555TIP3   OH268079   1.251   0.129   6.720  0.1371 -0.4102 -0.4591
15555TIP3    H168080   1.235   0.160   6.631 -1.7791  0.5040  0.1404
15555TIP3    H268081   1.286   0.206   6.765 -0.4481 -0.3739 -0.0495
15556TIP3   OH268082   1.766   4.777  14.841 -0.4722  0.3143  0.4547
15556TIP3    H168083   1.839   4.725  14.807 -1.3299 -0.3821 -0.4004
15556TIP3    H268084   1.739   4.730  14.920 -1.0913 -0.4448 -0.1841
15557TIP3   OH268085   1.412   2.503  16.368  0.4325 -0.0945 -0.4181
15557TIP3    H168086   1.467   2.497  16.446  0.5797 -4.1910 -0.6413
15557TIP3    H268087   1.363   2.585  16.380  2.4580  0.8507  2.5375
15558TIP3   OH268088   3.620   4.287  15.701 -0.4222  0.0939 -0.4432
15558TIP3    H168089   3.680   4.214  15.684  0.6500  0.8429  0.0522
15558TIP3    H268090   3.560   4.286  15.626  0.0066 -0.8586 -0.7913
15559TIP3   OH268091   0.976   0.376  15.848 -0.6628  0.0503 -0.1455
15559TIP3    H168092   0.966   0.460  15.805 -0.6016 -0.1840 -0.6242
15559TIP3    H268093   1.041   0.391  15.917 -1.3646  0.6206  0.4009
15560TIP3   OH268094   1.500   0.991   2.905 -0.0308 -0.1119  0.5459
15560TIP3    H168095   1.496   1.086   2.914 -0.6914  0.1739 -1.9165
15560TIP3    H268096   1.425   0.959   2.954 -1.2038  0.8637 -0.5521
15561TIP3   OH268097   0.244   3.268  12.089 -0.4672  0.1778 -0.0080
15561TIP3    H168098   0.163   3.314  12.109  0.7837  2.3883  0.2631
15561TIP3    H268099   0.306   3.337  12.063  1.8693 -1.1928  1.5153
15562TIP3   OH268100   1.910   3.784  13.507 -0.1526  0.2500 -0.2211
15562TIP3    H168101   1.934   3.863  13.459 -0.0404  0.2721 -0.1298
15562TIP3    H268102   1.859   3.815  13.581  1.3014  0.4011  0.7680
15563TIP3   OH268103   1.630   5.247   5.607 -0.5375 -0.3915  0.8093
15563TIP3    H168104   1.577   5.320   5.639 -0.2265  1.1420 -1.8745
15563TIP3    H268105   1.692   5.228   5.678 -1.6120  0.9389  2.1380
15564TIP3   OH268106   2.781   3.120  16.326 -0.1486  0.1361 -0.2342
15564TIP3    H168107   2.836   3.059  16.277  0.2926 -0.0784  0.5194
15564TIP3    H268108   2.698   3.121  16.278  0.3522  0.1195 -1.1203
15565TIP3   OH268109   0.175   0.299  16.999 -0.4205 -0.1042 -0.1996
15565TIP3    H168110   0.156   0.392  17.010  0.1728  0.0642 -0.5855
15565TIP3    H268111   0.095   0.255  17.028 -0.3730  0.4874  0.8675
15566TIP3   OH268112   2.142   4.733   5.531  0.4493 -0.3934 -0.1353
15566TIP3    H168113   2.051   4.706   5.519  0.1787  0.4108  0.0174
15566TIP3    H268114   2.191   4.687   5.463 -0.3715  0.6539 -1.4778
15567TIP3   OH268115   3.692   1.391  10.428 -0.1245 -0.2984  0.0890
15567TIP3    H168116   3.656   1.347  10.504 -1.1806  0.0834 -0.1758
15567TIP3    H268117   3.784   1.406  10.450 -0.0457 -1.5316  0.6696
15568TIP3   OH268118   3.639   2.691   2.520 -0.2483  0.0267  0.2462
15568TIP3    H168119   3.571   2.624   2.510 -0.4931  0.3769 -0.4765
15568TIP3    H268120   3.674   2.703   2.432  2.5760 -1.9978  0.9403
15569TIP3   OH268121   0.334   0.397  11.707  0.1673 -0.6466 -0.4214
15569TIP3    H168122   0.239   0.386  11.701  0.0742 -0.5968  0.7676
15569TIP3    H268123   0.369   0.326  11.653 -0.5132  1.3812 -3.8600
15570TIP3   OH268124   0.235   0.210   4.549  0.2341  0.0570 -0.4544
15570TIP3    H168125   0.225   0.126   4.505  0.1896  0.7789 -1.8840
15570TIP3    H268126   0.245   0.273   4.478 -2.7513  1.6954  0.4033
15571TIP3   OH268127   0.678   3.649   6.569  0.3514  0.1688  0.5007
15571TIP3    H168128   0.745   3.698   6.522  0.1876  0.4358  0.5420
15571TIP3    H268129   0.726   3.597   6.633  0.4065  1.6394  1.6973
15572TIP3   OH268130   2.976   4.004  14.678  0.0847 -0.6164  0.4912
15572TIP3    H168131   3.009   4.019  14.766 -0.7393  1.6710  0.4755
15572TIP3    H268132   2.888   4.040  14.679  0.3169  0.1375 -1.4375
15573TIP3   OH268133   0.996   6.457  16.593  0.5667 -0.4090  0.0699
15573TIP3    H168134   0.961   6.491  16.675 -0.9147 -1.1356 -0.2425
15573TIP3    H268135   0.981   6.527  16.529  3.6932  1.0795  0.7878
15574TIP3   OH268136   2.641   4.187  14.347 -0.3339  0.3735  0.2818
15574TIP3    H168137   2.723   4.161  14.306  0.1624 -0.7154  1.8576
15574TIP3    H268138   2.625   4.276  14.316  1.5638  0.6919  0.1318
15575TIP3   OH268139   4.959   2.168  10.410 -0.1538  0.0021 -0.6382
15575TIP3    H168140   5.034   2.175  10.468 -1.0308 -0.2935  0.5808
15575TIP3    H268141   4.916   2.253  10.414 -0.7419 -0.3122 -0.0953
15576TIP3   OH268142   1.235   5.623   1.941  0.5217  0.8069  0.5082
15576TIP3    H168143   1.257   5.565   1.868  0.4398  0.5547  0.6810
15576TIP3    H268144   1.319   5.643   1.981  0.3915 -1.2839  2.0212
15577TIP3   OH268145   6.037   0.831  14.898 -0.6028  0.1655  0.3305
15577TIP3    H168146   6.041   0.763  14.965 -1.3685 -0.6752 -0.4494
15577TIP3    H268147   6.126   0.835  14.863 -0.5973 -0.6136  0.2274
15578TIP3   OH268148   5.482   5.148   6.315 -0.4092  0.2723  0.3139
15578TIP3    H168149   5.531   5.074   6.278 -0.9703  0.2796 -0.4712
15578TIP3    H268150   5.532   5.173   6.393  1.4400  0.9368 -1.0106
15579TIP3   OH268151   4.174   6.399   6.229 -0.3814 -0.5251 -0.2512
15579TIP3    H168152   4.173   6.387   6.324 -2.4231 -3.0175 -0.4815
15579TIP3    H268153   4.261   6.369   6.203  0.6834  1.3697  0.8670
15580TIP3   OH268154   0.999   5.359  16.845  0.1662 -0.0366  0.2706
15580TIP3    H168155   1.045   5.335  16.764  1.2486  1.5883  0.3614
15580TIP3    H268156   1.054   5.427  16.884 -1.2379  0.4210  1.5148
15581TIP3   OH268157   3.690   2.943   1.291  0.5721  0.0233 -0.8700
15581TIP3    H168158   3.756   2.874   1.295  0.5730  0.0582  0.1133
15581TIP3    H268159   3.691   2.982   1.379 -0.8577 -0.0752 -0.7796
15582TIP3   OH268160   1.890   5.286  11.002 -0.3791  0.3996 -0.3722
15582TIP3    H168161   1.848   5.347  11.063 -0.5361 -0.7186  0.6631
15582TIP3    H268162   1.862   5.316  10.916 -1.2992  1.1625  0.1668
15583TIP3   OH268163   3.526   4.233  13.070 -0.0948 -0.0225  0.1479
15583TIP3    H168164   3.512   4.307  13.130 -0.1363 -0.0987  0.2336
15583TIP3    H268165   3.471   4.164  13.106 -1.7292  0.5501 -1.1269
15584TIP3   OH268166   2.716   2.608  11.657 -0.1320  0.5222  0.3944
15584TIP3    H168167   2.685   2.538  11.714  1.7140 -0.2159  0.5700
15584TIP3    H268168   2.645   2.673  11.657 -0.9911 -0.3636  1.9275
15585TIP3   OH268169   3.259   6.437   2.936 -0.3988 -0.0185  0.6875
15585TIP3    H168170   3.221   6.385   2.865 -0.5677 -1.1225  1.5617
15585TIP3    H268171   3.291   6.372   2.998 -1.1698  0.9297  2.1143
15586TIP3   OH268172   1.598   2.656   4.495  0.0569 -0.1683 -0.0643
15586TIP3    H168173   1.553   2.577   4.524 -0.5861  0.1084 -0.2975
15586TIP3    H268174   1.603   2.710   4.574  1.3656 -0.8276  0.3346
15587TIP3   OH268175   0.458   5.304  15.907  0.4636 -0.1676 -0.0961
15587TIP3    H168176   0.513   5.303  15.986 -0.9325  0.0191  0.9140
15587TIP3    H268177   0.510   5.352  15.843  1.4635  0.0296  0.8206
15588TIP3   OH268178   1.111   1.081   1.365 -0.3382 -0.4275 -0.0786
15588TIP3    H168179   1.177   1.033   1.414 -0.8908 -1.6089 -0.4555
15588TIP3    H268180   1.049   1.111   1.431 -1.2370 -2.2597 -0.0441
15589TIP3   OH268181   5.090   2.214  17.285 -0.2250 -0.0298  0.3871
15589TIP3    H168182   5.058   2.279  17.223 -0.0056 -1.5102 -1.3886
15589TIP3    H268183   5.081   2.130  17.239 -1.0303 -1.3628  2.7631
15590TIP3   OH268184   4.963   6.209  14.190  0.3840  0.2387  0.0411
15590TIP3    H168185   4.903   6.195  14.117 -0.7546 -1.0589  1.1569
15590TIP3    H268186   5.035   6.148  14.174 -0.7090 -1.3357  0.8219
15591TIP3   OH268187   4.430   1.130   2.467 -0.0404  0.2395 -0.2912
15591TIP3    H168188   4.393   1.209   2.429  0.1219  0.5282  0.1410
15591TIP3    H268189   4.379   1.116   2.547 -0.2568 -0.2560 -0.5072
15592TIP3   OH268190   2.507   0.361   5.441  0.0987 -0.0844  0.7176
15592TIP3    H168191   2.428   0.316   5.411  0.5711 -0.4878  0.0532
15592TIP3    H268192   2.528   0.319   5.525 -1.5482  1.4336  1.9535
15593TIP3   OH268193   1.754   2.477   6.309  0.2701  0.0344 -0.1135
15593TIP3    H168194   1.760   2.389   6.273  0.3779  0.5289 -1.3766
15593TIP3    H268195   1.702   2.526   6.244 -2.2291  0.2359  1.9023
15594TIP3   OH268196   6.447   0.558  15.152 -0.1380 -0.2815  0.1802
15594TIP3    H168197   6.399   0.602  15.082  3.1990 -0.7570 -2.7190
15594TIP3    H268198   6.458   0.624  15.220 -1.8396  0.8519 -0.5896
15595TIP3   OH268199   6.019   6.178   4.312  0.3470  0.3842  0.0714
15595TIP3    H168200   5.938   6.147   4.273  0.7438  0.9062 -1.2052
15595TIP3    H268201   6.020   6.138   4.399 -0.9838 -0.0950 -0.1063
15596TIP3   OH268202   6.091   0.719   1.660 -0.4748  0.3559  0.3152
15596TIP3    H168203   6.095   0.742   1.567  1.8447 -1.5594 -0.1303
15596TIP3    H268204   6.090   0.623   1.661 -2.5870  0.3134  2.2750
15597TIP3   OH268205   4.412   1.970   3.677  0.2475 -0.2691  0.5097
15597TIP3    H168206   4.448   2.039   3.622 -1.5171 -1.3190 -2.1480
15597TIP3    H268207   4.442   1.889   3.638  0.1887 -1.0808  2.0570
15598TIP3   OH268208   1.653   5.497  14.849  0.3806  0.2326 -0.8444
15598TIP3    H168209   1.731   5.498  14.794  0.2278 -1.2570 -1.1092
15598TIP3    H268210   1.598   5.567  14.813  1.7596  1.6325 -0.3509
15599TIP3   OH268211   5.155   3.298  13.114 -0.0221 -0.0470  0.1893
15599TIP3    H168212   5.115   3.321  13.030 -1.4021 -0.5132  0.6897
15599TIP3    H268213   5.242   3.265  13.091 -0.1918  0.2812 -1.0024
15600TIP3   OH268214   2.711   4.218   0.612  0.3085  0.1292  0.2183
15600TIP3    H168215   2.787   4.237   0.556 -0.1877 -0.1675 -0.5786
15600TIP3    H268216   2.646   4.283   0.586  0.1201  0.0757  0.5562
15601TIP3   OH268217   0.692   2.412   3.832  0.0691  0.1082  0.0710
15601TIP3    H168218   0.728   2.326   3.807 -2.5596 -0.2617 -3.0580
15601TIP3    H268219   0.698   2.464   3.752 -0.3056  2.1720  1.3334
15602TIP3   OH268220   2.502   5.123  15.321 -0.0786  0.2466  0.0568
15602TIP3    H168221   2.564   5.127  15.248  1.3407  0.2157  1.2214
15602TIP3    H268222   2.435   5.061  15.292 -0.1491  1.0605 -1.6410
15603TIP3   OH268223   1.112   0.401  14.351 -0.0828  0.6089 -0.8472
15603TIP3    H168224   1.168   0.323  14.345  0.6997  1.0565  0.3123
15603TIP3    H268225   1.151   0.463  14.290  1.5324  1.3880  0.8698
15604TIP3   OH268226   0.571   4.275  14.830 -0.1744 -0.3417 -0.3127
15604TIP3    H168227   0.596   4.226  14.908 -1.3003  1.0887  1.0136
15604TIP3    H268228   0.509   4.341  14.862 -2.5616 -1.1906 -2.7553
15605TIP3   OH268229   6.648   3.495   2.352  0.0136  0.3423  0.4548
15605TIP3    H168230   6.642   3.484   2.447 -0.2555  0.1007  0.4108
15605TIP3    H268231   6.711   3.428   2.325 -0.5821 -0.1913  0.3571
15606TIP3   OH268232   6.490   5.631   0.194 -0.4392 -1.2325 -0.2680
15606TIP3    H168233   6.523   5.720   0.187 -0.0518 -1.3636 -0.1324
15606TIP3    H268234   6.509   5.591   0.109  0.9554 -1.7072  0.2411
15607TIP3   OH268235   3.675   5.698   5.211  0.1375  0.0257  0.5769
15607TIP3    H168236   3.613   5.635   5.173  1.3737 -0.0106 -1.5417
15607TIP3    H268237   3.628   5.736   5.285 -0.8700 -2.9706  1.6350
15608TIP3   OH268238   2.551   0.023   6.763 -0.1579  0.0195  0.4657
15608TIP3    H168239   2.527  -0.032   6.688  0.8670  0.6247 -0.3541
15608TIP3    H268240   2.569   0.109   6.724  0.9388  0.2063  1.3219
15609TIP3   OH268241   0.965   6.108   5.852 -0.3005  0.1914  0.1682
15609TIP3    H168242   0.993   6.098   5.761 -1.4546 -0.4597 -0.1313
15609TIP3    H268243   1.013   6.185   5.883 -0.6457  1.0562 -1.3019
15610TIP3   OH268244   2.385   6.341   5.409  0.1223  0.2502  0.5141
15610TIP3    H168245   2.325   6.298   5.348 -2.1394 -0.4091  2.9927
15610TIP3    H268246   2.465   6.289   5.405 -1.4790 -2.4733  1.1946
15611TIP3   OH268247   2.654   3.382   5.063  0.4692  0.7052  0.2179
15611TIP3    H168248   2.741   3.350   5.089 -0.0982 -1.0945  0.0613
15611TIP3    H268249   2.604   3.382   5.145  0.2940  0.6139  0.1102
15612TIP3   OH268250   5.873   5.240  16.135 -0.2790  0.0806  0.1355
15612TIP3    H168251   5.845   5.194  16.055 -0.7746 -1.8827  1.3648
15612TIP3    H268252   5.801   5.300  16.154 -0.6290 -0.1733 -0.3410
15613TIP3   OH268253   2.118   2.507  11.911 -0.2468 -0.1961  0.3929
15613TIP3    H168254   2.197   2.539  11.955 -0.5497  0.3189  0.5738
15613TIP3    H268255   2.104   2.419  11.946 -0.9793  0.5244  1.9908
15614TIP3   OH268256   1.130   6.049   5.599 -0.5186  0.3591  0.4426
15614TIP3    H168257   1.123   6.144   5.601  0.6309  0.4820 -0.6481
15614TIP3    H268258   1.167   6.029   5.513  0.0138 -1.0211  0.9661
15615TIP3   OH268259   1.299   6.392  15.005 -0.1074  0.1893  0.1576
15615TIP3    H168260   1.302   6.401  15.100  0.0226 -2.2375  0.4621
15615TIP3    H268261   1.215   6.430  14.980  0.4878  2.1989  1.0101
15616TIP3   OH268262   5.249   3.022   2.335  0.0667 -0.0486 -0.4055
15616TIP3    H168263   5.289   3.059   2.414 -1.8140  0.3693  0.4193
15616TIP3    H268264   5.236   2.929   2.357 -0.3205  0.0365 -0.2558
15617TIP3   OH268265   5.799   1.440   2.553 -0.0223  0.1908  0.1534
15617TIP3    H168266   5.721   1.392   2.525  1.4107 -1.9679 -0.3463
15617TIP3    H268267   5.767   1.500   2.621 -2.1284 -0.5169 -0.1513
15618TIP3   OH268268   3.825   1.628  16.234  0.1818  0.0155  0.5644
15618TIP3    H168269   3.850   1.715  16.264  0.2651  0.0572  0.3728
15618TIP3    H268270   3.759   1.599  16.297  0.0411  0.2805  0.5422
15619TIP3   OH268271   1.409   4.640  16.184  0.4864  0.2970 -0.1098
15619TIP3    H168272   1.483   4.582  16.163  0.4180  0.4057 -0.6494
15619TIP3    H268273   1.440   4.691  16.259  0.8734  0.1725 -0.1821
15620TIP3   OH268274   5.856   2.856  17.334  0.2786  0.4980 -0.0024
15620TIP3    H168275   5.904   2.819  17.260  1.1551  0.1389  0.7188
15620TIP3    H268276   5.827   2.942  17.303  0.3790  0.2349 -0.8554
15621TIP3   OH268277   0.848   2.544  14.114 -0.1522  0.6205  0.2456
15621TIP3    H168278   0.808   2.586  14.039 -1.5257 -1.6766 -0.4204
15621TIP3    H268279   0.778   2.537  14.179  0.4963  0.8588  0.9907
15622TIP3   OH268280   2.391   5.983   0.140  0.6871 -0.5200 -0.0573
15622TIP3    H168281   2.342   5.976   0.058 -1.1315 -0.8696  1.0079
15622TIP3    H268282   2.462   6.044   0.121  0.3031 -0.5980 -1.8762
15623TIP3   OH268283   2.212   0.804   0.827 -0.0693 -0.5204  0.2613
15623TIP3    H168284   2.255   0.790   0.742  0.1440 -0.4495  0.3573
15623TIP3    H268285   2.283   0.799   0.891 -0.3166 -1.1757  0.4924
15624TIP3   OH268286   6.171   4.151  15.227  0.2901  0.5036  0.5888
15624TIP3    H168287   6.099   4.183  15.173  0.4361 -0.2057 -0.0394
15624TIP3    H268288   6.148   4.177  15.316 -1.2552 -0.5617  0.5379
15625TIP3   OH268289   3.367   3.600  11.336 -0.1919  0.1968  0.1936
15625TIP3    H168290   3.338   3.689  11.353 -0.7816 -0.0454  0.4808
15625TIP3    H268291   3.461   3.602  11.353 -0.1740  0.7972  0.0459
15626TIP3   OH268292   3.745   5.233   5.787  0.6600  0.5144  0.2155
15626TIP3    H168293   3.679   5.290   5.826  0.4503  0.3578  0.0901
15626TIP3    H268294   3.734   5.149   5.832  1.3258  0.7129  0.7849
15627TIP3   OH268295   5.710   0.706  13.939  0.4480  0.6219  0.4167
15627TIP3    H168296   5.708   0.773  14.008  1.1613  1.9060 -0.7673
15627TIP3    H268297   5.788   0.654  13.958 -0.1381  0.0311  1.3700
15628TIP3   OH268298   6.325   1.909  11.145 -0.2587  0.4408 -0.2140
15628TIP3    H168299   6.250   1.934  11.091 -0.2367 -0.0651 -0.4795
15628TIP3    H268300   6.396   1.968  11.118 -0.8693  1.7399  0.8667
15629TIP3   OH268301   3.471   3.330  11.958 -0.0441 -0.1185 -0.2290
15629TIP3    H168302   3.398   3.268  11.960 -0.8815  0.8461  0.1870
15629TIP3    H268303   3.493   3.346  12.050  0.2421  0.1123 -0.3346
15630TIP3   OH268304   4.038   2.744   5.607 -0.6989  0.3123  0.4480
15630TIP3    H168305   4.062   2.659   5.570 -1.1711 -0.3101  1.5132
15630TIP3    H268306   4.061   2.807   5.540 -0.5921 -0.6889 -0.4808
15631TIP3   OH268307   1.917   0.900   0.619  0.3206 -0.5107  0.1251
15631TIP3    H168308   1.904   0.817   0.664  1.1983 -1.2356 -0.9130
15631TIP3    H268309   1.913   0.878   0.526  1.0525  0.5291 -0.1701
15632TIP3   OH268310   0.506   5.821   4.341  0.3516 -0.4974  0.3476
15632TIP3    H168311   0.579   5.843   4.284 -1.2136  3.2037 -0.4887
15632TIP3    H268312   0.547   5.791   4.422  3.0426  3.4876  0.7314
15633TIP3   OH268313   6.352   2.462   2.240  0.5122 -0.0101 -0.1176
15633TIP3    H168314   6.447   2.448   2.243  0.3359 -1.3101 -0.0089
15633TIP3    H268315   6.342   2.550   2.204  1.7532 -0.0028 -0.4979
15634TIP3   OH268316   6.092   2.464   2.367 -0.1650 -0.3880 -0.5197
15634TIP3    H168317   6.076   2.538   2.309  0.2930  0.4130  0.3465
15634TIP3    H268318   6.187   2.454   2.368 -0.1012  0.1616  0.7351
15635TIP3   OH268319   5.163   2.663   3.148  0.1240 -0.4686  0.3395
15635TIP3    H168320   5.179   2.571   3.170 -0.1206 -0.3687  0.9542
15635TIP3    H268321   5.111   2.696   3.221  0.5799  0.2744  0.3348
15636TIP3   OH268322   5.495   4.900  11.864 -0.4994 -0.3569 -0.2313
15636TIP3    H168323   5.481   4.810  11.837  2.1527 -1.2777  1.1136
15636TIP3    H268324   5.541   4.894  11.948 -0.0813  2.2457 -0.1686
15637TIP3   OH268325   6.088   0.206   4.053 -0.3474  0.0618  0.0501
15637TIP3    H168326   6.089   0.144   4.125  0.9159 -0.0804 -0.0665
15637TIP3    H268327   6.015   0.265   4.072  0.8038  0.8885  2.1916
15638TIP3   OH268328   3.533   4.716  13.421  0.0745 -0.2486  0.1806
15638TIP3    H168329   3.549   4.809  13.435 -0.5354 -0.0077 -0.6532
15638TIP3    H268330   3.610   4.672  13.459 -0.8726  0.3872  3.1242
15639TIP3   OH268331   2.513   0.216  16.582 -0.1920 -0.1634 -0.1195
15639TIP3    H168332   2.579   0.157  16.619  0.0518  0.4175  0.4083
15639TIP3    H268333   2.436   0.202  16.637 -0.1403 -0.0155 -0.0067
15640TIP3   OH268334   6.583   0.369   4.826 -0.3016  0.3432  0.0916
15640TIP3    H168335   6.578   0.309   4.900 -0.6365 -0.5106 -0.6024
15640TIP3    H268336   6.500   0.416   4.826  0.8534  2.5698  2.0439
15641TIP3   OH268337   2.641   5.211  17.181  0.2025 -0.3051  0.3971
15641TIP3    H168338   2.674   5.298  17.159 -1.5421  1.0918  2.8203
15641TIP3    H268339   2.710   5.151  17.153  0.5333  1.5723 -3.4011
15642TIP3   OH268340   2.089   2.554   1.980 -0.2410  0.1828  0.3355
15642TIP3    H168341   2.123   2.487   1.920  1.7304  1.3325  0.0971
15642TIP3    H268342   1.994   2.547   1.971 -0.0436 -0.3029 -2.2568
15643TIP3   OH268343   5.417   5.898  15.521  0.7091 -0.0823  0.0938
15643TIP3    H168344   5.418   5.896  15.426  0.3445  1.9596 -0.0040
15643TIP3    H268345   5.510   5.896  15.546  0.8290 -0.0547 -0.3433
15644TIP3   OH268346   0.164   4.283   5.484  0.0281 -0.1556  0.2023
15644TIP3    H168347   0.258   4.293   5.472 -0.0246  0.1770  0.0369
15644TIP3    H268348   0.147   4.314   5.573  0.5027 -3.1821  1.4718
15645TIP3   OH268349   5.567   3.008  11.353 -0.4860  0.2729  0.2047
15645TIP3    H168350   5.488   3.040  11.397 -0.0728  1.2829  0.2449
15645TIP3    H268351   5.543   3.003  11.261 -0.1765  2.0574 -0.0140
15646TIP3   OH268352   1.154   4.979   3.972  0.7014 -0.4360  0.1120
15646TIP3    H168353   1.080   4.969   4.031 -0.3911  4.7964  0.1332
15646TIP3    H268354   1.227   4.937   4.017 -0.9390 -0.2260  3.2329
15647TIP3   OH268355   1.534   5.819  16.325  0.1392 -0.5750  0.2276
15647TIP3    H168356   1.613   5.799  16.375 -0.1127 -0.8907  0.5016
15647TIP3    H268357   1.550   5.906  16.289  0.7628 -0.7879 -0.0163
15648TIP3   OH268358   3.689   3.900   3.498  0.6063  0.5728 -0.2634
15648TIP3    H168359   3.649   3.819   3.532  0.1581  0.5182 -0.8994
15648TIP3    H268360   3.635   3.922   3.422  1.0118  1.2205 -0.3611
15649TIP3   OH268361   3.716   1.012  16.380 -0.3451  0.5190 -0.3977
15649TIP3    H168362   3.646   1.057  16.427  0.2815 -1.6282  2.8945
15649TIP3    H268363   3.679   0.927  16.356  0.0467  0.7559 -1.9873
15650TIP3   OH268364   5.427   1.890   1.954 -0.6849  0.0242 -0.3484
15650TIP3    H168365   5.396   1.900   2.044  0.0653 -0.9964  0.0462
15650TIP3    H268366   5.499   1.828   1.961  0.5996  1.3299 -1.3968
15651TIP3   OH268367   4.672   5.262   4.316 -0.3098  0.2657  0.6404
15651TIP3    H168368   4.636   5.185   4.271  1.9397 -0.7122  0.3641
15651TIP3    H268369   4.737   5.297   4.255 -0.8466  2.0583  1.0336
15652TIP3   OH268370   5.319   2.200  16.590 -0.1671 -0.2919 -0.0713
15652TIP3    H168371   5.395   2.251  16.562 -0.5409  0.5031  0.3165
15652TIP3    H268372   5.308   2.222  16.682 -0.7642 -0.5346 -0.0822
15653TIP3   OH268373   4.327   6.655  16.549  0.3344  0.2010  0.3997
15653TIP3    H168374   4.416   6.623  16.537  0.1756  0.2340 -1.0425
15653TIP3    H268375   4.271   6.580  16.530  0.0233  0.6724 -0.6281
15654TIP3   OH268376   2.117   2.026   1.407 -0.0415 -0.2279 -0.0465
15654TIP3    H168377   2.067   2.039   1.326  0.8206 -0.4653 -0.6303
15654TIP3    H268378   2.208   2.018   1.378  0.7168  2.6748  1.1675
15655TIP3   OH268379   1.501   1.680  16.175 -0.3719  0.1221  0.3338
15655TIP3    H168380   1.467   1.651  16.091 -1.0340  0.9613  0.2985
15655TIP3    H268381   1.441   1.643  16.239 -0.1824 -0.0596  0.4099
15656TIP3   OH268382   1.393   3.813   5.599  0.3170 -0.5545  0.1808
15656TIP3    H168383   1.362   3.856   5.679 -1.7182  0.3030 -0.9732
15656TIP3    H268384   1.475   3.856   5.579 -1.0338  2.0220 -0.2289
15657TIP3   OH268385   2.128   0.508  13.300 -0.1439 -0.0802  0.3872
15657TIP3    H168386   2.069   0.461  13.358 -1.1081  1.4018  0.6853
15657TIP3    H268387   2.099   0.485  13.212 -0.8496  0.2206  0.5316
15658TIP3   OH268388   1.193   5.422  11.979  0.3918 -0.2214  0.2560
15658TIP3    H168389   1.162   5.498  12.029  1.6857  0.4718  0.0540
15658TIP3    H268390   1.203   5.353  12.044 -1.3985 -0.4335  0.3425
15659TIP3   OH268391   0.815   5.791  14.188  0.3462  0.6820  0.2243
15659TIP3    H168392   0.852   5.758  14.106  0.2421 -0.1453  0.5006
15659TIP3    H268393   0.753   5.723  14.215  0.3637  0.9580  0.9716
15660TIP3   OH268394   3.751   4.458   2.100 -0.0485  0.0699 -0.2484
15660TIP3    H168395   3.834   4.476   2.057 -0.0372 -0.4242 -0.4461
15660TIP3    H268396   3.763   4.371   2.138 -0.2840  0.2313  0.1949
15661TIP3   OH268397   0.957   3.070  16.111 -0.0054  0.0288 -0.0488
15661TIP3    H168398   0.967   3.146  16.168 -0.2419 -0.7884  1.1315
15661TIP3    H268399   1.021   3.007  16.143  0.7909  0.0243 -1.5635
15662TIP3   OH268400   4.008   5.786   4.642  0.4100  0.2614  0.3295
15662TIP3    H168401   4.058   5.729   4.583  0.6477  0.8202 -0.0173
15662TIP3    H268402   4.023   5.874   4.608 -0.3935  0.4865  0.5411
15663TIP3   OH268403   6.544   1.479  12.286 -0.0018 -0.1395  0.0921
15663TIP3    H168404   6.478   1.441  12.228  0.4187  0.3362 -0.7137
15663TIP3    H268405   6.500   1.555  12.325 -0.0685 -0.0673 -0.1193
15664TIP3   OH268406   5.132   4.156  12.903  0.4913  0.0110 -0.0981
15664TIP3    H168407   5.145   4.227  12.966 -2.6726  1.0908 -0.4645
15664TIP3    H268408   5.125   4.200  12.819 -1.5658 -0.6321 -0.3256
15665TIP3   OH268409   5.681   1.068  13.559 -0.1602 -0.5288  0.2859
15665TIP3    H168410   5.687   1.141  13.620  0.2466  0.5086 -0.9643
15665TIP3    H268411   5.632   1.001  13.607  0.8817 -0.0813  2.0476
15666TIP3   OH268412   0.015   3.246   5.761  0.3522  0.3105 -0.3407
15666TIP3    H168413  -0.070   3.290   5.765  0.6461  0.9694 -0.9964
15666TIP3    H268414  -0.005   3.155   5.738 -0.1293  0.6885 -1.5036
15667TIP3   OH268415   0.446   2.895  16.292  0.4413  0.3508 -0.0595
15667TIP3    H168416   0.521   2.875  16.237  0.5970  2.0337 -0.5059
15667TIP3    H268417   0.484   2.928  16.374  0.2622  2.6843 -0.8429
15668TIP3   OH268418   4.906   1.785  16.896 -0.0955  0.7222 -0.7601
15668TIP3    H168419   4.933   1.754  16.983 -0.9443  2.0010 -0.0024
15668TIP3    H268420   4.967   1.744  16.836  0.5946 -0.1025  0.4571
15669TIP3   OH268421   2.304   3.418   0.969 -0.5131  0.2061  0.4978
15669TIP3    H168422   2.356   3.407   1.048 -1.0530  0.4747  0.8972
15669TIP3    H268423   2.327   3.505   0.937 -2.6525  1.4866  2.1626
15670TIP3   OH268424   2.764   5.217   5.106  0.0928 -0.6694 -0.3619
15670TIP3    H168425   2.689   5.202   5.049  0.1761  1.7310 -1.2147
15670TIP3    H268426   2.732   5.196   5.194 -1.7243  0.6764 -0.6517
15671TIP3   OH268427   0.510   1.235  16.329  0.0320 -0.6055  0.3607
15671TIP3    H168428   0.537   1.210  16.417  0.6701 -0.4723  0.2040
15671TIP3    H268429   0.579   1.203  16.272  1.0154  1.6194  0.1685
15672TIP3   OH268430   3.271   2.247  16.141  0.2018 -0.3162  0.3709
15672TIP3    H168431   3.293   2.276  16.053  0.9718 -0.9232  0.3471
15672TIP3    H268432   3.185   2.207  16.134 -0.9671  2.0013  0.4260
15673TIP3   OH268433   4.117   0.782  15.902  0.4829 -0.2653  0.6071
15673TIP3    H168434   4.097   0.694  15.872 -0.3653  1.1566 -3.5451
15673TIP3    H268435   4.208   0.777  15.931  0.9745 -2.2086 -1.0623
15674TIP3   OH268436   5.882   2.023   1.238  0.0598  0.5679  0.4902
15674TIP3    H168437   5.791   2.040   1.214 -0.3616 -1.2095  0.6974
15674TIP3    H268438   5.901   2.087   1.307 -0.2386  2.5331 -1.1643
15675TIP3   OH268439   4.082   1.764  17.217  0.0392 -0.1879 -0.0306
15675TIP3    H168440   4.008   1.813  17.255 -1.2215 -1.5357 -0.6798
15675TIP3    H268441   4.052   1.674  17.213  1.7988 -0.8032 -0.1937
15676TIP3   OH268442   1.812   2.102   3.901 -0.7959 -0.2162  0.2747
15676TIP3    H168443   1.812   2.035   3.969 -0.8108 -0.7120 -0.2042
15676TIP3    H268444   1.892   2.153   3.918 -0.9993 -0.0957  0.8864
15677TIP3   OH268445   1.376   2.887   4.687 -0.5425 -0.1400 -0.8466
15677TIP3    H168446   1.468   2.869   4.707 -0.9537  1.9356  4.4061
15677TIP3    H268447   1.376   2.975   4.650 -0.3906 -1.0487 -3.1872
15678TIP3   OH268448   4.991   4.328   5.658 -0.2325 -0.1134  0.0849
15678TIP3    H168449   4.974   4.396   5.722  0.6985 -0.4323  0.6915
15678TIP3    H268450   5.044   4.370   5.591 -0.5888  0.0334 -0.1067
15679TIP3   OH268451   0.606   5.752   5.423 -0.3317  0.2113 -0.1783
15679TIP3    H168452   0.562   5.776   5.342  0.2745  0.0940 -0.5495
15679TIP3    H268453   0.686   5.805   5.424  0.7786 -1.3567 -0.7544
15680TIP3   OH268454   4.215   4.808  12.714  0.0447  0.3468 -0.6591
15680TIP3    H168455   4.293   4.854  12.745  0.4572 -0.6415 -0.1579
15680TIP3    H268456   4.244   4.717  12.706 -1.3327 -0.2405  0.5723
15681TIP3   OH268457   5.555   4.153  13.968 -0.1543 -0.0683  0.2499
15681TIP3    H168458   5.622   4.086  13.955 -0.6028 -0.7361  1.2977
15681TIP3    H268459   5.591   4.210  14.037 -0.4737 -0.1732  0.5038
15682TIP3   OH268460   0.427   2.227   4.299  0.0088 -0.0923 -0.0382
15682TIP3    H168461   0.452   2.242   4.208 -1.7612  0.1973 -0.5135
15682TIP3    H268462   0.474   2.294   4.348 -1.1010  1.5303 -1.0946
15683TIP3   OH268463   4.714   6.151   1.275 -0.6838 -0.3921  0.1228
15683TIP3    H168464   4.757   6.176   1.193 -0.1408  2.1053  1.0710
15683TIP3    H268465   4.743   6.217   1.338 -3.1299 -0.6920  1.6993
15684TIP3   OH268466   1.828   5.919   2.979 -0.5163 -0.4601  0.2368
15684TIP3    H168467   1.860   5.900   2.891 -1.0559 -2.0088  0.3412
15684TIP3    H268468   1.801   6.011   2.976 -0.4467 -0.4720 -1.1860
15685TIP3   OH268469   1.301   4.721  12.169  0.3468  0.3403 -0.2997
15685TIP3    H168470   1.262   4.744  12.085  1.2955 -0.4820 -0.9906
15685TIP3    H268471   1.358   4.794  12.190 -0.6402  1.0103  0.1469
15686TIP3   OH268472   3.337   0.033   0.782 -0.5180  0.2922 -0.5088
15686TIP3    H168473   3.342   0.128   0.782  0.2864  0.2654  0.3265
15686TIP3    H268474   3.389   0.006   0.858 -1.8794 -0.7637  0.0887
15687TIP3   OH268475   5.532   4.576  13.709 -0.2333  0.3436 -0.2326
15687TIP3    H168476   5.617   4.590  13.668 -0.0392 -0.2709 -0.0573
15687TIP3    H268477   5.514   4.483  13.695 -0.8751  0.4662 -0.2639
15688TIP3   OH268478   2.720   3.786   6.634  0.4670  0.4581  0.4495
15688TIP3    H168479   2.707   3.872   6.673  1.2316  0.0117  1.7708
15688TIP3    H268480   2.804   3.793   6.588  1.1712  0.0977  1.6213
15689TIP3   OH268481   0.691   6.372  12.142  0.3697 -0.0635  0.1301
15689TIP3    H168482   0.746   6.406  12.213 -0.4905  0.4032  0.5874
15689TIP3    H268483   0.628   6.443  12.125 -1.2537 -1.2702  0.8626
15690TIP3   OH268484   4.941   0.665  13.409 -0.4206  0.3850 -0.2912
15690TIP3    H168485   4.864   0.608  13.405 -2.1947  2.6177 -0.3198
15690TIP3    H268486   5.006   0.622  13.354 -1.5557 -1.6880 -0.1173
15691TIP3   OH268487   4.130   5.558  13.987 -0.0256  0.3459 -0.0149
15691TIP3    H168488   4.159   5.587  13.901  0.0448 -0.9679 -0.4649
15691TIP3    H268489   4.036   5.544  13.978 -0.6380  3.1419  1.0210
15692TIP3   OH268490   4.911   5.425  14.594  0.2898  0.4119  0.9840
15692TIP3    H168491   4.902   5.464  14.507 -0.6837  0.6856  1.1963
15692TIP3    H268492   4.957   5.342  14.579  0.1941  0.4939  0.2257
15693TIP3   OH268493   1.505   3.177  15.145 -0.1932  0.5469  0.0715
15693TIP3    H168494   1.541   3.265  15.129 -0.4607  0.5782 -0.3823
15693TIP3    H268495   1.557   3.143  15.218  0.5788  0.6933 -0.4014
15694TIP3   OH268496   1.297   1.033  11.993  0.2841  0.1750 -0.2227
15694TIP3    H168497   1.312   0.939  11.988 -0.5109 -0.0734  1.4298
15694TIP3    H268498   1.334   1.059  12.078  0.4182  1.3398 -0.6188
15695TIP3   OH268499   5.562   5.836  14.441  0.1514  0.2691 -0.2474
15695TIP3    H168500   5.521   5.749  14.439 -0.6487  0.6497 -1.8245
15695TIP3    H268501   5.624   5.831  14.514  0.2130 -1.6683 -0.3693
15696TIP3   OH268502   1.973   0.720   6.579  0.0699 -0.0924  0.1451
15696TIP3    H168503   1.894   0.700   6.529  0.0486 -0.2425  0.2352
15696TIP3    H268504   2.035   0.754   6.515 -0.4963  1.2329  0.2833
15697TIP3   OH268505   2.590   3.622  12.123  0.9199  0.3895  0.4327
15697TIP3    H168506   2.596   3.573  12.205 -3.7497 -0.2377  0.6529
15697TIP3    H268507   2.541   3.564  12.064  2.2426  1.7140 -2.1465
15698TIP3   OH268508   1.220   6.545   4.120  0.2450  0.1819 -0.2016
15698TIP3    H168509   1.257   6.595   4.194  0.9725  1.4677 -1.3926
15698TIP3    H268510   1.295   6.527   4.063 -0.0003 -2.3034  0.1498
15699TIP3   OH268511   6.643   3.818  13.383 -0.4756 -0.7930 -0.0120
15699TIP3    H168512   6.609   3.869  13.309 -0.9761 -1.4832 -0.2687
15699TIP3    H268513   6.738   3.818  13.370 -0.3576  1.0344  0.6427
15700TIP3   OH268514   4.450   6.751   3.036 -0.3532 -0.3019 -0.4131
15700TIP3    H168515   4.469   6.712   3.121 -0.0444  0.7499  0.0121
15700TIP3    H268516   4.429   6.676   2.980  1.4079 -1.2115  0.0495
15701TIP3   OH268517   2.006   5.917  16.285 -0.0711 -0.0935 -0.0427
15701TIP3    H168518   2.023   6.008  16.258  0.1108  0.3408  1.4631
15701TIP3    H268519   2.054   5.865  16.221  1.0004  0.9196 -0.1088
15702TIP3   OH268520   2.862   0.231  11.414 -0.2653  0.7393  0.0096
15702TIP3    H168521   2.941   0.272  11.450 -0.9857  0.7521  1.6580
15702TIP3    H268522   2.891   0.143  11.389  0.2362  0.6556  0.8331
15703TIP3   OH268523   6.237   2.897   5.695 -0.0505 -0.3058  0.1586
15703TIP3    H168524   6.223   2.887   5.601  0.6127  0.0074  0.0198
15703TIP3    H268525   6.235   2.992   5.710  2.2708 -0.1829  0.0459
15704TIP3   OH268526   3.253   4.271   2.186 -0.0259 -0.1954  0.0786
15704TIP3    H168527   3.273   4.335   2.118  1.5523 -1.4471 -0.6939
15704TIP3    H268528   3.292   4.189   2.155 -1.9278 -1.5579  1.0437
15705TIP3   OH268529   2.511   1.832   5.659 -0.6206 -0.0933  0.5968
15705TIP3    H168530   2.460   1.817   5.580  2.2742 -0.3057 -1.4105
15705TIP3    H268531   2.510   1.748   5.705  0.4219 -1.0935 -1.0720
15706TIP3   OH268532   0.993   0.075   3.322 -0.3008  0.5614  0.4797
15706TIP3    H168533   0.901   0.099   3.335  0.0256  1.0649  2.0668
15706TIP3    H268534   0.993  -0.020   3.321 -0.8389  0.5558  0.5177
15707TIP3   OH268535   6.043   3.868   5.583  0.1631  0.5421  0.3048
15707TIP3    H168536   6.058   3.776   5.564  1.9708  0.2931  2.5475
15707TIP3    H268537   5.981   3.867   5.657  1.5549  1.0051  1.5201
15708TIP3   OH268538   1.986   0.761  11.926 -0.1034 -0.0929  0.4199
15708TIP3    H168539   1.929   0.792  11.855  1.4803 -0.4109 -1.0324
15708TIP3    H268540   1.972   0.825  11.996 -3.4984 -1.0636  0.8391
15709TIP3   OH268541   3.532   3.486  12.556 -0.8302  0.3418  0.5097
15709TIP3    H168542   3.610   3.436  12.580 -0.0662  1.2031 -0.1199
15709TIP3    H268543   3.483   3.427  12.499 -0.3376  0.0180  0.4103
15710TIP3   OH268544   2.251   4.124  13.529 -0.9993  0.2456 -0.0973
15710TIP3    H168545   2.275   4.203  13.482 -1.0763  0.7622  0.7110
15710TIP3    H268546   2.254   4.149  13.622 -1.2596 -0.6252  0.1582
15711TIP3   OH268547   0.265   4.755  17.146 -0.1385  0.2700  0.2560
15711TIP3    H168548   0.329   4.711  17.090  1.1922 -0.6426  2.3736
15711TIP3    H268549   0.310   4.766  17.230 -2.4616  0.4033  1.5645
15712TIP3   OH268550   1.676   2.658   6.077  0.6491 -0.6401  0.3298
15712TIP3    H168551   1.656   2.635   5.986 -1.3652  1.7351  0.0469
15712TIP3    H268552   1.746   2.723   6.071  0.0448  0.0332  0.3779
15713TIP3   OH268553   2.988   5.833   1.165 -0.2005  0.0759  0.1332
15713TIP3    H168554   3.043   5.909   1.143  1.5934 -1.0997  0.3290
15713TIP3    H268555   3.049   5.771   1.205 -2.0344 -0.6393  1.9737
15714TIP3   OH268556   6.281   4.478  14.121  0.0181 -0.3479  0.3606
15714TIP3    H168557   6.272   4.387  14.093  2.0261 -0.4474 -0.0682
15714TIP3    H268558   6.375   4.492  14.128 -0.2918  0.9099  3.0661
15715TIP3   OH268559   2.814   2.082  15.881 -0.0370  0.2889 -0.1620
15715TIP3    H168560   2.768   2.113  15.803 -0.1406 -0.1745 -0.2894
15715TIP3    H268561   2.745   2.074  15.947 -0.0996 -0.1528 -0.2770
15716TIP3   OH268562   3.687   4.285   4.301 -0.6921 -0.0258 -0.0941
15716TIP3    H168563   3.782   4.295   4.302 -0.6104 -0.7346 -0.2851
15716TIP3    H268564   3.656   4.348   4.236 -0.4099  0.6271  0.3954
15717TIP3   OH268565   2.778   3.174   1.479  0.6447 -1.2339 -0.1946
15717TIP3    H168566   2.828   3.238   1.429  0.0459  0.0267  0.7419
15717TIP3    H268567   2.693   3.171   1.435 -0.6405  1.4401  1.7467
15718TIP3   OH268568   2.937   6.287  11.806  0.1164 -0.7476  0.3918
15718TIP3    H168569   2.857   6.296  11.857 -0.7936  0.0870 -1.1123
15718TIP3    H268570   3.005   6.325  11.861 -0.6623 -0.7048  1.3466
15719TIP3   OH268571   3.980   0.797   5.620  0.0349 -0.3482 -0.1415
15719TIP3    H168572   3.936   0.879   5.643  1.4545  1.7423 -3.9856
15719TIP3    H268573   4.070   0.808   5.653  0.4197  0.0123 -1.2691
15720TIP3   OH268574   6.527   2.185  10.484  0.1353 -0.8295 -0.2798
15720TIP3    H168575   6.543   2.213  10.394  0.0008 -0.3108 -0.1432
15720TIP3    H268576   6.613   2.188  10.525  0.3942 -2.1525 -0.6837
15721TIP3   OH268577   6.268   2.932  11.132 -0.9330  0.1619  0.0990
15721TIP3    H168578   6.244   3.016  11.093 -1.0716 -1.3537 -3.4541
15721TIP3    H268579   6.360   2.920  11.110 -0.8875 -0.5804  0.6328
15722TIP3   OH268580   3.099   5.047   4.129  0.6038  0.0586  0.4743
15722TIP3    H168581   3.166   5.030   4.195  0.9907 -0.1673  0.0211
15722TIP3    H268582   3.130   5.003   4.050 -0.5755 -0.9604  0.5319
15723TIP3   OH268583   1.224   5.527   0.999  0.3323  0.0626 -0.0582
15723TIP3    H168584   1.160   5.472   1.045 -0.4970  1.7203  0.8346
15723TIP3    H268585   1.190   5.535   0.910  0.6851 -1.1698 -0.3344
15724TIP3   OH268586   1.358   2.564  12.439  0.0223 -0.2139  0.4873
15724TIP3    H168587   1.319   2.606  12.362 -0.1600 -0.9115  0.1900
15724TIP3    H268588   1.447   2.598  12.441  0.1966 -0.5813 -0.3454
15725TIP3   OH268589   5.224   4.404   2.116 -0.2514 -0.0694  0.1122
15725TIP3    H168590   5.143   4.390   2.067 -0.1939 -1.9045  0.4881
15725TIP3    H268591   5.294   4.377   2.057 -0.1418 -1.6464  0.9136
15726TIP3   OH268592   5.841   1.252  12.580 -0.4437  0.3829  0.0437
15726TIP3    H168593   5.859   1.294  12.664 -0.0805 -0.9615  0.6634
15726TIP3    H268594   5.912   1.281  12.523 -0.3231  0.7736  0.3855
15727TIP3   OH268595   3.968   1.332  16.853  0.5165  0.0805  0.0860
15727TIP3    H168596   3.940   1.240  16.851  0.2381  0.1299  1.2806
15727TIP3    H268597   3.900   1.379  16.805  0.4081 -0.2752 -0.1123
15728TIP3   OH268598   4.367   1.411  16.688 -0.2782  0.5375  0.1415
15728TIP3    H168599   4.354   1.412  16.782 -0.3933  1.0808  0.1239
15728TIP3    H268600   4.334   1.326  16.660  1.0325 -0.2110  0.7546
15729TIP3   OH268601   1.483   2.055  11.658 -0.0014  0.4313 -0.0752
15729TIP3    H168602   1.404   2.019  11.617  0.9234 -1.4081 -0.3716
15729TIP3    H268603   1.543   2.071  11.585  0.4394  0.3316  0.2553
15730TIP3   OH268604   5.147   3.108   4.744  0.1595  0.2347  0.5381
15730TIP3    H168605   5.069   3.054   4.751 -0.2079  0.6970  0.1621
15730TIP3    H268606   5.186   3.084   4.660  0.1164  0.3892  0.4724
15731TIP3   OH268607   6.189   2.827   1.914 -0.2664  0.6502  0.1402
15731TIP3    H168608   6.132   2.805   1.840  0.2352  1.4448 -0.5012
15731TIP3    H268609   6.272   2.783   1.893 -0.1720  0.7527  0.2990
15732TIP3   OH268610   5.493   1.579   6.200 -0.2772  0.0771  0.0775
15732TIP3    H168611   5.508   1.669   6.229 -1.0835 -0.2871  1.7152
15732TIP3    H268612   5.400   1.563   6.218 -0.1705 -1.0551 -0.3031
15733TIP3   OH268613   5.317   2.098   3.063 -0.0481  0.0586 -0.3158
15733TIP3    H168614   5.378   2.157   3.018  1.1847  0.4119  1.6902
15733TIP3    H268615   5.272   2.154   3.126 -0.4689 -0.7323  0.0998
15734TIP3   OH268616   4.134   3.789  15.462 -0.7170  0.2175 -0.8377
15734TIP3    H168617   4.121   3.727  15.534  1.8789 -1.3688 -1.5747
15734TIP3    H268618   4.177   3.864  15.503 -1.4978  0.4031 -0.3498
15735TIP3   OH268619   0.049   1.682   3.533  0.0800  0.4952 -0.4430
15735TIP3    H168620   0.059   1.662   3.626 -0.2447 -2.2980 -0.9045
15735TIP3    H268621  -0.045   1.674   3.517  0.3814 -1.9311 -1.4695
15736TIP3   OH268622   5.270   2.913   1.752  0.4194 -0.1702  0.2444
15736TIP3    H168623   5.234   2.905   1.840 -0.6676  0.7148 -0.0796
15736TIP3    H268624   5.198   2.885   1.695 -0.1535  2.4826 -0.4657
15737TIP3   OH268625   1.915   6.677   4.418  0.6483  0.2108  0.0593
15737TIP3    H168626   1.888   6.625   4.342  0.7553  0.0356  0.1397
15737TIP3    H268627   1.884   6.765   4.399  0.1096  0.0324  0.1078
15738TIP3   OH268628   2.690   6.678   2.476 -0.1373 -0.0266 -0.8851
15738TIP3    H168629   2.617   6.617   2.466 -0.6651  0.0697  1.6065
15738TIP3    H268630   2.652   6.753   2.522  1.1610  0.7969 -1.1155
15739TIP3   OH268631   5.936   2.760  13.196  0.7660 -0.2966 -0.5786
15739TIP3    H168632   5.901   2.845  13.223 -0.2933 -1.6057  2.7084
15739TIP3    H268633   6.030   2.773  13.187  0.8052  0.9330  1.2787
15740TIP3   OH268634   4.027   0.264   1.474  0.1372  0.1286 -0.5437
15740TIP3    H168635   4.038   0.261   1.570 -0.6014 -0.0000 -0.4610
15740TIP3    H268636   4.115   0.247   1.440  0.3841  0.0577  0.1151
15741TIP3   OH268637   4.985   6.625   6.228  0.3735  0.8155 -0.2251
15741TIP3    H168638   5.077   6.650   6.239  2.1358 -4.5431  0.0080
15741TIP3    H268639   4.942   6.657   6.307  2.6988  1.0950  1.0102
15742TIP3   OH268640   5.821   1.073   2.593 -0.5627  0.7817 -0.0104
15742TIP3    H168641   5.825   1.163   2.559  3.2490  0.7790  0.0015
15742TIP3    H268642   5.829   1.017   2.516  0.9753  0.6142  0.2352
15743TIP3   OH268643   4.250   6.716   0.584 -0.4839 -0.2875  0.6311
15743TIP3    H168644   4.203   6.682   0.508 -0.7903 -0.2160  0.7892
15743TIP3    H268645   4.258   6.641   0.643  3.4825 -1.5781 -1.2141
15744TIP3   OH268646   3.114   2.165  11.641  0.3174 -0.1905  0.6462
15744TIP3    H168647   3.092   2.154  11.734  1.1358 -1.4667  0.7084
15744TIP3    H268648   3.209   2.157  11.638  0.2223 -1.1272 -0.4221
15745TIP3   OH268649   5.164   1.669  17.165  0.6451  0.0409  0.5169
15745TIP3    H168650   5.073   1.695  17.178  0.5113  0.0415 -0.3262
15745TIP3    H268651   5.164   1.574  17.179  0.3697 -0.0641 -0.1359
15746TIP3   OH268652   5.734   5.387  14.542  0.0818 -0.5766 -0.1452
15746TIP3    H168653   5.700   5.380  14.632  2.7121 -0.6152  0.9484
15746TIP3    H268654   5.805   5.450  14.549 -1.6563  1.9891 -2.9437
15747TIP3   OH268655   1.309   3.311   3.372  0.2274 -0.5996  0.0715
15747TIP3    H168656   1.259   3.335   3.294 -0.7242  0.5785  0.9973
15747TIP3    H268657   1.274   3.226   3.399 -2.2336  0.7030  1.3740
15748TIP3   OH268658   5.782   5.368   1.080 -0.7580 -0.1247 -0.2658
15748TIP3    H168659   5.793   5.385   1.173 -1.9466 -3.2087  0.5804
15748TIP3    H268660   5.697   5.406   1.058 -0.0811  1.3790 -0.3455
15749TIP3   OH268661   5.355   4.761  13.139 -0.0816 -0.1617  0.6027
15749TIP3    H168662   5.382   4.802  13.221 -0.4591 -1.0294  1.1727
15749TIP3    H268663   5.388   4.671  13.145 -0.9641 -0.5200  0.2377
15750TIP3   OH268664   1.642   3.676   5.512 -0.4540  0.0443  0.5216
15750TIP3    H168665   1.717   3.648   5.458 -0.9149  1.2630 -0.8179
15750TIP3    H268666   1.566   3.635   5.471 -1.0699  2.5502 -1.1155
15751TIP3   OH268667   2.388   2.343  15.029  0.5258 -0.1995 -0.3150
15751TIP3    H168668   2.394   2.372  15.120  1.7350  0.1252 -0.4857
15751TIP3    H268669   2.417   2.252  15.030  0.1930 -0.3079 -0.3271
15752TIP3   OH268670   3.304   5.682   5.735 -0.0647 -0.1035 -0.1164
15752TIP3    H168671   3.386   5.718   5.701  0.2838  0.3382  1.1542
15752TIP3    H268672   3.245   5.681   5.659  0.8698  0.3017 -0.8634
15753TIP3   OH268673   3.392   1.708   3.149  0.2299  0.1136  0.1867
15753TIP3    H168674   3.390   1.800   3.174  1.5157  0.7767 -1.9002
15753TIP3    H268675   3.302   1.677   3.162  0.4233  0.6631  4.0754
15754TIP3   OH268676   5.582   1.280   2.718 -0.6026 -0.5076  0.1663
15754TIP3    H168677   5.502   1.331   2.728 -0.6793 -0.4964 -0.4759
15754TIP3    H268678   5.555   1.189   2.732 -0.6187 -0.4544  0.4966
15755TIP3   OH268679   2.675   3.455  11.477  0.1291 -0.2472 -0.5246
15755TIP3    H168680   2.651   3.547  11.465 -0.1379 -0.1292  0.7459
15755TIP3    H268681   2.593   3.408  11.462  0.3031 -0.3071 -1.3435
15756TIP3   OH268682   3.684   3.856   4.256 -0.3282 -0.3648 -0.2957
15756TIP3    H168683   3.761   3.894   4.299 -0.5525 -0.0912 -0.1315
15756TIP3    H268684   3.638   3.931   4.219 -1.2164 -0.3666  0.7454
15757TIP3   OH268685   4.461   5.759  12.146 -0.4665  0.3219 -0.2688
15757TIP3    H168686   4.374   5.759  12.186  0.4546 -1.7849  2.0484
15757TIP3    H268687   4.509   5.827  12.194 -0.2390 -0.0328  0.0110
15758TIP3   OH268688   2.513   3.083   5.108 -0.4924 -0.2419 -0.1141
15758TIP3    H168689   2.609   3.080   5.105 -0.5219 -0.7469 -0.8877
15758TIP3    H268690   2.486   3.047   5.023 -1.3677 -0.1738  0.1339
15759TIP3   OH268691   2.704   4.581  17.091 -0.0363  0.6203  0.0177
15759TIP3    H168692   2.781   4.528  17.068 -0.8194 -1.0472  1.0398
15759TIP3    H268693   2.706   4.585  17.187 -0.3675  1.9340 -0.0069
15760TIP3   OH268694   0.806   2.593  16.355 -0.2404  0.2408  0.0360
15760TIP3    H168695   0.714   2.571  16.366 -0.5025  0.8812 -0.7827
15760TIP3    H268696   0.811   2.636  16.270  0.7179  0.7751  0.3401
15761TIP3   OH268697   1.602   2.713  13.519 -0.0741 -0.2144 -0.4863
15761TIP3    H168698   1.526   2.734  13.463 -0.7731  1.4824  1.0107
15761TIP3    H268699   1.603   2.618  13.522 -2.3996 -0.2940 -0.2663
15762TIP3   OH268700   4.639   1.536   3.092 -0.1646  0.5071 -0.6012
15762TIP3    H168701   4.679   1.458   3.053 -1.2709 -0.0246 -0.6917
15762TIP3    H268702   4.551   1.539   3.055 -0.3311  1.4856 -0.1520
15763TIP3   OH268703   5.558   3.244   1.257 -0.4851 -0.5045 -0.1557
15763TIP3    H168704   5.473   3.284   1.278 -0.5055 -0.4624 -0.3149
15763TIP3    H268705   5.620   3.317   1.257 -0.9065 -0.0594 -2.7098
15764TIP3   OH268706   5.521   4.952   5.478 -0.5785 -0.9120  0.2142
15764TIP3    H168707   5.542   5.007   5.402 -0.8832  0.0573  0.8164
15764TIP3    H268708   5.552   4.865   5.453  2.6258  0.0573  0.3562
15765TIP3   OH268709   2.013   3.663   3.878 -0.7039 -0.4235  0.0199
15765TIP3    H168710   2.036   3.573   3.856 -0.8818  0.0617 -2.4930
15765TIP3    H268711   2.073   3.716   3.825 -2.9316  0.8732 -1.3553
15766TIP3   OH268712   1.585   1.924   4.803 -0.5094  0.3540 -0.1225
15766TIP3    H168713   1.609   1.904   4.894  0.7851 -1.1172 -0.7461
15766TIP3    H268714   1.522   1.855   4.780 -2.4291  1.8851  0.2325
15767TIP3   OH268715   4.138   5.304   5.775 -0.4245 -0.3178  0.2877
15767TIP3    H168716   4.063   5.245   5.764 -0.2060 -0.6187  0.4100
15767TIP3    H268717   4.171   5.284   5.863  0.7885 -1.3235 -0.3753
15768TIP3   OH268718   1.583   3.720  15.219  0.3150  0.5006  0.5266
15768TIP3    H168719   1.495   3.746  15.249  0.1557  2.0120 -1.0746
15768TIP3    H268720   1.609   3.789  15.158  1.4731 -1.3270 -1.1864
15769TIP3   OH268721   3.394   2.322  14.156 -0.1851  0.1011 -0.0635
15769TIP3    H168722   3.304   2.305  14.126 -0.4450 -0.2498  0.8706
15769TIP3    H268723   3.383   2.372  14.237  0.4391 -0.5205  0.4179
15770TIP3   OH268724   3.449   4.005  17.333  0.0911 -0.1204  0.0695
15770TIP3    H168725   3.410   3.919  17.316 -0.5000  0.5646 -2.3161
15770TIP3    H268726   3.389   4.067  17.293  1.0481  1.3643  0.8431
15771TIP3   OH268727   4.845   1.442  16.834  0.2154 -0.0616 -0.6108
15771TIP3    H168728   4.809   1.365  16.791  2.3363  0.2243 -3.1309
15771TIP3    H268729   4.890   1.490  16.765  1.2084  2.1058  1.3777
15772TIP3   OH268730   3.646   5.149  15.933  0.1568 -0.5812  0.0949
15772TIP3    H168731   3.568   5.161  15.988  0.3669  0.5754  0.1568
15772TIP3    H268732   3.665   5.055  15.939 -1.8466 -1.1027 -0.7478
15773TIP3   OH268733   0.206   1.656   4.084 -0.3670 -0.0681  0.1454
15773TIP3    H168734   0.239   1.682   3.998  0.1107 -1.9063 -0.2796
15773TIP3    H268735   0.278   1.675   4.144  0.7269 -2.0615 -0.4504
15774TIP3   OH268736   1.221   1.169   6.513 -0.2058 -0.0600 -0.0787
15774TIP3    H168737   1.234   1.076   6.533 -0.8921  0.4071  3.0454
15774TIP3    H268738   1.309   1.205   6.508  0.0629 -0.2504  2.4518
15775TIP3   OH268739   1.306   6.529   3.762  0.2301 -0.0029  0.2251
15775TIP3    H168740   1.214   6.557   3.762  0.0143 -0.5953 -1.5064
15775TIP3    H268741   1.332   6.530   3.670  2.1439  0.6498  0.7165
15776TIP3   OH268742   5.969   0.701  12.643  0.1407  0.4362  0.6059
15776TIP3    H168743   6.021   0.687  12.722 -2.4930  0.4159  2.4369
15776TIP3    H268744   5.962   0.796  12.634 -0.3186  0.4340  0.9310
15777TIP3   OH268745   2.027   4.732  15.304  0.3189 -0.3565 -0.0852
15777TIP3    H168746   2.091   4.727  15.232 -0.1076 -0.5791 -0.4532
15777TIP3    H268747   1.976   4.811  15.285 -1.2193 -1.5630 -1.2484
15778TIP3   OH268748   1.072   5.907   2.418  0.1000 -0.5080  0.1841
15778TIP3    H168749   1.022   5.987   2.435 -1.7639 -1.3880 -0.8688
15778TIP3    H268750   1.149   5.937   2.369  0.8090  0.9009  2.0215
15779TIP3   OH268751   0.261   1.251   0.885 -0.4634  0.4245 -0.0152
15779TIP3    H168752   0.307   1.196   0.822  1.9031 -0.8781  2.6392
15779TIP3    H268753   0.322   1.322   0.904 -1.2913  1.0051  0.5290
15780TIP3   OH268754   4.053   4.304   0.683  0.0858  0.4176  0.0162
15780TIP3    H168755   4.014   4.222   0.652  3.1781 -1.4104  0.4883
15780TIP3    H268756   4.035   4.367   0.614 -2.3590 -0.5891 -0.3840
15781TIP3   OH268757   5.104   2.114  11.824 -0.4596 -0.9938  0.7132
15781TIP3    H168758   5.105   2.034  11.771  0.4885 -1.4683  1.4076
15781TIP3    H268759   5.122   2.083  11.913 -2.0915 -0.2298  1.3566
15782TIP3   OH268760   3.355   5.672   3.800 -0.1988 -0.5733  0.0911
15782TIP3    H168761   3.300   5.596   3.821 -1.1299  0.4426  1.5089
15782TIP3    H268762   3.405   5.689   3.880 -1.2170  1.2656  0.4065
15783TIP3   OH268763   0.069   1.987   3.975 -0.6032 -0.2945  0.2482
15783TIP3    H168764   0.114   2.005   4.057 -1.6548  1.2468  0.5353
15783TIP3    H268765   0.028   1.901   3.988  0.4899 -0.7548  0.7421
15784TIP3   OH268766   3.681   1.722   2.240  0.2211 -0.0861 -0.2566
15784TIP3    H168767   3.656   1.781   2.311  0.6747  0.6331 -0.6760
15784TIP3    H268768   3.674   1.634   2.277 -0.8145  0.2132  0.2692
15785TIP3   OH268769   3.984   3.803   3.209  0.3184  0.1265  0.3939
15785TIP3    H168770   3.996   3.876   3.148  0.5751 -0.1081  0.1621
15785TIP3    H268771   3.889   3.792   3.214  0.2962 -1.5942 -2.0853
15786TIP3   OH268772   2.149   6.125   4.020 -0.0899 -0.3896  0.1098
15786TIP3    H168773   2.063   6.115   3.979 -0.0244 -1.2396  0.1732
15786TIP3    H268774   2.202   6.054   3.983  0.8055  0.5554 -0.4822
15787TIP3   OH268775   2.577   2.233   4.346  0.2480 -0.5279 -0.0501
15787TIP3    H168776   2.551   2.325   4.354 -0.7320 -0.8550  0.6996
15787TIP3    H268777   2.657   2.236   4.294  0.5564  0.8019  0.4414
15788TIP3   OH268778   5.319   0.753   5.919 -0.2573 -0.0157  0.6175
15788TIP3    H168779   5.354   0.735   6.006  1.5601 -0.1708 -0.1159
15788TIP3    H268780   5.285   0.669   5.889  2.5204 -0.8990 -0.2804
15789TIP3   OH268781   5.058   2.030   4.626 -0.7825  0.0378 -0.4676
15789TIP3    H168782   5.139   2.069   4.594  0.1381 -2.2954 -1.2343
15789TIP3    H268783   4.989   2.091   4.600  0.5431  1.1206 -1.5789
15790TIP3   OH268784   6.396   0.153  13.924 -0.2089 -0.0443 -0.4654
15790TIP3    H168785   6.391   0.243  13.956 -0.5290 -0.1814 -0.1233
15790TIP3    H268786   6.487   0.141  13.900 -0.3589  0.6975 -1.4645
15791TIP3   OH268787   2.592   6.188   4.787  0.0232  0.3697  0.8260
15791TIP3    H168788   2.607   6.281   4.803 -2.6726  0.9965  0.2775
15791TIP3    H268789   2.651   6.166   4.714  0.8972  1.5595  1.1514
15792TIP3   OH268790   2.996   3.806  10.781  0.0479 -0.2425 -0.1515
15792TIP3    H168791   3.040   3.722  10.799  1.3569  0.0253 -1.7977
15792TIP3    H268792   2.981   3.844  10.867 -0.0721 -1.9260  0.6090
15793TIP3   OH268793   6.124   5.416   4.205  0.2916  0.1824 -0.3321
15793TIP3    H168794   6.153   5.362   4.279  2.4297  1.0498 -0.4483
15793TIP3    H268795   6.029   5.419   4.213  0.2888 -1.6130  1.0524
15794TIP3   OH268796   3.868   0.429   3.151  0.8385  0.0170  0.5063
15794TIP3    H168797   3.873   0.487   3.075  0.1628  0.4913  0.8129
15794TIP3    H268798   3.949   0.378   3.147 -0.0076 -1.2978 -1.6021
15795TIP3   OH268799   1.001   4.457  16.098  0.2622  0.2373 -0.0689
15795TIP3    H168800   1.039   4.540  16.130 -0.7012  1.2306 -1.3884
15795TIP3    H268801   1.047   4.441  16.015  1.0260 -1.0217  0.5670
15796TIP3   OH268802   3.280   4.126   5.303  0.6629 -0.2623  0.6833
15796TIP3    H168803   3.223   4.186   5.254  1.4726  0.7901  0.9984
15796TIP3    H268804   3.312   4.064   5.237 -1.1063 -1.1016  0.5690
15797TIP3   OH268805   0.999   6.527   2.736  0.0981  0.5360 -0.0737
15797TIP3    H168806   0.994   6.500   2.828 -1.4075 -1.7074 -0.7287
15797TIP3    H268807   0.996   6.623   2.739 -3.1280  0.5399  2.1398
15798TIP3   OH268808   1.232   0.099   4.225 -0.8169 -0.0173 -0.0628
15798TIP3    H168809   1.275   0.036   4.282 -0.6220 -1.5382 -1.7983
15798TIP3    H268810   1.296   0.169   4.213  0.3407 -1.1467 -0.7833
15799TIP3   OH268811   0.932   0.828  12.428  0.1470  0.2551 -0.5220
15799TIP3    H168812   0.978   0.749  12.399  0.6278  0.0966  0.6099
15799TIP3    H268813   0.922   0.816  12.522 -1.9762  0.4351 -0.6951
15800TIP3   OH268814   1.780   0.289  16.121  0.0799 -0.9586  0.1546
15800TIP3    H168815   1.821   0.303  16.035  0.0739 -1.8593 -0.0104
15800TIP3    H268816   1.734   0.206  16.111 -3.0779  0.6638 -0.1620
15801TIP3   OH268817   0.308   0.528   5.352 -0.4027 -0.0340 -0.1403
15801TIP3    H168818   0.214   0.546   5.362  0.0002  1.3942  1.8277
15801TIP3    H268819   0.314   0.432   5.352 -1.9659 -0.2008 -2.1866
15802TIP3   OH268820   6.243   3.555   0.680  0.2132 -0.0790 -0.0684
15802TIP3    H168821   6.284   3.475   0.712  0.8351  0.5902  0.8462
15802TIP3    H268822   6.172   3.525   0.622 -1.7592 -1.4315  2.8229
15803TIP3   OH268823   4.608   5.379   5.578  0.2898 -0.4948  0.3462
15803TIP3    H168824   4.534   5.430   5.609  0.3346 -0.1480 -0.1166
15803TIP3    H268825   4.572   5.292   5.561 -0.0659 -0.2570 -0.1224
15804TIP3   OH268826   2.065   6.566  11.015  0.1466  0.1205  0.4770
15804TIP3    H168827   2.086   6.492  10.958  0.5426  0.9348 -0.4602
15804TIP3    H268828   1.986   6.539  11.061 -0.7087 -0.2036 -1.1288
15805TIP3   OH268829   4.186   0.647  11.427 -0.2138  0.0534  0.5764
15805TIP3    H168830   4.212   0.662  11.518  1.4188 -0.0026  0.1570
15805TIP3    H268831   4.123   0.716  11.408 -2.5149 -1.3571  2.4567
15806TIP3   OH268832   6.455   5.253   2.044  0.5255  0.7710  0.0761
15806TIP3    H168833   6.450   5.191   2.118  1.6907 -0.1947 -0.6257
15806TIP3    H268834   6.431   5.201   1.968  1.7777  1.0953 -0.5675
15807TIP3   OH268835   6.583   0.031   2.828 -0.8656  0.0643 -0.8727
15807TIP3    H168836   6.500  -0.014   2.846 -1.0036  0.2934 -0.9288
15807TIP3    H268837   6.628   0.033   2.912 -1.1534  0.4127 -0.7241
15808TIP3   OH268838   1.232   4.545   0.151  0.0846  0.1963 -0.1848
15808TIP3    H168839   1.223   4.476   0.217  0.3948  0.0130 -0.3317
15808TIP3    H268840   1.277   4.502   0.078 -2.2103 -0.2446 -1.4446
15809TIP3   OH268841   1.390   4.416  13.444  0.4003 -0.1690  0.5264
15809TIP3    H168842   1.406   4.383  13.532  0.2173  0.7770  0.9216
15809TIP3    H268843   1.312   4.470  13.452  0.4232 -0.0089 -0.2084
15810TIP3   OH268844   3.854   6.312  17.102 -0.1103  0.3588  0.1704
15810TIP3    H168845   3.780   6.355  17.146 -2.0902 -0.0434 -2.5374
15810TIP3    H268846   3.876   6.238  17.159 -1.1991  0.9946  1.4751
15811TIP3   OH268847   0.006   3.690  15.199  0.0929  0.6031 -0.2836
15811TIP3    H168848  -0.089   3.680  15.195  0.0012 -0.0686  2.0089
15811TIP3    H268849   0.021   3.757  15.266  1.2441  0.8856 -0.7957
15812TIP3   OH268850   1.068   1.433  14.747 -0.2473 -0.7939 -0.2785
15812TIP3    H168851   1.014   1.354  14.735  1.9730 -2.1491 -2.1875
15812TIP3    H268852   1.157   1.399  14.759  0.5175  1.4140  0.7479
15813TIP3   OH268853   2.603   4.121   1.621 -0.3741  0.6232  0.2751
15813TIP3    H168854   2.694   4.089   1.620  0.1050  1.6519 -3.3794
15813TIP3    H268855   2.551   4.045   1.595 -0.1044  0.8989 -1.1268
15814TIP3   OH268856   1.323   4.791   4.117 -0.1540  0.8296 -0.5145
15814TIP3    H168857   1.269   4.789   4.196  0.3036  1.7812 -0.1689
15814TIP3    H268858   1.304   4.708   4.074 -0.9532  0.6083  0.2285
15815TIP3   OH268859   2.687   0.041   2.973  0.3323  0.3744 -0.1880
15815TIP3    H168860   2.752   0.067   2.908  0.5836  0.2186 -0.0054
15815TIP3    H268861   2.723   0.073   3.056 -0.1358  0.8490 -0.1588
15816TIP3   OH268862   6.617   0.033   4.921  0.5336 -0.2333 -0.0051
15816TIP3    H168863   6.611   0.123   4.954 -0.5316  0.2724 -1.5193
15816TIP3    H268864   6.648   0.042   4.831 -1.2436 -1.2450 -0.7604
15817TIP3   OH268865   6.564   4.584   5.164  0.1915 -0.0995 -0.0632
15817TIP3    H168866   6.588   4.609   5.075  0.3575 -0.6062 -0.1656
15817TIP3    H268867   6.629   4.517   5.188 -0.0500 -0.1985  0.3152
15818TIP3   OH268868   3.445   1.670  15.652 -0.2154  0.3449 -0.0692
15818TIP3    H168869   3.465   1.762  15.636  0.8490 -0.1097 -1.5281
15818TIP3    H268870   3.421   1.635  15.566  1.9500 -1.3158 -0.0929
15819TIP3   OH268871   1.443   5.875   5.178 -0.6561  0.3470  0.0895
15819TIP3    H168872   1.407   5.787   5.192  0.4399  0.0246  1.0209
15819TIP3    H268873   1.538   5.863   5.186 -0.5234  1.7004  0.6689
15820TIP3   OH268874   3.465   6.082   5.258  0.2237  0.8861 -0.1604
15820TIP3    H168875   3.424   6.033   5.186  0.3260  0.5660 -0.0035
15820TIP3    H268876   3.450   6.174   5.236  1.0839  0.8244 -1.0896
15821TIP3   OH268877   1.371   1.286   0.074  0.0484 -0.3196  0.0872
15821TIP3    H168878   1.396   1.367   0.118  0.7139 -0.0526 -0.7686
15821TIP3    H268879   1.276   1.291   0.067 -0.0253 -0.1254  1.0077
15822TIP3   OH268880   2.175   2.084  13.941 -0.0430 -0.0207  0.1499
15822TIP3    H168881   2.151   2.164  13.895  0.5073  0.0260 -0.0704
15822TIP3    H268882   2.107   2.021  13.917  1.2151 -0.5978 -2.3614
15823TIP3   OH268883   3.817   3.931  12.314 -0.1755  0.0987  0.4381
15823TIP3    H168884   3.808   3.914  12.407 -1.4637 -2.0696 -0.0063
15823TIP3    H268885   3.751   3.998  12.295 -2.0888 -1.6278  0.6339
15824TIP3   OH268886   3.391   5.953   1.718 -0.1652 -0.3436  0.7159
15824TIP3    H168887   3.323   5.893   1.747 -0.3265  0.1533  1.4074
15824TIP3    H268888   3.355   6.040   1.735 -0.4214  0.0175 -1.3475
15825TIP3   OH268889   6.228   1.931   0.338  0.3743  0.1837  0.2621
15825TIP3    H168890   6.153   1.950   0.281 -0.9949  0.0542  1.9447
15825TIP3    H268891   6.266   1.851   0.301  0.2746  0.7522 -1.1544
15826TIP3   OH268892   3.865   0.712   0.557 -0.2087  0.4182  0.4369
15826TIP3    H168893   3.912   0.795   0.569 -0.3237  0.3522  1.4266
15826TIP3    H268894   3.903   0.674   0.478  2.9942 -0.6120  2.2648
15827TIP3   OH268895   1.091   4.316  11.015 -0.1943 -0.0362  0.2092
15827TIP3    H168896   1.031   4.380  11.054 -0.9212 -1.0532  0.7851
15827TIP3    H268897   1.175   4.334  11.056 -0.8292 -0.7487  1.9200
15828TIP3   OH268898   6.456   2.844  14.863  0.9667  0.0322  0.5966
15828TIP3    H168899   6.496   2.768  14.904  0.3739 -0.6559 -0.0745
15828TIP3    H268900   6.368   2.849  14.902  0.6152 -0.2739 -0.1429
15829TIP3   OH268901   2.164   1.342   6.193 -0.8164 -0.5421 -0.2080
15829TIP3    H168902   2.179   1.415   6.133 -0.1605  0.7029  1.3958
15829TIP3    H268903   2.086   1.298   6.158 -2.4511  2.0968 -0.2022
15830TIP3   OH268904   5.372   0.430   5.802 -0.0295 -0.5879  0.3841
15830TIP3    H168905   5.363   0.397   5.713  1.9129  0.1355 -0.1186
15830TIP3    H268906   5.342   0.357   5.857 -2.3659 -0.6381 -0.8268
15831TIP3   OH268907   0.045   5.930  15.424 -0.8436 -0.2704  0.0119
15831TIP3    H168908   0.082   6.001  15.477 -1.7968  0.1021  0.2042
15831TIP3    H268909   0.003   5.975  15.350  0.1288 -0.7619 -0.8615
15832TIP3   OH268910   4.113   0.610  15.609 -0.3438  0.5138 -0.1368
15832TIP3    H168911   4.208   0.606  15.599 -0.4960 -0.1585 -1.5978
15832TIP3    H268912   4.090   0.702  15.593  0.1203  0.8105  0.8910
15833TIP3   OH268913   2.042   5.225  13.942 -0.1722  0.1478 -0.5169
15833TIP3    H168914   2.000   5.257  14.021  0.0097  1.5638 -0.9527
15833TIP3    H268915   2.047   5.130  13.953 -0.8514  0.2471  0.8038
15834TIP3   OH268916   0.575   5.143   3.932  0.0280  0.1663  0.5158
15834TIP3    H168917   0.588   5.135   4.027 -1.8749 -3.1223  0.6696
15834TIP3    H268918   0.485   5.174   3.923  0.4730  1.2811 -0.2674
15835TIP3   OH268919   2.538   6.536  10.819 -0.4543 -0.6440 -0.1268
15835TIP3    H168920   2.563   6.627  10.810 -2.3689 -0.2232 -1.9035
15835TIP3    H268921   2.609   6.486  10.778  0.7009 -0.0331  1.0394
15836TIP3   OH268922   5.866   0.078   2.381  0.0866 -0.0466  0.4473
15836TIP3    H168923   5.879   0.041   2.294 -1.2617  3.8275 -1.6565
15836TIP3    H268924   5.951   0.113   2.405 -0.0317  0.8889 -0.4368
15837TIP3   OH268925   2.888   5.957  16.103  0.5265  0.0034 -0.1724
15837TIP3    H168926   2.864   6.030  16.045 -0.7932 -1.0843 -1.0679
15837TIP3    H268927   2.915   5.887  16.044 -0.3439 -0.9677  0.5447
15838TIP3   OH268928   1.008   6.052  17.090 -0.6673  0.2609 -0.5332
15838TIP3    H168929   1.061   6.034  17.167 -1.3559  1.8215  0.3647
15838TIP3    H268930   1.035   5.986  17.026 -1.5956 -2.4936  1.7084
15839TIP3   OH268931   0.355   3.718  14.136 -0.4571  0.3015 -0.3767
15839TIP3    H168932   0.330   3.722  14.043  0.2123 -2.8030 -0.8083
15839TIP3    H268933   0.308   3.642  14.170  1.9029 -0.6747  0.9281
15840TIP3   OH268934   0.454   4.909  14.322 -0.3791 -0.1847  0.4859
15840TIP3    H168935   0.532   4.945  14.279 -0.8362 -0.5461 -0.7004
15840TIP3    H268936   0.428   4.977  14.384  0.5344  0.1990  0.4674
15841TIP3   OH268937   6.419   1.395   6.716 -0.3641 -0.4600 -0.3042
15841TIP3    H168938   6.356   1.332   6.680 -0.2544 -0.5790 -0.2884
15841TIP3    H268939   6.371   1.478   6.717 -0.5010 -0.5372 -0.3492
15842TIP3   OH268940   1.196   4.614  11.005  0.0207 -0.1387 -0.1982
15842TIP3    H168941   1.285   4.626  10.972  0.8491  0.1205  1.9510
15842TIP3    H268942   1.203   4.542  11.067 -1.1813  0.1410  0.2936
15843TIP3   OH268943   5.409   2.779   1.187  0.1791  0.1658 -0.0672
15843TIP3    H168944   5.314   2.788   1.196  0.2025  0.7901 -0.3499
15843TIP3    H268945   5.442   2.867   1.204  0.6976 -0.0279 -0.0762
15844TIP3   OH268946   2.325   5.244  14.281  0.1716  0.0235  0.6023
15844TIP3    H168947   2.234   5.215  14.281  0.5205 -1.1568 -0.3314
15844TIP3    H268948   2.357   5.222  14.193  0.3798  3.6190 -0.3826
15845TIP3   OH268949   1.012   3.189   2.729  0.8730  0.0199 -0.1449
15845TIP3    H168950   0.945   3.192   2.798  1.7826 -0.3133  0.7723
15845TIP3    H268951   1.050   3.102   2.737  0.7454 -0.1695 -1.3339
15846TIP3   OH268952   5.755   4.930  11.587 -0.1778  0.2795 -0.2076
15846TIP3    H168953   5.835   4.901  11.542  0.1609 -0.9327  1.0959
15846TIP3    H268954   5.685   4.909  11.526  0.1546 -2.4576  0.2170
15847TIP3   OH268955   4.314   6.352  16.708 -0.3406 -0.0867  0.4803
15847TIP3    H168956   4.358   6.337  16.624 -1.1963 -0.1215  0.0317
15847TIP3    H268957   4.289   6.265  16.738  1.0191 -0.1984  1.3727
15848TIP3   OH268958   2.638   4.212  15.898 -0.3203 -0.1221  0.0987
15848TIP3    H168959   2.554   4.230  15.856 -0.4504  2.5318  1.2909
15848TIP3    H268960   2.643   4.275  15.970  1.4832 -2.0653  1.8290
15849TIP3   OH268961   0.744   1.133  15.144 -0.1575  0.0556 -1.3662
15849TIP3    H168962   0.719   1.134  15.236 -1.2196 -2.1471 -1.5650
15849TIP3    H268963   0.662   1.131  15.096  0.3905  0.0124 -2.3341
15850TIP3   OH268964   1.801   4.096   5.126 -0.2882  0.7780 -0.2090
15850TIP3    H168965   1.859   4.057   5.060  0.1027  1.3191 -0.2014
15850TIP3    H268966   1.845   4.081   5.209 -1.2484 -0.7416  0.0527
15851TIP3   OH268967   6.103   2.104   5.071 -0.4705 -0.1236  0.2688
15851TIP3    H168968   6.011   2.097   5.047  0.0793 -1.6765 -1.6094
15851TIP3    H268969   6.121   2.198   5.070 -2.1530  0.2558  1.3218
15852TIP3   OH268970   3.573   4.857   2.165  0.1505 -0.8476 -0.3668
15852TIP3    H168971   3.580   4.888   2.255  4.3631  2.0022 -1.3568
15852TIP3    H268972   3.526   4.927   2.120  1.1252 -0.5237 -0.9172
15853TIP3   OH268973   2.566   2.879  16.790 -0.1279 -0.0743  0.6124
15853TIP3    H168974   2.662   2.879  16.796  0.2011 -0.0242 -2.7985
15853TIP3    H268975   2.543   2.786  16.783 -0.3960 -0.1007  1.6532
15854TIP3   OH268976   4.052   5.485  15.350  0.5021  0.1608 -0.0164
15854TIP3    H168977   4.113   5.441  15.408  0.9160  0.6239 -0.0913
15854TIP3    H268978   3.980   5.512  15.407  0.7180  0.2655  0.2092
15855TIP3   OH268979   0.185   3.640   5.222 -0.3201  0.1173  0.4563
15855TIP3    H168980   0.242   3.618   5.295  0.6377 -2.1007 -0.8863
15855TIP3    H268981   0.245   3.669   5.153 -1.0331  0.2219 -0.1285
15856TIP3   OH268982   4.570   4.864   0.496  0.4356 -0.5369  0.2503
15856TIP3    H168983   4.523   4.868   0.579 -1.9737  0.1763 -1.0350
15856TIP3    H268984   4.619   4.946   0.492 -1.5231  0.6742 -0.1100
15857TIP3   OH268985   3.506   4.098  15.866  0.1526  0.2854  0.4183
15857TIP3    H168986   3.539   4.187  15.849 -1.9420  0.7900 -1.4595
15857TIP3    H268987   3.411   4.109  15.872 -0.1835 -1.9035 -0.3165
15858TIP3   OH268988   6.401   1.954   1.146  0.1005  0.1670  0.0999
15858TIP3    H168989   6.488   1.948   1.187  0.7137  1.2633 -0.9673
15858TIP3    H268990   6.414   2.011   1.071 -1.8130  1.3702  0.5976
15859TIP3   OH268991   1.330   1.125  12.623 -0.1276 -0.5438  0.3088
15859TIP3    H168992   1.265   1.102  12.556 -1.1971 -0.6020  1.3173
15859TIP3    H268993   1.414   1.114  12.580 -0.7070 -2.6675 -0.4041
15860TIP3   OH268994   5.394   4.665  11.835  0.4868  0.6785 -0.0770
15860TIP3    H168995   5.395   4.628  11.924  0.3959  1.0587  0.0819
15860TIP3    H268996   5.442   4.601  11.782 -0.2016  0.0155  0.0736
15861TIP3   OH268997   1.974   4.298   2.286  0.0496  0.4524 -0.2243
15861TIP3    H168998   1.889   4.255   2.301  0.8634 -0.4765  2.4456
15861TIP3    H268999   2.024   4.235   2.233 -0.8004  0.8949 -1.5918
15862TIP3   OH269000   4.375   3.947  16.853  0.2318 -0.1860  0.5423
15862TIP3    H169001   4.329   4.015  16.904 -0.6320 -0.6168  0.3528
15862TIP3    H269002   4.464   3.948  16.889  0.0424  0.5443  1.0434
15863TIP3   OH269003   4.561   3.131   3.330 -0.4928  0.0144 -0.0041
15863TIP3    H169004   4.535   3.150   3.239  0.4936 -1.5129 -0.6477
15863TIP3    H269005   4.620   3.202   3.353  0.3917 -0.3284 -1.0989
15864TIP3   OH269006   5.564   1.009  15.399  0.4758  0.0650  0.8101
15864TIP3    H169007   5.550   1.022  15.305 -1.3944  0.4002  1.0903
15864TIP3    H269008   5.615   0.928  15.405  1.5143  0.5879 -0.5122
15865TIP3   OH269009   2.288   1.799  13.809  0.3316 -0.2719  0.4139
15865TIP3    H169010   2.331   1.857  13.747 -0.1339  0.5688  0.8615
15865TIP3    H269011   2.206   1.843  13.831 -0.1361 -1.2004  0.5974
15866TIP3   OH269012   5.798   5.744   5.556  0.5410  0.1576 -0.3004
15866TIP3    H169013   5.783   5.661   5.510  0.7263 -0.4321  0.6757
15866TIP3    H269014   5.892   5.747   5.570  0.3095 -0.5441  1.6000
15867TIP3   OH269015   0.209   5.954  16.984 -0.4841 -0.5446  0.3409
15867TIP3    H169016   0.189   6.012  16.910 -1.4676 -1.3863 -0.0760
15867TIP3    H269017   0.286   5.905  16.957 -0.2318 -0.1253  0.2954
15868TIP3   OH269018   6.407   3.292  10.608  0.2648  0.5739 -0.2189
15868TIP3    H169019   6.481   3.304  10.548 -1.5838 -0.6479 -2.9795
15868TIP3    H269020   6.359   3.375  10.604  0.3793  0.6446 -0.1080
15869TIP3   OH269021   2.574   2.057   2.712 -0.2836 -1.1301 -0.1993
15869TIP3    H169022   2.557   2.145   2.743 -1.1159 -1.4266  0.2127
15869TIP3    H269023   2.531   2.052   2.627 -1.4048 -1.5510  0.3769
15870TIP3   OH269024   1.399   3.980   4.990  0.1202  0.1540  0.1349
15870TIP3    H169025   1.490   4.002   4.972  0.3898 -1.7687 -1.0984
15870TIP3    H269026   1.349   4.028   4.925  0.5158 -0.9411 -1.0250
15871TIP3   OH269027   0.862   1.649   0.858 -0.6757  0.5608 -0.2724
15871TIP3    H169028   0.830   1.648   0.948  0.1247  1.1242  0.0336
15871TIP3    H269029   0.853   1.740   0.830  0.6747  0.7676 -0.1455
15872TIP3   OH269030   6.379   5.496   4.865 -0.0271  0.5169  0.5077
15872TIP3    H169031   6.335   5.426   4.913 -1.0512  1.7014  1.3734
15872TIP3    H269032   6.308   5.544   4.822  0.6048  1.2624  0.2724
15873TIP3   OH269033   3.654   4.831  14.440 -0.1129 -0.0212 -0.2099
15873TIP3    H169034   3.704   4.869  14.513 -1.5668  0.9705  0.3300
15873TIP3    H269035   3.585   4.895  14.423 -1.1878 -1.3149 -0.9336
15874TIP3   OH269036   6.410   3.080  17.048  0.1041 -0.0514  0.3822
15874TIP3    H169037   6.345   3.094  17.116 -0.7879 -0.8865 -0.2713
15874TIP3    H269038   6.493   3.070  17.095 -0.4515 -0.3270  1.3236
15875TIP3   OH269039   1.248   0.578   0.454 -0.9789 -0.1765 -0.5122
15875TIP3    H169040   1.302   0.511   0.497 -0.2201  1.1206  0.6195
15875TIP3    H269041   1.158   0.553   0.476 -0.7878 -1.4378 -1.0439
15876TIP3   OH269042   6.021   4.433   1.699  0.3567  0.1994 -0.1513
15876TIP3    H169043   6.012   4.386   1.617  0.5463 -0.9796  0.4768
15876TIP3    H269044   6.093   4.389   1.744  2.4531  2.8175 -0.6733
15877TIP3   OH269045   0.951   0.217   3.655 -0.0818 -0.5154 -0.0836
15877TIP3    H169046   0.983   0.174   3.575 -1.1425  1.0604 -1.4365
15877TIP3    H269047   0.938   0.146   3.717 -0.0284 -1.9242 -1.6041
15878TIP3   OH269048   4.529   2.792  17.211  0.2677  0.1116 -0.5076
15878TIP3    H169049   4.547   2.830  17.297  0.2541  0.0478 -0.4763
15878TIP3    H269050   4.446   2.831  17.185 -0.1712 -0.5204 -0.1015
15879TIP3   OH269051   6.547   0.945   4.079  0.2975 -0.2649  0.0890
15879TIP3    H169052   6.475   0.973   4.136  0.1731  1.0786 -0.6882
15879TIP3    H269053   6.624   0.942   4.136 -0.4659 -2.6057  1.1515
15880TIP3   OH269054   1.740   5.901   4.659 -0.5767  0.1006 -0.3376
15880TIP3    H169055   1.769   5.958   4.588  0.5873  0.8543  0.6973
15880TIP3    H269056   1.814   5.843   4.675 -1.1777 -0.6807 -0.3504
15881TIP3   OH269057   3.600   4.636  11.852  0.4922 -0.4506 -0.3556
15881TIP3    H169058   3.528   4.693  11.878  1.4235  2.1897 -2.9980
15881TIP3    H269059   3.560   4.575  11.789 -0.2603 -2.1174  1.6146
15882TIP3   OH269060   2.835   5.174  11.501 -0.1993 -0.0252  0.3130
15882TIP3    H169061   2.860   5.082  11.509 -0.0940  0.0056  0.3513
15882TIP3    H269062   2.873   5.202  11.417  0.5304  0.2166  0.7133
15883TIP3   OH269063   2.689   0.393   3.884  0.3126  0.5296  0.3243
15883TIP3    H169064   2.654   0.369   3.970  0.9480  0.6092  0.6128
15883TIP3    H269065   2.714   0.309   3.844  0.0450  0.4951  0.2281
15884TIP3   OH269066   5.673   6.539   1.596 -0.3171  0.6841  0.1514
15884TIP3    H169067   5.754   6.509   1.554  0.8768  1.5627  1.7251
15884TIP3    H269068   5.622   6.459   1.609  1.8451 -0.4949  2.2993
15885TIP3   OH269069   1.409   3.168  17.106  0.4780 -0.1535  0.1926
15885TIP3    H169070   1.418   3.186  17.200  0.1470  0.0560  0.1842
15885TIP3    H269071   1.350   3.093  17.101  0.5296 -0.1919  0.1524
15886TIP3   OH269072   4.902   5.626   1.443  0.0095 -0.0074 -0.2658
15886TIP3    H169073   4.920   5.703   1.498 -0.2336 -1.6560  2.2651
15886TIP3    H269074   4.824   5.650   1.394 -0.6106  1.0586  1.1528
15887TIP3   OH269075   3.792   3.391   2.298 -0.0021  0.5685  0.0916
15887TIP3    H169076   3.797   3.475   2.254  3.8314  1.2910  1.5217
15887TIP3    H269077   3.738   3.408   2.375 -2.1660  0.7119 -1.3881
15888TIP3   OH269078   5.850   5.750   4.981 -0.1400  0.1836 -0.0103
15888TIP3    H169079   5.894   5.792   5.055 -0.1709  0.4937 -0.1641
15888TIP3    H269080   5.762   5.730   5.014  0.8289 -2.6656  1.0951
15889TIP3   OH269081   4.058   4.727   1.243  0.2420  0.2094  0.1892
15889TIP3    H169082   4.086   4.817   1.260  3.9173 -0.7980  0.5039
15889TIP3    H269083   4.086   4.710   1.153  0.4862 -0.8470  0.4473
15890TIP3   OH269084   5.420   4.054   4.272  0.1449 -0.6483  0.0791
15890TIP3    H169085   5.410   4.091   4.184 -1.1204  0.0453  0.4891
15890TIP3    H269086   5.460   3.969   4.258  0.7826 -0.1803 -1.0964
15891TIP3   OH269087   2.288   2.231  14.492 -0.1791 -0.4919 -0.3260
15891TIP3    H169088   2.267   2.207  14.582  0.5675  0.4528  0.1289
15891TIP3    H269089   2.333   2.155  14.457 -2.3079 -1.6892 -0.6180
15892TIP3   OH269090   2.311   2.353  12.608  0.2292  0.1253 -0.2897
15892TIP3    H169091   2.368   2.356  12.532  2.3550  0.8200  1.2425
15892TIP3    H269092   2.316   2.441  12.646 -0.1100 -0.4241  1.1046
15893TIP3   OH269093   1.578   5.300   1.703  0.0497  0.4824  0.0768
15893TIP3    H169094   1.518   5.234   1.667  1.1410 -0.6381  0.2447
15893TIP3    H269095   1.580   5.369   1.636 -0.9978  0.2861 -0.1766
15894TIP3   OH269096   3.143   1.180  16.828  0.0089 -0.1747  0.0073
15894TIP3    H169097   3.161   1.086  16.823  1.1530 -0.0355  0.9725
15894TIP3    H269098   3.136   1.208  16.736  2.9917 -0.6363 -0.4644
15895TIP3   OH269099   1.908   5.298  12.908  0.8119 -0.3265 -0.2719
15895TIP3    H169100   1.907   5.221  12.965  0.2131 -1.0776 -1.2635
15895TIP3    H269101   1.818   5.308  12.878  1.3517 -0.8910 -2.2852
15896TIP3   OH269102   0.069   0.237   5.024  0.0683  0.3278 -0.5376
15896TIP3    H169103   0.131   0.168   5.000 -0.6294 -1.1338  1.5403
15896TIP3    H269104   0.124   0.308   5.058  0.7433 -1.5139  2.6787
15897TIP3   OH269105   5.169   3.925  13.423  0.0677 -0.2888  0.7882
15897TIP3    H169106   5.143   3.920  13.515 -2.9745  0.8765  0.0951
15897TIP3    H269107   5.129   3.848  13.383 -0.5479  0.3804  0.0790
15898TIP3   OH269108   0.264   1.595  14.494 -0.1557  0.0139  0.6003
15898TIP3    H169109   0.358   1.610  14.504 -0.2770  1.2161  0.1986
15898TIP3    H269110   0.245   1.519  14.548  0.8855  0.3288  1.4373
15899TIP3   OH269111   3.075   0.130  15.343  0.3733  0.2847  0.1080
15899TIP3    H169112   3.011   0.067  15.376  1.3353 -1.2474 -0.8274
15899TIP3    H269113   3.139   0.077  15.295  0.7049  2.0669 -1.5716
15900TIP3   OH269114   1.162   0.220  12.482 -0.5200  0.1596 -0.2493
15900TIP3    H169115   1.238   0.231  12.539 -0.3388 -1.2272 -0.1913
15900TIP3    H269116   1.129   0.132  12.502 -2.7686  1.1093  0.4603
15901TIP3   OH269117   2.139   3.150  13.714 -0.5818 -0.1609  0.0268
15901TIP3    H169118   2.207   3.108  13.662 -0.2595  1.5472 -1.0354
15901TIP3    H269119   2.060   3.142  13.661 -0.6203  0.1268  0.0366
15902TIP3   OH269120   4.395   2.665  15.999  0.0276  0.2135 -0.0758
15902TIP3    H169121   4.414   2.657  15.905  1.0126 -0.2111  0.1514
15902TIP3    H269122   4.352   2.582  16.021  0.4600  0.0047 -0.0039
15903TIP3   OH269123   6.713   2.873   2.590  0.3780  0.3871 -0.2625
15903TIP3    H169124   6.733   2.848   2.680  0.3462 -1.6282 -0.7680
15903TIP3    H269125   6.701   2.790   2.544  0.1497  1.3731 -2.0810
15904TIP3   OH269126   6.271   1.478  15.681 -0.0036  0.2525 -0.0884
15904TIP3    H169127   6.192   1.441  15.640  0.2424  0.6311 -0.9375
15904TIP3    H269128   6.255   1.572  15.684  1.1042  0.5764 -1.9512
15905TIP3   OH269129   0.890   5.432  15.049  0.2829  0.2346 -0.2183
15905TIP3    H169130   0.975   5.399  15.020  0.6779 -0.4620  1.5867
15905TIP3    H269131   0.830   5.359  15.032  0.9196 -1.0956  2.5485
15906TIP3   OH269132   6.173   5.494   3.265  0.2050 -0.3247 -0.2616
15906TIP3    H169133   6.091   5.469   3.308  0.3553  0.8649  0.7770
15906TIP3    H269134   6.237   5.431   3.297 -0.1124 -0.7035 -0.3651
15907TIP3   OH269135   1.728   3.773  10.812 -0.6328 -0.2746 -0.2052
15907TIP3    H169136   1.700   3.848  10.864 -1.1616 -0.7119  0.1465
15907TIP3    H269137   1.684   3.784  10.727  1.5582  1.3612 -1.2284
15908TIP3   OH269138   1.799   2.390   3.455 -0.3242 -1.2051 -0.0240
15908TIP3    H169139   1.840   2.464   3.498 -1.1979 -0.7634  0.0641
15908TIP3    H269140   1.851   2.314   3.483 -0.9299 -0.9563  1.8878
15909TIP3   OH269141   3.648   0.643   1.782  0.4593  0.2960 -0.3025
15909TIP3    H169142   3.635   0.554   1.749  0.8653  0.3370 -0.5798
15909TIP3    H269143   3.638   0.699   1.705  2.0911  0.3404 -0.5099
15910TIP3   OH269144   1.488   6.495  13.491 -0.0740 -0.1343  0.4451
15910TIP3    H169145   1.510   6.577  13.535 -0.1771  0.4415 -0.5406
15910TIP3    H269146   1.550   6.431  13.527 -0.5607  0.1550  1.8593
15911TIP3   OH269147   3.053   1.330  13.361 -0.3350  0.2752  0.0108
15911TIP3    H169148   3.046   1.268  13.289  0.0351  0.5837 -0.2933
15911TIP3    H269149   2.962   1.348  13.386 -0.6356  2.1978 -2.1475
15912TIP3   OH269150   0.009   2.490  15.142  0.1321 -0.5771 -0.4359
15912TIP3    H169151   0.076   2.535  15.193 -0.3870  0.4490 -0.6313
15912TIP3    H269152  -0.045   2.445  15.207 -0.1676  0.2303 -0.1167
15913TIP3   OH269153   2.200   2.776  12.979  0.2079  0.2482  0.1829
15913TIP3    H169154   2.235   2.724  12.907  0.6726 -0.2105  0.7372
15913TIP3    H269155   2.193   2.865  12.943  0.0199 -0.0621 -0.5613
15914TIP3   OH269156   5.693   3.379  14.106  0.1385  0.2469  0.5743
15914TIP3    H169157   5.600   3.399  14.108  0.1723  0.3597  1.9805
15914TIP3    H269158   5.697   3.288  14.077 -0.4133  0.2037  0.6192
15915TIP3   OH269159   2.469   4.886  13.159 -0.0798  0.7330  0.1025
15915TIP3    H169160   2.534   4.946  13.195  0.6828  0.2803 -0.4878
15915TIP3    H269161   2.465   4.908  13.066 -1.0740  1.0265  0.2099
15916TIP3   OH269162   0.575   1.988  11.242 -0.1723  0.4615 -0.1285
15916TIP3    H169163   0.484   1.960  11.254 -0.1794 -0.0330 -1.1977
15916TIP3    H269164   0.618   1.912  11.203  0.7348  0.6483  0.4826
15917TIP3   OH269165   4.780   1.566   3.320  0.1436  0.1241  0.6471
15917TIP3    H169166   4.871   1.594   3.308 -0.0212 -0.2230 -2.0084
15917TIP3    H269167   4.736   1.592   3.239 -2.1607  0.3262  1.8898
15918TIP3   OH269168   4.883   0.949  16.950  0.1676  0.3479 -0.2597
15918TIP3    H169169   4.836   1.032  16.937 -0.6920  0.0768  0.9439
15918TIP3    H269170   4.912   0.952  17.041  1.2259 -0.1506 -0.5579
15919TIP3   OH269171   1.711   6.032  15.012  0.6170 -0.9516  0.2683
15919TIP3    H169172   1.765   6.065  14.940  1.0588  0.0737  1.0398
15919TIP3    H269173   1.648   5.973  14.970  1.4601 -1.1061 -0.8244
15920TIP3   OH269174   3.269   2.589   0.129  0.1306  0.6566  0.1992
15920TIP3    H169175   3.314   2.672   0.147 -0.4441  0.9358  0.3657
15920TIP3    H269176   3.338   2.532   0.094  1.3801  0.0805  3.2252
15921TIP3   OH269177   2.492   5.990   5.039  0.7629 -0.1798 -0.4435
15921TIP3    H169178   2.554   5.956   4.974  1.9483  0.4017  0.3337
15921TIP3    H269179   2.476   6.080   5.010  0.7541 -0.1387 -0.3083
15922TIP3   OH269180   2.992   4.621  17.044  0.3533 -0.5336 -0.0929
15922TIP3    H169181   2.946   4.566  16.981 -0.8333 -0.3179  0.5671
15922TIP3    H269182   3.004   4.564  17.120  0.9589 -0.5053 -0.1631
15923TIP3   OH269183   2.972   4.170  12.244 -0.4198 -0.0218 -0.1681
15923TIP3    H169184   2.929   4.254  12.258  1.3387  0.7851  0.7196
15923TIP3    H269185   3.064   4.192  12.231  0.1385 -1.8419  0.4307
15924TIP3   OH269186   6.150   3.101  15.619  0.5928 -0.1794 -0.0449
15924TIP3    H169187   6.096   3.153  15.559 -0.1184 -1.6425 -0.6992
15924TIP3    H269188   6.098   3.023  15.637  2.0401 -1.1261  0.1655
15925TIP3   OH269189   4.026   0.787  14.536  0.1201  0.1309  0.0170
15925TIP3    H169190   4.070   0.705  14.513  1.9452  1.0100  0.2586
15925TIP3    H269191   4.000   0.774  14.628 -0.6992 -0.6135 -0.2998
15926TIP3   OH269192   1.920   5.528  16.864  0.3399 -0.1014  0.1516
15926TIP3    H169193   1.955   5.482  16.788  0.3585 -0.2543  0.2499
15926TIP3    H269194   1.970   5.493  16.938  0.8548  0.5987  0.1478
15927TIP3   OH269195   4.592   5.876   3.883  0.3617 -0.1762  0.1449
15927TIP3    H169196   4.627   5.878   3.794  1.1532  0.8445  0.4619
15927TIP3    H269197   4.641   5.943   3.930  0.3180 -1.0467  1.4981
15928TIP3   OH269198   2.102   2.187  14.284  0.3097 -0.9193 -0.2584
15928TIP3    H169199   2.087   2.093  14.297  1.3677 -1.2915 -1.6010
15928TIP3    H269200   2.116   2.221  14.373 -0.3164 -1.9675  0.2677
15929TIP3   OH269201   3.661   2.559  13.280  0.4393  0.2558 -0.4248
15929TIP3    H169202   3.727   2.617  13.242  0.4149  0.0992 -0.7149
15929TIP3    H269203   3.681   2.473  13.243  0.1751  0.1773 -0.3856
15930TIP3   OH269204   0.915   5.803   2.621 -0.1210  0.0035  0.0520
15930TIP3    H169205   0.919   5.708   2.604  0.6146 -0.0473  0.4676
15930TIP3    H269206   1.005   5.833   2.605 -0.8182  1.0544 -2.4240
15931TIP3   OH269207   1.701   0.273   6.205 -0.5897 -0.0363 -0.2946
15931TIP3    H169208   1.711   0.349   6.263 -0.5538  0.1312 -0.5185
15931TIP3    H269209   1.747   0.298   6.125  0.8751 -0.9482  0.2226
15932TIP3   OH269210   4.989   5.654  12.651  0.2721 -0.0605 -0.0524
15932TIP3    H169211   5.034   5.618  12.728  3.0912  0.0236 -1.5023
15932TIP3    H269212   5.038   5.733  12.630 -0.5104 -0.0062 -1.8314
15933TIP3   OH269213   5.925   1.825  13.043 -0.3490  0.3102  0.4471
15933TIP3    H169214   5.893   1.803  13.131 -0.4886 -0.4643  0.2064
15933TIP3    H269215   5.997   1.763  13.028 -2.2207 -1.6077 -1.1650
15934TIP3   OH269216   3.610   5.416  11.946 -0.0959  0.2478 -0.3205
15934TIP3    H169217   3.571   5.459  11.870  1.0844 -0.4353 -1.3439
15934TIP3    H269218   3.653   5.339  11.910 -1.5407 -1.4549  1.3527
15935TIP3   OH269219   0.295   6.560  16.324 -0.0556 -0.0389  0.4206
15935TIP3    H169220   0.294   6.621  16.251  0.2922 -0.2348  0.2518
15935TIP3    H269221   0.356   6.598  16.387  0.2384 -0.2659  0.2708
15936TIP3   OH269222   2.143   6.038  16.799  0.1642  0.1290  0.3797
15936TIP3    H169223   2.225   5.993  16.777 -0.1799 -0.9820  1.2394
15936TIP3    H269224   2.120   6.085  16.719  2.2079  1.4076  0.4721
15937TIP3   OH269225   1.482   0.322  13.140 -0.5122  0.0847  0.1804
15937TIP3    H169226   1.468   0.255  13.074 -0.3397 -0.8000  1.0227
15937TIP3    H269227   1.426   0.296  13.213 -2.1737  2.0660 -0.2721
15938TIP3   OH269228   3.789   1.956   0.901  0.1127  0.2957 -0.1686
15938TIP3    H169229   3.709   2.005   0.883 -0.1864  0.1170  0.6107
15938TIP3    H269230   3.814   1.982   0.990  0.3264 -0.4418 -0.0018
15939TIP3   OH269231   1.183   4.803   4.381  0.6665  0.8744 -0.3447
15939TIP3    H169232   1.151   4.714   4.373  1.2827  0.4924  1.1000
15939TIP3    H269233   1.110   4.852   4.419  1.0699  0.4609  1.0076
15940TIP3   OH269234   3.092   3.484   4.289 -0.3088 -0.3049 -0.2692
15940TIP3    H169235   3.007   3.443   4.275 -1.6248  1.9539  0.5506
15940TIP3    H269236   3.095   3.555   4.225 -0.3776  1.4896  1.6409
15941TIP3   OH269237   0.520   6.377   1.483  0.4908  0.3577  0.0058
15941TIP3    H169238   0.596   6.418   1.525  1.4028 -0.9061 -0.3356
15941TIP3    H269239   0.553   6.348   1.398 -0.3591 -0.2876 -0.1137
15942TIP3   OH269240   4.809   0.295  13.231 -0.5718 -0.5046  0.4579
15942TIP3    H169241   4.772   0.381  13.248  2.2597  0.9036  0.2038
15942TIP3    H269242   4.862   0.276  13.309 -1.8518 -2.4739  0.9055
15943TIP3   OH269243   0.846   4.449   2.269  0.0581  0.3149 -0.4051
15943TIP3    H169244   0.924   4.420   2.315 -0.0573  0.9045  0.1825
15943TIP3    H269245   0.795   4.496   2.335 -1.5676 -1.4039 -0.3505
15944TIP3   OH269246   1.723   1.840   4.180  0.4486 -0.3612  0.0702
15944TIP3    H169247   1.813   1.846   4.146 -0.2473 -1.9663 -2.3387
15944TIP3    H269248   1.733   1.812   4.271  2.4178 -2.6096 -0.7314
15945TIP3   OH269249   3.352   6.673  11.792 -0.6941  0.2125 -0.3230
15945TIP3    H169250   3.435   6.678  11.744 -0.8244  1.3749 -0.4615
15945TIP3    H269251   3.289   6.719  11.736 -0.9160  1.3345  0.8158
15946TIP3   OH269252   4.052   0.747  16.658 -0.4580 -0.4144  0.1208
15946TIP3    H169253   3.969   0.786  16.632 -0.0744 -0.0374 -0.5742
15946TIP3    H269254   4.099   0.733  16.575 -0.1964 -1.4775  0.4240
15947TIP3   OH269255   4.407   1.012  12.071  0.1558  0.4989  0.1252
15947TIP3    H169256   4.466   1.074  12.027 -0.8685  0.6050 -1.1676
15947TIP3    H269257   4.351   0.978  12.001 -2.3306  1.5109  1.4923
15948TIP3   OH269258   2.994   4.473   5.667  0.1793  0.3200  0.3781
15948TIP3    H169259   3.045   4.442   5.741  1.2209 -1.1022 -0.8834
15948TIP3    H269260   3.026   4.423   5.592 -0.5865  1.9408 -1.1151
15949TIP3   OH269261   3.722   1.993  10.224 -0.1617  0.1552  0.0486
15949TIP3    H169262   3.802   1.995  10.276 -0.9787 -0.5564  1.3864
15949TIP3    H269263   3.654   2.025  10.283 -0.9765  0.1724 -0.8722
15950TIP3   OH269264   2.192   5.036   5.147 -0.5798 -0.4921 -0.1404
15950TIP3    H169265   2.150   5.104   5.094 -0.0136 -1.7509 -2.2980
15950TIP3    H269266   2.224   5.083   5.224 -1.3287  1.4489 -0.9372
15951TIP3   OH269267   5.320   2.577   0.984  1.0507  0.1551 -0.3512
15951TIP3    H169268   5.373   2.601   1.060  0.9183  0.3114 -0.3065
15951TIP3    H269269   5.323   2.482   0.981  1.9764  0.1846 -0.8052
15952TIP3   OH269270   6.340   0.090   5.961  0.1164  0.0056 -0.4092
15952TIP3    H169271   6.293   0.122   5.884  0.2922  1.2689 -0.0218
15952TIP3    H269272   6.285   0.020   5.995 -0.0473 -0.4593 -1.5717
15953TIP3   OH269273   3.547   3.205  13.049  0.4118 -0.2923 -0.4984
15953TIP3    H169274   3.528   3.181  12.959 -1.3017 -1.2020  0.0747
15953TIP3    H269275   3.526   3.127  13.100 -0.5684  0.8342  0.9015
15954TIP3   OH269276   3.320   1.223   2.478 -0.1461  0.2975  0.1624
15954TIP3    H169277   3.410   1.255   2.483 -0.5706  1.9236 -1.4052
15954TIP3    H269278   3.321   1.163   2.404 -0.5858  1.3129 -0.6920
15955TIP3   OH269279   2.425   5.282  16.972 -0.3669 -0.2744  0.8772
15955TIP3    H169280   2.515   5.307  16.994 -0.0776  0.3699 -0.8454
15955TIP3    H269281   2.431   5.191  16.944  0.1173  0.2980 -1.0053
15956TIP3   OH269282   0.132   0.173  16.674 -0.4296  0.6823  0.5882
15956TIP3    H169283   0.218   0.165  16.632  0.6223  0.7302  2.5932
15956TIP3    H269284   0.123   0.266  16.693 -1.0819  0.7218  0.1269
15957TIP3   OH269285   6.075   2.686  12.953 -0.4538 -0.7148  0.2366
15957TIP3    H169286   6.034   2.651  12.873 -0.2160 -0.5083  0.0225
15957TIP3    H269287   6.002   2.725  13.002 -0.1914  2.3794 -1.5391
15958TIP3   OH269288   0.333   1.882  11.279 -0.0137  0.4443  0.3617
15958TIP3    H169289   0.291   1.796  11.285  0.5042  0.2275  0.9392
15958TIP3    H269290   0.275   1.932  11.221  0.0196 -0.4879 -0.5165
15959TIP3   OH269291   4.838   0.027  14.244  0.1803  0.0945  0.2190
15959TIP3    H169292   4.807  -0.038  14.181  0.4878 -1.0994  1.2645
15959TIP3    H269293   4.932   0.014  14.248  0.4630  1.6010 -0.6137
15960TIP3   OH269294   4.283   5.158   3.731 -0.6986 -0.0638 -0.3481
15960TIP3    H169295   4.330   5.217   3.671  0.6742 -1.7302 -0.9927
15960TIP3    H269296   4.298   5.071   3.695 -1.3682 -0.9573  1.4475
15961TIP3   OH269297   6.396   3.934   2.504  0.0394 -0.0174  0.4189
15961TIP3    H169298   6.422   3.879   2.579  0.7311  0.1283  0.2855
15961TIP3    H269299   6.478   3.971   2.472 -0.0313 -1.3477 -1.4206
15962TIP3   OH269300   6.624   3.873  13.730  0.2539  0.1802 -0.9319
15962TIP3    H169301   6.667   3.897  13.811 -1.4584 -0.9407  0.3882
15962TIP3    H269302   6.666   3.791  13.703  1.7542  1.2487 -1.9736
15963TIP3   OH269303   6.439   3.617  16.968 -0.1081  0.1620 -0.5651
15963TIP3    H169304   6.352   3.610  17.008  0.9820  0.7471  2.1292
15963TIP3    H269305   6.476   3.697  17.006  0.6820  1.4102 -3.6817
15964TIP3   OH269306   0.100   5.175  12.736 -0.1361  0.7335 -0.3726
15964TIP3    H169307   0.145   5.113  12.678  1.5843 -0.3509  1.9367
15964TIP3    H269308   0.170   5.231  12.770 -1.3891  2.7212 -0.8912
15965TIP3   OH269309   0.440   3.107   5.799 -0.6077  0.1708 -0.0070
15965TIP3    H169310   0.456   3.041   5.731 -0.3726 -0.9419  1.1103
15965TIP3    H269311   0.495   3.082   5.872  0.6811  2.5055 -0.0758
15966TIP3   OH269312   0.851   1.370  16.423 -0.2273 -0.0070  0.0231
15966TIP3    H169313   0.798   1.437  16.379  0.6312  0.7132  0.0614
15966TIP3    H269314   0.846   1.294  16.364 -1.2603  0.0627  0.0108
15967TIP3   OH269315   0.299   1.096  12.577  0.2628  0.2983 -0.1021
15967TIP3    H169316   0.325   1.188  12.570 -0.5146  0.4528 -1.0332
15967TIP3    H269317   0.206   1.095  12.556  0.8215 -1.0507 -2.9919
15968TIP3   OH269318   4.380   3.523   3.376  0.1105  0.2282  0.6574
15968TIP3    H169319   4.334   3.504   3.294  0.4057  3.0946 -0.2814
15968TIP3    H269320   4.458   3.571   3.349  0.0632  1.5282  2.6285
15969TIP3   OH269321   0.534   2.910   2.894  0.0557  0.5221 -0.1278
15969TIP3    H169322   0.518   2.930   2.802 -0.8927  0.8963  0.1101
15969TIP3    H269323   0.516   2.816   2.901 -0.7678  0.6707 -0.1439
15970TIP3   OH269324   5.218   1.010  15.936 -0.4147  0.0054  0.1971
15970TIP3    H169325   5.272   0.998  16.014 -0.3764  1.8488  0.5085
15970TIP3    H269326   5.175   1.095  15.950  1.9802  2.0036 -3.1307
15971TIP3   OH269327   0.152   2.264  11.911 -0.0117  0.1198 -0.6535
15971TIP3    H169328   0.247   2.265  11.901  0.2136  0.2917  1.1061
15971TIP3    H269329   0.138   2.283  12.004 -1.7841  0.4635 -0.9542
15972TIP3   OH269330   0.391   5.469  13.831  0.1105 -0.0229 -0.6583
15972TIP3    H169331   0.475   5.505  13.803  0.7037  0.0790  1.1413
15972TIP3    H269332   0.413   5.381  13.863 -0.6056 -0.2933 -0.8975
15973TIP3   OH269333   5.309   4.962  16.872 -0.6518  0.3784 -0.0352
15973TIP3    H169334   5.353   4.997  16.949 -0.5959  1.5964 -0.5999
15973TIP3    H269335   5.380   4.926  16.819 -0.5623  0.5079 -0.0055
15974TIP3   OH269336   6.526   1.792   6.555 -0.8014  0.0042  0.0894
15974TIP3    H169337   6.441   1.766   6.591 -0.0957  0.6351  2.4115
15974TIP3    H269338   6.589   1.764   6.621  0.8448 -0.6060 -1.6660
15975TIP3   OH269339   1.061   3.463   5.692  0.4337 -0.3259 -0.3091
15975TIP3    H169340   1.002   3.513   5.748  0.9779  0.8337 -0.7337
15975TIP3    H269341   1.007   3.434   5.620  0.3159  0.5744 -0.6018
15976TIP3   OH269342   5.547   5.885  11.674 -0.2773 -0.2216  0.1205
15976TIP3    H169343   5.618   5.901  11.611 -0.3148  1.3571  0.4476
15976TIP3    H269344   5.544   5.790  11.683  1.1534 -0.3623 -0.6346
15977TIP3   OH269345   5.251   4.838  12.001 -0.4834  0.1765 -0.2057
15977TIP3    H169346   5.311   4.805  12.067 -0.2009  1.2429  0.0943
15977TIP3    H269347   5.288   4.808  11.918  0.2127  0.4173  0.0078
15978TIP3   OH269348   3.604   0.448  15.252 -0.4982 -0.4302 -0.4263
15978TIP3    H169349   3.524   0.397  15.260 -0.4193 -0.4456  0.4201
15978TIP3    H269350   3.650   0.434  15.335  0.2311 -0.1721 -0.7721
15979TIP3   OH269351   5.656   1.833  12.220 -0.3400 -0.0619  0.8614
15979TIP3    H169352   5.728   1.776  12.247  0.8809  0.6960 -0.5878
15979TIP3    H269353   5.639   1.809  12.129 -0.3936  1.2526  0.4978
15980TIP3   OH269354   6.305   6.706   2.955  0.5541 -0.4758  0.0475
15980TIP3    H169355   6.313   6.779   3.015  1.8363  0.2937 -1.0205
15980TIP3    H269356   6.263   6.637   3.007 -0.2381  0.8261  1.2095
15981TIP3   OH269357   1.709   5.006  12.745  0.9211 -0.0277 -0.2279
15981TIP3    H169358   1.723   5.077  12.683  1.3572 -1.3132 -1.6890
15981TIP3    H269359   1.795   4.992  12.786  0.9579 -0.0266 -0.3046
15982TIP3   OH269360   5.387   6.317  13.773  0.0771  0.2287  0.1652
15982TIP3    H169361   5.433   6.239  13.804 -0.4206 -0.4743 -0.7846
15982TIP3    H269362   5.338   6.286  13.696  2.3189  2.1420 -2.1839
15983TIP3   OH269363   2.700   0.819   1.007  0.3686  0.0706  0.0770
15983TIP3    H169364   2.776   0.878   1.005 -0.1638  0.7533 -0.1942
15983TIP3    H269365   2.682   0.808   1.101 -0.4936  1.6197  0.1303
15984TIP3   OH269366   5.254   3.711   4.929  0.0655  0.2760 -0.5584
15984TIP3    H169367   5.180   3.658   4.959  0.4185  1.0763  1.9890
15984TIP3    H269368   5.215   3.795   4.903  0.1100  1.4638  2.7318
15985TIP3   OH269369   3.692   4.092  15.126 -0.0679  0.2913  0.0707
15985TIP3    H169370   3.603   4.127  15.126 -0.1385  0.1351 -0.9111
15985TIP3    H269371   3.685   4.010  15.078  0.3093 -0.5465  1.3876
15986TIP3   OH269372   0.669   2.091   4.680  0.5218  0.2694  0.1399
15986TIP3    H169373   0.576   2.077   4.696  0.6827  1.1858  2.2106
15986TIP3    H269374   0.671   2.160   4.614 -0.2516 -0.3210 -0.5180
15987TIP3   OH269375   6.427   5.716   3.288  0.3721 -0.4386 -0.4745
15987TIP3    H169376   6.446   5.801   3.327 -1.2009  0.1460 -0.9415
15987TIP3    H269377   6.507   5.664   3.304  1.3981  1.1394 -0.3116
15988TIP3   OH269378   3.398   3.077  16.759  0.0412 -0.5031 -0.1062
15988TIP3    H169379   3.457   3.151  16.739  1.7310 -1.8093 -0.1979
15988TIP3    H269380   3.361   3.053  16.674  2.0833 -1.8289 -0.6927
15989TIP3   OH269381   1.710   2.479  17.051 -0.6977  0.6742  0.5317
15989TIP3    H169382   1.777   2.503  16.988 -0.0831 -0.8670  0.5406
15989TIP3    H269383   1.707   2.551  17.114  0.1603  1.2577 -0.0894
15990TIP3   OH269384   2.989   2.178  16.096 -0.5638 -0.3574  0.3157
15990TIP3    H169385   2.943   2.114  16.041 -0.2985  0.5862 -1.0478
15990TIP3    H269386   3.001   2.133  16.180 -0.8435 -1.9129 -0.4388
15991TIP3   OH269387   6.113   4.310  12.403  0.5597  0.0995 -0.6320
15991TIP3    H169388   6.201   4.340  12.424 -0.4060  1.4729  1.9171
15991TIP3    H269389   6.057   4.385  12.423 -1.2873 -1.0695 -1.1621
15992TIP3   OH269390   0.352   3.728   2.216  0.0093 -0.3271  0.0764
15992TIP3    H169391   0.285   3.716   2.149 -2.3538 -1.4248  2.4762
15992TIP3    H269392   0.426   3.676   2.184 -1.0827 -0.9539 -1.5939
15993TIP3   OH269393   5.305   3.401  13.624  0.2385  0.4710 -0.2674
15993TIP3    H169394   5.318   3.496  13.627  0.1051  0.4747  1.7128
15993TIP3    H269395   5.241   3.387  13.554 -0.8257  1.9876  0.3756
15994TIP3   OH269396   0.936   5.709  13.478 -0.0305 -0.2758 -0.6170
15994TIP3    H169397   0.859   5.762  13.456  0.3964  0.0065 -1.5009
15994TIP3    H269398   0.900   5.629  13.515 -0.7557 -0.1406 -0.9939
15995TIP3   OH269399   0.404   4.957  15.237 -0.0727 -0.4027  0.3611
15995TIP3    H169400   0.400   5.047  15.207 -0.1132 -0.9590 -1.4247
15995TIP3    H269401   0.424   4.963  15.331  1.8204  1.4301 -0.0837
15996TIP3   OH269402   1.044   1.182   4.711 -0.7013  0.0029  0.1416
15996TIP3    H169403   0.991   1.141   4.642 -1.7647 -0.2004  1.0551
15996TIP3    H269404   1.134   1.158   4.689 -0.9779  0.2407 -1.3791
15997TIP3   OH269405   0.442   4.319   5.313 -0.1727  0.1986 -0.7434
15997TIP3    H169406   0.392   4.278   5.243 -0.7122  0.3507 -0.4545
15997TIP3    H269407   0.474   4.401   5.275  0.5909 -0.3012 -1.2014
15998TIP3   OH269408   6.431   0.700  11.440  0.2564 -0.3835 -0.1156
15998TIP3    H169409   6.523   0.694  11.413  0.4193 -0.4651  0.4449
15998TIP3    H269410   6.393   0.615  11.419  0.5139 -0.6263  0.3800
15999TIP3   OH269411   6.103   1.395   4.031  0.1198  0.1627 -0.0259
15999TIP3    H169412   6.043   1.343   3.976 -0.1254 -0.6761  0.9979
15999TIP3    H269413   6.143   1.331   4.089 -0.1893  1.1078  1.2779
16000TIP3   OH269414   2.673   4.662  11.504 -0.4167 -0.3549  0.0920
16000TIP3    H169415   2.609   4.662  11.432  0.5969  0.2776 -0.8532
16000TIP3    H269416   2.622   4.685  11.581 -1.7608 -2.1963 -0.1772
16001TIP3   OH269417   2.483   6.449   0.964 -0.6346 -0.2496 -0.6874
16001TIP3    H169418   2.556   6.416   0.911  0.9404  0.4576  0.9199
16001TIP3    H269419   2.468   6.380   1.029 -1.2230 -0.2596 -0.8301
16002TIP3   OH269420   0.862   0.026   0.541  0.2985  0.3753  0.1415
16002TIP3    H169421   0.815   0.107   0.559  0.5890  0.6906 -0.4808
16002TIP3    H269422   0.904   0.041   0.456  0.4375 -0.3874  0.0678
16003TIP3   OH269423   1.967   4.389   3.953  0.6886  0.3992  0.0645
16003TIP3    H169424   2.032   4.421   4.015  1.4272 -1.4159  0.2803
16003TIP3    H269425   2.006   4.403   3.867 -0.2958  2.8303 -0.0654
16004TIP3   OH269426   0.310   4.877  12.939  0.0315 -0.3969  0.1475
16004TIP3    H169427   0.321   4.927  13.019  0.3728 -2.0405  1.1693
16004TIP3    H269428   0.290   4.788  12.968 -0.2669 -0.9439 -1.5944
16005TIP3   OH269429   4.664   1.633  17.153  0.3632  0.2850 -0.1867
16005TIP3    H169430   4.579   1.669  17.128  0.5895  0.1152 -1.2524
16005TIP3    H269431   4.703   1.603  17.071  0.6861 -1.3292  0.5136
16006TIP3   OH269432   3.055   3.807   1.699 -0.0610 -1.0386  0.3682
16006TIP3    H169433   3.060   3.733   1.638  0.7218 -0.3463 -0.4466
16006TIP3    H269434   3.114   3.873   1.661 -2.4329  0.9261 -0.1941
16007TIP3   OH269435   2.912   5.967  13.919  0.4872  0.6672  0.3004
16007TIP3    H169436   2.995   6.010  13.938  1.0270 -0.6289  0.9059
16007TIP3    H269437   2.848   6.016  13.972  0.8823  1.5094  0.0202
16008TIP3   OH269438   5.125   4.174  16.171  0.0388  0.3339 -0.5731
16008TIP3    H169439   5.099   4.250  16.224  0.7171  0.2575 -0.1156
16008TIP3    H269440   5.148   4.211  16.086 -1.8156  0.3712 -1.1067
16009TIP3   OH269441   6.324   5.074  15.740  0.2874 -0.2870  0.0787
16009TIP3    H169442   6.330   5.169  15.751 -0.7379 -0.3487  1.3561
16009TIP3    H269443   6.404   5.040  15.780  0.2755 -0.0126  0.3386
16010TIP3   OH269444   4.917   2.417   2.746 -0.0904  0.3901 -0.0789
16010TIP3    H169445   4.990   2.356   2.735 -0.5071 -0.4262  1.3837
16010TIP3    H269446   4.927   2.479   2.674  1.8573  0.1131 -0.1175
16011TIP3   OH269447   0.115   4.093  11.112  0.2895 -0.1059  0.3785
16011TIP3    H169448   0.079   4.181  11.105 -0.9139 -0.6039  0.0115
16011TIP3    H269449   0.206   4.102  11.085  0.1059  0.9720  0.0704
16012TIP3   OH269450   3.075   5.337   0.469 -0.4254  0.0849  0.1244
16012TIP3    H169451   2.983   5.352   0.491 -0.6353  0.7142 -1.0648
16012TIP3    H269452   3.092   5.246   0.494 -0.6415  0.6792  2.6791
16013TIP3   OH269453   6.019   6.244   1.367 -0.2942 -0.3276 -0.6594
16013TIP3    H169454   6.097   6.188   1.363 -1.2361 -2.3963  3.8235
16013TIP3    H269455   5.946   6.184   1.376 -1.7780  1.5244  0.6157
16014TIP3   OH269456   5.441   2.463   4.799 -0.6204  0.0854  0.0967
16014TIP3    H169457   5.484   2.383   4.830 -1.6066 -0.3422  0.4206
16014TIP3    H269458   5.375   2.482   4.867 -0.0907  1.4443  0.2587
16015TIP3   OH269459   1.166   1.684  12.983  0.5732 -0.1413  0.2218
16015TIP3    H169460   1.108   1.648  12.916  1.0301 -1.4760  0.5067
16015TIP3    H269461   1.224   1.743  12.936  0.4987 -0.5990 -0.4601
16016TIP3   OH269462   6.682   5.280   6.648  0.1178 -0.1182  0.8113
16016TIP3    H169463   6.602   5.235   6.677 -2.6996  1.2779 -3.6409
16016TIP3    H269464   6.668   5.372   6.670  0.8588  0.0359  0.6703
16017TIP3   OH269465   0.077   4.659   2.641 -0.4965 -0.6790 -0.6537
16017TIP3    H169466   0.043   4.748   2.630  1.0787  0.2242  1.2119
16017TIP3    H269467   0.026   4.607   2.579 -2.5121  1.2425 -0.7570
16018TIP3   OH269468   2.972   3.276  12.436 -0.3347  0.1709 -0.7326
16018TIP3    H169469   2.945   3.249  12.524  0.5298 -1.7236 -0.9884
16018TIP3    H269470   2.905   3.339  12.408 -1.4599 -0.3494  0.6940
16019TIP3   OH269471   3.221   2.195   1.315 -0.2840 -0.4343 -0.6511
16019TIP3    H169472   3.143   2.174   1.264 -0.7728 -0.8321  0.2387
16019TIP3    H269473   3.210   2.286   1.341 -0.3556 -0.4302 -0.6963
16020TIP3   OH269474   4.333   5.519   0.751  0.2905  0.0825  0.6572
16020TIP3    H169475   4.375   5.537   0.667  2.7193 -1.6478  1.4221
16020TIP3    H269476   4.325   5.424   0.755 -0.8264  0.1908  1.9487
16021TIP3   OH269477   4.443   4.003   3.457 -0.0525  0.0457  0.1061
16021TIP3    H169478   4.506   4.054   3.407  0.3752  0.0773  0.6647
16021TIP3    H269479   4.491   3.924   3.483 -0.5551 -0.4129 -0.3296
16022TIP3   OH269480   5.190   5.519  12.244 -0.4799 -0.1848  0.0713
16022TIP3    H169481   5.260   5.582  12.229 -1.7011  1.1870 -0.0950
16022TIP3    H269482   5.159   5.538  12.333 -1.8792  0.5278 -0.5422
16023TIP3   OH269483   5.642   2.319  15.642  0.1001  0.2740  0.5374
16023TIP3    H169484   5.586   2.248  15.609  1.7594 -0.6982 -0.3053
16023TIP3    H269485   5.695   2.343  15.566  0.5472  1.4553  1.2147
16024TIP3   OH269486   4.765   2.607   4.210  0.0317  0.5049 -0.0772
16024TIP3    H169487   4.712   2.547   4.158  2.4287 -1.5234 -0.3606
16024TIP3    H269488   4.850   2.608   4.166  0.8195  2.2238  1.3471
16025TIP3   OH269489   6.413   1.472  12.832 -0.0835 -0.6270  0.1279
16025TIP3    H169490   6.435   1.526  12.908  0.3313  0.5376 -0.7864
16025TIP3    H269491   6.341   1.518  12.789 -0.0416 -1.0447 -0.4155
16026TIP3   OH269492   6.267   3.749  12.111 -0.2900  0.5541 -0.5459
16026TIP3    H169493   6.181   3.732  12.072 -1.1068 -1.2645  1.8522
16026TIP3    H269494   6.250   3.809  12.183  0.4121  0.1287 -0.0061
16027TIP3   OH269495   4.955   6.309   5.115  0.3652  0.4128  0.2100
16027TIP3    H169496   4.945   6.286   5.207 -1.7867 -1.8898 -0.4828
16027TIP3    H269497   4.987   6.229   5.072  0.7382  1.2409 -1.1376
16028TIP3   OH269498   4.286   4.199  14.873 -0.4208 -0.2899  0.6604
16028TIP3    H169499   4.217   4.181  14.937 -0.6533 -1.3114  0.1526
16028TIP3    H269500   4.290   4.120  14.819  1.1315 -0.2378  0.6501
16029TIP3   OH269501   1.814   4.855   2.331 -0.0268  0.2914  0.0494
16029TIP3    H169502   1.835   4.796   2.404  1.6017 -0.5805 -1.0609
16029TIP3    H269503   1.846   4.941   2.359 -1.0997  0.3735  1.0899
16030TIP3   OH269504   4.259   3.835   4.877  0.0934  0.2245  0.2273
16030TIP3    H169505   4.166   3.823   4.861  0.4235 -1.6536 -0.5282
16030TIP3    H269506   4.286   3.904   4.816 -0.4687 -0.4499 -0.8040
16031TIP3   OH269507   0.113   6.471  13.594  0.5926  0.2412  0.2824
16031TIP3    H169508   0.189   6.522  13.568  0.4614 -0.0968 -0.8320
16031TIP3    H269509   0.047   6.536  13.618  1.0731  0.5405  0.8093
16032TIP3   OH269510   5.936   1.641  14.651 -0.2493 -0.2910 -1.1203
16032TIP3    H169511   5.962   1.731  14.668  0.9873 -0.7811 -0.1960
16032TIP3    H269512   5.841   1.641  14.658 -0.2134  0.8065 -0.4260
16033TIP3   OH269513   5.401   6.576   5.628  0.3368 -0.0170  0.0409
16033TIP3    H169514   5.351   6.566   5.547  0.8717 -2.3161 -0.0829
16033TIP3    H269515   5.358   6.518   5.691  1.9122 -0.9411  0.3470
16034TIP3   OH269516   1.436   6.415   1.344 -0.0378 -0.2714 -0.0046
16034TIP3    H169517   1.528   6.434   1.362 -0.1922 -1.2909  2.1036
16034TIP3    H269518   1.419   6.332   1.387 -2.3769  0.7137  1.1729
16035TIP3   OH269519   5.603   3.306  16.082  0.0082  0.0356  0.4560
16035TIP3    H169520   5.696   3.311  16.106  0.0996  1.4152 -0.0681
16035TIP3    H269521   5.570   3.395  16.096 -1.7251 -0.8272  2.4204
16036TIP3   OH269522   4.919   6.534   2.073 -0.6170 -0.2352  0.2259
16036TIP3    H169523   4.935   6.441   2.082  1.0153  0.1593  2.2950
16036TIP3    H269524   4.892   6.562   2.160 -1.4550  1.1793 -0.4482
16037TIP3   OH269525   4.522   3.120   5.899  0.2036  0.1080  0.5604
16037TIP3    H169526   4.433   3.097   5.926 -0.5858  2.2758 -0.0514
16037TIP3    H269527   4.521   3.114   5.803  0.3760  1.2466  0.4764
16038TIP3   OH269528   3.618   6.064  15.328 -0.5353 -0.1396  0.0366
16038TIP3    H169529   3.528   6.067  15.361 -0.2229 -0.7164  0.9582
16038TIP3    H269530   3.621   6.133  15.262 -1.3032  0.7433  0.8964
16039TIP3   OH269531   3.098   0.941  12.977 -0.1416 -0.4738  0.4676
16039TIP3    H169532   3.168   0.966  12.917 -1.0025 -0.1971 -0.4484
16039TIP3    H269533   3.036   0.892  12.923 -0.8422 -0.3982  1.1808
16040TIP3   OH269534   1.778   5.831   3.556 -0.1415  0.0836 -0.4530
16040TIP3    H169535   1.746   5.903   3.502 -0.6356 -0.0982 -0.4078
16040TIP3    H269536   1.706   5.767   3.555 -1.3907  1.2413  2.6845
16041TIP3   OH269537   5.051   2.719  14.558 -0.0350  0.1678  0.4656
16041TIP3    H169538   4.967   2.760  14.539  0.2627  0.7573  0.3946
16041TIP3    H269539   5.084   2.691  14.473 -1.1127 -1.9955  0.7020
16042TIP3   OH269540   0.117   3.926   3.427  0.7734 -0.7233  0.3250
16042TIP3    H169541   0.152   3.838   3.440  2.5384 -0.0001  0.7161
16042TIP3    H269542   0.189   3.975   3.389 -0.2396  0.5355 -0.0344
16043TIP3   OH269543   3.139   0.785  15.437  0.2550  0.7274  0.0901
16043TIP3    H169544   3.168   0.864  15.481  1.2704  0.9301 -0.8931
16043TIP3    H269545   3.086   0.816  15.364  1.0667  0.5442 -0.5939
16044TIP3   OH269546   5.947   2.409  13.464 -0.4009  0.0704  0.2930
16044TIP3    H169547   5.939   2.317  13.442 -2.1576  0.3781 -0.5666
16044TIP3    H269548   6.013   2.443  13.403 -1.0190 -0.2799 -0.5958
16045TIP3   OH269549   1.902   1.530   5.332 -0.3630 -0.2265 -0.3139
16045TIP3    H169550   1.863   1.528   5.245  0.3851  0.5780 -0.6832
16045TIP3    H269551   1.846   1.472   5.385 -0.8391 -0.7004 -1.3092
16046TIP3   OH269552   4.999   3.546   0.193  0.1442  0.1047 -0.7486
16046TIP3    H169553   5.092   3.525   0.190  0.1892  0.1537  0.0792
16046TIP3    H269554   4.988   3.616   0.129  0.4161 -0.8152 -1.8286
16047TIP3   OH269555   0.596   3.932  14.046 -0.2866  0.1572  0.8301
16047TIP3    H169556   0.621   3.911  13.956  1.1898  1.1723  0.9572
16047TIP3    H269557   0.567   3.849  14.083 -2.0267 -0.0609 -0.8897
16048TIP3   OH269558   6.187   3.806  13.259 -0.1351  0.0468 -0.3577
16048TIP3    H169559   6.225   3.758  13.332  1.8132  1.8316 -0.1085
16048TIP3    H269560   6.260   3.823  13.199 -0.4820  3.2227 -0.0729
16049TIP3   OH269561   4.074   6.430   1.989  0.0500 -0.1479  0.4168
16049TIP3    H169562   4.084   6.525   1.979  2.0119 -0.2991  0.5059
16049TIP3    H269563   4.148   6.393   1.940 -0.9199 -1.6609  0.0316
16050TIP3   OH269564   5.796   1.410  15.227  0.0340 -0.3913 -0.3302
16050TIP3    H169565   5.830   1.456  15.303 -2.1533  0.5918  0.1457
16050TIP3    H269566   5.829   1.459  15.152 -0.3599  0.5896  0.1128
16051TIP3   OH269567   0.720   6.586   1.503 -0.5367  0.1119  0.6465
16051TIP3    H169568   0.760   6.504   1.474 -0.4498 -0.3315  1.9159
16051TIP3    H269569   0.793   6.639   1.535 -0.0703  2.2351 -3.3440
16052TIP3   OH269570   2.027   6.002   0.688 -0.1495  0.2736  0.1912
16052TIP3    H169571   2.052   5.947   0.762  4.9046 -1.1845 -2.1818
16052TIP3    H269572   2.089   6.075   0.690 -2.2291  2.2015 -0.6935
16053TIP3   OH269573   1.649   5.005  14.242  0.0885 -0.1489 -0.5162
16053TIP3    H169574   1.557   5.002  14.268  0.6860 -0.8796  1.7638
16053TIP3    H269575   1.675   5.096  14.256  0.1279 -0.3113  0.5527
16054TIP3   OH269576   3.549   3.672  16.782 -0.3022 -0.1873 -0.3645
16054TIP3    H169577   3.625   3.729  16.791  0.4204 -0.7592 -2.3310
16054TIP3    H269578   3.585   3.584  16.771 -1.2281 -0.4839 -1.2408
16055TIP3   OH269579   3.205   2.891  14.912  0.4290 -0.4468 -0.3745
16055TIP3    H169580   3.163   2.884  14.998  0.6018 -0.1833 -0.2677
16055TIP3    H269581   3.154   2.832  14.856 -0.5473  0.4197 -0.4245
16056TIP3   OH269582   2.194   2.512  15.713  0.2621  0.3402 -0.6378
16056TIP3    H169583   2.284   2.528  15.741  0.7156  1.1503 -2.4439
16056TIP3    H269584   2.147   2.489  15.794  1.7244  1.4670  0.5778
16057TIP3   OH269585   3.723   0.974  14.913 -0.1753 -0.0393  0.4423
16057TIP3    H169586   3.691   1.037  14.978 -0.1615 -1.2500  1.6762
16057TIP3    H269587   3.644   0.928  14.884 -0.1603  0.3915 -0.2866
16058TIP3   OH269588   1.876   0.529   5.134 -0.6815 -0.7271  0.0232
16058TIP3    H169589   1.808   0.584   5.095 -1.4005 -2.0335 -0.6245
16058TIP3    H269590   1.839   0.500   5.218 -0.1046  0.1499  0.5944
16059TIP3   OH269591   4.063   1.212   5.466 -0.0629 -0.6742 -0.0223
16059TIP3    H169592   4.002   1.158   5.516  0.7833 -0.9225  0.7616
16059TIP3    H269593   4.120   1.251   5.532  0.4718 -0.2528 -0.7259
16060TIP3   OH269594   5.596   5.831  13.682  0.2901  0.1686 -0.1415
16060TIP3    H169595   5.683   5.814  13.717  0.2608 -0.8392 -0.5094
16060TIP3    H269596   5.579   5.756  13.624 -1.4118 -0.4408  1.0670
16061TIP3   OH269597   5.875   0.030  13.627  0.4150  0.0194  0.2368
16061TIP3    H169598   5.907  -0.051  13.587  1.5435  0.8774 -0.6938
16061TIP3    H269599   5.955   0.079  13.649 -0.2394  0.8465  0.8497
16062TIP3   OH269600   3.817   3.186   1.197  0.7466 -0.4416  0.6565
16062TIP3    H169601   3.795   3.259   1.254 -0.3863 -0.1146 -0.1625
16062TIP3    H269602   3.765   3.113   1.230  0.2212 -0.2968  0.1606
16063TIP3   OH269603   0.436   0.442   3.115 -0.0134 -0.1333  0.5807
16063TIP3    H169604   0.493   0.367   3.099 -0.9056 -0.6036 -0.5475
16063TIP3    H269605   0.477   0.489   3.188  0.7565 -1.5114  1.0611
16064TIP3   OH269606   0.786   3.202   2.900 -0.2448  0.1408 -0.0284
16064TIP3    H169607   0.704   3.224   2.943  0.3008 -1.0356  1.7445
16064TIP3    H269608   0.854   3.226   2.964  0.5870 -1.7802 -0.1204
16065TIP3   OH269609   3.893   0.932   0.361  0.0687 -0.1516 -0.4893
16065TIP3    H169610   3.975   0.980   0.351 -0.1341 -0.0390 -1.8396
16065TIP3    H269611   3.912   0.845   0.326 -0.6085  0.1532 -1.6752
16066TIP3   OH269612   4.294   4.124   0.132 -0.4527 -0.0916 -0.4121
16066TIP3    H169613   4.350   4.104   0.207 -1.3243 -1.9813 -0.2081
16066TIP3    H269614   4.228   4.185   0.166 -0.1799 -0.0521  0.0541
16067TIP3   OH269615   4.511   4.225  16.650  0.0785  0.3328 -0.3840
16067TIP3    H169616   4.502   4.320  16.636 -0.5014  0.1988 -0.9340
16067TIP3    H269617   4.605   4.212  16.665  0.0240  1.1442  0.8353
16068TIP3   OH269618   6.218   4.267  17.295  0.5438 -0.1215  0.4102
16068TIP3    H169619   6.134   4.291  17.254  0.9507 -0.0065 -0.3750
16068TIP3    H269620   6.195   4.197  17.356 -0.0948 -0.2642  0.0197
16069TIP3   OH269621   4.270   2.995   3.134 -0.3854  0.1360 -0.4554
16069TIP3    H169622   4.303   2.939   3.204 -1.6960 -0.5339 -0.3517
16069TIP3    H269623   4.180   2.967   3.121 -0.6376  1.2947 -1.3661
16070TIP3   OH269624   4.162   1.550  13.928 -0.1589 -0.0939  0.4221
16070TIP3    H169625   4.144   1.631  13.880  2.2153  0.4751  0.3705
16070TIP3    H269626   4.151   1.481  13.863  1.3922  0.5313 -0.5588
16071TIP3   OH269627   2.598   0.242   0.003 -0.2153 -0.5103  0.5518
16071TIP3    H169628   2.566   0.152  -0.007  0.3975 -0.7131  0.4011
16071TIP3    H269629   2.615   0.250   0.097 -1.5515 -0.1075  0.7764
16072TIP3   OH269630   5.573   4.884  16.787  0.0236 -0.3216 -0.1186
16072TIP3    H169631   5.653   4.902  16.837 -0.5357 -1.7840  1.3952
16072TIP3    H269632   5.597   4.810  16.731 -0.1718 -0.5289  0.0743
16073TIP3   OH269633   3.025   0.522  13.105 -0.5585  0.1670  0.6659
16073TIP3    H169634   3.041   0.435  13.141  1.1515 -0.8069 -2.0666
16073TIP3    H269635   2.933   0.541  13.127 -1.0025 -2.3518  1.3052
16074TIP3   OH269636   0.460   5.503  11.906  0.2121 -0.9862  0.1815
16074TIP3    H169637   0.485   5.425  11.856 -0.9455 -1.9722  1.1021
16074TIP3    H269638   0.401   5.471  11.974 -2.3145  1.0096 -0.8955
16075TIP3   OH269639   3.814   1.706   6.628  0.2465  0.1729 -0.4172
16075TIP3    H169640   3.731   1.711   6.675 -0.4241  2.0572 -1.6863
16075TIP3    H269641   3.799   1.639   6.561  0.4605 -0.9050  0.5699
16076TIP3   OH269642   0.014   3.782  17.181  0.1851 -0.3585 -0.0713
16076TIP3    H169643  -0.059   3.811  17.126  1.7201  1.7100 -1.1887
16076TIP3    H269644  -0.025   3.722  17.244 -2.3080  0.0207 -1.1419
16077TIP3   OH269645   4.277   5.329  15.944  0.3758 -0.1183 -0.7226
16077TIP3    H169646   4.329   5.269  15.890 -0.0161 -0.0747 -1.1519
16077TIP3    H269647   4.190   5.328  15.904  0.5775  1.3999 -1.2468
16078TIP3   OH269648   5.255   1.727   0.431  0.4756  0.0670 -0.4559
16078TIP3    H169649   5.316   1.770   0.371  2.2434  0.4874  1.5309
16078TIP3    H269650   5.282   1.756   0.518 -1.1482 -1.5500  0.6655
16079TIP3   OH269651   0.341   0.621  14.611 -0.1937 -0.4945  0.5688
16079TIP3    H169652   0.387   0.690  14.563 -0.7086 -0.9652 -0.6374
16079TIP3    H269653   0.252   0.653  14.623  0.3634  0.4272  2.9336
16080TIP3   OH269654   2.593   3.189  11.863 -0.0647 -0.4307 -0.6876
16080TIP3    H169655   2.651   3.144  11.801  0.1997 -0.5374 -0.3620
16080TIP3    H269656   2.507   3.184  11.822  0.0984 -0.5464 -1.0260
16081TIP3   OH269657   2.311   5.012  11.300  0.1867  0.1725 -0.4242
16081TIP3    H169658   2.304   4.998  11.205 -1.0245  1.3122 -0.5381
16081TIP3    H269659   2.348   5.100  11.309  0.7392 -0.1113  0.1766
16082TIP3   OH269660   4.257   1.376  16.955 -0.0607 -0.1027  0.1453
16082TIP3    H169661   4.173   1.338  16.929  0.6139 -1.3750 -0.2705
16082TIP3    H269662   4.304   1.304  16.998  0.1175  1.0826  2.0353
16083TIP3   OH269663   1.543   1.661   0.733 -0.0199 -0.7021  0.7865
16083TIP3    H169664   1.461   1.623   0.767  0.2115 -0.9893  1.0276
16083TIP3    H269665   1.529   1.669   0.639 -0.5097 -0.3021  0.8882
16084TIP3   OH269666   5.752   1.596  12.325  0.2213 -0.0293 -0.5567
16084TIP3    H169667   5.741   1.629  12.413  1.6125 -1.1698  0.0888
16084TIP3    H269668   5.730   1.503  12.331  1.8181 -0.4825 -1.0146
16085TIP3   OH269669   2.349   4.908  15.422  0.3439  0.5483  0.4789
16085TIP3    H169670   2.291   4.846  15.466 -0.9709  2.2801  1.3091
16085TIP3    H269671   2.300   4.939  15.346  1.2761  0.0776 -0.3464
16086TIP3   OH269672   0.891   6.541  16.007  0.3314 -0.3681 -0.1590
16086TIP3    H169673   0.811   6.510  16.050 -1.0215 -0.4270 -2.5705
16086TIP3    H269674   0.936   6.462  15.978  1.4614 -0.3482  1.3994
16087TIP3   OH269675   3.165   5.110  12.565 -0.0669 -0.0043  0.4440
16087TIP3    H169676   3.188   5.103  12.657 -1.3220 -0.1234  0.7658
16087TIP3    H269677   3.222   5.047  12.520 -1.4582 -2.1530  1.5226
16088TIP3   OH269678   1.768   6.120   2.547  0.5925 -0.7670  0.0641
16088TIP3    H169679   1.741   6.126   2.455  1.7703  0.5967 -0.2268
16088TIP3    H269680   1.765   6.211   2.579 -1.2090 -1.3655  1.8209
16089TIP3   OH269681   5.347   3.399   1.815 -0.2653 -0.6341  0.3964
16089TIP3    H169682   5.406   3.327   1.797  0.4110  0.2764 -1.3205
16089TIP3    H269683   5.400   3.463   1.863  0.5977  0.6696 -2.1070
16090TIP3   OH269684   4.176   2.902  14.271  0.2430  0.2389 -0.2987
16090TIP3    H169685   4.227   2.956  14.210  1.4023 -1.1041 -0.5926
16090TIP3    H269686   4.242   2.861  14.327 -0.6080 -0.7063  0.0393
16091TIP3   OH269687   2.341   1.903  11.944  0.2821  0.5206 -0.3573
16091TIP3    H169688   2.407   1.895  12.013  0.8637 -0.2344 -0.9763
16091TIP3    H269689   2.258   1.884  11.988  0.4573  1.4533  0.4260
16092TIP3   OH269690   1.886   6.386   3.323 -0.0915  0.0934  0.0941
16092TIP3    H169691   1.923   6.301   3.345 -0.8466 -0.5807 -1.1193
16092TIP3    H269692   1.958   6.448   3.337  1.0897 -1.0011 -0.9046
16093TIP3   OH269693   1.800   1.246   0.291  0.0988  0.9080 -0.3050
16093TIP3    H169694   1.754   1.320   0.252 -0.4570  0.4150 -0.6049
16093TIP3    H269695   1.839   1.200   0.216  1.1659  1.3615 -0.0528
16094TIP3   OH269696   6.343   6.041  14.775  0.2544 -0.1919  0.1813
16094TIP3    H169697   6.378   6.130  14.777 -1.2586  0.4235  0.0361
16094TIP3    H269698   6.284   6.037  14.851  0.7219 -1.2620  0.5073
16095TIP3   OH269699   6.242   2.535   4.227  0.2695  0.2639  0.1564
16095TIP3    H169700   6.183   2.552   4.301  2.3592 -0.0628  2.0039
16095TIP3    H269701   6.189   2.553   4.150 -1.7552  1.5321  1.7315
16096TIP3   OH269702   3.049   3.384   0.884 -0.7246 -0.2028 -0.5012
16096TIP3    H169703   3.035   3.454   0.821 -0.5080  0.2214 -0.0832
16096TIP3    H269704   2.998   3.311   0.850 -1.2081  0.2545 -0.7768
16097TIP3   OH269705   1.601   2.534  16.551 -0.5568 -0.0992 -0.3899
16097TIP3    H169706   1.656   2.612  16.551 -2.2148  1.1364 -0.4190
16097TIP3    H269707   1.563   2.531  16.639 -2.9685  1.0371 -1.2983
16098TIP3   OH269708   0.125   2.571  12.178  0.2042 -0.5419  0.5589
16098TIP3    H169709   0.120   2.586  12.084 -1.2373  0.7885  0.8092
16098TIP3    H269710   0.101   2.479  12.189  2.3633 -1.3041 -0.4893
16099TIP3   OH269711   0.305   5.845  15.574 -0.1226  0.0630 -0.5079
16099TIP3    H169712   0.315   5.874  15.483 -1.6981 -0.1086 -0.7769
16099TIP3    H269713   0.217   5.874  15.598 -0.2022 -0.9753  0.5464
16100TIP3   OH269714   6.472   2.356  13.132 -0.3577  0.4417 -0.1049
16100TIP3    H169715   6.409   2.328  13.199 -1.0790  1.6966 -0.2414
16100TIP3    H269716   6.418   2.394  13.063  0.2732 -1.7784 -1.9498
16101TIP3   OH269717   6.204   2.401   0.697 -0.1477 -0.2021  0.5507
16101TIP3    H169718   6.132   2.437   0.644 -0.7825 -0.9335  0.8962
16101TIP3    H269719   6.283   2.423   0.647 -0.6550  0.0173 -0.1844
16102TIP3   OH269720   1.729   6.178   1.556 -0.1263 -0.3735  0.7929
16102TIP3    H169721   1.802   6.180   1.618  0.6204 -2.4233  0.0635
16102TIP3    H269722   1.744   6.253   1.498  1.4826 -0.8222  0.5872
16103TIP3   OH269723   5.816   4.464   0.130  0.0252  0.1516  0.3462
16103TIP3    H169724   5.825   4.528   0.060 -0.0492  0.9751  1.0828
16103TIP3    H269725   5.780   4.386   0.086 -1.2929  1.0913 -0.2916
16104TIP3   OH269726   0.310   5.063  15.977 -0.3078 -0.1689  0.2638
16104TIP3    H169727   0.340   5.027  16.060 -0.1698 -2.0039 -0.5374
16104TIP3    H269728   0.347   5.152  15.975 -1.3545  0.4236  2.6865
16105TIP3   OH269729   2.841   3.881  17.370 -0.1743 -0.2301 -0.3026
16105TIP3    H169730   2.749   3.856  17.370 -0.0427 -0.7190  0.2578
16105TIP3    H269731   2.841   3.973  17.343 -0.9386  0.1943  1.0979
16106TIP3   OH269732   0.357   6.561  14.747  0.6981  0.1040  0.3744
16106TIP3    H169733   0.364   6.582  14.840  0.4306  0.3196  0.3435
16106TIP3    H269734   0.412   6.626  14.704  0.6786  0.1138  0.3646
16107TIP3   OH269735   4.404   1.967  14.976  0.4016  0.0936  0.6136
16107TIP3    H169736   4.341   2.037  14.997  1.0547  1.0841 -0.5820
16107TIP3    H269737   4.351   1.901  14.931  0.0385  0.4798  0.4625
16108TIP3   OH269738   1.238   6.203  15.712 -0.0940  0.0057 -0.0499
16108TIP3    H169739   1.318   6.162  15.679  0.2818  0.1862  0.6096
16108TIP3    H269740   1.241   6.188  15.806 -0.6184  0.3964  0.0309
16109TIP3   OH269741   2.120   2.914  14.920 -0.1465  1.0024 -0.2250
16109TIP3    H169742   2.094   2.914  14.827  0.6946  2.0809 -0.4764
16109TIP3    H269743   2.097   3.001  14.951 -0.6171  0.5788  0.6617
16110TIP3   OH269744   1.092   2.377   5.185 -0.7362 -0.3019  0.4618
16110TIP3    H169745   1.124   2.288   5.198 -0.8469 -0.2663  0.9866
16110TIP3    H269746   1.008   2.380   5.230 -0.1569  0.4272  1.5366
16111TIP3   OH269747   2.996   2.982  15.903 -0.0515 -0.2710 -0.6516
16111TIP3    H169748   2.974   2.895  15.871  0.2678 -0.4142 -0.4765
16111TIP3    H269749   3.074   3.007  15.853  0.8746 -0.7841  0.5013
16112TIP3   OH269750   4.590   6.606   0.410  0.0362 -0.7494  0.1444
16112TIP3    H169751   4.612   6.516   0.435  0.0095 -0.4402  1.3499
16112TIP3    H269752   4.531   6.636   0.479  0.1171  0.2254 -0.1982
16113TIP3   OH269753   6.283   4.451   3.377 -0.1326 -0.2079  0.3898
16113TIP3    H169754   6.261   4.426   3.467 -1.1048  0.2114  0.2764
16113TIP3    H269755   6.282   4.547   3.378 -2.9686 -0.1529 -0.6992
16114TIP3   OH269756   2.306   6.038  13.062  0.8626  0.0491  0.0083
16114TIP3    H169757   2.301   6.025  12.968  0.2129  1.1313 -0.1305
16114TIP3    H269758   2.399   6.054  13.079  0.8464  0.9195 -0.6251
16115TIP3   OH269759   6.004   5.843   4.608  0.3470  0.4195 -0.1435
16115TIP3    H169760   5.961   5.926   4.627 -3.7672 -0.8506 -2.5392
16115TIP3    H269761   6.062   5.862   4.534 -0.9706  1.1380 -1.0375
16116TIP3   OH269762   2.468   5.299   2.408  0.4624  0.0896 -0.1248
16116TIP3    H169763   2.445   5.269   2.320  1.6833 -0.5909 -0.2402
16116TIP3    H269764   2.509   5.384   2.395  3.1248 -1.1564 -0.5751
16117TIP3   OH269765   0.138   1.839   5.649 -0.1289 -0.1405 -0.1938
16117TIP3    H169766   0.054   1.826   5.693 -1.1560 -1.7326 -2.4310
16117TIP3    H269767   0.119   1.823   5.556  2.0919  2.1883 -1.1654
16118TIP3   OH269768   1.763   4.932  15.750 -1.1714 -0.3479  0.8217
16118TIP3    H169769   1.739   4.870  15.819  0.1670  0.5966  2.2086
16118TIP3    H269770   1.856   4.951  15.766 -0.9670  0.3307 -0.9232
16119TIP3   OH269771   4.068   6.441  16.554 -0.1752  0.6202 -0.2657
16119TIP3    H169772   4.024   6.483  16.628 -1.7161 -0.3743 -0.5873
16119TIP3    H269773   4.108   6.363  16.592 -2.7975 -1.0767 -0.8040
16120TIP3   OH269774   3.501   3.803   0.745 -0.2736 -0.0354  0.3951
16120TIP3    H169775   3.505   3.832   0.654  1.5824 -0.6603  0.2513
16120TIP3    H269776   3.511   3.884   0.796 -0.0804  0.1654  0.0392
16121TIP3   OH269777   3.473   5.751   5.542 -0.1629 -0.0390 -0.4003
16121TIP3    H169778   3.461   5.736   5.449  1.2563  0.2813 -0.6623
16121TIP3    H269779   3.504   5.841   5.548  0.3623 -0.2534  0.3135
16122TIP3   OH269780   5.748   6.090  15.405  0.0887 -0.1419  0.1552
16122TIP3    H169781   5.657   6.114  15.390  0.6243  0.2530 -2.9748
16122TIP3    H269782   5.753   5.997  15.381  0.4864 -0.2510  0.6161
16123TIP3   OH269783   5.105   5.080  16.084 -0.2296 -0.0062 -0.5466
16123TIP3    H169784   5.196   5.051  16.088 -0.3525 -0.3474 -0.1378
16123TIP3    H269785   5.054   4.999  16.074 -0.6799 -0.1430  2.0942
16124TIP3   OH269786   3.326   0.330  16.786  0.3609 -0.5152  0.9430
16124TIP3    H169787   3.327   0.259  16.849 -0.7056 -0.3088  1.2093
16124TIP3    H269788   3.318   0.409  16.839 -0.9504 -0.3649  0.5620
16125TIP3   OH269789   3.529   4.212   6.016  0.6301  0.1223 -0.6309
16125TIP3    H169790   3.569   4.225   5.930 -0.7394 -0.6378 -1.4320
16125TIP3    H269791   3.549   4.292   6.065 -0.9386  1.8706 -2.6421
16126TIP3   OH269792   4.415   4.775   4.727  0.2316  0.0467 -0.6962
16126TIP3    H169793   4.334   4.826   4.725  0.5978  0.7466  0.8603
16126TIP3    H269794   4.475   4.825   4.671  0.6211  1.4491  0.8926
16127TIP3   OH269795   0.215   3.092  14.901 -0.1202 -0.1742 -0.2599
16127TIP3    H169796   0.138   3.127  14.855 -0.2481  0.0319  0.1077
16127TIP3    H269797   0.232   3.155  14.971  0.8016  0.1416 -0.7513
16128TIP3   OH269798   4.186   2.932  15.455 -0.2603 -0.0338  0.2763
16128TIP3    H169799   4.135   2.940  15.375  0.1631 -2.9392 -0.3876
16128TIP3    H269800   4.128   2.963  15.524 -1.7449 -0.2646 -0.8327
16129TIP3   OH269801   0.921   1.792  15.309 -0.1135 -0.0478  0.0184
16129TIP3    H169802   0.949   1.707  15.278 -0.8550  0.1255 -1.2055
16129TIP3    H269803   0.828   1.797  15.286  0.0255  1.2643 -0.3697
16130TIP3   OH269804   4.262   1.750  16.436  0.0346 -1.0949  0.4775
16130TIP3    H169805   4.329   1.756  16.504  0.9526  2.2183 -0.5033
16130TIP3    H269806   4.179   1.746  16.483  0.6901  0.2509  1.8251
16131TIP3   OH269807   5.133   2.330  10.593  0.5672 -0.4134 -0.2334
16131TIP3    H169808   5.120   2.419  10.559  0.7067 -0.7933 -1.3050
16131TIP3    H269809   5.222   2.331  10.629  1.2126 -0.5837 -1.7733
16132TIP3   OH269810   4.498   2.131  11.346 -0.3552  0.7559  0.0700
16132TIP3    H169811   4.522   2.156  11.435 -1.5206  1.4121  0.2217
16132TIP3    H269812   4.441   2.055  11.356  1.2231 -0.5229 -0.2620
16133TIP3   OH269813   1.782   3.833   4.426  0.2712  0.1805 -0.1288
16133TIP3    H169814   1.762   3.924   4.402 -0.1952 -0.0862 -0.8033
16133TIP3    H269815   1.849   3.806   4.363  0.9858  0.2963  0.5695
16134TIP3   OH269816   1.767   4.515   2.165  0.0918 -0.3917 -0.0216
16134TIP3    H169817   1.834   4.531   2.098 -0.4168 -0.4318 -0.5447
16134TIP3    H269818   1.809   4.454   2.226  1.7403  2.1039  1.5267
16135TIP3   OH269819   5.761   2.280   3.266 -0.0989 -0.4280  0.3322
16135TIP3    H169820   5.706   2.266   3.344  3.3467  1.2060  3.3549
16135TIP3    H269821   5.769   2.375   3.259  0.5701 -0.5806 -1.4327
16136TIP3   OH269822   4.464   0.946  15.108  0.9101 -0.2069 -0.1641
16136TIP3    H169823   4.527   0.892  15.157 -0.8235 -0.5872  1.7492
16136TIP3    H269824   4.423   0.885  15.047  0.6998 -0.4894  0.2609
16137TIP3   OH269825   0.869   1.524   1.417 -0.1343  0.8254  0.5919
16137TIP3    H169826   0.870   1.458   1.348 -0.4488  0.2727  1.1000
16137TIP3    H269827   0.794   1.579   1.397 -1.5559 -0.6187  1.6339
16138TIP3   OH269828   6.420   0.713  17.347  0.4439 -0.3243 -1.1348
16138TIP3    H169829   6.510   0.706  17.377  1.2292 -0.8714 -3.4094
16138TIP3    H269830   6.418   0.793  17.295 -1.2100  1.3318  1.2898
16139TIP3   OH269831   0.735   5.712   2.992  0.4696 -0.1823 -0.5890
16139TIP3    H169832   0.735   5.803   2.962 -2.7466  0.5074  0.9698
16139TIP3    H269833   0.652   5.676   2.960 -0.0358 -1.3835  1.8059
16140TIP3   OH269834   1.728   6.482  12.447  0.4049 -0.2544 -0.1204
16140TIP3    H169835   1.641   6.479  12.485  0.1227  0.7602 -0.6588
16140TIP3    H269836   1.722   6.547  12.377  1.1169 -1.4839 -1.3812
16141TIP3   OH269837   0.968   3.041   0.759  0.6564  0.1949 -0.5576
16141TIP3    H169838   0.938   2.996   0.680 -0.2501 -1.1722  0.5404
16141TIP3    H269839   0.892   3.089   0.791  1.0822  0.9346 -0.6113
16142TIP3   OH269840   0.695   0.935   1.154  0.7982  0.6105  0.8423
16142TIP3    H169841   0.664   0.990   1.226  0.3019  0.9591  0.3733
16142TIP3    H269842   0.740   0.862   1.196 -0.6429  0.0981  1.5627
16143TIP3   OH269843   0.603   6.642   0.324 -0.4220  0.1058  0.0572
16143TIP3    H169844   0.602   6.728   0.283 -1.0475  0.5586  0.9977
16143TIP3    H269845   0.639   6.584   0.257 -0.5849  0.9831 -0.8076
16144TIP3   OH269846   2.233   0.403   4.963 -0.0227 -0.1409 -0.4222
16144TIP3    H169847   2.329   0.398   4.970 -0.0258 -0.8490 -0.7715
16144TIP3    H269848   2.211   0.336   4.899 -0.7796 -0.1522 -0.1535
16145TIP3   OH269849   6.461   1.669   1.136  0.0343  0.0833 -0.0620
16145TIP3    H169850   6.408   1.748   1.146  0.5429  0.4242 -0.0153
16145TIP3    H269851   6.472   1.636   1.225  0.2229  0.2300 -0.0298
16146TIP3   OH269852   4.094   6.734   1.943 -0.5505 -0.4465  0.0507
16146TIP3    H169853   4.069   6.822   1.969 -0.7821 -0.8981  1.4168
16146TIP3    H269854   4.172   6.715   1.994 -0.0839 -0.7776 -0.7666
16147TIP3   OH269855   5.985   4.272   3.325 -0.3639  0.2822 -0.2393
16147TIP3    H169856   5.975   4.248   3.418 -2.1811  0.0912 -0.4543
16147TIP3    H269857   6.016   4.362   3.327  0.9397 -0.1488  0.5424
16148TIP3   OH269858   2.539   1.452   2.747 -0.1687 -0.4563 -0.1594
16148TIP3    H169859   2.477   1.380   2.749  0.3131 -1.0384 -2.8510
16148TIP3    H269860   2.510   1.511   2.818 -1.5768 -2.4108  0.9834
16149TIP3   OH269861   3.961   4.946   1.938 -0.5384 -0.3258 -0.3247
16149TIP3    H169862   4.020   4.951   2.013 -0.6338  1.4643 -0.3271
16149TIP3    H269863   3.957   5.035   1.905 -1.2677 -0.9050 -1.8815
16150TIP3   OH269864   2.677   6.433   5.940 -0.7060  0.5838 -0.2028
16150TIP3    H169865   2.666   6.524   5.913 -1.1332  0.4318 -0.5442
16150TIP3    H269866   2.763   6.431   5.981 -1.2444  1.4396  1.0432
16151TIP3   OH269867   5.998   0.845   3.783 -0.1308 -0.1245 -0.1505
16151TIP3    H169868   5.906   0.837   3.806  0.2131 -1.2848  0.9611
16151TIP3    H269869   5.999   0.860   3.689 -1.4780  0.9005 -0.0258
16152TIP3   OH269870   5.924   1.288   3.155 -0.5273  0.0966 -0.7369
16152TIP3    H169871   5.959   1.199   3.153  2.2219  1.0758 -0.8788
16152TIP3    H269872   5.868   1.294   3.078  0.3389 -1.1044 -1.4926
16153TIP3   OH269873   0.868   4.000   0.831 -0.0046 -0.2971 -0.0603
16153TIP3    H169874   0.796   3.941   0.854 -1.0625  0.5217 -1.1812
16153TIP3    H269875   0.836   4.087   0.851  0.8396  0.0585 -0.1973
16154TIP3   OH269876   2.740   6.442  13.106 -0.4076  0.1625  0.0313
16154TIP3    H169877   2.773   6.525  13.141 -1.1872  0.0420  1.1147
16154TIP3    H269878   2.799   6.421  13.034  0.4276  1.1314  0.4045
16155TIP3   OH269879   1.261   2.364   2.041 -0.4259  0.4201  0.0646
16155TIP3    H169880   1.182   2.339   1.994 -0.6305 -0.1901  0.7133
16155TIP3    H269881   1.289   2.284   2.086  0.4808  0.6592 -0.0430
16156TIP3   OH269882   3.522   2.058   4.132  0.2548  0.5024 -0.6281
16156TIP3    H169883   3.617   2.046   4.126  0.2057 -0.8339  0.6376
16156TIP3    H269884   3.485   1.977   4.098 -0.3973  0.6481 -0.2979
16157TIP3   OH269885   2.063   2.249   5.509  0.7800 -0.3944 -0.0843
16157TIP3    H169886   2.109   2.245   5.425  1.7344 -0.1432  0.4127
16157TIP3    H269887   2.037   2.159   5.526  0.3885 -0.4150 -0.7466
16158TIP3   OH269888   3.988   2.946  15.658  0.2101 -0.2394  0.2124
16158TIP3    H169889   3.903   2.981  15.632 -0.7592 -1.7966  1.1444
16158TIP3    H269890   3.985   2.944  15.754  1.6863  0.5565  0.3003
16159TIP3   OH269891   3.111   2.559   4.295 -0.5425 -0.5686 -0.1363
16159TIP3    H169892   3.091   2.473   4.332  0.0581 -0.6300  0.0583
16159TIP3    H269893   3.204   2.573   4.316 -0.9733  0.7471  1.1000
16160TIP3   OH269894   4.703   5.541  12.677  0.7412  0.2899 -0.3817
16160TIP3    H169895   4.787   5.571  12.641  1.1148 -2.2169 -1.8999
16160TIP3    H269896   4.719   5.449  12.699 -1.8421 -0.5140 -1.5730
16161TIP3   OH269897   1.124   0.820   5.428 -0.6205  0.1395 -0.5450
16161TIP3    H169898   1.166   0.889   5.479  1.4404  0.3992 -2.4945
16161TIP3    H269899   1.161   0.739   5.463  0.4968  0.2979 -1.3182
16162TIP3   OH269900   4.226   0.073  11.620  0.3834  0.5144 -0.0351
16162TIP3    H169901   4.273   0.121  11.688  2.0527 -3.0684  1.6194
16162TIP3    H269902   4.144   0.047  11.661 -0.3002  1.4802 -0.7535
16163TIP3   OH269903   2.998   1.142  13.122  0.1792  0.5897  0.5957
16163TIP3    H169904   3.017   1.049  13.104 -0.6989  0.1423  1.8136
16163TIP3    H269905   3.071   1.189  13.083  0.9323 -0.6622  0.4162
16164TIP3   OH269906   6.593   4.143  17.043 -0.0253  0.1397 -0.1859
16164TIP3    H169907   6.625   4.203  17.110 -0.6219 -0.3023  0.5159
16164TIP3    H269908   6.582   4.197  16.965 -1.9100  1.2888  0.8023
16165TIP3   OH269909   4.729   4.771   3.129 -0.0355  0.3751 -0.0507
16165TIP3    H169910   4.791   4.844   3.121 -0.6637  1.1616  1.6055
16165TIP3    H269911   4.710   4.767   3.223 -3.0630  0.6775 -0.5658
16166TIP3   OH269912   3.033   4.908  13.005 -0.3146 -0.5571  0.1380
16166TIP3    H169913   3.021   4.825  13.051 -0.3682 -0.8072 -0.3215
16166TIP3    H269914   3.009   4.975  13.069  1.9584 -0.7641  1.3154
16167TIP3   OH269915   5.742   5.540   2.860 -0.3971 -0.3100  0.1218
16167TIP3    H169916   5.782   5.522   2.946 -0.0830 -0.6650 -0.0954
16167TIP3    H269917   5.667   5.481   2.856 -0.1892 -0.5686 -0.0038
16168TIP3   OH269918   5.231   5.173   2.763 -0.3034  0.2155  0.5599
16168TIP3    H169919   5.230   5.257   2.808 -0.8095  1.1670 -1.1386
16168TIP3    H269920   5.179   5.115   2.819  0.2101  0.9587  1.8493
16169TIP3   OH269921   2.072   2.782  15.725  0.5743 -0.3230 -0.2300
16169TIP3    H169922   2.090   2.702  15.776 -3.2506 -1.7863 -0.7952
16169TIP3    H269923   2.050   2.848  15.791  0.7016 -0.6890  0.1819
16170TIP3   OH269924   4.930   0.492  11.159  0.0609 -0.3906  0.0365
16170TIP3    H169925   4.872   0.460  11.089 -0.5843  2.5821 -0.9461
16170TIP3    H269926   5.017   0.490  11.120 -0.1276  0.0567 -0.4318
16171TIP3   OH269927   1.221   5.343  16.665  0.1643  0.3782  0.0402
16171TIP3    H169928   1.258   5.272  16.718  0.6089  0.6364  0.0843
16171TIP3    H269929   1.292   5.407  16.658 -0.4133  1.0866  0.4739
16172TIP3   OH269930   0.937   3.488   2.736 -0.4065  0.1930 -0.3429
16172TIP3    H169931   0.856   3.522   2.700 -1.4780 -0.4042  1.3757
16172TIP3    H269932   0.932   3.393   2.722 -0.2274  0.1013  0.1848
16173TIP3   OH269933   0.004   6.362  15.792  0.3700 -0.0108  0.0271
16173TIP3    H169934   0.100   6.355  15.795  0.4856  0.9308 -0.9578
16173TIP3    H269935  -0.013   6.431  15.728 -0.9419  0.5734  0.9633
16174TIP3   OH269936   4.278   5.183   5.976  0.1854  0.0983 -0.1214
16174TIP3    H169937   4.290   5.219   6.064 -0.7259  1.4060 -0.4934
16174TIP3    H269938   4.266   5.089   5.989  2.6497 -0.1451  0.9138
16175TIP3   OH269939   3.958   2.125   1.910  0.0722  0.6436  0.4121
16175TIP3    H169940   4.005   2.070   1.972  1.2361 -0.0897 -1.0548
16175TIP3    H269941   3.871   2.085   1.903  0.5967 -0.4982  0.0791
16176TIP3   OH269942   0.229   2.061  11.688  0.1588 -0.8458  0.3756
16176TIP3    H169943   0.142   2.094  11.709  0.8059  0.5592  0.9337
16176TIP3    H269944   0.285   2.094  11.759  1.4751 -0.2148 -0.9105
16177TIP3   OH269945   2.814   3.060   1.836  0.3318  0.4444 -0.3495
16177TIP3    H169946   2.808   3.062   1.931 -1.5665  1.5052 -0.4530
16177TIP3    H269947   2.837   3.149   1.811  0.0964  0.3549 -0.9155
16178TIP3   OH269948   4.458   4.549  14.215  0.6919  0.3579  0.2252
16178TIP3    H169949   4.401   4.519  14.145  1.7738  1.5889 -1.2581
16178TIP3    H269950   4.399   4.573  14.286 -0.3758 -1.9883  0.2463
16179TIP3   OH269951   5.980   5.934  12.534  0.1943 -0.2309 -0.1875
16179TIP3    H169952   5.993   6.005  12.470  2.6817  0.8089  1.3204
16179TIP3    H269953   5.912   5.966  12.592 -0.1611  0.0037 -0.7214
16180TIP3   OH269954   5.124   2.763   5.936  0.8087 -0.1471  0.6699
16180TIP3    H169955   5.137   2.848   5.979 -2.2884  1.0152 -0.4041
16180TIP3    H269956   5.117   2.784   5.843 -0.4307 -1.4762  0.4242
16181TIP3   OH269957   1.536   1.356  13.600  0.0240 -0.0010 -0.4351
16181TIP3    H169958   1.575   1.270  13.610  2.8077  1.0041 -1.6535
16181TIP3    H269959   1.578   1.393  13.522 -0.0937  2.9165  0.7361
16182TIP3   OH269960   3.069   4.980   4.490  0.0674  0.5077  0.0423
16182TIP3    H169961   3.089   4.908   4.549  0.0961  0.4163 -0.0783
16182TIP3    H269962   3.153   4.999   4.447  0.8533  2.6315  2.2782
16183TIP3   OH269963   1.550   4.596   6.097 -0.1199  0.2235  0.1510
16183TIP3    H169964   1.642   4.575   6.080  0.1278  1.1792  0.2301
16183TIP3    H269965   1.552   4.686   6.130 -1.2574  1.0038 -1.7287
16184TIP3   OH269966   5.353   6.710  15.196  0.8921 -0.2883 -0.6319
16184TIP3    H169967   5.435   6.758  15.204  0.0283  1.5644 -2.0699
16184TIP3    H269968   5.332   6.714  15.103 -0.5196 -1.2950 -0.3952
16185TIP3   OH269969   2.722   5.975  12.834 -0.1572  0.1874 -0.5830
16185TIP3    H169970   2.660   6.048  12.842  0.4363  0.5325  1.5738
16185TIP3    H269971   2.686   5.919  12.765 -0.8343  2.2943 -2.0233
16186TIP3   OH269972   5.399   6.515   3.356  0.2694 -0.6222 -0.2580
16186TIP3    H169973   5.341   6.532   3.430  0.7779  4.0357 -0.6465
16186TIP3    H269974   5.341   6.513   3.280  0.2654  1.9234 -0.4077
16187TIP3   OH269975   2.359   1.570   4.381 -0.6251 -0.7550 -0.5868
16187TIP3    H169976   2.296   1.570   4.453  1.5258 -1.1905  1.4131
16187TIP3    H269977   2.388   1.662   4.375  2.2976 -1.3391  2.1376
16188TIP3   OH269978   0.547   6.459   4.996  0.3311  0.4306 -0.2677
16188TIP3    H169979   0.636   6.490   5.015  2.0178 -2.6391 -2.3518
16188TIP3    H269980   0.519   6.416   5.077  1.2572  0.3518  0.0220
16189TIP3   OH269981   3.135   3.720   0.917  0.8528 -0.2368  0.3335
16189TIP3    H169982   3.194   3.794   0.909  0.1021  0.2443 -1.2708
16189TIP3    H269983   3.168   3.656   0.854  0.9180 -0.8624  0.9949
16190TIP3   OH269984   1.408   1.424  14.997  0.0652 -0.1319 -0.0629
16190TIP3    H169985   1.349   1.382  15.059 -1.7953  1.4538 -0.6274
16190TIP3    H269986   1.486   1.445  15.048 -1.3880  1.1107  1.8029
16191TIP3   OH269987   4.984   0.887   4.181 -0.1391  0.2897  0.2844
16191TIP3    H169988   4.964   0.967   4.133  0.6938  1.7928  2.2617
16191TIP3    H269989   5.077   0.872   4.167 -0.3092 -0.4293 -0.1618
16192TIP3   OH269990   3.701   1.747  15.939 -0.4255  0.7584 -0.4145
16192TIP3    H169991   3.793   1.720  15.947 -0.7641 -0.6110 -0.8716
16192TIP3    H269992   3.701   1.839  15.966  1.1859  0.9681 -0.9789
16193TIP3   OH269993   3.869   3.442  16.559 -0.4123 -0.0799 -0.2206
16193TIP3    H169994   3.956   3.403  16.553 -1.2604 -1.8142 -1.8446
16193TIP3    H269995   3.872   3.516  16.498 -0.4091 -0.8053 -1.1105
16194TIP3   OH269996   5.002   4.929   1.752  0.0699  0.3021 -0.5368
16194TIP3    H169997   4.971   4.877   1.826  0.3088  0.7197 -0.1348
16194TIP3    H269998   5.008   4.867   1.679 -0.9210  0.0398 -0.4144
16195TIP3   OH269999   1.407   5.399  13.674  0.1758 -0.1589 -0.3256
16195TIP3    H170000   1.321   5.432  13.649 -1.0036 -1.4501  1.7949
16195TIP3    H270001   1.468   5.455  13.625 -1.8051  1.3874 -1.2073
16196TIP3   OH270002   5.356   4.883   0.813  0.3269  0.7018  0.1904
16196TIP3    H170003   5.296   4.952   0.783 -0.4748 -0.1354 -0.1872
16196TIP3    H270004   5.393   4.917   0.894  0.5937  1.9372 -0.4334
16197TIP3   OH270005   4.264   6.544   0.819 -0.4604  0.2404 -0.4644
16197TIP3    H170006   4.287   6.588   0.901 -1.2666 -0.7141  0.2891
16197TIP3    H270007   4.245   6.454   0.844 -1.9937  0.2344 -1.4889
16198TIP3   OH270008   0.129   1.524   2.142 -0.2832  0.0182 -0.7030
16198TIP3    H170009   0.162   1.495   2.057  0.0180  0.8240 -0.8607
16198TIP3    H270010   0.048   1.571   2.122 -0.7833 -0.7074 -0.4418
16199TIP3   OH270011   6.755   2.080   2.744  0.1546 -0.0118 -0.2759
16199TIP3    H170012   6.706   2.141   2.799  0.3472 -0.0331 -0.0818
16199TIP3    H270013   6.834   2.127   2.719 -0.1598  0.1765 -0.9386
16200TIP3   OH270014   3.916   6.740  11.467  0.0504  0.1079 -0.2687
16200TIP3    H170015   3.863   6.732  11.546  0.9854 -0.7270  0.2983
16200TIP3    H270016   3.853   6.735  11.395 -0.5559 -1.9658  0.3588
16201TIP3   OH270017   0.294   0.889   0.794  0.0277 -0.7599 -0.1572
16201TIP3    H170018   0.232   0.820   0.817 -1.5907  0.6683 -0.0640
16201TIP3    H270019   0.309   0.935   0.877  0.7651 -0.7216 -0.3075
16202TIP3   OH270020   3.455   1.924  16.220 -0.1429 -0.0891 -0.0239
16202TIP3    H170021   3.374   1.963  16.254  0.5924  0.1732  1.5109
16202TIP3    H270022   3.425   1.853  16.163 -1.4597  0.1377  0.3441
16203TIP3   OH270023   2.376   3.445  14.206  0.6118 -0.5449  0.1951
16203TIP3    H170024   2.387   3.370  14.264 -0.1050  0.2062  1.3359
16203TIP3    H270025   2.463   3.485  14.203  0.6283 -0.5138  0.8746
16204TIP3   OH270026   0.803   2.332  13.242  0.3503  0.1334  0.2122
16204TIP3    H170027   0.845   2.348  13.158 -1.2757 -1.1472 -0.9183
16204TIP3    H270028   0.853   2.260  13.281  0.9523  0.5629  0.2405
16205TIP3   OH270029   2.489   1.357  15.620  0.2697  0.8009 -0.0761
16205TIP3    H170030   2.460   1.435  15.667 -0.0673  0.8457 -0.3597
16205TIP3    H270031   2.506   1.387  15.531 -1.0936  0.2988 -0.5189
16206TIP3   OH270032   6.011   0.805   4.412  0.2296  0.6242 -0.2769
16206TIP3    H170033   5.967   0.728   4.447 -0.7383  0.3971 -1.8990
16206TIP3    H270034   6.101   0.798   4.445 -0.6273  0.5858  2.3130
16207TIP3   OH270035   6.000   3.351  14.999  0.2912 -0.6109  0.6297
16207TIP3    H170036   5.954   3.268  15.007  2.7454 -2.2791 -1.0472
16207TIP3    H270037   6.092   3.328  15.007  1.2464  1.5009 -2.4179
16208TIP3   OH270038   3.633   1.457  12.149 -0.0856  0.9286  0.4675
16208TIP3    H170039   3.718   1.434  12.111 -1.4384 -2.2355 -0.9842
16208TIP3    H270040   3.581   1.488  12.074 -1.7628 -2.2732  0.1264
16209TIP3   OH270041   2.957   6.514   6.004  0.4124  0.3582  0.5755
16209TIP3    H170042   2.967   6.584   5.940 -0.5827  0.9667  1.0542
16209TIP3    H270043   3.010   6.541   6.079  0.9101  0.0516  0.3395
16210TIP3   OH270044   5.267   0.286   5.602 -0.1590  0.0925  0.3596
16210TIP3    H170045   5.323   0.225   5.555 -2.1394 -1.2019 -0.4859
16210TIP3    H270046   5.214   0.231   5.660  0.8146  1.4654  2.6805
16211TIP3   OH270047   2.041   1.902   1.647 -0.0927 -0.4191  0.0586
16211TIP3    H170048   2.066   1.964   1.579  0.6348  0.7060  1.2901
16211TIP3    H270049   1.971   1.850   1.609 -0.3507  0.8120 -1.2042
16212TIP3   OH270050   2.488   5.472  14.680 -0.0015 -0.5792  0.2465
16212TIP3    H170051   2.536   5.471  14.598  0.3602 -0.1042  0.4499
16212TIP3    H270052   2.412   5.415  14.664 -0.4868  0.3021 -0.7477
16213TIP3   OH270053   5.007   3.172  16.023  0.3808 -0.0201 -0.2115
16213TIP3    H170054   5.068   3.176  15.949  2.0222 -0.7953  1.0380
16213TIP3    H270055   4.927   3.135  15.986  0.4803  1.4236 -2.0020
16214TIP3   OH270056   2.976   6.088   3.870 -0.4423 -0.5189  0.3063
16214TIP3    H170057   2.981   6.017   3.934  0.4744 -1.0353 -0.3111
16214TIP3    H270058   3.004   6.166   3.918 -3.1424 -0.1595  1.4883
16215TIP3   OH270059   4.109   0.773   5.913  0.0413 -0.4948  0.1250
16215TIP3    H170060   4.100   0.862   5.946 -2.3995 -0.4639 -0.4123
16215TIP3    H270061   4.040   0.724   5.959  0.1965 -1.6903 -0.8688
16216TIP3   OH270062   4.152   5.504  12.310 -0.0050 -0.0412 -0.7229
16216TIP3    H170063   4.136   5.586  12.263 -0.6964 -0.7918 -1.8411
16216TIP3    H270064   4.229   5.523  12.364  1.4276  0.6301 -2.8257
16217TIP3   OH270065   2.626   0.294  12.559 -0.5841  0.4232 -0.4133
16217TIP3    H170066   2.653   0.234  12.628 -0.8414  0.2715 -0.4431
16217TIP3    H270067   2.531   0.280  12.551 -0.2808 -1.0237 -2.1809
16218TIP3   OH270068   5.163   2.916  15.496  0.2000 -0.2858 -0.2156
16218TIP3    H170069   5.119   2.998  15.475  0.5459 -0.3745 -1.3037
16218TIP3    H270070   5.146   2.904  15.590 -0.7505  0.4782 -0.2732
16219TIP3   OH270071   3.328   1.662  11.747  0.0358  0.1453 -0.1714
16219TIP3    H170072   3.345   1.734  11.686 -0.7928 -0.3443 -1.0106
16219TIP3    H270073   3.235   1.671  11.770  0.0748 -0.2989  0.1939
16220TIP3   OH270074   5.532   5.800   1.701 -0.3262 -0.0166 -0.2926
16220TIP3    H170075   5.548   5.720   1.652 -2.1704 -0.7204  0.1767
16220TIP3    H270076   5.576   5.785   1.785  1.6432  0.6217 -1.1621
16221TIP3   OH270077   4.069   3.798   4.574 -0.6507 -0.5341  0.0955
16221TIP3    H170078   4.000   3.863   4.563  0.7379  0.8839 -0.6119
16221TIP3    H270079   4.115   3.798   4.490  1.3196 -0.0923  1.1187
16222TIP3   OH270080   2.306   4.703  17.107  0.5668  0.0612  0.5680
16222TIP3    H170081   2.273   4.684  17.195 -0.0667 -0.3479  0.2429
16222TIP3    H270082   2.366   4.631  17.088 -2.8729 -2.6115 -1.2258
16223TIP3   OH270083   1.611   4.590  13.445  0.5096  0.6034  0.2009
16223TIP3    H170084   1.520   4.561  13.445  0.4432  0.8064  0.7039
16223TIP3    H270085   1.660   4.513  13.416  0.1127  0.7320 -0.8399
16224TIP3   OH270086   5.945   3.902  13.631  0.2305 -0.3416  0.6525
16224TIP3    H170087   5.986   3.945  13.556  0.3019 -0.6986  0.4825
16224TIP3    H270088   6.005   3.917  13.703 -0.6952  1.5605  1.0904
16225TIP3   OH270089   0.267   0.650  10.702  0.1833 -0.1141 -0.0553
16225TIP3    H170090   0.179   0.686  10.714  0.1060 -0.2837 -0.1094
16225TIP3    H270091   0.314   0.718  10.654  0.3099  0.3051  0.6498
16226TIP3   OH270092   3.869   3.413  11.364  0.0218 -0.0687  0.6850
16226TIP3    H170093   3.777   3.388  11.373  0.2447 -0.3866  2.3165
16226TIP3    H270094   3.868   3.509  11.365 -0.2062 -0.0800  1.7164
16227TIP3   OH270095   0.809   3.177   4.178  0.5967  0.5780  0.2403
16227TIP3    H170096   0.804   3.266   4.214 -0.7188  2.2817 -3.5522
16227TIP3    H270097   0.898   3.148   4.197  1.1809  2.8539  1.3265
16228TIP3   OH270098   5.874   5.702  15.826 -0.2294 -0.0529  0.1990
16228TIP3    H170099   5.931   5.632  15.857 -2.4409 -1.7536  0.6910
16228TIP3    H270100   5.785   5.667  15.837 -1.3597  2.1233 -1.3179
16229TIP3   OH270101   5.249   6.295   1.737  0.1332 -0.0940  0.3417
16229TIP3    H170102   5.202   6.300   1.654  0.9602 -0.7124 -0.1892
16229TIP3    H270103   5.262   6.386   1.763 -0.6269  0.0919  0.0840
16230TIP3   OH270104   4.676   2.122  14.767  0.3539 -0.2758  0.1660
16230TIP3    H170105   4.730   2.177  14.824  0.0782 -0.5971  0.7568
16230TIP3    H270106   4.726   2.041  14.756 -0.8480 -1.4321  2.4364
16231TIP3   OH270107   0.236   2.979   2.545 -0.1346 -0.4289  0.3750
16231TIP3    H170108   0.141   2.968   2.543 -0.3112 -0.3952  3.3920
16231TIP3    H270109   0.250   3.073   2.558  0.1678 -0.6709  2.0326
16232TIP3   OH270110   6.002   4.823   3.874 -0.9412  0.0133  0.2003
16232TIP3    H170111   6.022   4.917   3.864 -0.1212 -0.2961 -1.3386
16232TIP3    H270112   5.909   4.821   3.897 -1.4431  1.1705 -1.4822
16233TIP3   OH270113   5.213   4.436  13.842  0.1883  0.6659  0.4416
16233TIP3    H170114   5.250   4.428  13.930  0.7573  0.9615  0.2335
16233TIP3    H270115   5.279   4.397  13.784 -1.3166 -1.9418  0.3635
16234TIP3   OH270116   2.762   4.300   5.706 -0.3062 -0.8745 -0.1081
16234TIP3    H170117   2.825   4.366   5.678 -0.5184  0.0080  1.3556
16234TIP3    H270118   2.686   4.351   5.735 -0.4886 -1.7538  1.0266
16235TIP3   OH270119   4.045   0.276  14.515  0.8245  0.7209  0.1667
16235TIP3    H170120   3.983   0.238  14.579  0.0507  0.7967 -0.5167
16235TIP3    H270121   4.129   0.237  14.538  0.2828 -0.4446  0.2817
16236TIP3   OH270122   2.454   3.927   0.325 -0.0607  0.3949 -0.1488
16236TIP3    H170123   2.536   3.920   0.373  0.4448 -0.0859 -1.0456
16236TIP3    H270124   2.387   3.897   0.387  0.5189  0.1747  0.3817
16237TIP3   OH270125   2.542   3.743   2.060  1.2510  0.0685  0.8422
16237TIP3    H170126   2.622   3.758   2.010  0.8176  0.1007  0.1514
16237TIP3    H270127   2.533   3.821   2.114  1.3396  0.3496  0.4531
16238TIP3   OH270128   0.255   2.674  16.044 -0.4113  0.3135  0.0955
16238TIP3    H170129   0.332   2.641  16.090  1.4566  2.2153 -1.4304
16238TIP3    H270130   0.201   2.714  16.112  1.3459  1.3964  0.9147
16239TIP3   OH270131   6.623   5.224   1.659 -0.0760 -0.1305  0.0473
16239TIP3    H170132   6.581   5.160   1.718 -0.6205  0.3467  0.1866
16239TIP3    H270133   6.638   5.300   1.714  1.0622 -0.3238  0.0131
16240TIP3   OH270134   4.462   4.667   4.429  0.3734  0.0533 -0.2604
16240TIP3    H170135   4.421   4.627   4.506  0.1039 -1.2521 -1.0657
16240TIP3    H270136   4.532   4.722   4.466  0.8875 -1.2941  0.8890
16241TIP3   OH270137   2.891   1.462   5.037 -0.0187  0.2820 -0.5281
16241TIP3    H170138   2.910   1.525   4.967  0.9138  1.6456  0.9048
16241TIP3    H270139   2.796   1.446   5.029  0.3455 -1.1780 -3.3176
16242TIP3   OH270140   0.895   5.722  13.067  0.3070 -0.0089 -0.1470
16242TIP3    H170141   0.873   5.815  13.063  1.3288  0.2060 -1.2545
16242TIP3    H270142   0.857   5.692  13.150 -1.2048  1.0701 -0.4082
16243TIP3   OH270143   1.258   6.227   3.123  0.4882 -0.0920  0.1804
16243TIP3    H170144   1.248   6.228   3.028 -0.2630 -0.9394  0.2346
16243TIP3    H270145   1.348   6.256   3.139  1.0258 -1.1172 -0.8534
16244TIP3   OH270146   6.147   1.906   1.086  0.2587  0.2670 -0.4411
16244TIP3    H170147   6.235   1.941   1.099  0.3583 -0.2041  0.2517
16244TIP3    H270148   6.090   1.967   1.134  0.3577 -0.1281  0.1937
16245TIP3   OH270149   5.848   2.625  12.068  0.4323  0.2210  0.4149
16245TIP3    H170150   5.850   2.562  12.140 -0.0583 -0.9786 -0.5806
16245TIP3    H270151   5.940   2.635  12.042  0.6092  0.6478  1.1793
16246TIP3   OH270152   6.138   4.732   0.504 -0.0639 -0.3517 -0.5282
16246TIP3    H170153   6.170   4.811   0.461  0.4918 -0.9543 -1.2465
16246TIP3    H270154   6.165   4.741   0.595  2.2834 -0.8657 -1.1069
16247TIP3   OH270155   2.116   1.333   2.169 -0.3663 -0.8151 -0.1418
16247TIP3    H170156   2.205   1.333   2.205  1.0094  1.0332 -3.1415
16247TIP3    H270157   2.066   1.276   2.228  2.6228 -1.4411  2.0171
16248TIP3   OH270158   0.058   2.490   3.498 -0.2886  0.1936 -0.3387
16248TIP3    H170159   0.045   2.543   3.576 -1.7442  1.0319 -1.1174
16248TIP3    H270160   0.087   2.405   3.532  0.8687  1.0745  0.9857
16249TIP3   OH270161   4.089   1.821  16.665 -0.1761 -0.2051  0.1889
16249TIP3    H170162   4.167   1.794  16.714  0.0092 -1.1735 -0.6003
16249TIP3    H270163   4.016   1.792  16.720 -0.0448  1.6656  1.4584
16250TIP3   OH270164   1.421   5.938  15.608  0.2714  0.9806  0.1095
16250TIP3    H170165   1.349   5.964  15.550 -0.5825 -1.8441 -0.2206
16250TIP3    H270166   1.378   5.902  15.685  1.3239  0.1257  0.3183
16251TIP3   OH270167   2.468   1.580  10.945 -0.1062 -0.0739 -0.1408
16251TIP3    H170168   2.530   1.639  10.902 -0.2824 -0.0249 -0.3281
16251TIP3    H270169   2.395   1.637  10.969  0.1686 -0.0166  0.5925
16252TIP3   OH270170   4.782   1.556  11.577  0.0683 -0.9078  0.2052
16252TIP3    H170171   4.824   1.630  11.621 -1.2811 -1.0143  1.7535
16252TIP3    H270172   4.792   1.483  11.638  1.2661 -2.0186 -1.2414
16253TIP3   OH270173   0.786   6.656   4.035  0.3799 -0.2486  0.2409
16253TIP3    H170174   0.765   6.728   4.095 -0.1964  1.8558 -2.2915
16253TIP3    H270175   0.872   6.681   3.999  0.5253 -1.2467 -0.1133
16254TIP3   OH270176   4.051   6.162   1.212 -0.3699  0.0600  0.4100
16254TIP3    H170177   3.999   6.082   1.214 -0.8240  0.3342 -0.1021
16254TIP3    H270178   4.129   6.141   1.263 -0.2045 -0.8988 -0.2078
16255TIP3   OH270179   3.196   3.802   2.739 -0.2337 -0.2670  0.5351
16255TIP3    H170180   3.207   3.708   2.756 -0.3834 -0.0952  1.7192
16255TIP3    H270181   3.262   3.822   2.674 -1.6133 -1.6044 -1.3957
16256TIP3   OH270182   3.572   0.786  13.576  0.2072  0.1279  0.6396
16256TIP3    H170183   3.599   0.852  13.512  0.2008 -2.1993 -1.9353
16256TIP3    H270184   3.483   0.813  13.601  0.4970  1.4981  0.2774
16257TIP3   OH270185   0.999   3.709  10.980  0.0938 -0.1984  0.3285
16257TIP3    H170186   1.032   3.790  11.020 -0.3356 -0.6458  1.6217
16257TIP3    H270187   1.077   3.669  10.942  0.3186  0.7923 -0.3032
16258TIP3   OH270188   4.155   0.202   5.431  0.3031  0.2713  0.0894
16258TIP3    H170189   4.234   0.256   5.435 -0.3262  1.2075  0.3903
16258TIP3    H270190   4.172   0.140   5.361  0.7215  1.4405 -0.8964
16259TIP3   OH270191   5.146   3.939  13.694 -0.2826  0.1418 -0.0564
16259TIP3    H170192   5.101   4.000  13.752 -0.1140  0.7658 -0.5735
16259TIP3    H270193   5.235   3.934  13.729 -1.1122 -2.4774  2.0685
16260TIP3   OH270194   5.505   0.779   4.060 -0.4930  0.1475 -0.1479
16260TIP3    H170195   5.552   0.845   4.009  0.5138 -0.6475 -0.2664
16260TIP3    H270196   5.548   0.780   4.146 -0.3932 -0.4301 -0.1876
16261TIP3   OH270197   4.265   2.304  11.471 -0.1544  0.2625 -0.0537
16261TIP3    H170198   4.230   2.324  11.558 -4.0924  2.4343 -1.8458
16261TIP3    H270199   4.226   2.220  11.448 -2.1666  1.3620 -0.9547
16262TIP3   OH270200   5.530   3.709  11.267 -0.6855  0.3335  0.7187
16262TIP3    H170201   5.449   3.728  11.221 -0.2471  1.6011  0.4351
16262TIP3    H270202   5.533   3.613  11.272  0.0848 -0.0672 -3.4867
16263TIP3   OH270203   1.486   6.478  12.629  0.2293 -0.4152  0.2604
16263TIP3    H170204   1.500   6.501  12.721 -0.8356  1.8958 -0.0786
16263TIP3    H270205   1.398   6.440  12.627  0.1253 -0.1735  0.1702
16264TIP3   OH270206   0.903   5.033  12.947 -0.1781 -0.0156 -0.2752
16264TIP3    H170207   0.846   5.046  12.871 -0.4488  0.7678  0.0530
16264TIP3    H270208   0.990   5.026  12.910 -0.1854  1.3426 -0.6092
16265TIP3   OH270209   5.955   3.681   1.261  0.0822 -0.1768  0.8646
16265TIP3    H170210   5.898   3.690   1.185 -0.8171  1.6440  1.7015
16265TIP3    H270211   6.039   3.717   1.232  0.0870 -0.5518  0.4003
16266TIP3   OH270212   0.538   4.052  14.316 -0.0331  0.0484  0.5718
16266TIP3    H170213   0.447   4.079  14.313 -0.4260 -1.0868  1.6002
16266TIP3    H270214   0.558   4.020  14.228 -0.5463  0.5411  0.2777
16267TIP3   OH270215   2.500   3.227  14.828  0.1392  0.6911  0.6495
16267TIP3    H170216   2.505   3.133  14.844 -0.4412  0.6575  0.6821
16267TIP3    H270217   2.438   3.236  14.756 -0.5959  1.0956  1.3012
16268TIP3   OH270218   3.283   0.482   5.952 -0.6075  0.3023 -0.7756
16268TIP3    H170219   3.336   0.544   5.901 -0.2462  0.5205 -0.1459
16268TIP3    H270220   3.193   0.512   5.939 -0.5108  0.4344 -1.1780
16269TIP3   OH270221   0.647   3.175   6.311  0.2380  0.7932 -1.0155
16269TIP3    H170222   0.719   3.193   6.251  1.4629  1.4077  0.5899
16269TIP3    H270223   0.688   3.164   6.396 -1.4329 -0.2640 -0.2852
16270TIP3   OH270224   5.946   3.081  12.560 -0.4072  0.0466  0.3762
16270TIP3    H170225   5.916   3.016  12.497 -0.6044  0.2087  0.3016
16270TIP3    H270226   6.002   3.032  12.621 -0.4067 -0.1545  0.2144
16271TIP3   OH270227   2.068   6.456  13.277 -0.6106  0.6802  0.0364
16271TIP3    H170228   2.020   6.519  13.222 -0.6093  0.8439  0.2226
16271TIP3    H270229   2.017   6.452  13.358 -0.5603  0.5080  0.0586
16272TIP3   OH270230   6.397   0.371  15.439 -0.1312  0.5287 -0.5140
16272TIP3    H170231   6.481   0.347  15.399 -1.4459 -2.4758 -1.7709
16272TIP3    H270232   6.390   0.313  15.515 -0.8499  1.1047 -0.1386
16273TIP3   OH270233   0.993   0.998   5.699 -0.2734  0.1455  0.1461
16273TIP3    H170234   1.078   1.004   5.656 -0.4900  2.1746 -0.0921
16273TIP3    H270235   0.975   0.904   5.704  1.6955 -0.2986 -0.3285
16274TIP3   OH270236   0.512   2.357   4.931  0.5924 -0.3614  0.3542
16274TIP3    H170237   0.437   2.414   4.915  0.3248 -0.6077  0.7128
16274TIP3    H270238   0.490   2.311   5.012  0.9232 -0.7776  0.2098
16275TIP3   OH270239   1.631   1.687   5.574  0.3101 -0.1452  0.2671
16275TIP3    H170240   1.670   1.606   5.542 -2.2727 -0.9818 -1.1382
16275TIP3    H270241   1.644   1.749   5.502  0.9698  0.2285  0.7093
16276TIP3   OH270242   0.717   0.063  13.330 -0.1578 -0.4501 -0.2237
16276TIP3    H170243   0.723  -0.013  13.387 -1.1802  0.9494  1.8851
16276TIP3    H270244   0.631   0.056  13.288  0.0476 -0.7937 -0.5993
16277TIP3   OH270245   1.738   3.542  13.717 -0.8963  0.4748  0.3708
16277TIP3    H170246   1.716   3.469  13.659  2.0474  0.4847 -0.9041
16277TIP3    H270247   1.808   3.508  13.772  0.4631  2.2801 -0.1769
16278TIP3   OH270248   0.951   0.009   1.576  0.5672 -0.4796  0.8880
16278TIP3    H170249   1.039   0.046   1.582  0.3770  0.1554 -0.0406
16278TIP3    H270250   0.892   0.080   1.602  0.2920 -0.6884  0.8428
16279TIP3   OH270251   5.668   4.469   2.192  0.0525  1.2152  0.2457
16279TIP3    H170252   5.615   4.415   2.250  2.7881  1.6925  3.5535
16279TIP3    H270253   5.756   4.430   2.197  0.2369  0.2531 -5.1456
16280TIP3   OH270254   2.461   4.462   4.468  0.1749 -0.1719 -0.6458
16280TIP3    H170255   2.390   4.508   4.513 -0.4622 -1.5870 -0.1478
16280TIP3    H270256   2.418   4.410   4.400  0.7808 -0.6607 -0.6724
16281TIP3   OH270257   0.281   0.962   3.201  0.0883 -0.0399  0.0271
16281TIP3    H170258   0.254   0.963   3.109  0.0772 -0.9342  0.0116
16281TIP3    H270259   0.233   0.888   3.239  2.4473 -1.6949  0.0130
16282TIP3   OH270260   6.151   5.440  11.927  0.1252 -0.2422  0.3593
16282TIP3    H170261   6.192   5.525  11.942 -1.9712  0.8009  0.5528
16282TIP3    H270262   6.124   5.443  11.835 -2.7289  0.6751  1.1252
16283TIP3   OH270263   3.371   4.797  10.764  0.5466 -0.1828  0.1258
16283TIP3    H170264   3.316   4.755  10.830 -1.3694 -0.2799 -1.4141
16283TIP3    H270265   3.418   4.865  10.811 -0.7887 -0.2077  1.5643
16284TIP3   OH270266   2.900   3.272   4.872  0.2548 -0.1264  0.5519
16284TIP3    H170267   2.957   3.344   4.900  0.9074 -0.4167 -0.0030
16284TIP3    H270268   2.823   3.315   4.835 -0.3152  0.2696  2.1283
16285TIP3   OH270269   0.785   1.043   3.847  0.4591 -0.2281  0.0000
16285TIP3    H170270   0.744   0.957   3.838 -0.0897 -0.0234  0.4729
16285TIP3    H270271   0.820   1.043   3.936  2.1854 -0.6900 -0.6508
16286TIP3   OH270272   5.797   1.563  16.283 -0.4343 -0.1761 -0.2242
16286TIP3    H170273   5.737   1.495  16.254 -1.5336  1.3508 -1.7522
16286TIP3    H270274   5.871   1.557  16.223 -0.4544 -0.1228 -0.2539
16287TIP3   OH270275   5.835   0.762   4.183  0.1472 -0.0560 -1.1158
16287TIP3    H170276   5.868   0.713   4.107 -0.7479  0.1155 -1.6230
16287TIP3    H270277   5.915   0.793   4.227  0.6878 -0.3348 -1.8682
16288TIP3   OH270278   6.291   5.032   0.032 -0.0841 -0.2144  0.8780
16288TIP3    H170279   6.367   5.027  -0.025  0.2045 -0.2482  1.2613
16288TIP3    H270280   6.289   5.124   0.061 -0.1721 -0.2201  0.8894
16289TIP3   OH270281   4.749   2.911   2.295 -0.2473  0.2090 -0.3085
16289TIP3    H170282   4.667   2.959   2.295  0.5314  1.6144 -1.3847
16289TIP3    H270283   4.817   2.979   2.297  0.9347 -0.9078  2.1526
16290TIP3   OH270284   0.406   3.829   5.493  0.6251 -0.3264  0.1316
16290TIP3    H170285   0.458   3.910   5.492  1.7442 -0.9630 -2.4122
16290TIP3    H270286   0.321   3.854   5.457  0.1781  0.1278  1.4643
16291TIP3   OH270287   3.419   5.012  15.144  0.1355 -0.0458 -0.0558
16291TIP3    H170288   3.413   4.920  15.171 -1.1781  0.6129  2.0559
16291TIP3    H270289   3.487   5.012  15.076 -0.5622 -2.7288 -0.8810
16292TIP3   OH270290   0.697   1.087  15.423 -0.4267 -0.2412 -0.7705
16292TIP3    H170291   0.716   1.160  15.481 -2.9753 -1.0590  1.2771
16292TIP3    H270292   0.773   1.030  15.430  0.6213  1.1326 -0.6508
16293TIP3   OH270293   1.935   5.455  11.470 -0.3699  0.0553  0.6312
16293TIP3    H170294   1.917   5.431  11.561  0.3372 -2.0782  0.2654
16293TIP3    H270295   1.867   5.410  11.419 -1.1109  1.6978  0.1040
16294TIP3   OH270296   0.152   4.744   5.731 -0.0412  0.6266 -0.2473
16294TIP3    H170297   0.105   4.819   5.694 -0.7280 -0.0081 -0.6640
16294TIP3    H270298   0.215   4.784   5.791  0.7107  1.6468 -1.6437
16295TIP3   OH270299   0.943   1.518  15.640  0.5072  0.0237  0.1664
16295TIP3    H170300   0.905   1.442  15.595 -0.3392  0.5341 -0.0127
16295TIP3    H270301   1.037   1.503  15.637  0.3358 -1.2714  0.5826
16296TIP3   OH270302   3.380   0.228   2.816  0.2369 -0.0494 -0.3070
16296TIP3    H170303   3.374   0.226   2.720  0.9051 -0.7434 -0.3420
16296TIP3    H270304   3.474   0.231   2.834  0.2663 -2.6325  0.3337
16297TIP3   OH270305   3.162   3.738  13.090  0.5705 -0.4798  0.3132
16297TIP3    H170306   3.145   3.647  13.063  0.3887 -0.1279 -0.8160
16297TIP3    H270307   3.230   3.768  13.029  1.3047 -0.1432  1.2787
16298TIP3   OH270308   0.352   3.098  14.164 -0.0499 -0.5998 -0.5713
16298TIP3    H170309   0.309   3.150  14.232  1.1584 -0.3210 -0.0051
16298TIP3    H270310   0.317   3.010  14.176 -0.3957 -0.3992 -0.0666
16299TIP3   OH270311   6.142   6.286  10.604  0.2311 -0.0928  0.0490
16299TIP3    H170312   6.080   6.219  10.576 -0.4763  0.6094 -0.1181
16299TIP3    H270313   6.224   6.239  10.617  0.2671 -0.6870 -1.9331
16300TIP3   OH270314   3.332   4.789  11.216 -0.1555 -0.5599 -0.0399
16300TIP3    H170315   3.363   4.877  11.199  1.0870 -1.0155 -0.2494
16300TIP3    H270316   3.294   4.760  11.134  2.2204 -1.3048 -0.9604
16301TIP3   OH270317   1.721   5.802   1.089 -0.0416  0.1671 -0.6689
16301TIP3    H170318   1.739   5.815   1.183 -0.8690 -1.5831 -0.2210
16301TIP3    H270319   1.632   5.835   1.077  0.9779  2.9045 -1.4940
16302TIP3   OH270320   1.115   1.517   5.394  0.2790  0.0572  0.1762
16302TIP3    H170321   1.197   1.486   5.433 -0.8480  0.4536  3.1396
16302TIP3    H270322   1.135   1.606   5.365  0.7271  0.4944  1.7035
16303TIP3   OH270323   0.461   3.177  17.131 -0.2039 -0.2259  0.0675
16303TIP3    H170324   0.453   3.269  17.106 -1.9289 -0.0482  1.1072
16303TIP3    H270325   0.371   3.145  17.133  0.3005 -1.6763  0.7042
16304TIP3   OH270326   4.677   2.562  13.229  0.1291  0.0266  0.0357
16304TIP3    H170327   4.718   2.507  13.163  2.6995  0.3645  1.2139
16304TIP3    H270328   4.709   2.527  13.312 -1.1564  1.0217  0.9764
16305TIP3   OH270329   6.589   5.761  15.415 -0.3655 -0.1759  0.4857
16305TIP3    H170330   6.597   5.722  15.328  0.1798  1.6624 -0.3349
16305TIP3    H270331   6.661   5.824  15.420 -0.9471  0.4136  1.8991
16306TIP3   OH270332   1.212   1.786   5.407  0.1029 -0.1349 -0.1658
16306TIP3    H170333   1.197   1.847   5.479 -2.5996  1.2453 -1.7452
16306TIP3    H270334   1.304   1.800   5.382  0.2366  1.5227  1.0862
16307TIP3   OH270335   5.976   2.838  17.101  0.2548 -0.3738 -0.0524
16307TIP3    H170336   5.954   2.808  17.013 -1.4260  0.8515 -0.0951
16307TIP3    H270337   6.061   2.881  17.091 -0.0840  0.0714 -1.1416
16308TIP3   OH270338   0.157   3.101   4.928  0.4332 -0.0350 -0.0193
16308TIP3    H170339   0.079   3.070   4.884  0.0432 -1.1219  1.3700
16308TIP3    H270340   0.126   3.131   5.014  1.4117  0.3213  0.2266
16309TIP3   OH270341   2.897   2.955  15.610 -0.1887  0.6677 -0.3343
16309TIP3    H170342   2.897   3.051  15.601  2.1204  0.8954  1.1848
16309TIP3    H270343   2.807   2.933  15.631 -0.7767  2.5000 -0.7097
16310TIP3   OH270344   3.435   4.363   1.551  0.4151  0.8497  0.2139
16310TIP3    H170345   3.483   4.356   1.634  1.8279  4.0245 -0.2163
16310TIP3    H270346   3.497   4.332   1.485 -0.7657 -1.8304  0.2153
16311TIP3   OH270347   4.246   5.057  17.181  0.1360  0.0199 -0.2233
16311TIP3    H170348   4.265   5.052  17.087  0.3438  0.2923 -0.1974
16311TIP3    H270349   4.315   5.004  17.222  1.3229  1.5774 -0.0794
16312TIP3   OH270350   4.054   3.563  13.622  0.1365  0.3359 -0.0521
16312TIP3    H170351   4.042   3.599  13.534  0.2291  1.3321  0.3273
16312TIP3    H270352   4.015   3.628  13.680 -0.5605 -0.6431  0.6104
16313TIP3   OH270353   2.027   2.776   3.372 -0.6646  0.3939  0.0998
16313TIP3    H170354   2.018   2.810   3.461 -0.8510  0.9648 -0.1356
16313TIP3    H270355   1.940   2.784   3.334 -0.3749  1.0284 -0.4434
16314TIP3   OH270356   1.783   1.176  11.401 -1.0772 -0.0552 -0.2044
16314TIP3    H170357   1.702   1.223  11.415 -0.7067  1.3990 -2.5027
16314TIP3    H270358   1.805   1.191  11.309  1.2838 -1.2066  0.0803
16315TIP3   OH270359   1.475   3.003  16.731 -0.3514 -0.3522  0.1781
16315TIP3    H170360   1.486   2.968  16.643 -0.5534  1.3882 -0.5792
16315TIP3    H270361   1.380   3.017  16.739 -0.1768  1.0507  0.0123
16316TIP3   OH270362   0.079   6.726  13.979  0.0367  0.0117  0.0483
16316TIP3    H170363   0.094   6.718  14.073 -0.7143 -0.1879  0.1631
16316TIP3    H270364   0.137   6.661  13.939  1.0398  0.7444  0.3026
16317TIP3   OH270365   0.353   0.475  14.844 -0.1839 -0.3629 -0.3705
16317TIP3    H170366   0.446   0.455  14.834 -0.7726 -2.8630 -1.4522
16317TIP3    H270367   0.336   0.544  14.780  1.2621  1.5596  1.1834
16318TIP3   OH270368   0.187   3.766   2.431 -0.7367  0.7288  0.5342
16318TIP3    H170369   0.246   3.774   2.356 -0.6703  1.7517  0.6849
16318TIP3    H270370   0.246   3.755   2.506 -0.8140 -1.3986  0.3558
16319TIP3   OH270371   5.794   1.321  14.918 -0.7171  0.8445  0.1352
16319TIP3    H170372   5.875   1.363  14.892 -1.0025  0.5645 -1.2520
16319TIP3    H270373   5.797   1.234  14.878 -0.8706  0.1223  1.6211
16320TIP3   OH270374   3.090   5.100  15.991  0.0170  0.1703  0.4502
16320TIP3    H170375   3.119   5.011  15.972 -1.4817 -0.2130 -0.1448
16320TIP3    H270376   3.070   5.100  16.084  0.7297  0.1075  0.6093
16321TIP3   OH270377   2.843   5.905  13.479 -0.5308 -0.3765 -0.5200
16321TIP3    H170378   2.842   5.967  13.406 -1.7456  0.3146  0.0430
16321TIP3    H270379   2.926   5.922  13.524 -0.5784  0.4358 -0.7242
16322TIP3   OH270380   3.793   2.859   0.645  0.0675  0.2096  0.9416
16322TIP3    H170381   3.760   2.949   0.650  0.6747  0.4244  1.1869
16322TIP3    H270382   3.823   2.840   0.734  3.5375  1.1672  0.0934
16323TIP3   OH270383   1.884   6.543   2.400  0.0538 -0.2224  0.1723
16323TIP3    H170384   1.948   6.527   2.469  0.3234 -0.0442 -0.0357
16323TIP3    H270385   1.831   6.617   2.433  0.1125 -0.2075  0.2330
16324TIP3   OH270386   1.504   2.536  15.230  0.5123 -0.2392 -0.2284
16324TIP3    H170387   1.410   2.522  15.238  0.2915  0.3533 -1.4933
16324TIP3    H270388   1.518   2.548  15.136  1.6584  0.9203  0.0637
16325TIP3   OH270389   3.883   5.917  15.044  0.2111 -0.0280 -0.5184
16325TIP3    H170390   3.834   5.852  15.094  2.7447 -2.0724 -0.4794
16325TIP3    H270391   3.890   5.992  15.103 -1.5705 -0.2071 -0.0144
16326TIP3   OH270392   4.026   5.266  15.832 -0.0992 -0.7905 -0.7625
16326TIP3    H170393   3.967   5.331  15.793 -0.4855 -1.6703 -1.6813
16326TIP3    H270394   3.979   5.183  15.824 -0.1438 -1.0537  1.5067
16327TIP3   OH270395   6.402   2.749   4.153  0.0940 -0.5258 -0.0362
16327TIP3    H170396   6.470   2.727   4.090  0.5511 -0.0922  0.3011
16327TIP3    H270397   6.371   2.664   4.186  1.9980 -0.7206  1.4155
16328TIP3   OH270398   4.925   0.961  11.532 -0.1888  0.2742  0.3679
16328TIP3    H170399   5.001   0.910  11.559  0.6651 -0.0767 -2.3835
16328TIP3    H270400   4.852   0.899  11.534  0.3335 -0.3879 -0.4475
16329TIP3   OH270401   0.727   5.714   1.276 -0.4845  0.2577 -0.2042
16329TIP3    H170402   0.759   5.740   1.362 -1.6889 -1.8034  0.9443
16329TIP3    H270403   0.632   5.709   1.286 -0.5657 -1.0740 -1.3238
16330TIP3   OH270404   6.563   5.643  11.905 -0.3700 -0.8609 -0.0888
16330TIP3    H170405   6.576   5.620  11.997 -1.0319 -1.1432 -0.0625
16330TIP3    H270406   6.612   5.577  11.857 -0.8952 -1.3428  0.0337
16331TIP3   OH270407   4.403   6.449   5.910 -0.0923  0.4884 -0.2178
16331TIP3    H170408   4.312   6.479   5.899 -0.2289  0.1964  0.1171
16331TIP3    H270409   4.401   6.394   5.988  0.3741  0.4729 -0.2168
16332TIP3   OH270410   6.296   5.214   4.944  0.1194  0.3800  0.8135
16332TIP3    H170411   6.206   5.196   4.920 -0.0997  1.6549  0.6415
16332TIP3    H270412   6.335   5.127   4.956 -1.1252 -0.1863  0.9334
16333TIP3   OH270413   2.579   0.243   5.696 -0.2125  0.3193  0.0440
16333TIP3    H170414   2.576   0.228   5.791 -0.7468  0.3300  0.0286
16333TIP3    H270415   2.669   0.222   5.672 -0.2970 -0.5125  0.4130
16334TIP3   OH270416   0.897   3.395  11.864 -0.6775  0.5599 -0.1224
16334TIP3    H170417   0.932   3.484  11.854 -0.2234  0.3154 -0.7152
16334TIP3    H270418   0.959   3.351  11.921  0.4344 -0.1051 -1.7846
16335TIP3   OH270419   2.571   3.521  15.839 -0.0348  0.1220 -0.8250
16335TIP3    H170420   2.652   3.543  15.792  0.1643 -0.4436 -0.7525
16335TIP3    H270421   2.524   3.463  15.778 -1.2497  1.8752 -1.6525
16336TIP3   OH270422   2.674   3.880  11.728 -0.3686  0.6705  0.5341
16336TIP3    H170423   2.638   3.941  11.664  1.8908 -1.0516 -2.6718
16336TIP3    H270424   2.767   3.900  11.732  0.0167 -1.0032  1.2496
16337TIP3   OH270425   4.936   6.037   5.791 -0.4970 -0.1501 -0.1016
16337TIP3    H170426   4.951   5.972   5.860 -0.7928 -1.1635 -0.9748
16337TIP3    H270427   5.024   6.063   5.763 -0.3630 -0.9669 -0.4710
16338TIP3   OH270428   1.416   4.714   1.933 -0.1451 -0.3927 -0.6002
16338TIP3    H170429   1.469   4.647   1.977  1.8817  1.5431  0.0734
16338TIP3    H270430   1.335   4.669   1.910  0.4519 -2.6216  1.3027
16339TIP3   OH270431   6.130   1.179  12.251  1.0540 -0.1334 -0.0151
16339TIP3    H170432   6.200   1.136  12.299  1.0448  0.1799  0.2882
16339TIP3    H270433   6.161   1.183  12.161  0.0408 -2.9299 -0.5806
16340TIP3   OH270434   1.753   1.721   4.409 -0.1972  0.0116  0.1167
16340TIP3    H170435   1.669   1.676   4.419  0.6712 -1.1949  2.6891
16340TIP3    H270436   1.754   1.787   4.478  0.4540  0.9096 -0.7253
16341TIP3   OH270437   1.231   5.851   4.229  0.2401 -0.3726 -0.0181
16341TIP3    H170438   1.189   5.936   4.218  0.3750 -0.3785 -0.6550
16341TIP3    H270439   1.294   5.864   4.300 -2.3722 -0.9592  2.5840
16342TIP3   OH270440   4.072   0.001   5.633 -0.4237  0.3683 -0.4830
16342TIP3    H170441   4.050   0.094   5.635 -1.6085  0.0997 -0.1534
16342TIP3    H270442   4.029  -0.032   5.553 -0.5547 -0.0153 -0.2584
16343TIP3   OH270443   4.184   3.517   0.373 -0.1163  0.5446 -0.2440
16343TIP3    H170444   4.206   3.437   0.422 -0.8605  0.3975 -0.1233
16343TIP3    H270445   4.209   3.588   0.432  0.0797  0.3884 -0.1358
16344TIP3   OH270446   5.804   0.823   2.007 -0.0024 -0.1568  0.0435
16344TIP3    H170447   5.793   0.870   1.925  0.4380  1.5928  0.9512
16344TIP3    H270448   5.756   0.741   1.994 -0.6313  0.4390 -1.6555
16345TIP3   OH270449   1.657   3.711  14.793 -0.1000  0.2743 -0.8408
16345TIP3    H170450   1.613   3.768  14.856  0.3502  0.3411 -0.5780
16345TIP3    H270451   1.601   3.634  14.787  0.5894 -0.4277  0.8229
16346TIP3   OH270452   4.571   2.812   5.540  0.0294 -0.4296  0.2531
16346TIP3    H170453   4.655   2.826   5.497  0.6183  0.0557  1.5297
16346TIP3    H270454   4.510   2.868   5.492  0.5982 -0.1466 -0.1473
16347TIP3   OH270455   2.457   5.004  16.975 -0.2296 -0.4484  0.4964
16347TIP3    H170456   2.511   4.933  16.941 -1.5203 -1.0057 -0.4887
16347TIP3    H270457   2.483   5.012  17.067  1.2788 -0.8885  0.1441
16348TIP3   OH270458   5.855   1.243  16.808  0.4327 -0.1321 -0.2283
16348TIP3    H170459   5.866   1.148  16.795  0.3146  0.0944 -2.4943
16348TIP3    H270460   5.761   1.254  16.824  0.6927 -0.5102  1.8570
16349TIP3   OH270461   2.016   0.113  12.780 -0.1337  0.3322 -0.4782
16349TIP3    H170462   2.051   0.030  12.813 -0.7290  0.5237  0.6622
16349TIP3    H270463   1.926   0.114  12.811  0.6732  2.7742  2.1652
16350TIP3   OH270464   2.117   0.218  17.297 -0.0333  0.7020 -0.3736
16350TIP3    H170465   2.197   0.255  17.334 -0.1334  1.1296 -0.5778
16350TIP3    H270466   2.084   0.158  17.364  1.0849 -0.3856 -0.7581
16351TIP3   OH270467   0.100   2.082  14.627  0.6552  0.1424  0.1241
16351TIP3    H170468   0.184   2.047  14.598  1.2648  0.8276  1.0025
16351TIP3    H270469   0.083   2.039  14.710  0.0233 -0.1573 -0.1573
16352TIP3   OH270470   0.041   5.040  17.331  0.3311 -0.0727 -0.2320
16352TIP3    H170471   0.071   5.101  17.399 -0.7605  1.2585 -0.8944
16352TIP3    H270472   0.101   5.055  17.257 -0.0967  0.3994 -0.4871
16353TIP3   OH270473   0.473   1.813   3.556 -0.0966  0.4925 -0.6996
16353TIP3    H170474   0.536   1.835   3.487  0.6281 -2.9382 -1.2857
16353TIP3    H270475   0.406   1.760   3.513 -0.0730 -1.0620  1.0232
16354TIP3   OH270476   1.390   1.666  12.596  0.1410  0.0713  0.3065
16354TIP3    H170477   1.355   1.604  12.532 -1.2826  0.4368  0.7006
16354TIP3    H270478   1.391   1.618  12.678 -1.7362  0.7824  0.7794
16355TIP3   OH270479   2.099   3.245  16.382 -0.3612  0.0452  0.2437
16355TIP3    H170480   2.193   3.246  16.362 -0.8809 -0.3296 -2.6663
16355TIP3    H270481   2.062   3.315  16.327 -1.6901  1.0381  2.2675
16356TIP3   OH270482   6.582   2.075  12.148 -0.2428 -0.0246 -0.2607
16356TIP3    H170483   6.538   1.995  12.179  0.5679 -0.9729 -1.4757
16356TIP3    H270484   6.572   2.072  12.053  2.6198 -0.4121 -0.6208
16357TIP3   OH270485   3.651   4.702   5.983  0.2439 -0.3173 -0.3574
16357TIP3    H170486   3.720   4.704   5.916 -0.7471  0.0128 -1.4020
16357TIP3    H270487   3.670   4.776   6.040 -0.0916  0.7169 -1.5404
16358TIP3   OH270488   4.210   0.806  12.045 -1.0020 -0.3349  0.3536
16358TIP3    H170489   4.286   0.786  12.099 -0.1078  0.9494 -0.3673
16358TIP3    H270490   4.192   0.724  11.998 -0.0278 -0.6418  0.4933
16359TIP3   OH270491   6.030   1.789  14.287 -0.4886 -0.7129 -0.4670
16359TIP3    H170492   6.017   1.799  14.192 -0.4865  0.0183 -0.3891
16359TIP3    H270493   6.125   1.794  14.299 -0.4639 -1.1435 -0.4603
16360TIP3   OH270494   5.485   4.268   2.920  0.5473  0.6679 -0.1100
16360TIP3    H170495   5.547   4.298   2.853  3.6488  0.0562  2.2722
16360TIP3    H270496   5.432   4.345   2.939  1.1511  1.5076 -1.6416
16361TIP3   OH270497   5.498   0.981  16.596  0.3709  0.2767  0.6882
16361TIP3    H170498   5.470   1.015  16.681 -0.8346  1.7194 -0.2213
16361TIP3    H270499   5.476   1.052  16.534  1.6902 -0.5196 -0.7502
16362TIP3   OH270500   3.333   2.403  13.369  0.7252 -0.5619 -0.0872
16362TIP3    H170501   3.398   2.340  13.401 -0.8364 -2.0987  0.2283
16362TIP3    H270502   3.294   2.439  13.448  1.7738  1.0601 -0.2627
16363TIP3   OH270503   5.360   1.911   5.409  0.9848 -0.6181 -0.8497
16363TIP3    H170504   5.339   1.951   5.493  2.3711 -1.5389 -0.0357
16363TIP3    H270505   5.280   1.922   5.357 -0.4335 -1.2917  1.0672
16364TIP3   OH270506   2.661   0.490   6.034  0.0086 -0.1604 -0.4304
16364TIP3    H170507   2.631   0.468   6.121 -0.1604  0.4609 -0.3266
16364TIP3    H270508   2.720   0.565   6.047  1.7201 -1.4208 -0.6093
16365TIP3   OH270509   5.183   5.867   4.276 -1.2464  0.2672  0.5478
16365TIP3    H170510   5.194   5.960   4.294 -1.0069  0.3610 -0.0638
16365TIP3    H270511   5.266   5.840   4.237 -1.9999  0.2490 -1.1152
16366TIP3   OH270512   3.740   0.319  13.768 -0.2881  0.1719  0.1117
16366TIP3    H170513   3.803   0.357  13.708  0.7669 -0.6411  0.6867
16366TIP3    H270514   3.779   0.331  13.855 -0.8354 -0.5119  0.4640
16367TIP3   OH270515   3.836   3.716  16.901 -0.1302 -0.1381 -0.1336
16367TIP3    H170516   3.898   3.789  16.894 -0.2032 -0.1152 -0.5344
16367TIP3    H270517   3.859   3.674  16.984  0.0610  0.2032 -0.0094
16368TIP3   OH270518   1.461   2.336   3.769  0.2736 -0.3838  0.4718
16368TIP3    H170519   1.531   2.272   3.777 -0.4383 -1.7058 -2.4578
16368TIP3    H270520   1.492   2.398   3.704 -1.1591 -0.9292 -0.7888
16369TIP3   OH270521   1.352   0.201   1.191  0.5968 -0.2884  0.0781
16369TIP3    H170522   1.311   0.239   1.269  3.4040  1.7376  0.7112
16369TIP3    H270523   1.373   0.112   1.216 -0.1396 -0.2300  0.9764
16370TIP3   OH270524   1.768   2.550  14.234  0.5697  0.1704  0.0415
16370TIP3    H170525   1.722   2.602  14.168  1.3632  1.2816  0.3538
16370TIP3    H270526   1.857   2.585  14.236  0.5855  0.1269  1.6504
16371TIP3   OH270527   4.052   0.682   6.482  0.2245  0.6462 -0.6156
16371TIP3    H170528   3.969   0.636   6.477  0.9776 -0.9031  0.2872
16371TIP3    H270529   4.087   0.659   6.568  1.0781  2.1665 -0.5276
16372TIP3   OH270530   5.938   3.890  12.155  0.1736 -0.1201 -0.2982
16372TIP3    H170531   5.968   3.941  12.231 -0.5567 -1.2344  0.7801
16372TIP3    H270532   5.846   3.913  12.146  0.5879  1.1290 -1.8201
16373TIP3   OH270533   0.683   1.721  16.952  0.3999  0.4627  0.3400
16373TIP3    H170534   0.737   1.732  17.030  2.9924  2.4067 -1.5459
16373TIP3    H270535   0.729   1.655  16.900 -0.7690 -0.1210  0.0192
16374TIP3   OH270536   1.257   0.659  12.655 -0.0673 -0.6283 -0.2327
16374TIP3    H170537   1.315   0.732  12.678 -0.5842 -0.5656  0.9227
16374TIP3    H270538   1.254   0.605  12.734 -3.0173  0.3539  0.4481
16375TIP3   OH270539   0.703   0.848   2.834 -0.6638 -0.2132  0.2063
16375TIP3    H170540   0.689   0.931   2.789 -3.9776 -1.1739 -0.7644
16375TIP3    H270541   0.661   0.859   2.920  1.0084 -0.1695  1.0748
16376TIP3   OH270542   5.165   3.325  13.398 -0.2922  0.2205  0.8370
16376TIP3    H170543   5.166   3.320  13.303  2.6273  1.3303  0.6999
16376TIP3    H270544   5.078   3.358  13.420 -0.7109  0.8342 -1.5064
16377TIP3   OH270545   1.188   4.667   0.882 -0.1474 -0.4362 -0.5535
16377TIP3    H170546   1.202   4.580   0.919 -0.5037 -0.4099 -0.3450
16377TIP3    H270547   1.120   4.705   0.938  1.5454  0.8284  0.7597
16378TIP3   OH270548   0.311   2.011   3.363 -0.5690  0.2845  0.2665
16378TIP3    H170549   0.365   2.065   3.420  0.0929 -0.8746  0.7633
16378TIP3    H270550   0.325   1.921   3.394 -0.0161 -0.4028 -1.8677
16379TIP3   OH270551   0.101   0.469  15.291 -0.8675  0.2925  0.2906
16379TIP3    H170552   0.135   0.463  15.202  0.8842 -0.6541  0.9758
16379TIP3    H270553   0.132   0.554  15.323  0.4496 -0.3455  0.7398
16380TIP3   OH270554   3.884   2.846  16.303 -0.3022  0.2357  0.2119
16380TIP3    H170555   3.894   2.774  16.365 -2.6306  0.9922  1.6171
16380TIP3    H270556   3.887   2.805  16.217  1.6779 -1.0276  0.8295
16381TIP3   OH270557   2.723   3.790   3.714 -0.2224  0.1338  0.1181
16381TIP3    H170558   2.746   3.861   3.775  2.2113 -0.4538 -0.0021
16381TIP3    H270559   2.657   3.739   3.761 -0.0723  0.9938  1.3086
16382TIP3   OH270560   3.827   0.732   1.334  0.0644 -0.5163  0.2278
16382TIP3    H170561   3.747   0.785   1.332  0.6022  0.3325  0.4941
16382TIP3    H270562   3.799   0.645   1.307 -0.9415 -0.2194  0.2697
16383TIP3   OH270563   6.636   0.207   0.292 -0.0935  0.3573  0.1121
16383TIP3    H170564   6.710   0.147   0.284  0.4920  1.1452 -0.4901
16383TIP3    H270565   6.579   0.167   0.358  2.0873  0.9765  2.5271
16384TIP3   OH270566   3.327   5.443  17.143  0.4592 -0.6218  0.1863
16384TIP3    H170567   3.347   5.399  17.226  1.2139  0.2633  0.4959
16384TIP3    H270568   3.401   5.502  17.129 -0.2345  0.1195 -0.5019
16385TIP3   OH270569   1.995   0.906   2.319 -0.1989 -0.1689  0.3106
16385TIP3    H170570   2.079   0.951   2.323  0.0143 -0.5057 -0.2829
16385TIP3    H270571   1.934   0.971   2.282  0.1927 -0.4731 -0.9173
16386TIP3   OH270572   4.981   0.012  11.977  0.0616  0.4422  0.0217
16386TIP3    H170573   5.059   0.068  11.980  0.4004  0.0013 -0.4346
16386TIP3    H270574   4.922   0.050  12.042  0.4412  1.1020 -0.0130
16387TIP3   OH270575   3.833   2.353   0.648 -0.0617 -0.1037 -0.2897
16387TIP3    H170576   3.904   2.407   0.613  0.9020 -1.5543 -0.6403
16387TIP3    H270577   3.837   2.368   0.743  1.0076 -0.4994 -0.2604
16388TIP3   OH270578   1.012   5.311  14.299  0.3042 -0.1308  0.1438
16388TIP3    H170579   1.061   5.253  14.241 -0.1987 -1.1641  0.7167
16388TIP3    H270580   0.931   5.329  14.252  1.4085  2.0761 -1.0767
16389TIP3   OH270581   3.360   1.025   1.583  0.4238  0.0284 -0.0079
16389TIP3    H170582   3.428   1.091   1.570 -0.1826  1.1042  1.7648
16389TIP3    H270583   3.403   0.941   1.569  1.9004  0.7156  0.2554
16390TIP3   OH270584   1.349   4.527   4.043  0.1376  0.4233 -0.4174
16390TIP3    H170585   1.272   4.524   3.985  1.0893  1.9905 -1.8628
16390TIP3    H270586   1.367   4.435   4.063 -2.1057  0.0101 -0.0020
16391TIP3   OH270587   2.440   5.500   1.039  0.8162  0.2345 -0.4134
16391TIP3    H170588   2.375   5.461   1.098  1.0538  1.0757  0.4295
16391TIP3    H270589   2.394   5.510   0.956  0.6453 -1.4989 -0.5664
16392TIP3   OH270590   1.430   0.069  15.150 -0.5876 -0.1204  0.3579
16392TIP3    H170591   1.427   0.086  15.055 -0.0269  0.3832  0.4279
16392TIP3    H270592   1.344   0.031  15.169 -0.0594 -1.9536 -0.6663
16393TIP3   OH270593   2.541   0.268   0.709 -0.0372 -0.1286 -0.1894
16393TIP3    H170594   2.447   0.255   0.693 -0.2572  0.2210  0.7821
16393TIP3    H270595   2.568   0.190   0.758  0.9615 -1.9326 -3.2989
16394TIP3   OH270596   6.071   5.039  13.404  0.2349 -0.3679 -0.3147
16394TIP3    H170597   5.997   5.099  13.412 -0.2906 -0.9756 -0.6268
16394TIP3    H270598   6.147   5.097  13.397 -0.3096  0.2693 -1.0433
16395TIP3   OH270599   1.190   1.367  12.767 -0.8774  0.2468 -0.3655
16395TIP3    H170600   1.130   1.379  12.693 -2.0516 -2.7746 -0.0521
16395TIP3    H270601   1.240   1.288  12.745 -0.5180 -0.1115  1.5827
16396TIP3   OH270602   1.040   5.290   3.791  0.1915  0.0778 -0.3593
16396TIP3    H170603   0.981   5.294   3.867 -0.9205 -0.4035 -1.1784
16396TIP3    H270604   1.125   5.267   3.829 -0.3799 -0.3366  0.7309
16397TIP3   OH270605   3.190   1.855   6.372 -0.2663  0.9404 -0.6787
16397TIP3    H170606   3.103   1.837   6.338  0.3782  0.4174 -2.1612
16397TIP3    H270607   3.222   1.771   6.404  0.6532  0.5348 -2.5422
16398TIP3   OH270608   2.584   1.245   1.923  0.1806 -0.4639  0.1149
16398TIP3    H170609   2.503   1.239   1.873 -0.1873 -1.3414  0.8033
16398TIP3    H270610   2.654   1.236   1.858 -0.2524  0.6278 -0.5265
16399TIP3   OH270611   2.511   6.577   3.278 -0.4253  0.0149 -0.3045
16399TIP3    H170612   2.516   6.672   3.266  2.0196  0.2995  1.8998
16399TIP3    H270613   2.436   6.565   3.336  0.2771  0.8870  0.8632
16400TIP3   OH270614   3.600   6.289  16.339  0.4688  0.3600  0.8243
16400TIP3    H170615   3.688   6.325  16.349 -0.0655  2.0264 -0.2313
16400TIP3    H270616   3.547   6.341  16.399 -0.2672  1.1913 -0.5225
16401TIP3   OH270617   2.805   2.631   1.621  0.0182 -0.5366 -0.2361
16401TIP3    H170618   2.821   2.680   1.702  0.0018 -0.5537 -0.2222
16401TIP3    H270619   2.782   2.697   1.556  1.1964 -0.3900 -0.5367
16402TIP3   OH270620   4.084   1.543   5.420  0.6169  0.0207  0.2969
16402TIP3    H170621   4.003   1.565   5.465 -0.2024  0.5474 -1.3642
16402TIP3    H270622   4.153   1.569   5.481 -0.4370  1.2783  0.9989
16403TIP3   OH270623   5.399   5.428   1.403  0.6668  0.3310 -0.2742
16403TIP3    H170624   5.326   5.390   1.453  0.1313  0.9335 -0.5714
16403TIP3    H270625   5.366   5.431   1.313  1.9621 -1.6120 -0.8815
16404TIP3   OH270626   4.036   1.397   1.451  0.3380  0.2620 -0.1857
16404TIP3    H170627   4.009   1.481   1.488 -0.2567  0.4285 -0.9717
16404TIP3    H270628   3.999   1.332   1.510  1.4682  0.5495  0.8739
16405TIP3   OH270629   1.647   6.187   0.348 -0.0333  0.6216 -0.0285
16405TIP3    H170630   1.726   6.221   0.306  0.9704 -0.1965  1.1303
16405TIP3    H270631   1.648   6.093   0.329 -2.0724  0.9463 -2.0853
16406TIP3   OH270632   2.788   1.567   5.872 -0.0075 -0.4410  0.7143
16406TIP3    H170633   2.880   1.589   5.854  0.0731 -1.1886  0.1552
16406TIP3    H270634   2.768   1.497   5.811 -1.8166  1.5909 -1.1826
16407TIP3   OH270635   5.795   3.882  11.585 -0.0057  0.1466 -0.7033
16407TIP3    H170636   5.781   3.843  11.499 -1.3517 -0.9038 -0.0629
16407TIP3    H270637   5.849   3.818  11.631 -1.2821 -0.4908 -0.0183
16408TIP3   OH270638   2.440   4.865   6.715  0.0868  0.0890  0.6355
16408TIP3    H170639   2.440   4.873   6.620  1.3872 -1.5213  0.4419
16408TIP3    H270640   2.351   4.840   6.738  0.2287 -1.5063 -0.4085
16409TIP3   OH270641   3.475   1.467  11.939  0.5423 -0.6046  0.3716
16409TIP3    H170642   3.448   1.518  11.863 -0.8901 -2.4480 -0.4410
16409TIP3    H270643   3.528   1.396  11.903 -0.3655 -1.6450  0.9908
16410TIP3   OH270644   1.699   4.558  12.919  0.4423 -0.0088  0.1307
16410TIP3    H170645   1.608   4.533  12.901  0.2355  0.6162  0.2848
16410TIP3    H270646   1.736   4.483  12.965  0.6781 -1.2256 -1.9168
16411TIP3   OH270647   2.302   4.625   3.502  0.2956  0.0996 -0.1615
16411TIP3    H170648   2.341   4.691   3.560 -1.5234  1.9578 -0.9713
16411TIP3    H270649   2.378   4.582   3.462  1.5581  2.2983 -0.2870
16412TIP3   OH270650   6.446   3.546   5.091  0.4706  0.1210  0.1004
16412TIP3    H170651   6.500   3.498   5.028  1.4526  2.0605 -0.6243
16412TIP3    H270652   6.493   3.538   5.174  0.2057 -0.7837  0.1794
16413TIP3   OH270653   0.925   0.209  13.458  0.0177  0.1002  0.1111
16413TIP3    H170654   0.908   0.292  13.413 -0.1966  0.4120  0.7427
16413TIP3    H270655   0.882   0.143  13.404  0.4378  0.3591 -0.5525
16414TIP3   OH270656   4.293   5.934   3.372  0.2147  0.0080 -0.1659
16414TIP3    H170657   4.271   5.910   3.462  2.3966  0.8435  0.6786
16414TIP3    H270658   4.217   5.981   3.340 -0.6735 -0.4370  1.2021
16415TIP3   OH270659   6.170   2.874   5.951  0.0927  0.5940  0.4442
16415TIP3    H170660   6.228   2.945   5.977  0.9722  0.4319 -0.9632
16415TIP3    H270661   6.167   2.880   5.855 -0.8347 -0.4713  0.3929
16416TIP3   OH270662   5.235   1.765  16.908 -0.1922 -0.0510 -0.2620
16416TIP3    H170663   5.281   1.844  16.937  0.1579 -0.0009 -0.9437
16416TIP3    H270664   5.196   1.730  16.988 -0.5053  0.9067  0.0161
16417TIP3   OH270665   5.559   3.299   5.606  0.5659  0.0467 -0.0016
16417TIP3    H170666   5.651   3.322   5.594  0.8669 -1.0003  0.1365
16417TIP3    H270667   5.544   3.310   5.700  0.9547 -1.0932  0.2145
16418TIP3   OH270668   2.962   4.226  13.131  0.4532  0.0112  0.3597
16418TIP3    H170669   2.997   4.137  13.132  2.6575  0.7858 -0.2079
16418TIP3    H270670   3.035   4.280  13.100 -1.2130  1.8528 -0.6516
16419TIP3   OH270671   2.983   4.054  12.728 -0.5204 -0.4085  0.2113
16419TIP3    H170672   2.990   4.047  12.632 -2.0950  0.0751  0.0405
16419TIP3    H270673   2.953   3.968  12.756  2.7487 -1.5350  0.6394
16420TIP3   OH270674   2.511   1.445   3.609 -0.3407 -0.2021 -0.0307
16420TIP3    H170675   2.490   1.512   3.675  1.6486 -0.1086  0.6007
16420TIP3    H270676   2.562   1.493   3.543  1.8239 -1.1588  0.8379
16421TIP3   OH270677   3.282   2.098   5.207  0.0074  0.0052  0.0035
16421TIP3    H170678   3.348   2.056   5.152 -1.1652 -0.5835 -0.9964
16421TIP3    H270679   3.221   2.138   5.145 -1.1719 -0.3817  0.8815
16422TIP3   OH270680   3.504   0.048  16.263  0.2062  0.0307 -0.1425
16422TIP3    H170681   3.568   0.033  16.193 -0.7496 -2.4184 -0.5942
16422TIP3    H270682   3.540   0.003  16.339  0.2527  0.9179  0.3753
16423TIP3   OH270683   3.509   3.209  13.706 -0.0369  0.0005 -0.1872
16423TIP3    H170684   3.486   3.130  13.658  4.0091 -0.8137 -1.2362
16423TIP3    H270685   3.558   3.262  13.643 -0.6712  2.3025  1.1252
16424TIP3   OH270686   6.613   2.448  14.810 -0.8196  0.1461 -0.4246
16424TIP3    H170687   6.556   2.516  14.846  1.5564  0.9002  2.2254
16424TIP3    H270688   6.667   2.494  14.745 -1.0318  0.1445 -0.6060
16425TIP3   OH270689   3.859   5.438   2.136  0.5953  0.5226 -0.4039
16425TIP3    H170690   3.938   5.492   2.135  0.3712  0.8692  0.2225
16425TIP3    H270691   3.849   5.413   2.227  0.5880 -0.4316 -0.6566
16426TIP3   OH270692   4.908   0.195  12.422  0.1289  0.4860  0.2501
16426TIP3    H170693   4.901   0.138  12.499  0.5514 -0.5601 -0.4588
16426TIP3    H270694   5.001   0.221  12.421  0.3857 -0.4171 -0.5193
16427TIP3   OH270695   5.844   1.826   2.886 -0.8858  0.5947  0.6301
16427TIP3    H170696   5.822   1.919   2.892 -0.2972  0.7449  0.5497
16427TIP3    H270697   5.881   1.805   2.972  1.0486  0.9991 -0.0612
16428TIP3   OH270698   0.377   6.530  12.827 -0.0736 -0.8063  0.2638
16428TIP3    H170699   0.287   6.509  12.855  0.2566 -1.8480  0.5923
16428TIP3    H270700   0.380   6.626  12.827 -1.9608 -0.6346 -2.2220
16429TIP3   OH270701   0.297   1.490   5.186  0.7725  0.3925  0.2000
16429TIP3    H170702   0.233   1.562   5.191  1.4414  1.1000 -1.0610
16429TIP3    H270703   0.380   1.532   5.208  1.2925  0.1848 -1.3140
16430TIP3   OH270704   1.969   3.809  15.175 -0.0514 -0.2821 -0.2091
16430TIP3    H170705   1.957   3.753  15.098 -0.2339  0.6280 -0.8530
16430TIP3    H270706   2.016   3.754  15.238 -2.1755 -1.9178  0.0429
16431TIP3   OH270707   6.190   5.011  15.408 -0.0323 -0.3190 -0.0641
16431TIP3    H170708   6.105   5.018  15.452 -0.7116  0.7356 -1.4453
16431TIP3    H270709   6.168   4.991  15.317  1.2641 -1.0562 -0.2413
16432TIP3   OH270710   0.295   3.854   4.808  0.2634  0.0895  0.4252
16432TIP3    H170711   0.350   3.828   4.734 -1.1306 -0.0675 -0.5977
16432TIP3    H270712   0.310   3.948   4.816 -1.8592  0.7695 -2.1445
16433TIP3   OH270713   4.914   6.317  15.465 -0.0992 -0.2187 -0.1403
16433TIP3    H170714   5.007   6.295  15.458 -0.0675  0.2259 -1.3830
16433TIP3    H270715   4.901   6.384  15.398 -0.7964  1.4971  1.6561
16434TIP3   OH270716   3.161   4.769   0.091 -0.4782  0.2544  0.3203
16434TIP3    H170717   3.121   4.720   0.019  2.7943 -2.9000  0.3610
16434TIP3    H270718   3.098   4.763   0.163 -1.0507 -2.3905 -0.2990
16435TIP3   OH270719   5.659   0.791   1.142 -0.2666 -0.2892  0.1942
16435TIP3    H170720   5.702   0.795   1.057 -2.4307  0.4784 -0.9450
16435TIP3    H270721   5.699   0.716   1.186  2.9887  1.0505 -0.2367
16436TIP3   OH270722   2.399   0.853   4.832 -0.1975 -0.1723  0.1661
16436TIP3    H170723   2.346   0.776   4.811  0.3947 -0.2880 -0.9621
16436TIP3    H270724   2.346   0.927   4.800 -0.5139 -0.1385  0.7477
16437TIP3   OH270725   6.732   1.030  11.440 -0.0822 -0.1691  0.1807
16437TIP3    H170726   6.805   0.969  11.455 -0.4106 -0.5297  0.3309
16437TIP3    H270727   6.702   1.009  11.351  0.2479  0.2491 -0.0328
16438TIP3   OH270728   3.282   1.253   2.757 -0.3460  0.1186  0.2946
16438TIP3    H170729   3.282   1.239   2.662  0.0163  0.0045  0.3111
16438TIP3    H270730   3.350   1.318   2.772  0.0878 -0.3967  0.5557
16439TIP3   OH270731   0.921   3.038   1.486 -0.0704  0.2548 -0.3034
16439TIP3    H170732   0.989   3.102   1.464  0.7709 -0.9809 -1.4952
16439TIP3    H270733   0.883   3.014   1.402 -1.2593  0.1223  0.2547
16440TIP3   OH270734   2.212   0.439   0.809  0.0775 -0.1483 -0.1166
16440TIP3    H170735   2.152   0.374   0.774 -1.1668 -0.3798  2.2291
16440TIP3    H270736   2.194   0.519   0.759 -1.6970 -0.4201  0.0321
16441TIP3   OH270737   6.361   2.310  13.627 -0.3653 -0.1590 -0.0557
16441TIP3    H170738   6.455   2.325  13.613 -0.2345 -0.8580  0.0614
16441TIP3    H270739   6.357   2.257  13.706 -0.8975  0.3664  0.2784
16442TIP3   OH270740   2.223   3.531  13.691  0.7456 -0.5872 -0.5464
16442TIP3    H170741   2.231   3.475  13.768  1.1815 -0.8714 -0.7971
16442TIP3    H270742   2.273   3.486  13.623  2.3531  0.8334 -0.3568
16443TIP3   OH270743   2.435   1.773   4.785 -0.2076  0.0878  0.7614
16443TIP3    H170744   2.474   1.719   4.717  0.5663 -0.7778  1.8579
16443TIP3    H270745   2.413   1.855   4.741  1.7558  0.1704 -0.1682
16444TIP3   OH270746   2.158   3.613  14.286 -0.1137  0.0368  0.2272
16444TIP3    H170747   2.233   3.563  14.253 -0.1075  0.3910 -0.3097
16444TIP3    H270748   2.189   3.703  14.288 -0.0778  0.0064  1.3322
16445TIP3   OH270749   1.370   3.205   4.988 -0.5818  0.1789  0.2045
16445TIP3    H170750   1.282   3.241   4.995  0.1072  1.9491  0.2611
16445TIP3    H270751   1.379   3.149   5.066 -1.3187  0.7482  0.7110
16446TIP3   OH270752   3.278   2.616  13.158  0.2383  0.2942  0.2442
16446TIP3    H170753   3.316   2.547  13.212  0.2338  0.7420  0.8258
16446TIP3    H270754   3.349   2.642  13.099  0.3815  0.1172  0.3373
16447TIP3   OH270755   3.152   0.181  13.692 -0.3297 -0.3338  0.5395
16447TIP3    H170756   3.072   0.192  13.744  0.8243 -0.9091  2.5562
16447TIP3    H270757   3.198   0.110  13.736  0.2124 -1.6485 -2.0179
16448TIP3   OH270758   4.546   0.899   0.707 -0.2138  0.2031  0.1214
16448TIP3    H170759   4.535   0.899   0.802 -1.3373 -0.9958  0.0200
16448TIP3    H270760   4.597   0.820   0.688  0.6483  0.8329 -0.2147
16449TIP3   OH270761   1.793   4.706   4.183  0.3139 -0.4283  0.3274
16449TIP3    H170762   1.807   4.648   4.258 -0.9674 -0.7708  0.3195
16449TIP3    H270763   1.702   4.736   4.193  1.2013  2.3435  0.8664
16450TIP3   OH270764   4.296   5.519  12.015 -0.2083 -0.5252  0.4423
16450TIP3    H170765   4.360   5.556  12.076  0.5495 -2.3616  0.8268
16450TIP3    H270766   4.215   5.514  12.066 -0.5043  1.1091  0.1890
16451TIP3   OH270767   1.673   2.966   2.319  0.3288 -0.0236 -0.0911
16451TIP3    H170768   1.586   2.926   2.313  0.1265  0.5262 -1.2628
16451TIP3    H270769   1.682   2.991   2.410 -0.4458 -0.7498  0.1970
16452TIP3   OH270770   2.419   0.092   3.821  0.8013  0.2576  0.0282
16452TIP3    H170771   2.457   0.005   3.810  1.8024  0.7229 -0.3563
16452TIP3    H270772   2.491   0.152   3.803 -0.0494  1.1789 -0.4201
16453TIP3   OH270773   3.672   3.667  11.751 -0.1537  0.0160  0.0137
16453TIP3    H170774   3.689   3.599  11.685 -0.4240  0.4468 -0.5061
16453TIP3    H270775   3.696   3.626  11.834 -1.5576 -1.2063 -0.1408
16454TIP3   OH270776   2.151   1.471   1.247  0.1269  0.1403 -0.2296
16454TIP3    H170777   2.202   1.493   1.168  0.4994 -0.1043 -0.0592
16454TIP3    H270778   2.122   1.381   1.232  0.5040 -0.0299  0.0767
16455TIP3   OH270779   2.873   3.556   0.507  0.4431  0.0437  0.1761
16455TIP3    H170780   2.954   3.508   0.493 -0.2024 -1.1944  0.5447
16455TIP3    H270781   2.804   3.494   0.484 -0.4148  0.9089  0.3465
16456TIP3   OH270782   1.332   5.897   0.366  0.7558  0.3160  0.0713
16456TIP3    H170783   1.312   5.848   0.286  0.9425 -0.3835  0.4487
16456TIP3    H270784   1.385   5.838   0.419 -1.3725 -0.2254  1.7950
16457TIP3   OH270785   0.441   6.355   0.181  0.3731  0.4328  0.3878
16457TIP3    H170786   0.497   6.419   0.138 -1.2608  2.8341  1.5590
16457TIP3    H270787   0.384   6.322   0.112  1.9509 -0.6358 -0.4436
16458TIP3   OH270788   5.676   3.462  12.953  0.2079  0.9222  0.4368
16458TIP3    H170789   5.740   3.391  12.957  1.4810  1.7397 -2.6219
16458TIP3    H270790   5.596   3.420  12.920  0.6125  0.7070 -0.2743
16459TIP3   OH270791   2.068   5.455   3.064 -0.5271 -0.2586  0.5575
16459TIP3    H170792   2.097   5.378   3.015  2.0979  0.8657  0.1362
16459TIP3    H270793   2.051   5.521   2.997  2.3413  1.0528  0.9592
16460TIP3   OH270794   6.598   3.453   4.869 -0.0779  0.1731  0.1514
16460TIP3    H170795   6.670   3.482   4.926  0.0387 -0.0411  0.1156
16460TIP3    H270796   6.616   3.496   4.785 -0.4154  0.7271  0.3593
16461TIP3   OH270797   4.287   5.016  12.108 -0.1787 -0.2015  0.4271
16461TIP3    H170798   4.285   4.928  12.146  0.0499  0.3473  1.7814
16461TIP3    H270799   4.265   5.073  12.181 -0.0659  0.8881 -0.3762
16462TIP3   OH270800   5.129   1.700  12.300  0.4058 -0.9046  0.1026
16462TIP3    H170801   5.078   1.774  12.264 -0.8399  0.1955  3.6753
16462TIP3    H270802   5.219   1.731  12.297 -0.1169  1.0351  1.8343
16463TIP3   OH270803   4.736   0.683   5.852 -0.4083 -0.4373 -0.6174
16463TIP3    H170804   4.808   0.718   5.799 -1.0674  2.3037  0.1518
16463TIP3    H270805   4.768   0.598   5.882  1.5464 -0.3382 -2.1972
16464TIP3   OH270806   1.786   5.131  12.047 -0.2098  0.3599 -0.0195
16464TIP3    H170807   1.721   5.174  11.991  3.1166  4.1427 -1.4016
16464TIP3    H270808   1.739   5.112  12.128 -3.4792  1.0185 -1.6088
16465TIP3   OH270809   5.090   5.253  13.433  0.3676 -0.0649 -0.0828
16465TIP3    H170810   5.032   5.278  13.360  0.4494 -1.4588 -0.6560
16465TIP3    H270811   5.158   5.320  13.432 -0.1447  0.4742 -0.6808
16466TIP3   OH270812   6.138   4.103   4.857 -0.1942 -0.0669  0.0717
16466TIP3    H170813   6.082   4.161   4.807  0.0472  0.5075  0.4575
16466TIP3    H270814   6.223   4.148   4.859  0.2634 -0.8838 -0.4388
16467TIP3   OH270815   4.796   1.776   5.655 -0.0220  0.1181  0.2741
16467TIP3    H170816   4.786   1.829   5.575 -1.9209  0.1142  0.4522
16467TIP3    H270817   4.856   1.827   5.710  0.0294  0.9298 -0.5111
16468TIP3   OH270818   5.348   2.561  14.724  0.3151  0.4652 -0.1992
16468TIP3    H170819   5.297   2.605  14.791 -0.3723 -0.1103 -0.3257
16468TIP3    H270820   5.430   2.609  14.720 -0.7148  2.2799 -0.9304
16469TIP3   OH270821   0.638   5.307  16.110 -0.2883 -0.0807  0.1886
16469TIP3    H170822   0.728   5.277  16.116 -0.7827 -1.3630  1.8543
16469TIP3    H270823   0.639   5.396  16.146  0.2181 -0.3054  0.7292
16470TIP3   OH270824   2.458   3.447   4.879 -0.3127  0.1498  0.4637
16470TIP3    H170825   2.520   3.438   4.952 -2.3458 -0.5240  2.2025
16470TIP3    H270826   2.491   3.386   4.813  0.1283 -1.2404  1.9009
16471TIP3   OH270827   3.902   1.532  13.128  0.4277 -0.0384  0.1077
16471TIP3    H170828   3.850   1.505  13.204 -0.0569 -1.0981 -0.5840
16471TIP3    H270829   3.902   1.456  13.070  3.3379 -0.3605  0.3687
16472TIP3   OH270830   0.295   1.162  10.726 -0.1454  0.0541 -0.1604
16472TIP3    H170831   0.368   1.187  10.783 -0.9758  0.0632  0.9316
16472TIP3    H270832   0.336   1.123  10.649  0.9879 -2.7881  1.7219
16473TIP3   OH270833   4.822   4.084  16.489  0.2711  0.5924 -0.1373
16473TIP3    H170834   4.889   4.019  16.510 -0.2500 -0.6649 -2.0944
16473TIP3    H270835   4.740   4.034  16.491 -0.1869  1.2553 -1.2894
16474TIP3   OH270836   6.178   2.755  17.341  0.0971 -0.1390  0.0518
16474TIP3    H170837   6.235   2.811  17.393  1.9875 -1.7630 -0.1117
16474TIP3    H270838   6.119   2.815  17.296  0.0353  1.4649  2.1242
16475TIP3   OH270839   6.728   0.137   6.629  0.0032  0.3061  0.2009
16475TIP3    H170840   6.638   0.149   6.598 -0.1030 -0.4251  0.2061
16475TIP3    H270841   6.743   0.042   6.621  1.6824  0.6915 -2.3199
16476TIP3   OH270842   4.063   1.379  14.171 -0.4163 -0.1948 -0.5956
16476TIP3    H170843   4.081   1.438  14.097 -0.2855 -0.5871 -0.8761
16476TIP3    H270844   4.027   1.300  14.131  1.5566 -1.2396 -0.4410
16477TIP3   OH270845   1.256   2.377   0.284 -0.1930 -0.2170 -0.7953
16477TIP3    H170846   1.212   2.404   0.204 -2.1041  0.3723  0.3864
16477TIP3    H270847   1.287   2.458   0.324  0.1629 -0.4355 -0.6211
16478TIP3   OH270848   6.185   3.182   0.505 -0.0775  0.5231 -0.2207
16478TIP3    H170849   6.164   3.100   0.550  1.1703  0.3018 -0.0113
16478TIP3    H270850   6.280   3.181   0.497 -0.2393  0.3629 -3.2293
16479TIP3   OH270851   1.759   1.748  13.876  0.2896  0.0866  0.0596
16479TIP3    H170852   1.724   1.814  13.815  1.9216 -0.3787 -1.4695
16479TIP3    H270853   1.718   1.666  13.848  0.2385  0.0373  0.2786
16480TIP3   OH270854   5.637   5.020  17.288  0.8848  0.2174 -0.4874
16480TIP3    H170855   5.705   5.011  17.356  0.5552 -0.3633 -0.2255
16480TIP3    H270856   5.684   5.052  17.212  1.8064 -1.7545 -0.8255
16481TIP3   OH270857   5.760   5.961  12.712 -0.2886  0.2979  0.1562
16481TIP3    H170858   5.832   5.993  12.765 -0.4831  0.2450  0.4521
16481TIP3    H270859   5.701   5.919  12.774  0.1514 -0.9902 -0.2509
16482TIP3   OH270860   2.959   2.341  11.512  0.2023 -0.7186 -0.3989
16482TIP3    H170861   3.018   2.274  11.548 -0.4716 -1.5248 -0.7517
16482TIP3    H270862   2.931   2.305  11.428 -1.4612 -0.7644  0.1265
16483TIP3   OH270863   2.943   5.273   4.781 -0.0768 -0.1171 -0.0376
16483TIP3    H170864   2.855   5.312   4.773 -0.8655 -1.7235  0.3427
16483TIP3    H270865   2.982   5.285   4.694 -0.8553  0.2133 -0.3528
16484TIP3   OH270866   4.691   1.068  15.749 -0.1032  0.0856 -0.8505
16484TIP3    H170867   4.771   1.110  15.717  1.0102 -2.0435 -1.0018
16484TIP3    H270868   4.713   1.040  15.838 -1.2259  0.8174 -0.3179
16485TIP3   OH270869   0.121   3.919   4.467 -0.0900  0.6196  0.3024
16485TIP3    H170870   0.150   3.870   4.390 -1.2844  2.0779 -1.1430
16485TIP3    H270871   0.165   4.004   4.459  1.4057  0.1173  2.3881
16486TIP3   OH270872   6.440   3.063   3.654  0.0595 -0.2363 -0.1208
16486TIP3    H170873   6.494   3.133   3.690 -0.3012 -0.3089  0.5995
16486TIP3    H270874   6.394   3.028   3.731 -1.4657  0.2259 -0.7893
16487TIP3   OH270875   4.742   2.505  12.163 -0.0934  0.0156 -0.2789
16487TIP3    H170876   4.763   2.411  12.161  1.1923  0.2937 -0.5154
16487TIP3    H270877   4.751   2.529  12.255  0.1947  0.0493 -0.3179
16488TIP3   OH270878   1.024   1.258  12.129  0.1447 -0.0726  0.0319
16488TIP3    H170879   1.018   1.194  12.058  0.2189  0.4896 -0.4829
16488TIP3    H270880   1.046   1.340  12.086  1.5483  0.0095  0.8464
16489TIP3   OH270881   4.446   0.106  10.876 -0.0028 -0.8080  0.0171
16489TIP3    H170882   4.527   0.146  10.908 -0.6639 -0.8705  1.8586
16489TIP3    H270883   4.472   0.019  10.847  0.7689 -0.4426 -0.4157
16490TIP3   OH270884   5.195   2.026  13.512 -0.1065  0.0156  0.1852
16490TIP3    H170885   5.221   1.949  13.563 -1.3505 -0.6198 -0.0966
16490TIP3    H270886   5.099   2.024  13.513 -0.1703  1.7428  0.4173
16491TIP3   OH270887   1.575   3.087   0.946  0.6946  0.4814  0.0046
16491TIP3    H170888   1.596   3.048   1.031  0.7852 -0.5197 -0.4606
16491TIP3    H270889   1.485   3.058   0.928  0.7955  0.3997 -0.3877
16492TIP3   OH270890   1.277   2.673   2.360 -0.3056 -0.0344 -0.0074
16492TIP3    H170891   1.332   2.639   2.290  0.1616  0.9928 -0.1529
16492TIP3    H270892   1.196   2.622   2.354 -0.7111  0.7542 -1.9843
16493TIP3   OH270893   0.482   5.831   1.578 -0.2575 -0.4608  0.5108
16493TIP3    H170894   0.411   5.877   1.534 -0.4326 -0.3849  0.8759
16493TIP3    H270895   0.546   5.815   1.509 -1.2275 -1.7650 -0.1388
16494TIP3   OH270896   2.290   3.081  14.668  0.1248  0.3326  0.1784
16494TIP3    H170897   2.227   3.148  14.640  0.2700 -0.2598 -1.6812
16494TIP3    H270898   2.248   3.040  14.744  0.3563  2.9573  1.8621
16495TIP3   OH270899   6.209   2.979  11.393 -0.2563  0.2936 -0.5473
16495TIP3    H170900   6.216   2.983  11.298  0.9808  0.9314 -0.4456
16495TIP3    H270901   6.271   2.910  11.418 -0.3173  0.3706 -0.1850
16496TIP3   OH270902   5.866   6.001   0.989 -0.1574  0.6991 -0.3020
16496TIP3    H170903   5.879   6.072   0.925 -2.1843  0.2828 -1.2622
16496TIP3    H270904   5.806   5.941   0.945  1.7380 -1.8241  0.3691
16497TIP3   OH270905   4.834   5.852   1.104 -0.5294  0.3630  0.0168
16497TIP3    H170906   4.828   5.767   1.060 -0.4835  0.0801  0.5493
16497TIP3    H270907   4.905   5.841   1.168  0.0972  1.0888 -0.5305
16498TIP3   OH270908   0.674   3.289   4.485  0.3434  0.1141  0.1229
16498TIP3    H170909   0.638   3.323   4.567  4.4288  2.0757  1.3875
16498TIP3    H270910   0.712   3.366   4.442 -0.5736 -1.0702 -3.0875
16499TIP3   OH270911   0.255   6.681   5.879  0.0307 -0.0623 -0.1685
16499TIP3    H170912   0.334   6.725   5.909  1.7134 -1.2517 -2.5767
16499TIP3    H270913   0.219   6.639   5.957  1.3745  1.0428  1.0937
16500TIP3   OH270914   6.733   0.887   0.657 -0.4186  0.2536 -0.2776
16500TIP3    H170915   6.792   0.895   0.583 -0.5953 -0.2293 -0.4774
16500TIP3    H270916   6.764   0.809   0.704  0.6310  1.4170  1.0219
16501TIP3   OH270917   3.082   6.726   4.902 -0.0183 -0.7267  0.4952
16501TIP3    H170918   3.102   6.698   4.991  1.4039  0.7326  0.6702
16501TIP3    H270919   3.034   6.808   4.912  1.6652  0.3860 -0.0496
16502TIP3   OH270920   2.798   5.393  14.218 -0.1602  0.6748  0.3130
16502TIP3    H170921   2.761   5.370  14.303  0.8746 -1.7288  0.1760
16502TIP3    H270922   2.852   5.470  14.235  1.5688 -0.8624  2.2876
16503TIP3   OH270923   2.928   1.074  12.253 -0.3858  0.7407  0.5545
16503TIP3    H170924   2.971   1.105  12.173  1.3065 -0.5173  0.9517
16503TIP3    H270925   2.893   0.988  12.230 -1.1265  0.9670  0.7880
16504TIP3   OH270926   2.137   2.633   5.773  0.0131 -0.1838 -0.3347
16504TIP3    H170927   2.109   2.572   5.842 -0.4342  0.2661 -0.1110
16504TIP3    H270928   2.060   2.643   5.718  0.2356 -0.1942 -0.6469
16505TIP3   OH270929   4.611   0.292   5.385  0.4119  0.3782  0.1640
16505TIP3    H170930   4.592   0.248   5.302 -0.6334  0.7731  0.1756
16505TIP3    H270931   4.701   0.267   5.406  0.8716  0.6927 -1.3456
16506TIP3   OH270932   3.949   4.628   2.325 -0.8815 -0.4575  0.1157
16506TIP3    H170933   3.949   4.533   2.337  1.4373 -0.4148  0.8267
16506TIP3    H270934   3.858   4.649   2.304 -1.5029 -2.7896  0.2033
16507TIP3   OH270935   0.486   1.637  16.073  0.7863 -0.1092 -0.2444
16507TIP3    H170936   0.516   1.720  16.111 -0.0863  1.0279 -1.9221
16507TIP3    H270937   0.391   1.640  16.079  0.7375 -0.9645 -0.4094
16508TIP3   OH270938   6.014   1.308   1.088 -0.3039 -0.2117 -0.1109
16508TIP3    H170939   5.929   1.350   1.081 -0.9518 -1.4620 -0.0693
16508TIP3    H270940   5.996   1.223   1.129  1.1125 -0.0434  0.9560
16509TIP3   OH270941   2.721   3.152   6.461  0.1193  0.4687 -0.8246
16509TIP3    H170942   2.785   3.206   6.506 -0.1503  0.2898 -0.2172
16509TIP3    H270943   2.638   3.198   6.473 -0.2082 -0.3397  0.1819
16510TIP3   OH270944   1.417   0.868  12.726 -0.3114  0.1783 -0.0633
16510TIP3    H170945   1.438   0.883  12.818 -1.1058  1.6595 -0.0948
16510TIP3    H270946   1.374   0.949  12.698  1.8415  0.6335 -2.3479
16511TIP3   OH270947   5.929   3.735  12.550  0.2678 -0.1327 -0.2049
16511TIP3    H170948   5.933   3.660  12.490  1.0481  0.1202 -0.4818
16511TIP3    H270949   6.018   3.768  12.552  0.2897 -0.2502  1.2713
16512TIP3   OH270950   6.058   3.857   4.926 -0.3161 -0.3843 -0.4878
16512TIP3    H170951   6.081   3.950   4.928 -1.1336 -0.1578 -1.1584
16512TIP3    H270952   6.125   3.815   4.980 -0.4549  0.7034  0.5965
16513TIP3   OH270953   6.101   5.931   2.137 -0.2856  0.5889 -0.2376
16513TIP3    H170954   6.008   5.940   2.158 -1.0105 -4.1108 -0.4279
16513TIP3    H270955   6.103   5.914   2.043  0.8838  1.4049 -0.3761
16514TIP3   OH270956   4.475   4.105   5.330  0.4448  0.2134  0.2130
16514TIP3    H170957   4.551   4.104   5.271  1.1293  0.1945  1.0695
16514TIP3    H270958   4.401   4.084   5.274  0.6824  2.6431 -1.1793
16515TIP3   OH270959   4.539   2.150   4.566 -0.4758 -0.0635  0.1951
16515TIP3    H170960   4.522   2.089   4.637  1.6860 -2.5546 -1.2715
16515TIP3    H270961   4.506   2.107   4.488  0.3868  0.9929 -0.7943
16516TIP3   OH270962   6.641   1.491   0.346 -0.5010 -0.1370  0.5093
16516TIP3    H170963   6.557   1.465   0.385  0.0896 -0.9574  1.2793
16516TIP3    H270964   6.697   1.509   0.422  0.2736 -0.4388  0.0143
16517TIP3   OH270965   5.851   0.683   6.134  0.1865  0.1289 -0.5005
16517TIP3    H170966   5.800   0.764   6.131 -0.6718 -0.4141 -2.1636
16517TIP3    H270967   5.811   0.631   6.203  0.6870  1.0707  0.5167
16518TIP3   OH270968   2.315   4.576   6.540  0.3800  0.5202  0.1188
16518TIP3    H170969   2.335   4.502   6.598 -0.2011 -0.1175 -0.4788
16518TIP3    H270970   2.257   4.631   6.592  1.7991  1.2220  1.0282
16519TIP3   OH270971   4.042   2.946  13.230 -0.3113  0.2441  0.0677
16519TIP3    H170972   4.113   2.954  13.167 -0.7965  1.8426 -0.3355
16519TIP3    H270973   4.035   3.033  13.269 -1.8990  0.0629  0.2433
16520TIP3   OH270974   5.864   0.447   5.257 -0.4313  0.4517 -0.1325
16520TIP3    H170975   5.838   0.532   5.224 -0.1109  0.2432 -0.9283
16520TIP3    H270976   5.940   0.421   5.204 -0.8912 -0.5904 -0.3156
16521TIP3   OH270977   0.567   2.643   2.918 -0.0507 -0.0832 -0.2787
16521TIP3    H170978   0.618   2.564   2.938  1.0706  0.7538  0.2812
16521TIP3    H270979   0.554   2.639   2.823  0.5144 -0.6343 -0.3409
16522TIP3   OH270980   3.025   0.300  13.257  0.3242  0.1126 -0.5607
16522TIP3    H170981   3.096   0.288  13.194  0.3815 -1.8102 -0.1872
16522TIP3    H270982   3.059   0.264  13.339  0.0641  2.1108  0.4863
16523TIP3   OH270983   3.228   6.519   0.212  0.3765  0.0480  0.1460
16523TIP3    H170984   3.137   6.498   0.190  1.0654 -2.5868 -0.5696
16523TIP3    H270985   3.271   6.532   0.128  1.0990 -0.9374  0.3417
16524TIP3   OH270986   5.343   5.506  11.820 -0.2554 -0.4883  0.6161
16524TIP3    H170987   5.398   5.511  11.741  0.6154  1.8329  1.2891
16524TIP3    H270988   5.384   5.437  11.873 -0.0677 -1.1575 -0.3696
16525TIP3   OH270989   1.134   1.944   3.756  0.0664  0.0631  0.1887
16525TIP3    H170990   1.193   1.908   3.689  0.2376 -1.2819  1.0221
16525TIP3    H270991   1.154   1.894   3.835 -0.0892  1.6587  1.2907
16526TIP3   OH270992   5.268   1.004  14.943 -0.2993 -0.4498 -0.0693
16526TIP3    H170993   5.279   1.030  15.034 -0.8248  1.8066 -0.5756
16526TIP3    H270994   5.356   0.982  14.913  0.0435 -0.1329  0.6825
16527TIP3   OH270995   5.429   4.094  14.382 -0.2844 -1.2533 -0.0720
16527TIP3    H170996   5.360   4.041  14.343 -1.8616 -0.4257  1.4918
16527TIP3    H270997   5.505   4.034  14.386 -1.6748 -3.0712  0.6383
16528TIP3   OH270998   3.849   5.700  11.357  0.6058 -0.3230 -0.4760
16528TIP3    H170999   3.848   5.608  11.330 -2.5687 -0.1873 -1.3162
16528TIP3    H271000   3.797   5.702  11.438  1.3777  0.6288  0.0179
16529TIP3   OH271001   6.431   3.698  14.271  0.1859  0.5921  0.3567
16529TIP3    H171002   6.363   3.680  14.207 -0.4237  1.0298  0.8692
16529TIP3    H271003   6.494   3.753  14.225  0.7984 -0.7351 -0.4701
16530TIP3   OH271004   3.789   0.701  11.376  0.5950 -0.2059  0.0335
16530TIP3    H171005   3.774   0.664  11.289 -1.7239 -2.8882  1.4193
16530TIP3    H271006   3.827   0.787  11.359 -1.4429  0.1493 -3.6894
16531TIP3   OH271007   2.290   1.710   2.118 -0.1596  0.2255  0.4084
16531TIP3    H171008   2.356   1.654   2.078 -0.7507 -1.0270  1.1080
16531TIP3    H271009   2.247   1.753   2.043 -1.5325 -2.3909 -0.4368
16532TIP3   OH271010   6.673   3.663   5.256 -0.3540  0.0836 -0.2457
16532TIP3    H171011   6.764   3.668   5.228  0.2289 -0.4119  1.4153
16532TIP3    H271012   6.659   3.571   5.278 -1.0348  0.2782  0.1974
16533TIP3   OH271013   3.639   4.392  11.232  0.5789 -0.1263 -0.4364
16533TIP3    H171014   3.665   4.482  11.213  1.6306 -0.4701 -0.6758
16533TIP3    H271015   3.713   4.339  11.203 -1.0335 -1.2991 -2.7435
16534TIP3   OH271016   2.467   4.960  14.842 -0.2751 -0.5887  0.1838
16534TIP3    H171017   2.456   4.989  14.751 -0.7514  0.9751  0.6981
16534TIP3    H271018   2.378   4.944  14.873 -0.4356  1.9375  1.2624
16535TIP3   OH271019   4.343   2.556  14.788  0.2633 -0.0843  0.2299
16535TIP3    H171020   4.300   2.556  14.703 -1.5763  0.4927  1.1087
16535TIP3    H271021   4.384   2.469  14.794 -0.7262 -0.6404 -0.6897
16536TIP3   OH271022   0.896   2.862  16.777  0.0755  0.2550  0.3153
16536TIP3    H171023   0.943   2.944  16.765  0.5828 -0.3071 -2.1277
16536TIP3    H271024   0.964   2.798  16.798 -0.1187  0.1895  0.7430
16537TIP3   OH271025   0.823   4.865   2.292 -0.1899 -0.0544 -0.6288
16537TIP3    H171026   0.784   4.787   2.253  0.6739  0.2605 -2.2305
16537TIP3    H271027   0.828   4.928   2.220  1.8662  0.4214 -0.1557
16538TIP3   OH271028   5.184   4.696  11.384  0.3612  0.1794  0.2710
16538TIP3    H171029   5.254   4.633  11.364  0.0009 -0.9241  2.2059
16538TIP3    H271030   5.109   4.663  11.335  0.5588 -0.0460  0.1109
16539TIP3   OH271031   0.843   1.819  10.719 -0.0583 -0.9161 -0.5508
16539TIP3    H171032   0.819   1.897  10.667 -0.9865 -1.5699 -1.1352
16539TIP3    H271033   0.936   1.831  10.737  0.0917 -0.2208 -1.6281
16540TIP3   OH271034   5.450   4.791  16.336 -0.2879 -0.2236 -0.6243
16540TIP3    H171035   5.401   4.807  16.416  0.0372  0.8765 -0.6254
16540TIP3    H271036   5.536   4.830  16.352  0.2444 -1.1779 -1.0222
16541TIP3   OH271037   5.096   1.876   3.574  0.2253 -0.6241 -0.3650
16541TIP3    H171038   5.049   1.959   3.583 -0.3618 -0.9976  0.1079
16541TIP3    H271039   5.184   1.893   3.608 -0.5502 -0.7567  1.8162
16542TIP3   OH271040   1.854   0.661   3.745 -0.5695  0.1635  0.4948
16542TIP3    H171041   1.838   0.717   3.669 -2.3014 -0.2992  0.4705
16542TIP3    H271042   1.891   0.580   3.708  1.7417  1.1502  0.5134
16543TIP3   OH271043   5.568   3.139  14.111  0.1126 -0.1864  0.3138
16543TIP3    H171044   5.496   3.174  14.058 -0.3700  1.3934  1.8817
16543TIP3    H271045   5.552   3.045  14.115  0.4502 -0.4540 -2.6620
16544TIP3   OH271046   4.293   1.898   4.814 -0.3274  0.2207  0.5511
16544TIP3    H171047   4.212   1.940   4.784  0.0389 -0.1130 -0.9724
16544TIP3    H271048   4.269   1.806   4.827 -0.0952  0.0166 -0.3869
16545TIP3   OH271049   1.737   5.686  10.863  0.5848 -0.4835  0.5386
16545TIP3    H171050   1.692   5.644  10.789 -2.5920  1.5189  1.1364
16545TIP3    H271051   1.799   5.746  10.823  0.1519 -0.6710 -0.4502
16546TIP3   OH271052   5.576   2.001  10.860  0.7183 -0.0721 -0.5717
16546TIP3    H171053   5.532   1.960  10.786  0.2755  1.9634 -1.4994
16546TIP3    H271054   5.653   2.044  10.822  0.6220  0.8040  0.1829
16547TIP3   OH271055   5.388   3.671   5.449  0.3191  0.6399  0.4720
16547TIP3    H171056   5.407   3.706   5.362  0.2747  0.4095  0.3693
16547TIP3    H271057   5.326   3.734   5.487 -1.1859 -0.2596 -0.4057
16548TIP3   OH271058   3.417   0.600  16.056 -0.3310  0.4068  0.0436
16548TIP3    H171059   3.492   0.602  16.115 -0.5877  0.1744  0.3820
16548TIP3    H271060   3.377   0.687  16.065  1.1358  1.3422 -1.7768
16549TIP3   OH271061   5.849   1.952  14.461 -0.2166 -0.0526  0.0036
16549TIP3    H171062   5.826   2.032  14.412 -1.3014 -0.6769 -0.5372
16549TIP3    H271063   5.907   1.904  14.402 -0.0180  0.0662  0.1010
16550TIP3   OH271064   5.572   3.976  10.588 -0.0700  0.0041 -0.3555
16550TIP3    H171065   5.557   4.008  10.677 -0.2482  0.3388 -0.5028
16550TIP3    H271066   5.640   4.033  10.552  0.5380 -0.6055 -0.1814
16551TIP3   OH271067   4.881   3.598  16.706  0.7112 -0.2150 -0.1002
16551TIP3    H171068   4.960   3.577  16.754  1.7296  0.2093 -1.5088
16551TIP3    H271069   4.880   3.536  16.633 -0.2165 -0.1627 -0.1493
16552TIP3   OH271070   5.656   6.302  11.404 -0.0441  0.5254 -0.3428
16552TIP3    H171071   5.648   6.377  11.464 -0.9693  1.7877 -1.9694
16552TIP3    H271072   5.736   6.320  11.354  0.2513 -0.0774 -0.0967
16553TIP3   OH271073   3.897   6.417   0.789  0.4102 -0.4913 -0.6706
16553TIP3    H171074   3.890   6.334   0.837  1.7460 -0.3525 -0.1977
16553TIP3    H271075   3.853   6.480   0.846  2.0558 -0.3100  0.4731
16554TIP3   OH271076   3.172   0.818  17.223  0.2290  0.1285  0.5835
16554TIP3    H171077   3.165   0.724  17.243  0.5144  0.0163  0.1683
16554TIP3    H271078   3.111   0.860  17.284  0.7020 -0.2532  1.3237
16555TIP3   OH271079   2.151   6.220   1.127  0.1931 -0.4841 -0.1610
16555TIP3    H171080   2.246   6.218   1.117  0.3512  1.1829  0.6275
16555TIP3    H271081   2.134   6.294   1.187 -1.5454 -1.1693  0.2731
16556TIP3   OH271082   6.633   3.275   0.269  0.2687  0.5172  0.8021
16556TIP3    H171083   6.561   3.249   0.212 -0.0470  2.7691  0.0696
16556TIP3    H271084   6.676   3.193   0.292 -0.8115 -0.6509 -1.0488
16557TIP3   OH271085   1.612   0.597  17.365 -0.2796  0.2196  0.0991
16557TIP3    H171086   1.537   0.584  17.307 -1.4912  1.7066  1.2421
16557TIP3    H271087   1.573   0.604  17.452  1.2536  0.6126  0.7770
16558TIP3   OH271088   5.699   5.979   3.522 -0.8705 -0.1550 -0.4602
16558TIP3    H171089   5.648   6.023   3.590 -0.6068 -0.7771  0.1531
16558TIP3    H271090   5.636   5.921   3.479 -0.6480 -1.0525  0.4119
16559TIP3   OH271091   3.153   0.147  12.246  0.2899 -0.3496 -0.1646
16559TIP3    H171092   3.184   0.153  12.336 -0.9477 -0.6078  0.2982
16559TIP3    H271093   3.099   0.068  12.244 -0.4724  0.1674 -0.8805
16560TIP3   OH271094   1.877   3.375  16.632 -0.6398 -0.3479 -0.0969
16560TIP3    H171095   1.938   3.448  16.621  2.1837 -2.8044 -2.5185
16560TIP3    H271096   1.895   3.343  16.720  0.5519 -0.1395 -0.2470
16561TIP3   OH271097   4.755   0.706   0.602 -0.3757  0.7287 -0.1804
16561TIP3    H171098   4.850   0.712   0.593 -0.3739  0.7498 -0.1524
16561TIP3    H271099   4.721   0.720   0.514 -0.3595  0.8874 -0.1620
16562TIP3   OH271100   2.743   3.520   6.235  0.1463 -0.8514  0.1970
16562TIP3    H171101   2.758   3.502   6.328  1.0957  1.3208  0.5415
16562TIP3    H271102   2.695   3.603   6.235 -0.5994 -1.2529 -1.2575
16563TIP3   OH271103   5.117   4.943  17.149  0.0291  0.0852  0.6584
16563TIP3    H171104   5.085   4.944  17.239 -0.2449  0.7867  0.5591
16563TIP3    H271105   5.210   4.961  17.156  0.4124 -1.7452  0.9305
16564TIP3   OH271106   3.692   5.278   3.179  0.2386  0.3136  0.4065
16564TIP3    H171107   3.684   5.334   3.257  1.8661 -0.7573  1.4097
16564TIP3    H271108   3.780   5.242   3.185  0.0216 -0.6113 -1.4123
16565TIP3   OH271109   6.151   0.036   1.517  0.3117  0.0380 -0.1058
16565TIP3    H171110   6.141   0.105   1.583 -0.4014 -0.5544  0.4210
16565TIP3    H271111   6.072   0.044   1.464  0.4147 -0.1293 -0.2814
16566TIP3   OH271112   1.804   2.294   5.642  0.2941 -0.2048  0.3977
16566TIP3    H171113   1.802   2.214   5.695  1.2211  0.4808  1.5019
16566TIP3    H271114   1.883   2.286   5.589  0.6856  0.2169  0.9088
16567TIP3   OH271115   3.563   2.530   6.496  0.1355  0.2272  0.4156
16567TIP3    H171116   3.609   2.612   6.514  1.3162 -0.6138  1.3333
16567TIP3    H271117   3.576   2.477   6.574  1.5792 -1.8142 -1.0931
16568TIP3   OH271118   3.934   4.100   0.966  0.8060  0.0780  0.1010
16568TIP3    H171119   3.916   4.010   0.993 -2.7381 -0.0684 -2.0372
16568TIP3    H271120   3.999   4.093   0.897  0.9861 -0.7748  0.3535
16569TIP3   OH271121   2.885   6.512   2.570  0.2637  0.4491  0.5751
16569TIP3    H171122   2.821   6.582   2.557 -2.2048 -1.6542  0.6069
16569TIP3    H271123   2.907   6.483   2.482  0.0902  0.2982  0.5783
16570TIP3   OH271124   5.870   2.286  17.352 -0.1493 -0.3400 -0.2161
16570TIP3    H171125   5.958   2.280  17.391 -0.9941 -0.0259  1.8686
16570TIP3    H271126   5.871   2.369  17.305  1.2329 -1.1975 -1.7894
16571TIP3   OH271127   1.811   3.622  16.056  0.2108  0.1602  0.1589
16571TIP3    H171128   1.746   3.689  16.037  0.0991 -0.0943 -0.3735
16571TIP3    H271129   1.807   3.562  15.982  0.7561 -0.0911  0.3221
16572TIP3   OH271130   2.562   4.054  14.097 -0.2284  1.1113 -0.0431
16572TIP3    H171131   2.579   4.072  14.189 -0.3011  0.5424  0.0849
16572TIP3    H271132   2.649   4.041  14.059 -0.2744 -1.5711  0.5642
16573TIP3   OH271133   3.482   6.435   2.699 -0.8070 -0.2355  0.2758
16573TIP3    H171134   3.530   6.408   2.621  2.0514 -0.1297  1.8549
16573TIP3    H271135   3.419   6.365   2.715  0.5091 -1.6633 -0.5463
16574TIP3   OH271136   1.960   2.238   3.044  0.4401 -0.6842 -0.9764
16574TIP3    H171137   1.998   2.300   2.982  0.6565  0.6670  0.4536
16574TIP3    H271138   1.868   2.262   3.048  0.8667  0.8416  0.9742
16575TIP3   OH271139   0.078   1.880  13.296 -0.7734  0.7065 -0.0471
16575TIP3    H171140   0.069   1.960  13.347 -3.6813  0.8773 -0.6676
16575TIP3    H271141  -0.008   1.868  13.255  0.5473 -1.0130 -2.5367
16576TIP3   OH271142   5.077   5.569   3.320 -0.5982  0.0729 -0.0945
16576TIP3    H171143   5.109   5.578   3.231  0.3173 -1.2770  0.0634
16576TIP3    H271144   4.990   5.531   3.311 -0.1378 -0.9637 -0.4246
16577TIP3   OH271145   4.165   1.515  11.976  0.3044 -0.7693 -0.1796
16577TIP3    H171146   4.242   1.485  11.928  0.2458  0.6313 -1.2037
16577TIP3    H271147   4.186   1.497  12.068  1.2025 -1.7920 -0.5661
16578TIP3   OH271148   5.331   0.667   0.200 -0.1522 -0.2312  0.0241
16578TIP3    H171149   5.381   0.697   0.275  0.7543  3.3289 -1.7659
16578TIP3    H271150   5.390   0.608   0.153  0.7470  0.4956  0.2103
16579TIP3   OH271151   5.092   6.639  16.801 -0.2116  0.5074  0.4738
16579TIP3    H171152   5.042   6.720  16.788 -0.5075  0.2303 -0.1336
16579TIP3    H271153   5.180   6.661  16.772 -0.4629  0.4031 -0.3780
16580TIP3   OH271154   4.427   5.144   2.295 -0.5175  0.7773 -0.2874
16580TIP3    H171155   4.498   5.190   2.252 -0.5968  0.4209 -0.8157
16580TIP3    H271156   4.451   5.051   2.289 -0.8121  0.6833 -0.0847
16581TIP3   OH271157   1.142   0.918  14.939  0.0160 -0.0447  0.0987
16581TIP3    H171158   1.120   0.842  14.886 -0.0999 -1.6307  2.2953
16581TIP3    H271159   1.057   0.958  14.959 -0.1721 -0.9340  1.1541
16582TIP3   OH271160   2.775   0.263  14.950 -0.3632 -0.3831 -0.3981
16582TIP3    H171161   2.793   0.297  15.038 -1.7866 -0.2518 -0.1353
16582TIP3    H271162   2.737   0.176  14.966  0.7562 -0.9908 -0.9593
16583TIP3   OH271163   6.008   0.555  13.676  0.3726  0.3690 -0.4904
16583TIP3    H171164   5.991   0.483  13.615 -0.4120  0.9583 -0.9825
16583TIP3    H271165   5.967   0.527  13.758 -0.7272  0.6300 -0.9340
16584TIP3   OH271166   2.463   5.033   2.810 -0.1198 -0.2865  0.0937
16584TIP3    H171167   2.463   5.044   2.905 -0.9685 -2.1711  0.3539
16584TIP3    H271168   2.527   5.097   2.778  1.0154 -0.3966  2.0219
16585TIP3   OH271169   3.844   1.612  16.676  0.1362 -0.2705 -0.1589
16585TIP3    H171170   3.787   1.538  16.698  1.3054 -0.9296  0.8047
16585TIP3    H271171   3.828   1.676  16.745 -0.5248  0.1875 -0.7271
16586TIP3   OH271172   6.480   5.342   0.821  0.7511  0.0185 -0.3755
16586TIP3    H171173   6.389   5.348   0.848  0.9877  2.5771  0.1491
16586TIP3    H271174   6.478   5.303   0.734 -0.9888  1.2734 -0.9345
16587TIP3   OH271175   0.981   1.127  16.590 -0.3920  0.2562 -0.4150
16587TIP3    H171176   0.975   1.145  16.684 -3.3114  1.5326 -0.7196
16587TIP3    H271177   1.036   1.197  16.556  0.7635 -0.2639  0.3217
16588TIP3   OH271178   5.256   6.742   4.902  0.3524 -0.0630 -0.6353
16588TIP3    H171179   5.212   6.823   4.927 -0.5190 -0.1612 -1.7542
16588TIP3    H271180   5.338   6.742   4.952 -0.5231  0.5478  0.8391
16589TIP3   OH271181   3.658   5.547   2.594 -0.1093  0.2453  0.8057
16589TIP3    H171182   3.612   5.510   2.670  0.7028 -0.9739  0.7236
16589TIP3    H271183   3.624   5.496   2.520  1.1997 -0.5387  0.7218
16590TIP3   OH271184   0.950   3.457  14.124 -0.4690 -0.2648  0.1518
16590TIP3    H171185   0.926   3.464  14.031 -0.5499 -1.8886  0.0241
16590TIP3    H271186   0.908   3.376  14.153  0.1799 -0.1670  1.4144
16591TIP3   OH271187   3.256   5.140  12.797  0.7054 -0.1571 -0.4751
16591TIP3    H171188   3.280   5.112  12.885 -0.6598  0.3287  0.0724
16591TIP3    H271189   3.282   5.232  12.793  0.2471 -0.0220 -0.3779
16592TIP3   OH271190   3.276   5.372  16.265  0.3433 -0.2865 -0.7384
16592TIP3    H171191   3.362   5.405  16.292 -0.1119  0.4722 -0.1377
16592TIP3    H271192   3.248   5.318  16.339  0.0372 -0.0093 -0.6504
16593TIP3   OH271193   1.650   4.091  17.197 -0.1735 -0.1169  0.0860
16593TIP3    H171194   1.572   4.108  17.249 -0.6502  1.7020 -1.1119
16593TIP3    H271195   1.683   4.178  17.175  2.1079 -0.8506  0.3960
16594TIP3   OH271196   0.454   1.178  15.055 -0.5941  0.0260  0.6205
16594TIP3    H171197   0.362   1.202  15.047 -0.2092  1.5448  0.3935
16594TIP3    H271198   0.460   1.131  15.138 -1.4073  0.7973  1.1377
16595TIP3   OH271199   6.283   3.976  16.352 -0.6816 -0.5421 -0.1482
16595TIP3    H171200   6.216   3.908  16.364 -2.1408  1.1205  1.6575
16595TIP3    H271201   6.251   4.029  16.280 -1.4701  0.4075  0.8861
16596TIP3   OH271202   3.451   5.083   2.055  0.0543 -0.2092 -0.0060
16596TIP3    H171203   3.425   5.173   2.076 -0.2352 -0.6071  1.4559
16596TIP3    H271204   3.372   5.043   2.018 -0.0456 -0.0683  0.0547
16597TIP3   OH271205   5.380   6.451  14.476  0.4744 -0.4896 -0.4417
16597TIP3    H171206   5.298   6.418  14.512  0.1017  0.4050 -0.4475
16597TIP3    H271207   5.361   6.467  14.383  0.9638 -1.2612 -0.6863
16598TIP3   OH271208   4.822   4.006  15.523  0.1876 -0.4958  0.8916
16598TIP3    H171209   4.880   4.059  15.577  1.0442  1.4797 -1.7394
16598TIP3    H271210   4.765   4.070  15.480 -0.1338 -1.8857 -0.8628
16599TIP3   OH271211   0.850   3.369   5.472 -0.8129 -0.4105 -0.0285
16599TIP3    H171212   0.776   3.413   5.430  0.3468  0.5545 -1.1579
16599TIP3    H271213   0.916   3.361   5.402  1.0823  0.9794  1.4699
16600TIP3   OH271214   2.963   2.739   0.079 -0.0692 -0.8090 -0.1806
16600TIP3    H171215   2.987   2.724  -0.012  1.4884 -1.3739  0.2905
16600TIP3    H271216   2.903   2.667   0.101 -0.2656 -0.7991 -0.6817
16601TIP3   OH271217   4.247   4.667   6.223  0.1839  0.3240 -0.1982
16601TIP3    H171218   4.215   4.579   6.240 -0.4410  0.8188  1.3392
16601TIP3    H271219   4.341   4.662   6.240  1.0048 -0.9581 -4.0490
16602TIP3   OH271220   5.309   3.588  15.894 -0.1353  0.0303  0.5592
16602TIP3    H171221   5.315   3.607  15.800 -1.9611  0.4894  0.4924
16602TIP3    H271222   5.274   3.498  15.897  1.2104 -0.5123  0.8379
16603TIP3   OH271223   1.412   0.571   1.772  0.2933 -0.3604 -0.0862
16603TIP3    H171224   1.354   0.537   1.704  0.3897  0.7584 -0.7414
16603TIP3    H271225   1.392   0.518   1.849 -0.0030 -1.4715 -0.9036
16604TIP3   OH271226   1.075   0.321  16.380  0.4157 -0.0299  0.8223
16604TIP3    H171227   1.079   0.264  16.303  0.1487  0.8521  0.1413
16604TIP3    H271228   1.162   0.359  16.387  0.0287  1.0543  0.0335
16605TIP3   OH271229   6.569   1.497  15.187  0.1632 -0.2876  0.3245
16605TIP3    H171230   6.520   1.488  15.106  0.5223 -1.6945  0.2465
16605TIP3    H271231   6.502   1.502  15.255 -0.1151 -1.2263  0.1301
16606TIP3   OH271232   5.000   3.330   5.188  0.4106  0.4745  0.0577
16606TIP3    H171233   5.014   3.272   5.113 -0.3605 -0.9146  0.9470
16606TIP3    H271234   5.077   3.387   5.189  0.9614 -0.2051 -1.1332
16607TIP3   OH271235   5.267   3.814  17.082  0.7655 -0.4536 -0.1519
16607TIP3    H171236   5.293   3.736  17.130  0.7958  0.2035  0.9476
16607TIP3    H271237   5.277   3.791  16.990 -2.3656 -2.8982 -0.0542
16608TIP3   OH271238   1.222   2.529  13.693  0.4540 -0.5793  0.0419
16608TIP3    H171239   1.311   2.557  13.714  0.1818 -0.7384  1.4584
16608TIP3    H271240   1.207   2.452  13.748 -0.4496 -0.7453 -0.4239
16609TIP3   OH271241   3.851   5.431   5.615 -0.3413  0.2293 -0.2048
16609TIP3    H171242   3.833   5.359   5.676 -1.8868 -0.0318 -0.9190
16609TIP3    H271243   3.884   5.502   5.670  0.2418 -0.6868  0.6458
16610TIP3   OH271244   2.889   3.107  11.161 -0.1155  0.3515 -0.0680
16610TIP3    H171245   2.879   3.075  11.072  0.2643  2.7313 -1.0329
16610TIP3    H271246   2.800   3.123  11.191 -0.1982  0.5603 -0.4239
16611TIP3   OH271247   0.283   6.635   2.906  0.2362 -0.3890  0.9663
16611TIP3    H171248   0.307   6.695   2.835  0.5110  0.4290  1.7412
16611TIP3    H271249   0.355   6.572   2.909  0.6529  0.0889  1.0862
16612TIP3   OH271250   2.106   2.231   1.915  0.0327  0.7755  0.4481
16612TIP3    H171251   2.095   2.232   2.010  1.5845 -0.0654  0.6669
16612TIP3    H271252   2.171   2.163   1.898 -1.9607 -0.7999 -1.4594
16613TIP3   OH271253   5.315   2.353  13.125 -0.2886 -0.4557  0.3236
16613TIP3    H171254   5.331   2.426  13.186  1.4283 -1.6126  1.3406
16613TIP3    H271255   5.372   2.372  13.050  1.0166 -1.2474  1.0704
16614TIP3   OH271256   3.974   3.774  12.705  0.1100  0.0611 -0.2814
16614TIP3    H171257   3.886   3.810  12.718  0.2500  0.3027  0.0091
16614TIP3    H271258   4.031   3.828  12.760  0.5498  0.3842 -1.0382
16615TIP3   OH271259   3.456   5.440  12.576 -0.4899 -0.0730 -0.0487
16615TIP3    H171260   3.503   5.364  12.542 -0.0360 -0.3822  1.1999
16615TIP3    H271261   3.421   5.410  12.661 -0.1808  1.1493  0.5218
16616TIP3   OH271262   2.693   3.312   5.976 -0.2331  0.3341 -0.0158
16616TIP3    H171263   2.674   3.222   5.950  1.2283  0.2100 -0.8048
16616TIP3    H271264   2.623   3.336   6.036 -1.6065 -0.7309 -1.1323
16617TIP3   OH271265   3.187   0.309   4.158 -0.1655 -0.2834  0.3560
16617TIP3    H171266   3.225   0.394   4.135  0.7750 -1.4754 -3.0133
16617TIP3    H271267   3.252   0.268   4.215  0.4745  0.3024  0.0575
16618TIP3   OH271268   5.923   4.803  16.209  0.0153  0.1766  0.0170
16618TIP3    H171269   5.907   4.827  16.118 -1.1887 -0.5517  0.0270
16618TIP3    H271270   5.843   4.826  16.255  1.0298  1.6740  1.1534
16619TIP3   OH271271   4.412   2.606  15.179  0.2038  0.1703  0.0140
16619TIP3    H171272   4.479   2.673  15.191  0.0841  0.4591 -0.8724
16619TIP3    H271273   4.456   2.524  15.203  1.1160  0.2580 -1.2496
16620TIP3   OH271274   1.889   2.319   1.768  0.5698  0.5990 -0.0255
16620TIP3    H171275   1.849   2.380   1.831  0.1666  2.1411 -1.6841
16620TIP3    H271276   1.976   2.301   1.803  0.5933  1.9351  0.6611
16621TIP3   OH271277   5.914   3.089   5.996 -0.1810  0.1807  0.4231
16621TIP3    H171278   6.004   3.115   5.981 -0.1716  0.9124  1.5863
16621TIP3    H271279   5.870   3.102   5.912  0.3258  1.8734  0.3849
16622TIP3   OH271280   4.660   1.412   1.349  1.0798 -0.2329 -0.9253
16622TIP3    H171281   4.734   1.473   1.351  0.7757  0.1261 -0.6207
16622TIP3    H271282   4.602   1.446   1.281  0.9900 -0.2775 -0.8709
16623TIP3   OH271283   5.853   2.029  11.645  0.4369 -0.0033 -0.6073
16623TIP3    H171284   5.866   2.101  11.583 -0.3580  1.7614  1.1748
16623TIP3    H271285   5.839   1.953  11.589  3.0675  0.8006 -2.5895
16624TIP3   OH271286   1.624   1.461  11.139 -0.1217 -0.2201 -0.3032
16624TIP3    H171287   1.711   1.434  11.111  0.0009 -2.1200  1.6822
16624TIP3    H271288   1.571   1.381  11.135 -1.3939  0.5783 -0.0737
16625TIP3   OH271289   2.776   1.729   1.566 -0.2035  0.6305 -0.2304
16625TIP3    H171290   2.798   1.775   1.648  1.1299  1.7796 -1.1792
16625TIP3    H271291   2.705   1.780   1.529 -0.2692  0.5803 -0.1735
16626TIP3   OH271292   4.422   5.765  15.300  0.1252  0.0368  0.1649
16626TIP3    H171293   4.394   5.705  15.231  1.3890 -0.5525  0.1242
16626TIP3    H271294   4.478   5.711  15.357  1.0620  1.1008  0.2812
16627TIP3   OH271295   1.151   4.143  13.909  0.3607  0.1595  0.0644
16627TIP3    H171296   1.086   4.102  13.966  0.6744 -0.7578 -0.2241
16627TIP3    H271297   1.179   4.073  13.850  0.9343  0.7843 -0.4212
16628TIP3   OH271298   0.698   1.832   2.588 -0.1041  0.0581  0.1350
16628TIP3    H171299   0.626   1.784   2.630 -0.9176  1.3545  0.2833
16628TIP3    H271300   0.655   1.882   2.518  0.5630  1.2830  0.5845
16629TIP3   OH271301   0.730   1.227  12.146 -0.0824 -0.3361  0.6309
16629TIP3    H171302   0.825   1.240  12.144 -0.3896  2.7013 -0.9617
16629TIP3    H271303   0.694   1.315  12.136 -3.0727 -1.5352 -0.3792
16630TIP3   OH271304   0.040   4.819   5.048  0.5685 -0.0947  0.2819
16630TIP3    H171305  -0.007   4.746   5.009  2.4960 -0.9813 -0.5142
16630TIP3    H271306  -0.020   4.854   5.114 -1.5360 -0.5555 -1.2754
16631TIP3   OH271307   3.803   3.671  14.549 -0.1284  0.4354 -0.0936
16631TIP3    H171308   3.878   3.672  14.490  0.4728  0.7740  0.6747
16631TIP3    H271309   3.754   3.593  14.522  0.5791  0.1165 -0.4953
16632TIP3   OH271310   4.779   6.070  11.546 -0.3124 -0.3739 -0.0632
16632TIP3    H171311   4.692   6.037  11.523 -0.4778 -1.8621  2.3822
16632TIP3    H271312   4.835   5.993  11.546  1.2669  0.6456 -2.2401
16633TIP3   OH271313   2.906   5.198  16.758 -1.1005 -0.3128 -0.4530
16633TIP3    H171314   2.856   5.267  16.800 -0.4545 -0.2482  0.2173
16633TIP3    H271315   2.991   5.199  16.801 -1.0804 -1.5417 -0.4045
16634TIP3   OH271316   1.427   3.470  17.099 -0.3007  0.1129 -0.0314
16634TIP3    H171317   1.362   3.469  17.168 -0.4085 -2.2878 -0.0709
16634TIP3    H271318   1.442   3.377  17.078  0.6281  0.6997 -2.3648
16635TIP3   OH271319   3.237   5.369  11.437 -0.0098 -0.0709 -0.3315
16635TIP3    H171320   3.188   5.444  11.404  0.0099 -0.7664 -2.0581
16635TIP3    H271321   3.329   5.397  11.433  0.0974 -0.5539 -2.1310
16636TIP3   OH271322   2.233   0.086   5.235 -0.3324  0.1494 -0.8304
16636TIP3    H171323   2.219   0.103   5.142  0.2899  0.0358 -0.9552
16636TIP3    H271324   2.235  -0.010   5.241 -0.9469  0.1499 -0.6040
16637TIP3   OH271325   5.272   3.156   5.709 -0.3041 -0.4101 -0.0904
16637TIP3    H171326   5.280   3.205   5.791 -0.2794 -0.6190  0.0325
16637TIP3    H271327   5.343   3.092   5.713  0.1627  0.0697 -0.6156
16638TIP3   OH271328   5.450   1.690  15.152  0.2167  0.0263 -0.4984
16638TIP3    H171329   5.438   1.596  15.167  1.1543 -0.1918 -1.0494
16638TIP3    H271330   5.462   1.698  15.058  0.8683  0.6162 -0.3733
16639TIP3   OH271331   5.698   3.765   3.427  0.2188 -0.4169  0.1150
16639TIP3    H171332   5.785   3.790   3.460  0.7522 -0.5865 -1.1107
16639TIP3    H271333   5.678   3.831   3.361  0.3073 -1.4929 -1.0214
16640TIP3   OH271334   0.160   2.978  13.292  0.7819  0.0473  0.2415
16640TIP3    H171335   0.076   2.977  13.246  1.5715 -2.0698 -1.3549
16640TIP3    H271336   0.147   2.920  13.368  1.1922 -1.7505 -0.9822
16641TIP3   OH271337   0.029   0.239   0.605  0.1253 -0.0321 -0.1882
16641TIP3    H171338   0.078   0.241   0.522 -1.5361 -0.1156 -1.2171
16641TIP3    H271339  -0.025   0.161   0.599 -0.3194  0.1805  0.8086
16642TIP3   OH271340   6.502   4.878   3.544  0.2278  0.7438 -0.9354
16642TIP3    H171341   6.548   4.926   3.474 -0.4093  0.1041 -1.8150
16642TIP3    H271342   6.554   4.799   3.557  0.9443  1.3598  0.0955
16643TIP3   OH271343   5.954   3.133   0.344  0.3770 -0.1230 -0.0971
16643TIP3    H171344   5.977   3.041   0.327 -0.1070 -0.2586 -0.0195
16643TIP3    H271345   6.022   3.164   0.403 -0.0286 -0.7248  0.6986
16644TIP3   OH271346   4.498   2.054  13.955 -0.1473 -0.5008 -0.1539
16644TIP3    H171347   4.554   2.079  14.029 -1.4697 -1.4434  1.2520
16644TIP3    H271348   4.559   2.039  13.883  1.0441  2.2688  0.1647
16645TIP3   OH271349   3.389   3.999  13.130  0.3554  0.8382  0.1666
16645TIP3    H171350   3.350   3.994  13.042 -1.5579  0.4406  0.9996
16645TIP3    H271351   3.315   4.019  13.188  1.4262  0.1747  1.8182
16646TIP3   OH271352   1.728   2.253  14.911 -0.1347  0.0409  0.0152
16646TIP3    H171353   1.718   2.279  15.003  0.5086  0.3778 -0.0044
16646TIP3    H271354   1.767   2.330  14.869  0.0222 -0.2843 -0.4376
16647TIP3   OH271355   4.800   0.047   2.280  0.3663  0.1476  0.1381
16647TIP3    H171356   4.866   0.117   2.276  0.9054 -0.3168  0.6483
16647TIP3    H271357   4.847  -0.027   2.318 -0.5659 -0.0725  0.8802
16648TIP3   OH271358   6.425   5.292  11.912  0.5353 -0.4774  0.1555
16648TIP3    H171359   6.442   5.354  11.984 -0.0502 -0.7661  0.5577
16648TIP3    H271360   6.372   5.343  11.850  3.4082  0.6862 -1.5091
16649TIP3   OH271361   6.577   2.799   1.634 -0.1372 -0.3529  0.1533
16649TIP3    H171362   6.560   2.888   1.602 -2.6577 -0.6307  0.5426
16649TIP3    H271363   6.607   2.751   1.557  1.9458  0.9559  0.0851
16650TIP3   OH271364   3.409   3.349  14.800  0.6638  0.4086  0.1770
16650TIP3    H171365   3.345   3.391  14.741 -0.4721 -0.2988  0.8632
16650TIP3    H271366   3.375   3.260  14.812  0.4373  0.7595  2.4996
16651TIP3   OH271367   6.334   4.397   4.506 -0.1827 -0.6261  0.6996
16651TIP3    H171368   6.360   4.480   4.466  1.4012 -1.1586  0.5554
16651TIP3    H271369   6.250   4.376   4.465  1.1106 -0.8806 -2.0226
16652TIP3   OH271370   4.258   5.413  16.489  0.1823  0.7036  0.6679
16652TIP3    H171371   4.203   5.423  16.411  0.8339 -1.1913 -0.0844
16652TIP3    H271372   4.348   5.410  16.456  0.4111 -1.3905  1.2877
16653TIP3   OH271373   5.498   5.951   2.346 -0.0641 -0.7511  0.3981
16653TIP3    H171374   5.484   6.025   2.288 -0.5380 -0.5841  0.7219
16653TIP3    H271375   5.558   5.894   2.298 -0.5836 -0.6961 -0.3273
16654TIP3   OH271376   4.218   6.102   0.902  0.4519 -0.1450 -0.0867
16654TIP3    H171377   4.291   6.136   0.850 -0.1536  0.5679 -0.4871
16654TIP3    H271378   4.258   6.077   0.985  1.0373  0.9703 -0.0054
16655TIP3   OH271379   0.779   6.489  14.370  0.2613  0.1105 -1.3096
16655TIP3    H171380   0.734   6.536  14.300  2.0943 -0.2311 -2.8203
16655TIP3    H271381   0.870   6.519  14.364  0.2503  1.0842  1.8739
16656TIP3   OH271382   1.464   3.529   0.110  0.5831  0.0389 -0.4944
16656TIP3    H171383   1.483   3.449   0.160 -0.8393  0.2025  0.3816
16656TIP3    H271384   1.395   3.503   0.049 -2.4249  1.2480  2.0861
16657TIP3   OH271385   0.961   5.771   0.270  0.0807  0.1683 -0.1975
16657TIP3    H171386   0.973   5.680   0.243 -0.1689 -0.1701  0.7698
16657TIP3    H271387   1.042   5.815   0.245  0.5882 -0.5393  0.1591
16658TIP3   OH271388   6.470   1.753  16.248  0.0487  0.5178 -0.8365
16658TIP3    H171389   6.459   1.734  16.341 -1.7615  1.8913 -0.7266
16658TIP3    H271390   6.487   1.847  16.245  2.0531  0.1874 -1.8121
16659TIP3   OH271391   3.573   6.111  12.274 -0.2395  0.2604 -0.1813
16659TIP3    H171392   3.600   6.019  12.276  1.4252  0.7190  1.9796
16659TIP3    H271393   3.632   6.152  12.212 -0.1257  0.1100 -0.1734
16660TIP3   OH271394   0.880   6.643   2.228  0.3276 -0.0024  0.3123
16660TIP3    H171395   0.974   6.625   2.220  0.6681  1.4433  0.8563
16660TIP3    H271396   0.846   6.570   2.280  0.8042 -1.4593 -1.3080
16661TIP3   OH271397   1.484   5.788   1.764 -0.5592 -0.1736 -0.0810
16661TIP3    H171398   1.489   5.846   1.688  2.1857  3.5324  2.5622
16661TIP3    H271399   1.415   5.826   1.818 -0.8334 -1.2869  0.3642
16662TIP3   OH271400   4.511   0.389  13.861 -0.6261 -0.3717 -0.0853
16662TIP3    H171401   4.598   0.366  13.892 -0.2491  0.8863 -0.1512
16662TIP3    H271402   4.460   0.406  13.941 -0.6847 -0.6252 -0.0654
16663TIP3   OH271403   5.795   5.761   0.245  0.4428 -0.6509 -0.2850
16663TIP3    H171404   5.710   5.734   0.282  0.4054 -1.1902 -0.7542
16663TIP3    H271405   5.840   5.802   0.319  0.1111 -1.1359  0.2041
16664TIP3   OH271406   5.015   5.216  13.683  0.1497  0.3713 -0.1296
16664TIP3    H171407   4.928   5.226  13.644  0.0379 -0.6644 -0.1764
16664TIP3    H271408   5.075   5.220  13.609 -0.0300 -1.1007 -0.3962
16665TIP3   OH271409   5.389   5.355   3.728 -0.0622  0.4980 -0.3451
16665TIP3    H171410   5.342   5.361   3.645 -2.8401 -2.2256  0.8134
16665TIP3    H271411   5.334   5.401   3.790 -0.6571 -1.6288  0.8080
16666TIP3   OH271412   6.385   6.205   0.638 -0.1060 -0.3355  0.1133
16666TIP3    H171413   6.432   6.154   0.572 -1.5079 -1.3259 -0.1661
16666TIP3    H271414   6.340   6.140   0.691 -1.9573  0.5707 -0.2555
16667TIP3   OH271415   5.902   5.273   5.873  0.6146 -0.4523  0.0210
16667TIP3    H171416   5.868   5.261   5.962  2.3306 -0.7813  0.6720
16667TIP3    H271417   5.968   5.204   5.864  1.1060  0.1588 -1.1700
16668TIP3   OH271418   0.507   5.518   2.931  0.4972  0.0921 -0.1149
16668TIP3    H171419   0.517   5.434   2.976 -1.2990  0.5029  1.1903
16668TIP3    H271420   0.502   5.495   2.838  0.9557 -1.1428  0.1424
16669TIP3   OH271421   1.160   0.505  14.595 -0.4400 -0.2822 -0.3817
16669TIP3    H171422   1.136   0.468  14.510 -0.3495 -1.5359  0.1133
16669TIP3    H271423   1.238   0.456  14.621  1.4690  2.1993 -0.9674
16670TIP3   OH271424   3.553   3.946  11.954 -0.3029  0.3928  0.0443
16670TIP3    H171425   3.473   3.936  12.005  0.5703  1.4496  1.7113
16670TIP3    H271426   3.618   3.976  12.017  0.7175  2.2832 -1.7788
16671TIP3   OH271427   2.956   5.284  12.642 -0.3138  0.1190  0.2623
16671TIP3    H171428   3.018   5.214  12.619  1.1363  1.1068  0.9879
16671TIP3    H271429   2.957   5.343  12.567  2.7279  2.1786  1.6886
16672TIP3   OH271430   6.729   3.291   1.133 -0.4642  0.1127  0.0021
16672TIP3    H171431   6.649   3.313   1.179 -1.4847 -1.9994 -0.6432
16672TIP3    H271432   6.783   3.370   1.139 -3.0229  2.0164 -0.5306
16673TIP3   OH271433   5.958   2.556  14.596 -0.2741 -0.3619 -0.0602
16673TIP3    H171434   5.899   2.629  14.574  2.0472  1.5719 -0.2805
16673TIP3    H271435   5.902   2.478  14.594 -2.1648  0.8472 -3.7169
16674TIP3   OH271436   2.467   4.384   0.895 -0.5506 -0.2938 -0.2250
16674TIP3    H171437   2.403   4.456   0.894  0.9672  1.1021 -1.8546
16674TIP3    H271438   2.464   4.351   0.985 -4.6512 -1.3806 -0.5450
16675TIP3   OH271439   5.506   4.956   4.148 -0.4895 -0.1243  0.3306
16675TIP3    H171440   5.588   4.992   4.183 -0.1096  0.3686 -1.0090
16675TIP3    H271441   5.529   4.868   4.119 -0.0538  0.4633 -1.2483
16676TIP3   OH271442   3.728   1.521  17.381  0.3872 -0.3903  0.2544
16676TIP3    H171443   3.692   1.588  17.322  1.0426 -0.7016 -0.5230
16676TIP3    H271444   3.751   1.569  17.460  0.2955  0.1964 -0.0681
16677TIP3   OH271445   3.591   0.979   4.791 -0.8745  0.1462  0.2782
16677TIP3    H171446   3.529   0.934   4.734 -0.2743  0.1275 -0.3732
16677TIP3    H271447   3.646   1.029   4.731 -0.8755  0.9328  0.9231
16678TIP3   OH271448   4.702   3.442  13.605  0.0826  0.4910  0.2704
16678TIP3    H171449   4.637   3.374  13.625 -0.7158  1.6262  1.7740
16678TIP3    H271450   4.759   3.444  13.682  1.2826  0.2541 -0.5733
16679TIP3   OH271451   6.490   3.218  16.827 -0.1747  0.4532 -0.2625
16679TIP3    H171452   6.437   3.263  16.761 -0.6634 -0.7880 -0.7427
16679TIP3    H271453   6.426   3.176  16.885  0.2450 -0.9108 -0.7446
16680TIP3   OH271454   5.644   5.064   1.256 -0.3221  0.7704 -0.1392
16680TIP3    H171455   5.561   5.089   1.216 -0.3717  1.2746  0.2723
16680TIP3    H271456   5.660   5.131   1.322  1.1283  1.4933 -1.1739
16681TIP3   OH271457   4.815   2.196   6.411 -0.4131  0.2473 -0.1458
16681TIP3    H171458   4.723   2.172   6.416 -0.4883  0.5772  0.0553
16681TIP3    H271459   4.818   2.288   6.438  0.2562 -0.3893  2.1242
16682TIP3   OH271460   3.386   5.693  12.306 -0.1456 -0.1316  0.1594
16682TIP3    H171461   3.429   5.776  12.284 -0.3431 -0.5407 -1.9372
16682TIP3    H271462   3.458   5.633  12.325 -0.0201  0.7254  2.7309
16683TIP3   OH271463   5.184   3.599  12.825 -0.0844 -0.0684 -0.1394
16683TIP3    H171464   5.183   3.686  12.864 -0.8678 -0.5799  1.0270
16683TIP3    H271465   5.107   3.555  12.862  0.2502 -1.2250 -0.7714
16684TIP3   OH271466   6.149   1.320  13.113  0.8194 -0.6168  0.0612
16684TIP3    H171467   6.151   1.296  13.020  1.0553 -1.5757  0.2996
16684TIP3    H271468   6.224   1.273  13.151  1.4650  0.7307  0.5250
16685TIP3   OH271469   0.571   4.299   3.984 -0.0020  0.3111  0.9132
16685TIP3    H171470   0.551   4.208   3.962 -0.4172  0.4365  0.7591
16685TIP3    H271471   0.632   4.327   3.916  2.2196 -0.6380  2.4305
16686TIP3   OH271472   0.632   0.073  11.036  0.2484  0.1144  0.7075
16686TIP3    H171473   0.614  -0.003  10.980  1.1472  0.6836 -0.3838
16686TIP3    H271474   0.591   0.146  10.989 -1.2395  0.2442  2.1022
16687TIP3   OH271475   5.725   2.398  14.203  0.4971  0.3334  0.2600
16687TIP3    H171476   5.703   2.483  14.241 -1.2487  0.9300 -1.8949
16687TIP3    H271477   5.790   2.417  14.136 -0.1032  0.0527 -0.4204
16688TIP3   OH271478   3.501   3.326   0.781  0.0385  0.0420 -0.1500
16688TIP3    H171479   3.415   3.297   0.749  0.4937  0.6583 -2.0571
16688TIP3    H271480   3.488   3.418   0.803 -0.1376 -0.2417  0.9500
16689TIP3   OH271481   6.062   2.960  13.478  0.2818  0.1994 -0.2759
16689TIP3    H171482   6.017   2.916  13.550 -1.2674 -1.0313 -1.9467
16689TIP3    H271483   6.059   3.053  13.502  0.7991 -0.2547  1.7585
16690TIP3   OH271484   2.810   1.297  11.355 -0.4540  0.2031 -0.0259
16690TIP3    H171485   2.862   1.359  11.406  0.6318  0.1329 -1.0070
16690TIP3    H271486   2.840   1.211  11.386  0.0865  0.1618 -0.6410
16691TIP3   OH271487   2.468   5.700   4.344 -0.0757  0.0983 -0.0144
16691TIP3    H171488   2.541   5.640   4.331 -0.4549 -0.2110 -0.7730
16691TIP3    H271489   2.499   5.761   4.411 -0.2273 -1.8324  1.9160
16692TIP3   OH271490   5.171   0.176  11.661 -0.2225 -0.1775  0.0812
16692TIP3    H171491   5.210   0.194  11.575 -2.3299 -0.8814 -1.0986
16692TIP3    H271492   5.115   0.100  11.646 -0.2242 -0.6406  2.2334
16693TIP3   OH271493   3.875   6.714  16.438 -0.4365  0.0192  0.0346
16693TIP3    H171494   3.933   6.710  16.362 -0.5781 -1.5471 -0.0256
16693TIP3    H271495   3.927   6.759  16.505  1.0163 -1.5509  0.0609
16694TIP3   OH271496   6.102   4.358   6.694  0.4667 -0.4911  0.3771
16694TIP3    H171497   6.114   4.263   6.698  0.9191 -0.4150  1.0090
16694TIP3    H271498   6.009   4.370   6.680  0.3863 -1.0264  0.4275
16695TIP3   OH271499   3.290   5.710  15.733 -0.4107 -0.5833  0.3090
16695TIP3    H171500   3.352   5.732  15.664 -0.7090 -0.3289  0.1180
16695TIP3    H271501   3.329   5.635  15.778 -0.8949 -1.6724 -1.0353
16696TIP3   OH271502   2.783   0.766  16.680 -0.2750 -0.5884 -0.1276
16696TIP3    H171503   2.736   0.804  16.753  1.1702 -1.1342  1.1442
16696TIP3    H271504   2.811   0.680  16.711 -0.5005 -1.2736 -1.6973
16697TIP3   OH271505   1.305   4.844  16.718 -0.1626 -0.2314  0.2784
16697TIP3    H171506   1.349   4.760  16.718 -0.8001 -0.5686  0.8113
16697TIP3    H271507   1.255   4.845  16.636 -0.1415 -0.3642  0.2646
16698TIP3   OH271508   3.699   4.476  15.177  0.2332 -0.2400 -0.3267
16698TIP3    H171509   3.788   4.504  15.198  0.1010  0.9562 -1.2602
16698TIP3    H271510   3.647   4.556  15.180 -0.0031 -0.0783 -3.8826
16699TIP3   OH271511   5.036   3.119   1.445 -0.2021  0.0023  0.0867
16699TIP3    H171512   4.987   3.168   1.379 -0.9155  2.5880  2.3532
16699TIP3    H271513   5.126   3.117   1.411 -0.0894  3.1599 -0.0950
16700TIP3   OH271514   4.271   0.994   1.488  0.2201  0.4779 -0.8625
16700TIP3    H171515   4.183   1.026   1.469 -0.6468 -1.7649 -0.9259
16700TIP3    H271516   4.327   1.071   1.480 -1.8239  2.1511 -0.0147
16701TIP3   OH271517   3.211   6.749   2.237  0.4292  0.1810 -0.6805
16701TIP3    H171518   3.176   6.696   2.165  0.0214 -1.2484  0.5045
16701TIP3    H271519   3.138   6.802   2.267  0.2685 -0.1055 -0.5619
16702TIP3   OH271520   4.417   0.975  13.837 -0.0624  0.8195  0.3072
16702TIP3    H171521   4.444   0.902  13.780 -1.1776  1.0161 -0.5094
16702TIP3    H271522   4.486   0.980  13.903  2.5096  1.9979 -2.2420
16703TIP3   OH271523   3.525   3.393  11.679  0.3984 -0.1736 -0.8893
16703TIP3    H171524   3.506   3.368  11.769  1.7274  2.2759  0.1597
16703TIP3    H271525   3.439   3.402  11.637 -0.2920 -0.0384  0.5162
16704TIP3   OH271526   2.729   0.784   5.099  0.4217 -0.0520  0.6885
16704TIP3    H171527   2.747   0.814   5.188  0.6194 -2.0005  1.3314
16704TIP3    H271528   2.809   0.740   5.072 -0.1719 -0.8113  0.1284
16705TIP3   OH271529   5.533   5.154   2.137  0.0884  0.3385  0.5696
16705TIP3    H171530   5.587   5.080   2.164 -1.7524 -1.0521  0.6125
16705TIP3    H271531   5.573   5.184   2.055  0.9277 -0.6216  0.6061
16706TIP3   OH271532   4.048   1.462   3.532 -0.0377 -0.0413 -0.3123
16706TIP3    H171533   3.984   1.467   3.460 -0.9816  2.1982  0.5717
16706TIP3    H271534   3.995   1.442   3.609  0.4434  0.9010  0.2820
16707TIP3   OH271535   5.314   2.164   6.216 -0.4167  0.7450 -0.1471
16707TIP3    H171536   5.369   2.088   6.234 -0.5409  0.2317 -1.7636
16707TIP3    H271537   5.227   2.127   6.198  0.0916  0.9092 -3.6494
16708TIP3   OH271538   6.513   5.944   2.870 -0.2432 -0.3944  0.8081
16708TIP3    H171539   6.506   6.014   2.806 -0.3827  0.8047  2.0773
16708TIP3    H271540   6.498   5.987   2.954  1.9230 -1.5209  1.8608
16709TIP3   OH271541   1.607   0.384   5.121 -0.0412  0.3098 -0.4774
16709TIP3    H171542   1.511   0.389   5.126 -0.0759  0.5838 -1.2436
16709TIP3    H271543   1.635   0.474   5.108  0.2698  0.1530 -0.9293
16710TIP3   OH271544   2.320   3.188   2.727  0.2128 -0.1202 -0.1818
16710TIP3    H171545   2.286   3.099   2.739 -0.5597 -0.1186 -1.9742
16710TIP3    H271546   2.397   3.177   2.672 -0.5305  0.3614 -1.3761
16711TIP3   OH271547   6.253   4.683  13.002 -0.2391 -0.9240 -0.1695
16711TIP3    H171548   6.343   4.700  12.976 -0.8752  0.7383 -1.4650
16711TIP3    H271549   6.222   4.767  13.035 -0.9566 -1.7893  1.4572
16712TIP3   OH271550   3.016   0.711   5.060 -0.3583 -0.0069  0.5066
16712TIP3    H171551   3.045   0.769   4.990  0.7969 -0.6433  0.4457
16712TIP3    H271552   3.056   0.746   5.139  1.8891 -1.7322  0.2145
16713TIP3   OH271553   0.087   5.632   0.475  0.0665 -0.0745 -0.2361
16713TIP3    H171554   0.155   5.647   0.541  1.3864 -1.0598 -1.3207
16713TIP3    H271555   0.066   5.539   0.483 -0.9481  0.1465 -0.1426
16714TIP3   OH271556   5.413   2.881   4.874  0.6932  0.2128 -0.1478
16714TIP3    H171557   5.378   2.933   4.802  1.2343  0.1906 -0.4306
16714TIP3    H271558   5.489   2.932   4.905  0.7207  0.0083  0.1243
16715TIP3   OH271559   6.678   0.314  14.069  0.2419  0.4677 -0.2638
16715TIP3    H171560   6.697   0.294  13.977  0.0993  4.1521 -1.2498
16715TIP3    H271561   6.589   0.348  14.068  0.7837  2.0109  0.9418
16716TIP3   OH271562   3.661   1.839   6.334 -0.0213  0.2618  0.1509
16716TIP3    H171563   3.757   1.839   6.330 -0.0371  0.5729 -0.2584
16716TIP3    H271564   3.641   1.800   6.419  0.5136  2.6166  1.4515
16717TIP3   OH271565   1.272   2.890   4.002 -0.5882  0.1493 -0.3012
16717TIP3    H171566   1.255   2.861   4.092 -0.0681 -0.5531 -0.4271
16717TIP3    H271567   1.251   2.815   3.948 -1.5848  0.7940 -0.8499
16718TIP3   OH271568   5.340   3.642  16.273  0.3535  0.4300  0.2183
16718TIP3    H171569   5.366   3.623  16.183  0.1499  0.4560  0.1553
16718TIP3    H271570   5.398   3.588  16.327 -0.2889 -0.4521  0.0439
16719TIP3   OH271571   6.737   6.549  12.207  0.7301  0.5586  0.5817
16719TIP3    H171572   6.699   6.620  12.258  0.6462  0.3233  0.8509
16719TIP3    H271573   6.746   6.477  12.269 -1.9793 -0.6764 -0.3110
16720TIP3   OH271574   4.783   5.148  11.783  0.5863  0.3880  0.4838
16720TIP3    H171575   4.824   5.122  11.865  0.3455  0.8606  0.7615
16720TIP3    H271576   4.726   5.221  11.807  1.0013  0.9537 -0.2073
16721TIP3   OH271577   5.685   4.447  11.779 -0.1886  0.7469 -0.7226
16721TIP3    H171578   5.673   4.481  11.868  1.4807  1.0260 -0.5718
16721TIP3    H271579   5.748   4.507  11.739 -0.4925  0.2932 -1.9154
16722TIP3   OH271580   1.906   1.879  14.253  0.0502 -0.6622 -0.7050
16722TIP3    H171581   1.860   1.832  14.323  1.8865 -1.1695  0.2107
16722TIP3    H271582   1.978   1.924  14.297  1.0834 -0.7570 -2.2169
16723TIP3   OH271583   4.725   2.944  13.566  0.7930  0.2452  0.3058
16723TIP3    H171584   4.653   2.895  13.526  1.3412  0.2610 -0.7275
16723TIP3    H271585   4.755   3.003  13.497  0.5136  1.6647  1.3465
16724TIP3   OH271586   4.897   0.233   4.748 -0.4550  0.4215 -0.0670
16724TIP3    H171587   4.899   0.327   4.728  1.5112  0.2439 -0.9463
16724TIP3    H271588   4.876   0.191   4.664 -0.1016  0.0446  0.0256
16725TIP3   OH271589   0.698   0.716   0.189 -0.1714 -0.5172 -0.1184
16725TIP3    H171590   0.789   0.733   0.164  0.2902 -0.2339  1.6297
16725TIP3    H271591   0.651   0.796   0.164 -0.1280 -0.9655 -1.7479
16726TIP3   OH271592   5.265   1.069   2.650  0.0295  0.3144 -0.4341
16726TIP3    H171593   5.219   1.151   2.669 -1.5293 -0.9720  1.8068
16726TIP3    H271594   5.350   1.080   2.693 -0.3563  0.5826  0.2785
16727TIP3   OH271595   4.542   5.597   1.104 -0.0514 -0.0309 -0.4953
16727TIP3    H171596   4.529   5.691   1.101  0.8269  0.0879 -0.8951
16727TIP3    H271597   4.621   5.582   1.053  0.3755 -0.8718  0.3783
16728TIP3   OH271598   3.043   6.553  15.827 -0.5867  0.3359 -0.3792
16728TIP3    H171599   3.013   6.463  15.822  1.2426 -0.2505 -1.6297
16728TIP3    H271600   3.042   6.574  15.921  2.1164 -2.1684  0.3631
16729TIP3   OH271601   2.835   6.516   2.211  0.8251 -0.5802 -0.0957
16729TIP3    H171602   2.800   6.559   2.134  1.0485 -0.4083 -0.1004
16729TIP3    H271603   2.796   6.563   2.285 -2.0306 -2.7636 -0.0240
16730TIP3   OH271604   6.708   2.738  16.767  0.2310 -0.1785  1.1523
16730TIP3    H171605   6.646   2.678  16.810 -1.3882  1.2858  0.9603
16730TIP3    H271606   6.736   2.797  16.837  0.8287 -0.3413  1.0586
16731TIP3   OH271607   4.525   5.972  12.507 -0.1616 -0.4788 -0.0828
16731TIP3    H171608   4.604   5.974  12.453  1.3497 -0.4671  1.9964
16731TIP3    H271609   4.525   5.884  12.545 -1.6618 -0.7762 -0.6883
16732TIP3   OH271610   0.070   3.680   3.755 -0.1276 -0.2413  0.2183
16732TIP3    H171611   0.128   3.604   3.766 -1.2723 -1.1404  0.2319
16732TIP3    H271612   0.011   3.655   3.684  0.2825  1.1741 -0.6651
16733TIP3   OH271613   1.167   2.342  14.704 -1.0045  0.2081  0.7602
16733TIP3    H171614   1.200   2.254  14.688 -3.7343 -0.6721 -0.7428
16733TIP3    H271615   1.210   2.370  14.784  1.2500 -1.7737  0.3578
16734TIP3   OH271616   1.540   5.275   0.658 -0.2976  0.2071  0.0323
16734TIP3    H171617   1.527   5.314   0.571 -2.5862 -1.3686 -0.4368
16734TIP3    H271618   1.606   5.207   0.644  1.5402  1.8496  0.2409
16735TIP3   OH271619   5.427   5.792  16.381 -0.3456  0.1355 -0.2573
16735TIP3    H171620   5.357   5.788  16.315 -0.3425 -0.7651 -0.2221
16735TIP3    H271621   5.402   5.864  16.439  0.2643  1.7508 -1.9130
16736TIP3   OH271622   0.218   3.606   5.871  0.2235 -0.4223  0.3156
16736TIP3    H171623   0.300   3.653   5.884  0.1250 -0.5460  1.5749
16736TIP3    H271624   0.232   3.554   5.792  1.4851 -0.7007  0.7053
16737TIP3   OH271625   1.140   4.974  12.783 -0.4516 -0.1023 -0.0903
16737TIP3    H171626   1.208   5.038  12.758  0.7730 -1.6002 -0.7813
16737TIP3    H271627   1.118   4.930  12.701 -0.7702 -1.0226  0.4746
16738TIP3   OH271628   1.137   6.543  15.404  0.2173 -0.1213  0.1363
16738TIP3    H171629   1.160   6.584  15.488  0.6246 -1.2233  0.5781
16738TIP3    H271630   1.220   6.515  15.367 -0.0062 -0.0495 -0.4295
16739TIP3   OH271631   5.204   2.745  11.330 -0.0663  0.4489 -0.0492
16739TIP3    H171632   5.230   2.697  11.252 -0.8990  0.1347 -0.1430
16739TIP3    H271633   5.155   2.820  11.298  0.5938  0.9674  0.1302
16740TIP3   OH271634   2.156   4.240  16.146 -0.1412  0.1588 -0.3462
16740TIP3    H171635   2.180   4.151  16.120  2.2751  0.8854 -0.8634
16740TIP3    H271636   2.138   4.234  16.239  0.4867 -0.7890 -0.2757
16741TIP3   OH271637   1.950   6.326   1.777  0.5954  0.2240 -0.3445
16741TIP3    H171638   2.006   6.321   1.700  1.7910 -1.8787  0.5850
16741TIP3    H271639   2.000   6.378   1.841 -0.0503  1.2778 -0.6618
16742TIP3   OH271640   3.119   1.494   0.735  0.2889  0.3311 -0.4429
16742TIP3    H171641   3.064   1.440   0.679 -0.8533  0.9025  0.1034
16742TIP3    H271642   3.135   1.573   0.683 -0.0911  0.5142 -0.2817
16743TIP3   OH271643   0.892   4.142  13.161 -0.2908 -0.3521 -0.8231
16743TIP3    H171644   0.832   4.095  13.219  1.0065 -0.1459  0.7318
16743TIP3    H271645   0.850   4.228  13.149 -1.4578 -1.0125 -1.7082
16744TIP3   OH271646   3.996   3.049  17.115 -0.3349 -0.1929  0.5850
16744TIP3    H171647   3.938   3.007  17.179 -0.5385 -2.2745 -0.8623
16744TIP3    H271648   3.987   3.143  17.133 -3.9157 -0.4091  0.6570
16745TIP3   OH271649   0.574   3.866  12.364  0.7728 -0.3779  0.5305
16745TIP3    H171650   0.571   3.809  12.287  1.1480 -1.0344  0.9905
16745TIP3    H271651   0.595   3.807  12.437 -0.0067  0.1636  1.2070
16746TIP3   OH271652   5.371   6.014  16.526  0.3413 -0.2277  0.1032
16746TIP3    H171653   5.429   6.078  16.568  1.8807  0.0730 -2.3095
16746TIP3    H271654   5.327   6.064  16.457 -2.6941 -0.5268  1.6289
16747TIP3   OH271655   0.717   1.320  15.626 -0.4878  0.1536 -0.7382
16747TIP3    H171656   0.668   1.252  15.672  0.3477  0.9636  1.4546
16747TIP3    H271657   0.653   1.390  15.610 -0.6692  0.0844 -0.3186
16748TIP3   OH271658   4.957   2.191   2.997 -0.2844  0.4802  0.1657
16748TIP3    H171659   4.955   2.140   3.078  2.2413 -0.6433 -0.3643
16748TIP3    H271660   4.946   2.282   3.026  0.3100  0.0915  1.7555
16749TIP3   OH271661   3.225   2.884   5.289  0.5400  0.3488 -0.1975
16749TIP3    H171662   3.302   2.942   5.286  0.8256  0.0083  0.3826
16749TIP3    H271663   3.159   2.934   5.337 -0.0098  1.0985 -1.6665
16750TIP3   OH271664   2.618   0.156   2.610 -0.7153 -0.0586 -0.0516
16750TIP3    H171665   2.560   0.232   2.615  0.6983  1.0056  1.0935
16750TIP3    H271666   2.703   0.193   2.586  0.5594 -0.8988  2.7681
16751TIP3   OH271667   1.142   5.878   5.820  0.4149 -0.0314 -0.1695
16751TIP3    H171668   1.169   5.923   5.900 -1.8273 -0.5319  0.9550
16751TIP3    H271669   1.153   5.943   5.750  0.3473  1.1574  0.8913
16752TIP3   OH271670   6.141   5.359  14.681 -0.8403  0.1170 -0.0828
16752TIP3    H171671   6.135   5.321  14.593 -0.8945  0.0089 -0.0335
16752TIP3    H271672   6.217   5.315  14.720  0.1530  1.2932 -0.6194
16753TIP3   OH271673   2.462   3.733   5.247  0.8102  0.2350  0.5659
16753TIP3    H171674   2.397   3.715   5.179  0.3929  0.0972  0.9935
16753TIP3    H271675   2.493   3.821   5.226  0.5706  0.2587  0.2886
16754TIP3   OH271676   2.295   4.245  13.100 -0.0646  0.0199  0.2802
16754TIP3    H171677   2.284   4.204  13.014  0.0214  0.3133  0.1293
16754TIP3    H271678   2.346   4.324  13.083  2.0366 -1.1190  0.8858
16755TIP3   OH271679   5.878   3.607  14.061 -0.1920  0.3651  0.2386
16755TIP3    H171680   5.814   3.538  14.078 -0.4930 -0.3953 -3.2579
16755TIP3    H271681   5.958   3.561  14.035  0.8170  1.3553  1.4149
16756TIP3   OH271682   1.521   6.588   1.632  0.2200 -0.2185 -0.2754
16756TIP3    H171683   1.519   6.651   1.560 -0.1849  2.1255  1.6545
16756TIP3    H271684   1.604   6.606   1.677  0.5412 -1.7458 -0.1990
16757TIP3   OH271685   1.098   5.651   3.563 -0.5602 -0.1420 -0.1193
16757TIP3    H171686   1.004   5.651   3.578 -0.5764 -1.7051 -0.0326
16757TIP3    H271687   1.112   5.580   3.500  0.7931 -1.8039  1.8838
16758TIP3   OH271688   6.479   4.889   0.942  0.5783 -0.3126  0.0281
16758TIP3    H171689   6.490   4.905   1.036 -0.4574  0.3374  0.0466
16758TIP3    H271690   6.443   4.970   0.907 -0.4910 -1.0489 -0.6684
16759TIP3   OH271691   2.031   4.411  14.368  0.6845  0.4786 -0.1994
16759TIP3    H171692   1.986   4.496  14.369  0.8745  0.5746  0.4782
16759TIP3    H271693   1.972   4.352  14.413 -0.5042 -0.3222 -2.6297
16760TIP3   OH271694   4.095   4.880  15.145 -0.4329 -0.2565  0.0205
16760TIP3    H171695   4.131   4.797  15.176  0.0097 -1.0900 -2.5248
16760TIP3    H271696   4.159   4.945  15.175  0.3017 -1.0728  0.2809
16761TIP3   OH271697   1.514   2.362   1.740  0.2808  0.2851 -0.2809
16761TIP3    H171698   1.517   2.359   1.836  1.3926 -0.7892 -0.3211
16761TIP3    H271699   1.430   2.403   1.720 -1.0813 -1.6093  1.1600
16762TIP3   OH271700   6.049   5.077   3.835  0.6964  0.0201  0.4429
16762TIP3    H171701   6.072   5.142   3.902  0.0913  0.5466  0.1530
16762TIP3    H271702   5.988   5.123   3.778 -4.1551 -2.2290  3.1700
16763TIP3   OH271703   1.290   4.536  17.023 -0.0773  0.2064  0.3351
16763TIP3    H171704   1.195   4.535  17.033 -0.3947 -1.1892 -2.0995
16763TIP3    H271705   1.320   4.601  17.087 -2.5867  0.3118  1.5292
16764TIP3   OH271706   6.046   5.509  15.920 -0.1211  0.6931 -0.1972
16764TIP3    H171707   6.035   5.456  15.998  0.3910 -0.4878 -0.9001
16764TIP3    H271708   6.124   5.561  15.936 -0.3345  0.8685  0.2894
16765TIP3   OH271709   0.850   0.480   3.950 -0.2208  0.0216 -0.0757
16765TIP3    H171710   0.910   0.538   3.997  1.4534 -2.1266  0.6503
16765TIP3    H271711   0.833   0.525   3.867  0.1254  1.9878  0.8674
16766TIP3   OH271712   4.541   6.379  16.043 -0.1018 -0.8127 -0.3066
16766TIP3    H171713   4.575   6.337  15.965  3.8752 -0.4144  0.9857
16766TIP3    H271714   4.525   6.307  16.104 -0.0490 -0.9162 -0.4143
16767TIP3   OH271715   5.041   5.941  12.894 -0.5322 -0.0937  0.3835
16767TIP3    H171716   4.990   5.877  12.944 -1.9702  0.3757 -0.4000
16767TIP3    H271717   5.026   5.916  12.802 -0.8386  1.1367  0.0821
16768TIP3   OH271718   4.340   5.319  13.931  0.5223 -1.0177  0.0679
16768TIP3    H171719   4.351   5.280  13.844 -0.9676  0.4109 -0.8181
16768TIP3    H271720   4.253   5.360  13.928  1.0464  0.3145  1.7385
16769TIP3   OH271721   3.061   0.705   6.229 -0.2039 -1.0671 -0.0754
16769TIP3    H171722   3.150   0.738   6.240 -0.4074 -0.8021  0.8237
16769TIP3    H271723   3.072   0.615   6.199  0.3751  0.0592 -3.6965
16770TIP3   OH271724   0.219   4.857   3.050  0.2779 -0.2506 -0.0770
16770TIP3    H171725   0.314   4.854   3.040  0.6178 -0.1818  2.6253
16770TIP3    H271726   0.200   4.945   3.082 -0.4978 -0.7733  0.9755
16771TIP3   OH271727   0.528   5.686   3.973  0.2275  0.0304 -0.8359
16771TIP3    H171728   0.590   5.754   3.946 -0.9284  1.4167 -0.1370
16771TIP3    H271729   0.563   5.605   3.934  2.4809  0.7298 -0.4339
16772TIP3   OH271730   6.636   1.132  17.332  0.2435  0.9157  0.5676
16772TIP3    H171731   6.564   1.097  17.279 -0.8350 -0.3217  2.7027
16772TIP3    H271732   6.695   1.057  17.345 -0.2534  0.7678  2.2325
16773TIP3   OH271733   3.208   3.067  16.146 -0.0038  0.1834  0.5595
16773TIP3    H171734   3.130   3.099  16.100 -1.4730  1.4687  3.6880
16773TIP3    H271735   3.254   3.146  16.172  0.3838 -0.4551  1.8739
16774TIP3   OH271736   0.124   6.041   2.358 -0.1795 -0.0006  0.1819
16774TIP3    H171737   0.088   6.129   2.352  0.2550  0.2376  0.8759
16774TIP3    H271738   0.168   6.039   2.443  2.5828  0.1907 -1.1172
16775TIP3   OH271739   1.264   6.488   1.681  0.3858  0.4473  0.5999
16775TIP3    H171740   1.350   6.506   1.644 -0.2935  1.1000 -0.7473
16775TIP3    H271741   1.204   6.491   1.606 -0.7867 -0.2101  1.4633
16776TIP3   OH271742   6.104   4.483  14.412 -0.1298  0.0189  0.1474
16776TIP3    H171743   6.013   4.457  14.396 -0.2500  0.9309 -0.7388
16776TIP3    H271744   6.150   4.400  14.426 -1.0053 -0.4821  0.1423
16777TIP3   OH271745   4.977   3.968   2.605 -0.1912  0.3570 -0.0818
16777TIP3    H171746   4.968   3.941   2.696  1.6749  1.5356  0.4896
16777TIP3    H271747   5.025   3.896   2.563 -1.9274 -0.6665 -0.4511
16778TIP3   OH271748   5.213   4.064  16.438 -0.0817  0.8862  0.4571
16778TIP3    H171749   5.155   4.031  16.370 -0.8572  0.5715  1.2565
16778TIP3    H271750   5.244   4.148  16.404 -0.2427  0.6117 -0.3977
16779TIP3   OH271751   1.282   5.510  16.943 -0.2229  0.5002  0.1512
16779TIP3    H171752   1.285   5.459  17.024 -0.4353 -0.0842 -0.2039
16779TIP3    H271753   1.368   5.495  16.903 -0.4071  0.1447 -0.1167
16780TIP3   OH271754   5.251   5.327  16.999 -0.5996  0.1075  0.4272
16780TIP3    H171755   5.168   5.279  17.000 -0.1722 -0.6511  0.8252
16780TIP3    H271756   5.284   5.318  17.089 -0.8645  1.8082  0.7269
16781TIP3   OH271757   2.994   3.981   2.207 -0.1373  0.2213 -0.1863
16781TIP3    H171758   3.007   4.033   2.286  0.3523 -1.0751  0.6316
16781TIP3    H271759   2.967   3.895   2.240  1.8197 -0.8902 -1.3159
16782TIP3   OH271760   6.740   4.450   4.562 -0.9269 -0.2093 -1.1788
16782TIP3    H171761   6.760   4.543   4.553 -1.1012  0.2515  1.9733
16782TIP3    H271762   6.753   4.414   4.475  2.7731  2.0547 -1.7867
16783TIP3   OH271763   1.526   5.285  10.954  0.1370  0.2532  0.4831
16783TIP3    H171764   1.467   5.281  10.879  1.4010 -0.3747 -0.5150
16783TIP3    H271765   1.543   5.378  10.966 -0.8939  0.4297  0.6676
16784TIP3   OH271766   4.625   1.323  14.113 -0.4780 -0.0408  0.6155
16784TIP3    H171767   4.701   1.319  14.054 -2.1269 -1.1944 -1.6195
16784TIP3    H271768   4.662   1.328  14.201  2.1382  1.7293 -0.4791
16785TIP3   OH271769   3.120   1.376   4.096 -0.0466 -0.1510 -0.2640
16785TIP3    H171770   3.210   1.355   4.072 -0.7736 -1.5502 -1.9921
16785TIP3    H271771   3.101   1.457   4.049  0.4596  0.5118  0.6179
16786TIP3   OH271772   4.313   2.256   5.417 -0.1090  0.5643  0.2299
16786TIP3    H171773   4.353   2.190   5.359  0.3226 -0.1889  1.3514
16786TIP3    H271774   4.386   2.289   5.469 -0.5319  1.0835  0.4987
16787TIP3   OH271775   5.238   0.161   0.019 -0.2096  0.1929  0.1964
16787TIP3    H171776   5.227   0.236   0.078  0.8781 -0.9060  1.9062
16787TIP3    H271777   5.166   0.102   0.041  0.7692 -0.6726  1.2219
16788TIP3   OH271778   4.924   2.537  12.702 -0.4103 -0.5315 -0.0187
16788TIP3    H171779   5.004   2.519  12.751 -1.3581 -2.4075  0.9721
16788TIP3    H271780   4.921   2.468  12.635 -2.3141 -2.0255  1.4799
16789TIP3   OH271781   4.474   2.625  16.593 -0.2352  0.1981  0.6514
16789TIP3    H171782   4.466   2.658  16.682 -2.3684  1.8362 -0.0707
16789TIP3    H271783   4.433   2.692  16.538  0.6538 -0.9455 -1.5365
16790TIP3   OH271784   3.525   6.611  12.019  0.0700 -0.3105 -0.2263
16790TIP3    H171785   3.446   6.597  11.966  0.6893 -1.2220 -0.9555
16790TIP3    H271786   3.576   6.531  12.007  1.7113  0.7665 -0.8450
16791TIP3   OH271787   5.686   6.212   0.417  0.2258  0.4840 -0.3570
16791TIP3    H171788   5.770   6.230   0.459  0.5946  0.3315 -1.0013
16791TIP3    H271789   5.710   6.182   0.329 -0.4352 -0.9215 -0.0959
16792TIP3   OH271790   5.379   3.522   1.044 -0.6681  0.2548  0.0804
16792TIP3    H171791   5.426   3.493   0.965  0.4916  1.2830  0.3557
16792TIP3    H271792   5.309   3.579   1.010 -0.9077 -0.2302 -0.2589
16793TIP3   OH271793   3.567   0.638  11.652 -0.7952 -0.7781  0.3524
16793TIP3    H171794   3.642   0.583  11.630 -0.7479 -1.0001  1.0555
16793TIP3    H271795   3.501   0.578  11.685 -1.5302 -0.6602 -0.8652
16794TIP3   OH271796   5.172   1.564  10.677  0.4694  0.2548  0.2258
16794TIP3    H171797   5.148   1.618  10.752 -0.3820 -1.1486  1.0015
16794TIP3    H271798   5.232   1.499  10.713 -0.8210 -1.1230 -0.0463
16795TIP3   OH271799   5.729   2.698   0.532  0.7831 -0.1277  0.3888
16795TIP3    H171800   5.648   2.658   0.499  1.1987 -1.2084  0.6233
16795TIP3    H271801   5.794   2.682   0.464  0.3708  2.6172 -0.7912
16796TIP3   OH271802   5.157   4.719  12.365 -0.2914  0.2863  0.2799
16796TIP3    H171803   5.073   4.725  12.320 -0.2740 -1.5430 -0.0618
16796TIP3    H271804   5.172   4.807  12.401 -1.3137  1.2172 -1.4731
16797TIP3   OH271805   4.860   4.025   5.116  0.4997  0.0774  0.0853
16797TIP3    H171806   4.840   3.944   5.070  0.5815  0.0828  0.0398
16797TIP3    H271807   4.781   4.078   5.107  0.7150  0.2989 -0.5234
16798TIP3   OH271808   0.586   3.518   6.285 -0.3285  0.2422 -0.2921
16798TIP3    H171809   0.551   3.440   6.242  1.3958  0.2139 -1.7482
16798TIP3    H271810   0.627   3.485   6.365 -0.6187 -0.1948 -0.3229
16799TIP3   OH271811   0.846   2.165  11.996 -0.0979  0.4199  0.2001
16799TIP3    H171812   0.752   2.160  12.013 -0.0811 -0.6349  0.0198
16799TIP3    H271813   0.879   2.227  12.061 -0.9051  0.7603  0.2916
16800TIP3   OH271814   3.425   2.926  13.011 -0.1485 -0.0300 -0.3938
16800TIP3    H171815   3.497   2.870  13.038  0.1861 -0.1583 -1.5270
16800TIP3    H271816   3.390   2.885  12.933 -0.8281  0.5650 -0.4148
16801TIP3   OH271817   4.365   0.171   3.621 -0.5080 -0.4481 -0.0665
16801TIP3    H171818   4.393   0.251   3.666  0.2778 -0.5961 -0.2804
16801TIP3    H271819   4.311   0.203   3.549 -1.2148 -0.1775  0.5659
16802TIP3   OH271820   4.701   3.592   1.583  0.0907  0.2609  0.2848
16802TIP3    H171821   4.760   3.519   1.563  0.8923  1.1202 -0.5953
16802TIP3    H271822   4.643   3.558   1.651 -0.6046 -1.7536 -1.2095
16803TIP3   OH271823   0.153   6.540   3.170  0.1113  0.0043  0.1253
16803TIP3    H171824   0.102   6.621   3.173  0.4428  0.2218  0.0864
16803TIP3    H271825   0.175   6.529   3.077  0.0329 -0.1505  0.1256
16804TIP3   OH271826   2.917   4.427  16.873 -0.2038 -0.2467  0.0237
16804TIP3    H171827   2.845   4.414  16.812 -0.2940  1.1107 -0.1744
16804TIP3    H271828   2.917   4.347  16.927  0.5030 -1.9544 -2.3265
16805TIP3   OH271829   2.722   2.365   4.145 -0.1089 -0.1518 -0.1102
16805TIP3    H171830   2.710   2.369   4.051 -1.2397 -0.0438  0.0242
16805TIP3    H271831   2.742   2.455   4.171 -2.5833  0.4281  0.0649
16806TIP3   OH271832   2.415   4.942   0.060  0.1085  0.1843  0.8338
16806TIP3    H171833   2.471   4.872   0.027 -1.6655 -1.3397  0.8461
16806TIP3    H271834   2.407   5.003  -0.014  0.5715 -0.3361  0.3407
16807TIP3   OH271835   0.401   2.135  14.388  0.0669 -0.3740  0.6190
16807TIP3    H171836   0.394   2.040  14.402  0.8845 -0.3738  1.1013
16807TIP3    H271837   0.423   2.170  14.475 -1.3327  0.3930  0.6970
16808TIP3   OH271838   0.402   0.834  13.776 -0.2790  0.3987 -0.7200
16808TIP3    H171839   0.481   0.789  13.804  0.4489  1.6225 -0.7075
16808TIP3    H271840   0.339   0.818  13.846  0.4242  0.5953 -0.0344
16809TIP3   OH271841   3.870   5.568  16.491  0.3081 -0.2196  0.3391
16809TIP3    H171842   3.908   5.488  16.528 -1.3594 -0.4775  1.6356
16809TIP3    H271843   3.793   5.585  16.546  0.1991  1.8618 -0.3875
16810TIP3   OH271844   6.296   0.818  15.358  0.5603  0.2573  0.6038
16810TIP3    H171845   6.313   0.733  15.399  3.4489  0.0037 -0.8588
16810TIP3    H271846   6.317   0.882  15.426 -1.9370 -0.0824  1.8195
16811TIP3   OH271847   3.695   4.189  16.415 -0.4978  0.8734 -0.0279
16811TIP3    H171848   3.692   4.147  16.501  1.8816  0.9192  0.1584
16811TIP3    H271849   3.755   4.134  16.364  0.0155  2.1611 -0.8649
16812TIP3   OH271850   4.703   1.977   3.612  0.0419 -0.0051  0.7321
16812TIP3    H171851   4.656   1.984   3.529 -0.5571 -0.4014  1.0355
16812TIP3    H271852   4.716   1.883   3.625 -0.0021  0.0443  1.1654
16813TIP3   OH271853   5.073   4.507   2.434  0.1592 -0.1402  0.2846
16813TIP3    H171854   4.999   4.561   2.463  0.5540  0.3778  0.3432
16813TIP3    H271855   5.036   4.449   2.368 -0.1157  0.7245 -0.3318
16814TIP3   OH271856   0.280   2.698   2.980 -0.5292  0.3052  0.1738
16814TIP3    H171857   0.374   2.693   2.961 -0.9566  0.4981 -2.4240
16814TIP3    H271858   0.255   2.608   3.002  0.0866  0.0239 -0.2304
16815TIP3   OH271859   4.271   4.764  11.730 -0.2132 -0.0816 -0.3221
16815TIP3    H171860   4.239   4.845  11.690 -0.8581 -0.4672 -0.6048
16815TIP3    H271861   4.361   4.784  11.756 -0.1318  0.5077 -1.0222
16816TIP3   OH271862   3.888   1.283  15.273 -0.3819 -0.1366  0.0466
16816TIP3    H171863   3.933   1.203  15.247 -1.1600 -0.3890 -0.5640
16816TIP3    H271864   3.903   1.344  15.201  0.4251  0.3738  0.6231
16817TIP3   OH271865   3.292   6.604  17.316  0.0216  0.0297 -0.1723
16817TIP3    H171866   3.343   6.685  17.320  0.3806 -0.2091  0.1382
16817TIP3    H271867   3.357   6.534  17.308 -0.2919 -0.2158 -0.6484
16818TIP3   OH271868   4.867   3.182  12.161 -0.6189 -0.5880 -0.2861
16818TIP3    H171869   4.842   3.187  12.069 -0.9287 -1.6642 -0.2755
16818TIP3    H271870   4.961   3.164  12.159 -0.4239  0.4043 -0.3687
16819TIP3   OH271871   4.687   2.406   1.789 -0.0118  0.4316  0.2467
16819TIP3    H171872   4.673   2.424   1.696  2.0067 -0.1764 -0.2245
16819TIP3    H271873   4.756   2.467   1.815 -0.0703  0.1197  1.1636
16820TIP3   OH271874   3.495   2.157  11.146  0.3665  0.6322  0.0537
16820TIP3    H171875   3.587   2.181  11.138  0.4029  0.7802  0.8709
16820TIP3    H271876   3.449   2.219  11.089  0.8449 -0.0352 -1.0952
16821TIP3   OH271877   1.824   0.122  13.930  0.5625  0.3474 -0.1959
16821TIP3    H171878   1.843   0.143  14.021  0.2019  0.0430 -0.0460
16821TIP3    H271879   1.740   0.075  13.933 -0.2511  1.6970 -0.8327
16822TIP3   OH271880   2.150   2.492   5.250 -0.0531  0.1821 -0.3816
16822TIP3    H171881   2.235   2.493   5.293 -0.6301 -0.4052  0.8553
16822TIP3    H271882   2.100   2.425   5.298 -1.2163  0.5421 -1.0463
16823TIP3   OH271883   1.771   1.158  12.567  0.1581  0.1590  0.3692
16823TIP3    H171884   1.777   1.150  12.662 -1.4235 -1.6276  0.3985
16823TIP3    H271885   1.809   1.077  12.533  0.6620  0.7527 -0.5245
16824TIP3   OH271886   4.945   5.836  15.000 -0.1759  0.0591 -0.2957
16824TIP3    H171887   4.925   5.754  15.045  1.6282  0.4058  1.2434
16824TIP3    H271888   4.978   5.810  14.914  1.1359 -0.9076  0.4699
16825TIP3   OH271889   4.329   3.752  14.908  0.2321 -0.1801 -0.5641
16825TIP3    H171890   4.425   3.750  14.908  0.2524  0.3567 -1.1773
16825TIP3    H271891   4.304   3.664  14.879  0.4182 -1.8931  3.6822
16826TIP3   OH271892   2.411   6.308   2.248 -0.7237  0.2249 -0.0256
16826TIP3    H171893   2.425   6.377   2.313 -0.4646  1.5828 -1.4583
16826TIP3    H271894   2.320   6.320   2.220 -1.0159 -0.7257  0.4647
16827TIP3   OH271895   0.874   2.595   1.325  0.3429  0.2293  0.1655
16827TIP3    H171896   0.801   2.578   1.384 -0.9077  1.7104 -0.8678
16827TIP3    H271897   0.927   2.516   1.329 -1.3278 -0.9070  0.9170
16828TIP3   OH271898   1.849   2.219   4.429 -0.0838  0.5962  0.2704
16828TIP3    H171899   1.920   2.269   4.389 -1.3724  0.5049 -2.3400
16828TIP3    H271900   1.869   2.128   4.408 -2.4680  0.7400 -3.4401
16829TIP3   OH271901   0.871   5.273   1.533 -0.1132  0.5100 -0.4531
16829TIP3    H171902   0.858   5.338   1.464  2.0258  0.4481 -0.9908
16829TIP3    H271903   0.966   5.264   1.540 -0.3030 -2.2806 -0.1297
16830TIP3   OH271904   4.555   6.372  12.774  0.4873  0.4289  0.1035
16830TIP3    H171905   4.551   6.364  12.869  0.5707 -0.8330  0.0240
16830TIP3    H271906   4.614   6.302  12.747  0.7177  0.9764 -0.8574
16831TIP3   OH271907   2.382   5.840  11.286 -0.3307  0.2490  0.2614
16831TIP3    H171908   2.327   5.761  11.293  1.9771 -1.4600  0.0667
16831TIP3    H271909   2.319   5.912  11.291 -2.5990 -1.5697  0.0781
16832TIP3   OH271910   0.830   0.934  14.730 -0.2174  0.1742  0.0627
16832TIP3    H171911   0.818   0.855  14.678 -1.4038  0.5511 -0.2582
16832TIP3    H271912   0.841   0.903  14.820  1.4508 -0.4559 -0.3188
16833TIP3   OH271913   2.445   0.936  12.655  0.5989 -0.2019 -0.1015
16833TIP3    H171914   2.451   1.017  12.604  0.4102  0.5117  0.9795
16833TIP3    H271915   2.364   0.946  12.705  0.7602 -0.9107  0.3000
16834TIP3   OH271916   1.568   5.549  11.009 -0.0491 -0.2533 -0.4426
16834TIP3    H171917   1.496   5.612  11.012  0.4539  0.3319 -0.4892
16834TIP3    H271918   1.635   5.591  10.955  0.3953 -0.7209 -0.2678
16835TIP3   OH271919   5.941   3.227  13.552 -0.3775  0.4403 -0.2348
16835TIP3    H171920   5.861   3.260  13.511 -0.0550 -0.3095 -1.5394
16835TIP3    H271921   5.935   3.256  13.643 -2.6072 -0.4060 -0.0337
16836TIP3   OH271922   4.180   3.550   1.906  0.7704  0.1983  0.3441
16836TIP3    H171923   4.101   3.497   1.918  0.6726  0.3154  0.2240
16836TIP3    H271924   4.180   3.611   1.979  1.2661 -0.4370  0.8882
16837TIP3   OH271925   6.484   2.718   3.454 -0.1111 -0.0578  0.3388
16837TIP3    H171926   6.535   2.795   3.426  0.3708  0.8178  3.3003
16837TIP3    H271927   6.401   2.726   3.406  1.2201  0.3295 -2.0438
16838TIP3   OH271928   5.845   2.526   2.012 -0.2791  0.4046  0.3726
16838TIP3    H171929   5.871   2.434   2.017  0.3625  0.4440 -1.5340
16838TIP3    H271930   5.928   2.575   2.013 -0.5114  0.8367 -0.6094
16839TIP3   OH271931   3.728   2.208   5.626  0.1447  0.2750  0.5567
16839TIP3    H171932   3.792   2.215   5.556 -0.4974 -0.1668 -0.0940
16839TIP3    H271933   3.780   2.195   5.705  0.8516 -1.7063 -0.1675
16840TIP3   OH271934   5.782   0.730   5.294  0.6363  0.3518  0.4026
16840TIP3    H171935   5.825   0.684   5.366  0.6954  0.5377  0.4865
16840TIP3    H271936   5.785   0.823   5.319  0.3790  0.3878  0.3090
16841TIP3   OH271937   4.015   6.731  14.316  0.5977  0.5441  0.1522
16841TIP3    H171938   4.032   6.720  14.409 -0.3043 -1.2361  0.1508
16841TIP3    H271939   3.975   6.648  14.289  1.1781  0.8696 -1.8963
16842TIP3   OH271940   2.615   1.526   0.234 -0.3847  0.3573 -0.1185
16842TIP3    H171941   2.629   1.438   0.267 -1.1599  0.1556 -0.2963
16842TIP3    H271942   2.694   1.547   0.185  0.3627  0.2817  1.0222
16843TIP3   OH271943   4.107   0.013   5.217  0.4073  0.4142  0.3970
16843TIP3    H171944   4.151  -0.063   5.254  2.6344  0.8584 -1.1294
16843TIP3    H271945   4.023  -0.021   5.187  0.1459 -0.7680  2.3003
16844TIP3   OH271946   2.820   0.974  10.985 -0.3434  0.8276 -0.3499
16844TIP3    H171947   2.772   1.036  10.931 -0.5556  0.7386 -0.2662
16844TIP3    H271948   2.810   0.890  10.940  0.3904  0.9488 -0.7473
16845TIP3   OH271949   4.897   0.098  15.737 -0.3867  0.2103 -0.5600
16845TIP3    H171950   4.868   0.021  15.787  0.5733 -0.3098 -0.7786
16845TIP3    H271951   4.836   0.103  15.664  0.4424 -1.2789 -1.3939
16846TIP3   OH271952   5.434   1.376   3.915  0.6717 -0.1728  0.1429
16846TIP3    H171953   5.495   1.412   3.850 -0.0111 -0.5908 -0.7385
16846TIP3    H271954   5.381   1.314   3.867  0.9139 -1.3663  1.3622
16847TIP3   OH271955   0.552   5.296  15.292  0.6495 -0.2790  0.0791
16847TIP3    H171956   0.599   5.216  15.313 -0.1838 -0.2862  2.2029
16847TIP3    H271957   0.486   5.270  15.229  0.5335 -1.2358  0.5806
16848TIP3   OH271958   5.710   4.331   2.546  0.3205  0.3768  0.1958
16848TIP3    H171959   5.775   4.401   2.537  1.0194  0.0068  1.8388
16848TIP3    H271960   5.631   4.376   2.576  0.7044  0.5157  1.0419
16849TIP3   OH271961   1.034   5.798  10.527 -0.1739 -0.1828 -0.2399
16849TIP3    H171962   1.015   5.884  10.491 -0.5634 -0.5869 -1.0303
16849TIP3    H271963   0.979   5.791  10.604 -1.6731 -0.4996 -1.3002
16850TIP3   OH271964   2.875   3.284  13.213 -0.2684 -0.7451  0.3029
16850TIP3    H171965   2.823   3.241  13.144  2.7195 -1.5814 -1.6357
16850TIP3    H271966   2.854   3.377  13.204 -0.5630 -0.9289 -1.1911
16851TIP3   OH271967   1.732   3.720  14.530 -0.3109 -0.7261 -0.1721
16851TIP3    H171968   1.717   3.724  14.625  1.3339  0.0358  0.0846
16851TIP3    H271969   1.644   3.730  14.492 -1.1977 -2.5005  1.2515
16852TIP3   OH271970   0.480   3.761  16.891  0.3140  0.1344  0.1407
16852TIP3    H171971   0.480   3.677  16.846  0.0069 -0.7952  1.7966
16852TIP3    H271972   0.392   3.796  16.878 -0.1596 -0.7036  1.0219
16853TIP3   OH271973   5.771   5.351   4.673 -0.5283  0.4739  0.4123
16853TIP3    H171974   5.857   5.356   4.631 -0.3413 -0.1618  0.7115
16853TIP3    H271975   5.758   5.258   4.691 -0.3693  0.7744  2.2372
16854TIP3   OH271976   3.097   0.042   3.193  0.0436 -0.3186  0.4119
16854TIP3    H171977   3.003   0.059   3.196 -0.3966 -2.5960  1.3380
16854TIP3    H271978   3.127   0.088   3.115 -1.7208  0.8620  0.3627
16855TIP3   OH271979   3.415   1.485   5.298  0.2009 -0.9048  0.2303
16855TIP3    H171980   3.391   1.527   5.381  1.0008  1.1081 -0.4790
16855TIP3    H271981   3.332   1.454   5.262 -0.3026 -0.8304  1.2695
16856TIP3   OH271982   1.860   3.970  14.554  0.7349 -0.3993  0.1420
16856TIP3    H171983   1.925   3.933  14.613 -0.8619 -1.8474  1.0862
16856TIP3    H271984   1.817   3.894  14.515  0.7720  0.5216 -1.8348
16857TIP3   OH271985   3.805   2.438   4.102 -0.1840  0.4007 -0.3893
16857TIP3    H171986   3.811   2.529   4.071 -0.7671  0.7323  0.4512
16857TIP3    H271987   3.860   2.435   4.180  0.2739 -0.1268 -0.7131
16858TIP3   OH271988   5.475   0.538   3.923 -0.1983  0.1418 -0.3880
16858TIP3    H171989   5.505   0.588   3.998  1.7631 -0.2222 -0.8566
16858TIP3    H271990   5.432   0.601   3.867  0.8733  1.0155 -0.2606
16859TIP3   OH271991   0.096   1.104  13.333 -0.1291 -0.1847 -0.4461
16859TIP3    H171992   0.091   1.099  13.238 -0.2640 -1.3277 -0.4011
16859TIP3    H271993   0.011   1.138  13.360 -0.7363 -1.4366 -0.6727
16860TIP3   OH271994   1.605   2.854  14.996 -0.0876  0.2391  0.0250
16860TIP3    H171995   1.666   2.881  14.927  0.0285 -1.1595 -0.4424
16860TIP3    H271996   1.660   2.823  15.067 -0.2281  0.9503  0.4586
16861TIP3   OH271997   2.541   5.325  15.873  0.0505  0.6233 -0.1154
16861TIP3    H171998   2.497   5.337  15.788 -1.1401  1.8185  0.6254
16861TIP3    H271999   2.561   5.414  15.902  3.1540  0.1387 -0.4461
16862TIP3   OH272000   0.781   2.446   3.345  0.0632 -0.0720  0.5368
16862TIP3    H172001   0.804   2.353   3.341 -0.1951 -0.1370  0.5469
16862TIP3    H272002   0.730   2.462   3.266  0.1468  0.0716  0.5120
16863TIP3   OH272003   6.182   2.850  11.841 -0.1127 -0.0789  0.7039
16863TIP3    H172004   6.268   2.855  11.798 -0.5669 -1.2607 -0.4046
16863TIP3    H272005   6.122   2.893  11.780 -1.0981 -3.3855 -0.9148
16864TIP3   OH272006   2.494   4.485  11.128  0.1831  0.7308  0.4778
16864TIP3    H172007   2.519   4.498  11.037 -0.3464 -0.0049  0.2137
16864TIP3    H272008   2.551   4.415  11.160 -1.5567 -1.0889 -0.1835
16865TIP3   OH272009   5.050   5.390  14.845 -0.4987  0.1799  0.3424
16865TIP3    H172010   5.130   5.442  14.836 -0.9810  1.2479  1.8433
16865TIP3    H272011   4.988   5.431  14.785 -0.5735  0.7062  0.7799
16866TIP3   OH272012   4.772   1.562  15.635 -0.0123 -0.3570  0.0893
16866TIP3    H172013   4.739   1.524  15.717  1.3913  1.1455  1.4220
16866TIP3    H272014   4.819   1.641  15.662  0.5971  0.1322 -2.1763
16867TIP3   OH272015   0.968   2.081  12.834  0.0465  0.1884  0.0638
16867TIP3    H172016   0.885   2.069  12.880  0.1591 -1.7013 -0.1682
16867TIP3    H272017   1.035   2.079  12.903 -0.0688  1.7618  0.2560
16868TIP3   OH272018   6.217   2.361  15.646 -0.7097 -0.2586  0.3489
16868TIP3    H172019   6.195   2.275  15.683 -0.2642 -0.5239  0.0275
16868TIP3    H272020   6.161   2.369  15.569  1.9639 -2.1297 -2.0629
16869TIP3   OH272021   0.689   2.019   5.342 -0.5171  0.0376  0.3199
16869TIP3    H172022   0.723   1.932   5.319 -1.4745 -0.2408 -0.0801
16869TIP3    H272023   0.768   2.073   5.351  0.0409 -0.1043 -2.5711
16870TIP3   OH272024   4.892   2.687   3.832 -0.0587  0.0315 -0.6185
16870TIP3    H172025   4.963   2.690   3.896 -0.7100 -0.7394  0.1541
16870TIP3    H272026   4.812   2.685   3.884 -0.5924 -0.7904 -1.4324
16871TIP3   OH272027   3.492   3.036  14.561 -0.2631 -0.3759  0.0523
16871TIP3    H172028   3.515   2.972  14.494  0.4236 -1.2648  1.0983
16871TIP3    H272029   3.427   3.092  14.520 -0.8298 -1.7063 -0.9138
16872TIP3   OH272030   6.339   5.197   3.314  0.4256 -0.1642  0.3011
16872TIP3    H172031   6.342   5.201   3.219  2.4317 -0.0292  0.3300
16872TIP3    H272032   6.250   5.168   3.334 -0.0755 -0.0650 -1.5892
16873TIP3   OH272033   6.732   5.404  12.309  0.1240  1.0326 -0.1467
16873TIP3    H172034   6.697   5.405  12.398 -0.6968 -1.1793 -0.3837
16873TIP3    H272035   6.782   5.323  12.304  1.6254  1.9610 -1.2114
16874TIP3   OH272036   4.334   2.914   5.248 -0.4044  0.1096  0.3579
16874TIP3    H172037   4.269   2.946   5.311 -1.7183  2.2134 -1.9415
16874TIP3    H272038   4.406   2.977   5.254 -0.0816 -0.2625  0.4362
16875TIP3   OH272039   5.874   0.387   4.102 -0.1507 -0.2985  0.4635
16875TIP3    H172040   5.805   0.357   4.160 -0.6345 -1.0007 -0.4415
16875TIP3    H272041   5.833   0.456   4.050  0.2009  0.1491  0.7763
16876TIP3   OH272042   5.827   4.494  11.393  0.3713 -0.2917 -0.1167
16876TIP3    H172043   5.861   4.525  11.309  0.1245  0.5854  0.0958
16876TIP3    H272044   5.732   4.495  11.381  0.3714 -2.1430 -0.5077
16877TIP3   OH272045   0.091   2.873   4.427 -0.2875  0.4452 -0.1241
16877TIP3    H172046   0.159   2.908   4.369 -0.9039  0.2484 -0.9820
16877TIP3    H272047   0.140   2.826   4.495  0.4544  0.8196 -0.3888
16878TIP3   OH272048   5.022   5.753   2.183  0.0818  0.3873 -0.1502
16878TIP3    H172049   5.094   5.796   2.230 -0.3327 -0.2453  1.1078
16878TIP3    H272050   5.053   5.664   2.168 -0.7721 -0.1985  1.2952
16879TIP3   OH272051   2.372   0.673  12.073 -0.0584 -0.2138  0.5179
16879TIP3    H172052   2.302   0.650  12.134  1.0120  2.4731  3.0035
16879TIP3    H272053   2.438   0.606  12.085 -0.7275 -0.8362  0.7936
16880TIP3   OH272054   3.938   5.688   1.069  0.3826  0.3414  0.5260
16880TIP3    H172055   3.984   5.613   1.107 -1.0784 -1.3023 -0.7609
16880TIP3    H272056   3.960   5.684   0.976  0.5180  1.7342  0.4772
16881TIP3   OH272057   2.618   5.515   2.679  0.6268  0.5547  0.7157
16881TIP3    H172058   2.584   5.499   2.591  0.6820 -2.4430  1.1064
16881TIP3    H272059   2.540   5.527   2.734  0.5807  2.0856  0.3380
16882TIP3   OH272060   6.614   0.666  15.395  0.7462  0.0557 -0.6721
16882TIP3    H172061   6.534   0.686  15.444  1.2289 -0.6730  0.4678
16882TIP3    H272062   6.670   0.623  15.459  2.5964  1.7333 -1.0732
16883TIP3   OH272063   2.663   3.935  11.062  0.4355 -0.2299 -0.0653
16883TIP3    H172064   2.636   3.874  10.994  2.3569 -1.5428  0.2863
16883TIP3    H272065   2.755   3.953  11.044 -0.0105  2.5514 -0.1022
16884TIP3   OH272066   2.787   6.355  14.731 -0.2297  0.3147  0.2234
16884TIP3    H172067   2.759   6.405  14.655 -0.0529  0.3262  0.1652
16884TIP3    H272068   2.736   6.390  14.803  1.9916  2.6610  0.7822
16885TIP3   OH272069   1.024   5.249  15.716  0.3759 -0.2248  0.1579
16885TIP3    H172070   1.044   5.297  15.797  0.1636  0.9551 -0.4594
16885TIP3    H272071   0.968   5.309  15.667 -0.1985 -1.2724 -0.5015
16886TIP3   OH272072   6.564   5.694  14.436 -0.2040 -0.5989  0.1417
16886TIP3    H172073   6.491   5.637  14.461 -0.2970  0.4747  2.5652
16886TIP3    H272074   6.546   5.777  14.478  1.1380  0.5342 -1.3691
16887TIP3   OH272075   0.484   6.113   1.580  0.4177 -0.4352 -0.3174
16887TIP3    H172076   0.552   6.087   1.643 -0.0583  0.9206  0.8145
16887TIP3    H272077   0.495   6.207   1.571 -0.6240 -0.3640 -0.9745
16888TIP3   OH272078   4.058   4.920  16.790 -0.1139  0.0034  0.1078
16888TIP3    H172079   4.071   5.009  16.758  0.0013 -0.1899 -0.3926
16888TIP3    H272080   3.963   4.909  16.795 -0.1321 -0.0300 -0.3505
16889TIP3   OH272081   5.145   6.144  14.989 -0.1775 -0.3192  0.4911
16889TIP3    H172082   5.149   6.236  14.960 -0.6026 -0.1222  1.0490
16889TIP3    H272083   5.074   6.106  14.937  0.6721 -0.6126 -0.4897
16890TIP3   OH272084   0.277   0.410  16.435 -0.0911  0.3105 -0.5547
16890TIP3    H172085   0.286   0.318  16.411 -2.4137  0.4760 -2.3985
16890TIP3    H272086   0.195   0.414  16.484 -0.2445  1.4602 -0.8778
16891TIP3   OH272087   4.017   5.333   1.434  0.1502  0.0872 -0.1222
16891TIP3    H172088   4.051   5.416   1.401 -0.5893  0.2369 -0.5365
16891TIP3    H272089   4.025   5.273   1.360 -1.9152  0.5341 -0.7623
16892TIP3   OH272090   1.491   6.088  11.731 -0.2743 -0.0012 -0.0981
16892TIP3    H172091   1.525   6.005  11.763 -0.4494  0.4297  1.2971
16892TIP3    H272092   1.419   6.109  11.791  1.8779  2.7655  1.7919
16893TIP3   OH272093   5.676   2.212   1.163 -0.0422 -0.0924 -0.2352
16893TIP3    H172094   5.623   2.152   1.110 -1.8039  0.0477  1.2824
16893TIP3    H272095   5.724   2.265   1.098 -0.8626 -1.0073 -1.6468
16894TIP3   OH272096   1.177   1.093  13.804  0.0335  0.1188  0.0910
16894TIP3    H172097   1.243   1.044  13.853 -1.1727 -2.4254 -0.6450
16894TIP3    H272098   1.093   1.063  13.841 -0.7914  0.6916 -1.2501
16895TIP3   OH272099   6.293   5.149  16.131  0.3384  0.2858  0.0888
16895TIP3    H172100   6.229   5.150  16.059  0.2848  0.9675  0.1347
16895TIP3    H272101   6.369   5.196  16.096  0.1485  1.0007  0.6107
16896TIP3   OH272102   1.494   3.682  11.948  0.1854 -0.2984 -0.7327
16896TIP3    H172103   1.487   3.676  12.043  0.1990  1.5705 -0.5854
16896TIP3    H272104   1.587   3.695  11.931  0.3537 -1.7779 -1.1155
16897TIP3   OH272105   0.170   6.207   6.235 -0.7845  0.0893  0.1499
16897TIP3    H172106   0.240   6.261   6.198 -1.1472  1.4002  1.3130
16897TIP3    H272107   0.208   6.172   6.316 -0.2381 -2.1871 -1.0134
16898TIP3   OH272108   4.679   5.819   4.351 -0.1856  0.1727 -0.0436
16898TIP3    H172109   4.583   5.812   4.349 -0.0884 -1.7898  0.2555
16898TIP3    H272110   4.706   5.758   4.419  1.3148  0.5193 -0.2914
16899TIP3   OH272111   4.642   2.794   2.933 -0.3896 -0.6058 -0.7011
16899TIP3    H172112   4.560   2.796   2.882 -0.5254 -2.7183 -0.6206
16899TIP3    H272113   4.660   2.702   2.946  1.6115 -0.1539 -0.0064
16900TIP3   OH272114   6.676   3.246  14.116  0.4662  0.1603  0.0855
16900TIP3    H172115   6.594   3.231  14.163  0.5233  2.7366  1.1912
16900TIP3    H272116   6.683   3.173  14.055 -1.2799 -1.5835  1.8155
16901TIP3   OH272117   3.630   5.893   3.474 -0.3874 -0.0263 -0.2907
16901TIP3    H172118   3.586   5.817   3.512  0.4535 -0.9780 -1.1402
16901TIP3    H272119   3.626   5.878   3.380  2.6989 -0.7902 -0.4178
16902TIP3   OH272120   3.845   2.566   5.016 -0.1654  0.3249 -0.3013
16902TIP3    H172121   3.824   2.473   5.025 -0.1580  0.2813 -0.7072
16902TIP3    H272122   3.796   2.609   5.086  1.0580 -0.1605  0.9111
16903TIP3   OH272123   6.545   1.200  11.019 -0.5934 -0.7312  0.0775
16903TIP3    H172124   6.592   1.243  10.947  0.4772  0.8752  1.6687
16903TIP3    H272125   6.482   1.143  10.975 -0.9627  1.2430 -2.1682
16904TIP3   OH272126   4.117   5.721   6.160 -0.2726  0.1027  0.5659
16904TIP3    H172127   4.037   5.750   6.205 -1.0974 -0.8433 -0.2386
16904TIP3    H272128   4.184   5.719   6.228 -0.8872  1.0856  1.2179
16905TIP3   OH272129   3.696   0.220   6.032 -0.7362 -0.1991  0.0610
16905TIP3    H172130   3.733   0.162   5.965 -1.1589 -0.0048 -0.3455
16905TIP3    H272131   3.707   0.308   5.995  0.2181  0.0235  0.8238
16906TIP3   OH272132   4.267   5.697  14.506  0.2409  0.0107  0.0038
16906TIP3    H172133   4.243   5.650  14.426  0.6892  0.1879 -0.2378
16906TIP3    H272134   4.337   5.756  14.479 -0.0751  0.5633  0.3840
16907TIP3   OH272135   0.085   0.101   4.109  0.1876 -0.5474  0.1485
16907TIP3    H172136   0.100   0.186   4.150  1.5363 -1.2964  1.2779
16907TIP3    H272137   0.068   0.041   4.182 -0.8955 -1.2473 -0.6377
16908TIP3   OH272138   4.935   3.445  16.467 -0.2848 -0.2412  0.1948
16908TIP3    H172139   4.906   3.423  16.378  0.0411  0.2326 -0.0372
16908TIP3    H272140   4.998   3.377  16.490  3.2116  1.9700 -1.7718
16909TIP3   OH272141   1.479   4.600   1.629  0.1992 -0.2215 -0.5860
16909TIP3    H172142   1.479   4.508   1.602  0.2577 -0.3501 -0.1562
16909TIP3    H272143   1.517   4.599   1.716 -0.1935  0.1643 -0.4098
16910TIP3   OH272144   5.852   6.124   2.155 -0.4913  0.5432 -0.3687
16910TIP3    H172145   5.764   6.094   2.177 -0.4227  0.2016 -0.5468
16910TIP3    H272146   5.897   6.131   2.239 -0.5066  0.1270 -0.3213
16911TIP3   OH272147   2.145   0.387   4.133  0.1818  0.0763 -0.0220
16911TIP3    H172148   2.077   0.431   4.183 -0.1932 -1.2855  0.7154
16911TIP3    H272149   2.143   0.429   4.047  0.0606  1.6786  0.7211
16912TIP3   OH272150   5.624   2.820  17.043  0.6156 -0.0094 -0.8016
16912TIP3    H172151   5.678   2.885  17.088  1.1876 -0.9535 -0.0858
16912TIP3    H272152   5.539   2.863  17.032  1.2046  1.1352 -1.0544
16913TIP3   OH272153   1.360   1.759  11.315 -0.2047 -0.6858 -0.7076
16913TIP3    H172154   1.270   1.739  11.338  0.1374 -2.4121 -0.7794
16913TIP3    H272155   1.355   1.792  11.225 -0.8962  0.7161 -0.1943
16914TIP3   OH272156   3.776   0.226  12.347 -0.1911  0.0423  0.5074
16914TIP3    H172157   3.802   0.259  12.433 -2.7002  0.3852  1.2058
16914TIP3    H272158   3.697   0.275  12.325  1.7835  1.9327 -3.2934
16915TIP3   OH272159   3.796   4.806   0.665 -0.0794 -1.5098 -0.1209
16915TIP3    H172160   3.762   4.718   0.646 -0.2552 -1.6649  0.8444
16915TIP3    H272161   3.718   4.857   0.687 -0.0418 -0.9437 -1.2460
16916TIP3   OH272162   6.358   5.718   5.298  0.3915 -0.1031  0.0625
16916TIP3    H172163   6.304   5.694   5.222 -0.0963 -1.1995  0.7188
16916TIP3    H272164   6.369   5.635   5.346  1.0236  0.4909  0.9751
16917TIP3   OH272165   5.788   4.240   4.836 -0.1742  0.4289  0.0746
16917TIP3    H172166   5.747   4.156   4.816  0.4634  0.1351 -0.0467
16917TIP3    H272167   5.764   4.297   4.763  0.0325  0.1183 -0.2380
16918TIP3   OH272168   4.247   2.269   3.761 -0.0515 -0.0315 -0.3528
16918TIP3    H172169   4.197   2.349   3.776 -1.2024 -0.4472 -1.7441
16918TIP3    H272170   4.322   2.297   3.709  0.4160  0.3695  0.5166
16919TIP3   OH272171   3.053   2.894   3.570  0.5038  0.6907  0.1857
16919TIP3    H172172   3.134   2.853   3.600  0.3037  0.1333 -0.0074
16919TIP3    H272173   3.076   2.933   3.486  0.6949  0.9686  0.3653
16920TIP3   OH272174   1.859   4.453  16.404 -0.0577 -0.4559 -0.7481
16920TIP3    H172175   1.897   4.374  16.443  2.1859  0.2541 -1.3541
16920TIP3    H272176   1.817   4.498  16.477 -1.7862 -2.3607 -0.4537
16921TIP3   OH272177   2.555   3.565   6.545  0.3446 -0.2069 -0.2456
16921TIP3    H172178   2.492   3.606   6.485 -0.9513  0.8222  1.7077
16921TIP3    H272179   2.615   3.636   6.569  2.1247 -1.0911 -1.8101
16922TIP3   OH272180   1.445   2.174   4.742  0.4399  0.6621  0.4616
16922TIP3    H172181   1.436   2.080   4.760 -2.2032  0.3865 -1.5963
16922TIP3    H272182   1.502   2.177   4.665 -1.0073  0.5149 -0.6630
16923TIP3   OH272183   5.713   1.289  14.033  0.4144  0.3983 -0.4385
16923TIP3    H172184   5.754   1.337  13.961 -1.6361  0.0562 -1.9340
16923TIP3    H272185   5.730   1.197  14.012 -2.1315  0.1728 -1.8439
16924TIP3   OH272186   0.526   3.095  15.242  0.3341 -0.0430 -0.3203
16924TIP3    H172187   0.450   3.139  15.203 -0.2055  0.9116  1.6586
16924TIP3    H272188   0.565   3.161  15.299  0.6108 -1.5620  1.3206
16925TIP3   OH272189   5.666   4.140   5.769  0.3106 -0.2973 -0.1004
16925TIP3    H172190   5.747   4.124   5.817  0.1915  0.0982  0.2451
16925TIP3    H272191   5.633   4.222   5.805 -0.5350 -0.7405  0.1725
16926TIP3   OH272192   0.853   0.278   1.615 -0.0782 -0.1404  0.7190
16926TIP3    H172193   0.816   0.324   1.540  0.0019 -0.2020  0.6432
16926TIP3    H272194   0.891   0.348   1.669  1.3716 -0.2384 -0.1158
16927TIP3   OH272195   3.533   4.987   0.092  0.8216 -0.3165 -0.4292
16927TIP3    H172196   3.541   4.996  -0.003  1.8570 -1.5053 -0.4856
16927TIP3    H272197   3.451   5.031   0.113  1.1136  0.9508 -1.7202
16928TIP3   OH272198   4.622   0.165  14.373  0.1181 -0.2544  0.2704
16928TIP3    H172199   4.677   0.124  14.306 -1.8363 -0.9386 -0.9959
16928TIP3    H272200   4.586   0.242  14.330 -0.4470 -0.1916  0.8553
16929TIP3   OH272201   6.259   2.041  12.570  0.1161  0.0264  0.0387
16929TIP3    H172202   6.338   2.054  12.622 -0.5498  1.1372  0.8091
16929TIP3    H272203   6.192   2.095  12.612 -1.4537 -1.9292  0.2378
16930TIP3   OH272204   0.714   6.325  13.456 -0.5510  0.1642 -0.0393
16930TIP3    H172205   0.755   6.278  13.529 -1.2586 -2.1682 -1.0590
16930TIP3    H272206   0.622   6.300  13.460 -0.6170  0.0131 -1.6898
16931TIP3   OH272207   2.534   5.669   5.982 -0.3653  0.7138 -0.5834
16931TIP3    H172208   2.499   5.728   6.049  1.2462  0.5873  0.4224
16931TIP3    H272209   2.575   5.727   5.918  1.1285  0.7525  0.3530
16932TIP3   OH272210   5.355   1.617  16.421  0.4453 -0.3726 -0.4247
16932TIP3    H172211   5.357   1.638  16.514  1.0960 -0.3374 -0.4423
16932TIP3    H272212   5.294   1.680  16.383  0.3258 -0.2649 -0.0579
16933TIP3   OH272213   0.318   6.147  13.904 -0.4397 -0.5379  0.0969
16933TIP3    H172214   0.276   6.062  13.889 -0.4101 -0.4438 -0.5602
16933TIP3    H272215   0.253   6.211  13.878  0.3491 -0.4004 -1.7212
16934TIP3   OH272216   6.611   2.370  15.830 -0.1371  0.1171  0.1283
16934TIP3    H172217   6.579   2.454  15.866 -0.5684 -0.4290  1.0630
16934TIP3    H272218   6.698   2.391  15.796 -0.7126  1.2105 -0.7417
16935TIP3   OH272219   6.202   1.925   4.415 -0.0686  0.5960 -0.3275
16935TIP3    H172220   6.133   1.862   4.393 -1.2139  2.1320 -1.3848
16935TIP3    H272221   6.277   1.898   4.363 -0.1415 -0.5724  0.1442
16936TIP3   OH272222   0.928   4.930   1.907 -0.1602 -0.4126 -0.2281
16936TIP3    H172223   0.929   4.969   1.820  1.9822 -0.7561 -0.3901
16936TIP3    H272224   0.955   4.839   1.894 -1.6330 -1.0149  0.5962
16937TIP3   OH272225   5.990   4.909   2.512 -0.8499 -0.1536 -0.0678
16937TIP3    H172226   5.952   4.934   2.428  0.3782  0.4658 -0.4552
16937TIP3    H272227   6.062   4.970   2.525 -0.0044 -1.2769  0.6608
16938TIP3   OH272228   2.309   6.082   1.685 -0.0571  0.2555  0.7039
16938TIP3    H172229   2.295   5.987   1.687  0.3554  0.1850  0.3308
16938TIP3    H272230   2.402   6.093   1.705 -0.1351  0.5909  0.8850
16939TIP3   OH272231   2.555   5.056  15.954  0.3025 -0.4196 -0.6281
16939TIP3    H172232   2.556   5.134  15.900  0.5532 -1.1268 -1.6717
16939TIP3    H272233   2.644   5.020  15.946  0.8231  0.2139  1.4213
16940TIP3   OH272234   4.588   6.660   2.784 -0.0065  0.4290  0.2851
16940TIP3    H172235   4.592   6.681   2.878 -1.6157  0.6880  0.3169
16940TIP3    H272236   4.502   6.621   2.772 -0.6058  2.1551 -1.4341
16941TIP3   OH272237   0.294   2.190  12.172  0.0426 -0.2473  0.3300
16941TIP3    H172238   0.211   2.236  12.188  0.3050  0.2881  0.1631
16941TIP3    H272239   0.321   2.160  12.258 -0.2905 -0.3645  0.3968
16942TIP3   OH272240   3.030   0.667  11.642  0.0715 -0.0453  0.3408
16942TIP3    H172241   3.120   0.699  11.650  0.1183 -0.0222 -0.2398
16942TIP3    H272242   2.981   0.743  11.611 -0.2564  0.0894  1.1553
16943TIP3   OH272243   3.205   2.275  12.544 -0.1223 -0.8426 -0.4857
16943TIP3    H172244   3.111   2.279  12.526 -0.4240 -2.7957  0.3376
16943TIP3    H272245   3.211   2.279  12.639  0.6332 -0.7450 -0.5360
16944TIP3   OH272246   1.470   0.346   2.864  0.3892  0.2546  0.3290
16944TIP3    H172247   1.486   0.406   2.938  1.1601  1.4086 -0.7348
16944TIP3    H272248   1.375   0.341   2.858  0.2383 -1.5779  2.7144
16945TIP3   OH272249   5.991   0.532   0.585 -0.5130 -0.5248 -0.4096
16945TIP3    H172250   5.997   0.439   0.606  0.1519 -1.0166 -2.5961
16945TIP3    H272251   6.054   0.545   0.515 -2.1617  1.1011 -1.6825
16946TIP3   OH272252   6.530   6.040   0.482  0.4987  0.4942  0.4540
16946TIP3    H172253   6.564   5.961   0.524  0.3091 -0.5660 -1.2713
16946TIP3    H272254   6.574   6.043   0.397 -0.2030  1.7373  0.1001
16947TIP3   OH272255   0.601   2.289   1.894  0.4549 -0.5423  0.3221
16947TIP3    H172256   0.515   2.283   1.851 -0.0798  1.4258  1.0284
16947TIP3    H272257   0.586   2.256   1.982 -0.1616  1.7510  1.1411
16948TIP3   OH272258   4.040   1.092  17.151 -0.1269  0.2295  0.7389
16948TIP3    H172259   4.135   1.099  17.155 -0.2003  1.7209  0.7032
16948TIP3    H272260   4.018   1.113  17.061 -0.5597  1.4937  1.1092
16949TIP3   OH272261   2.060   5.593  15.424  0.1281 -0.5642  0.2253
16949TIP3    H172262   2.141   5.638  15.400 -0.1415  0.6051  1.3851
16949TIP3    H272263   2.088   5.505  15.449  0.6823 -1.0871 -1.9746
16950TIP3   OH272264   3.570   1.354  12.383  0.6092  0.3290 -0.4292
16950TIP3    H172265   3.499   1.411  12.411  1.7334  1.8279 -0.4821
16950TIP3    H272266   3.589   1.382  12.293  0.1858 -1.1866 -1.0218
16951TIP3   OH272267   5.797   1.734   4.314 -0.0623 -1.0607  0.1165
16951TIP3    H172268   5.801   1.752   4.408 -0.5837 -0.6692  0.0689
16951TIP3    H272269   5.712   1.691   4.302  1.6709 -4.9546  0.4411
16952TIP3   OH272270   4.920   4.756   1.038 -0.2121  0.1587  0.4101
16952TIP3    H172271   4.913   4.791   0.950 -0.8310 -1.1654 -0.0981
16952TIP3    H272272   4.929   4.661   1.026 -2.4049 -0.3068  1.7919
16953TIP3   OH272273   0.276   4.949  12.701  0.1076 -0.3269 -1.0020
16953TIP3    H172274   0.203   4.891  12.678 -1.1301  0.8982 -0.2964
16953TIP3    H272275   0.276   4.950  12.797 -0.0799  1.0440 -0.9973
16954TIP3   OH272276   1.372   6.132  13.734  0.2442  0.4323 -0.1047
16954TIP3    H172277   1.296   6.090  13.774 -1.3569  2.2314 -1.0719
16954TIP3    H272278   1.363   6.114  13.640  1.3726  0.1565 -0.1749
16955TIP3   OH272279   5.156   0.097  16.187  0.4061 -0.2408  0.0459
16955TIP3    H172280   5.089   0.126  16.126 -1.6353  0.2559  2.3880
16955TIP3    H272281   5.127   0.010  16.215  1.8821 -0.9245 -0.3981
16956TIP3   OH272282   6.562   0.983  13.297  0.1749  0.3272  0.3191
16956TIP3    H172283   6.474   0.947  13.308  0.0518  0.2395 -0.8067
16956TIP3    H272284   6.559   1.030  13.214  1.9439 -2.1656 -1.3253
16957TIP3   OH272285   6.172   6.423  15.444  0.1067 -0.0504 -0.0115
16957TIP3    H172286   6.116   6.346  15.431 -1.7397  0.9599  1.4069
16957TIP3    H272287   6.114   6.488  15.485  2.2593  1.1856  1.2510
16958TIP3   OH272288   6.341   0.995  15.045  0.1620  0.2311  0.2751
16958TIP3    H172289   6.291   0.922  15.008 -0.7580  0.5670  0.8205
16958TIP3    H272290   6.430   0.961  15.055 -0.1179 -0.6160 -0.0462
16959TIP3   OH272291   2.584   3.304  16.561  0.3042 -0.4393 -0.4237
16959TIP3    H172292   2.513   3.293  16.498  2.4336  0.0327 -3.0465
16959TIP3    H272293   2.560   3.246  16.634 -2.8227 -0.1486 -1.0630
16960TIP3   OH272294   4.049   1.511  17.170 -0.1150 -0.4903  0.5299
16960TIP3    H172295   3.982   1.445  17.188 -0.1790 -0.4571  0.4144
16960TIP3    H272296   4.068   1.501  17.077 -0.2108 -0.2703  0.4849
16961TIP3   OH272297   0.307   1.872   0.028  0.5117  0.2011 -0.2896
16961TIP3    H172298   0.324   1.843   0.117 -0.0115  2.6588  0.7023
16961TIP3    H272299   0.370   1.943   0.013 -0.3360  0.7815 -1.3281
16962TIP3   OH272300   5.939   4.556  16.824 -0.5718 -0.3780  0.4349
16962TIP3    H172301   6.004   4.611  16.867 -0.0805 -0.6239  0.0242
16962TIP3    H272302   5.990   4.487  16.781 -0.7426  1.2683 -2.7036
16963TIP3   OH272303   6.554   4.035  12.256  0.0855 -0.1480  0.4287
16963TIP3    H172304   6.485   4.011  12.195 -1.3185  1.5977  1.2109
16963TIP3    H272305   6.560   4.131  12.248 -0.1852  0.1478  2.9996
16964TIP3   OH272306   1.628   0.387  12.730 -0.0671  0.3790 -0.3208
16964TIP3    H172307   1.682   0.335  12.789 -1.7743 -1.7458 -0.5323
16964TIP3    H272308   1.583   0.450  12.787 -1.5464 -1.5125  0.6899
16965TIP3   OH272309   6.408   4.762   1.977  0.6638  0.1207 -0.1384
16965TIP3    H172310   6.368   4.794   1.896  0.1647  0.4616  0.2377
16965TIP3    H272311   6.468   4.693   1.948 -1.3514 -1.5588 -0.5909
16966TIP3   OH272312   0.560   6.289   3.164 -0.4831 -0.0144  0.6366
16966TIP3    H172313   0.622   6.234   3.212 -1.1353 -1.1388  0.2247
16966TIP3    H272314   0.604   6.374   3.159  0.5717 -0.4874  1.2531
16967TIP3   OH272315   4.299   0.765   4.538 -0.7124 -0.1661 -0.2340
16967TIP3    H172316   4.361   0.794   4.606 -0.9225  1.4781 -0.7067
16967TIP3    H272317   4.353   0.749   4.461 -0.6196 -0.8871 -0.0254
16968TIP3   OH272318   2.155   2.161   2.516 -0.2486  0.5246  0.1220
16968TIP3    H172319   2.222   2.171   2.584 -1.6172 -0.4518  1.7057
16968TIP3    H272320   2.075   2.141   2.565 -1.0279 -1.5665 -1.8356
16969TIP3   OH272321   4.518   3.899   4.364  0.3472  0.3959  0.1224
16969TIP3    H172322   4.588   3.836   4.354 -0.4094 -0.3910 -0.3678
16969TIP3    H272323   4.546   3.975   4.312 -0.0621 -0.6971 -1.7838
16970TIP3   OH272324   3.221   2.938  15.279 -0.4542  0.3660 -0.4724
16970TIP3    H172325   3.188   3.025  15.302 -0.8027  0.0632  0.1769
16970TIP3    H272326   3.151   2.898  15.228 -0.5788  0.1947 -0.1638
16971TIP3   OH272327   5.961   2.586   6.053 -0.1725  0.0154 -0.4249
16971TIP3    H172328   5.986   2.494   6.040  0.7847  0.5077 -2.3693
16971TIP3    H272329   5.967   2.625   5.967 -3.3051  1.3067 -0.2068
16972TIP3   OH272330   3.161   3.295  16.358 -0.0181 -0.1822  0.2957
16972TIP3    H172331   3.125   3.309  16.271 -0.0825  0.9899  0.4930
16972TIP3    H272332   3.085   3.301  16.416 -0.1108 -1.7965  0.3838
16973TIP3   OH272333   5.864   5.875   0.488 -0.0815 -0.3096 -0.3641
16973TIP3    H172334   5.920   5.937   0.535  1.4737 -1.7405 -0.2427
16973TIP3    H272335   5.816   5.829   0.557  0.2122 -0.5705 -0.3321
16974TIP3   OH272336   4.359   1.844   4.116 -0.5105  0.0092  0.6027
16974TIP3    H172337   4.367   1.925   4.066 -0.6652 -0.4458 -0.1662
16974TIP3    H272338   4.429   1.787   4.084  0.1722  0.1435  1.7699
16975TIP3   OH272339   3.539   5.800  13.863 -0.3519 -0.1292  0.0964
16975TIP3    H172340   3.492   5.833  13.940  1.9348  4.6382 -0.1460
16975TIP3    H272341   3.620   5.763  13.899 -0.6219 -0.6831  0.1326
16976TIP3   OH272342   2.816   6.286  16.663 -0.1774 -0.1152 -0.0980
16976TIP3    H172343   2.894   6.333  16.635 -2.0703  1.4086 -3.4008
16976TIP3    H272344   2.774   6.344  16.726  0.3312 -0.0472  0.1858
16977TIP3   OH272345   0.683   4.363   2.055 -1.3635  0.8613  0.6362
16977TIP3    H172346   0.656   4.271   2.055  2.1750 -0.3897 -1.8097
16977TIP3    H272347   0.706   4.382   2.146 -1.8447 -0.7453  1.1157
16978TIP3   OH272348   5.598   4.919  14.227 -0.5630 -0.5760 -0.0843
16978TIP3    H172349   5.561   4.869  14.153  0.3052 -1.7526  0.2462
16978TIP3    H272350   5.572   4.870  14.304 -2.2426  1.1541  0.4950
16979TIP3   OH272351   1.628   2.570  12.883 -0.2249  0.2762  0.2155
16979TIP3    H172352   1.705   2.624  12.863  0.6763 -0.7413  0.8087
16979TIP3    H272353   1.625   2.505  12.813 -1.6443  1.4055 -0.8142
16980TIP3   OH272354   2.949   6.629   0.433 -0.3238 -0.2408  0.0931
16980TIP3    H172355   2.996   6.548   0.453 -0.3868 -0.5559 -0.9340
16980TIP3    H272356   2.978   6.651   0.344 -1.5627 -0.0497 -0.2772
16981TIP3   OH272357   0.025   6.490   2.190 -0.2838  0.5494  0.8379
16981TIP3    H172358  -0.010   6.485   2.101 -1.3485 -2.5346  1.2881
16981TIP3    H272359  -0.042   6.537   2.240  0.7989  3.2527 -0.0894
16982TIP3   OH272360   2.543   5.426  12.896 -0.4444 -0.0821 -0.2908
16982TIP3    H172361   2.537   5.417  12.991 -1.6027 -1.6001 -0.4648
16982TIP3    H272362   2.599   5.353  12.868 -1.5484 -0.7265 -0.9043
16983TIP3   OH272363   4.685   0.299   1.001  0.1364 -0.5841  0.1473
16983TIP3    H172364   4.649   0.374   1.049  0.5811 -0.8454  0.9030
16983TIP3    H272365   4.702   0.333   0.914  0.6203  0.2867  0.5673
16984TIP3   OH272366   3.147   6.705   3.469 -0.2933 -0.3085 -0.0377
16984TIP3    H172367   3.137   6.749   3.384  0.7389  0.0559  0.0092
16984TIP3    H272368   3.207   6.633   3.452 -0.2176 -0.3374  0.3427
16985TIP3   OH272369   4.939   4.234  15.208  0.2864 -0.4861 -0.0216
16985TIP3    H172370   4.922   4.321  15.172 -0.4538  0.0482  1.5056
16985TIP3    H272371   5.003   4.249  15.278  0.2270 -1.1737  0.1886
16986TIP3   OH272372   3.717   6.235   2.899  0.2606 -0.0144 -1.0923
16986TIP3    H172373   3.666   6.307   2.936  1.2140 -0.5222  1.3441
16986TIP3    H272374   3.674   6.216   2.816 -2.7799  0.3891  0.2745
16987TIP3   OH272375   5.711   5.812   6.203 -0.0795  0.1791 -0.0817
16987TIP3    H172376   5.776   5.770   6.259  1.0146 -0.0105 -1.4482
16987TIP3    H272377   5.718   5.905   6.224  0.7829  0.1834 -0.3441
16988TIP3   OH272378   2.371   3.280  16.356 -0.7880  0.0179  0.5408
16988TIP3    H172379   2.386   3.374  16.352  0.0350 -0.0317  1.7735
16988TIP3    H272380   2.445   3.241  16.309  0.5041 -0.0711  2.5282
16989TIP3   OH272381   2.487   0.093  17.146  0.5148 -0.3983 -0.0679
16989TIP3    H172382   2.492   0.182  17.114  0.5647 -0.4891 -0.3119
16989TIP3    H272383   2.427   0.048  17.086 -0.5728 -0.1981  0.8232
16990TIP3   OH272384   5.755   1.395   1.338 -0.3845 -0.5607 -0.5094
16990TIP3    H172385   5.789   1.308   1.360 -0.9768 -0.5195  0.6146
16990TIP3    H272386   5.811   1.456   1.385 -0.3357 -0.3523 -0.8317
16991TIP3   OH272387   5.360   3.468   4.716 -0.2294  0.1866 -0.5502
16991TIP3    H172388   5.417   3.525   4.663  0.8802 -2.3038 -2.2193
16991TIP3    H272389   5.280   3.460   4.664 -0.8508  1.0890  0.2385
16992TIP3   OH272390   5.658   3.523   6.600 -0.3995 -0.1551 -0.2401
16992TIP3    H172391   5.680   3.474   6.679 -1.6594  0.9665  0.8479
16992TIP3    H272392   5.689   3.612   6.617 -1.2082  0.2348 -0.7532
16993TIP3   OH272393   6.131   4.685  15.949 -0.5970  0.1437  0.7283
16993TIP3    H172394   6.139   4.744  15.875  3.3988 -0.7749  0.2185
16993TIP3    H272395   6.157   4.737  16.025 -0.9177  0.0568  0.9009
16994TIP3   OH272396   1.646   2.602  17.282 -0.2731  0.2102  0.2124
16994TIP3    H172397   1.704   2.606  17.358  0.3433 -1.7065 -0.0919
16994TIP3    H272398   1.567   2.558  17.315 -0.2970  0.0339 -0.0783
16995TIP3   OH272399   0.465   4.480  15.886 -0.4528 -0.0984  0.7875
16995TIP3    H172400   0.378   4.488  15.847 -0.7442  0.2416  1.4883
16995TIP3    H272401   0.524   4.473  15.811 -0.6822  3.3118  0.1238
16996TIP3   OH272402   4.193   2.671   5.857 -0.1436  0.1907  0.0041
16996TIP3    H172403   4.222   2.747   5.907  0.6585  0.7917 -1.3068
16996TIP3    H272404   4.139   2.707   5.787  1.3832 -0.2333 -1.4746
16997TIP3   OH272405   1.788   1.603  14.372  0.3587 -0.0848 -0.1062
16997TIP3    H172406   1.864   1.593  14.315  1.0782  1.5635  0.5149
16997TIP3    H272407   1.810   1.552  14.451  0.8296  0.3883  0.0721
16998TIP3   OH272408   5.077   6.123   2.254  0.2417  0.3508 -0.1881
16998TIP3    H172409   5.149   6.093   2.198 -0.6756 -1.3652 -0.5032
16998TIP3    H272410   5.024   6.180   2.198  0.2240 -0.0428 -0.5701
16999TIP3   OH272411   2.733   3.536   0.941  0.9012  0.8269 -0.3847
16999TIP3    H172412   2.722   3.469   0.874  1.8971  0.6779 -0.4151
16999TIP3    H272413   2.786   3.604   0.899  1.7178  0.6386  0.2951
17000TIP3   OH272414   1.189   3.863   4.539 -0.1320  0.4380 -0.0648
17000TIP3    H172415   1.229   3.802   4.601 -1.9263 -0.8414 -0.1032
17000TIP3    H272416   1.193   3.818   4.455  0.5324  1.3508 -0.5416
17001TIP3   OH272417   3.533   4.416   0.038  0.8743  0.0734 -0.4400
17001TIP3    H172418   3.492   4.503   0.035  1.3688  0.3982  1.1026
17001TIP3    H272419   3.470   4.358  -0.005 -0.8393  0.6971  1.0994
17002TIP3   OH272420   4.680   3.385   1.231  0.4246 -0.1694  0.4340
17002TIP3    H172421   4.733   3.445   1.284 -0.2195 -1.5800  2.8169
17002TIP3    H272422   4.653   3.438   1.156  3.3260  1.2415  0.2293
17003TIP3   OH272423   5.567   2.398   7.026  0.2401 -0.2627  0.2967
17003TIP3    H172424   5.647   2.406   6.974  0.5161 -0.4013  0.6924
17003TIP3    H272425   5.524   2.483   7.016 -0.1855 -0.5989 -0.9022
17004TIP3   OH272426   5.783   6.011  17.078 -0.1562 -0.6373  0.1985
17004TIP3    H172427   5.830   6.076  17.129  1.9423 -2.2500  0.4658
17004TIP3    H272428   5.690   6.029  17.095  0.4096  0.8770  1.9777
17005TIP3   OH272429   0.715   6.753  16.265  0.2083 -0.8257  0.3742
17005TIP3    H172430   0.801   6.772  16.226 -0.3784  0.7685 -0.2102
17005TIP3    H272431   0.699   6.661  16.244  0.7474 -0.5247 -1.5522
17006TIP3   OH272432   6.415   2.110   0.216  0.0853  0.9170 -0.3020
17006TIP3    H172433   6.422   2.062   0.134  0.7071  1.1086 -0.3667
17006TIP3    H272434   6.324   2.099   0.243 -0.1197  0.8500 -1.0135
17007TIP3   OH272435   4.463   5.085  16.382  0.3102 -0.1152 -0.4742
17007TIP3    H172436   4.487   4.993  16.372 -0.8902 -0.6320  0.9849
17007TIP3    H272437   4.385   5.095  16.328  1.2721  0.4517 -1.8012
17008TIP3   OH272438   5.424   4.467  13.285  0.4486  0.0719  0.4717
17008TIP3    H172439   5.515   4.495  13.282  0.0917  1.2840  0.6713
17008TIP3    H272440   5.422   4.401  13.354  0.7389  1.7559  2.1601
17009TIP3   OH272441   4.234   2.048   0.937 -0.3377 -0.6659 -0.6896
17009TIP3    H172442   4.271   1.981   0.879  0.5219 -0.5181 -0.3378
17009TIP3    H272443   4.204   2.117   0.878  0.5996 -0.4809 -0.9741
17010TIP3   OH272444   0.402   3.306  16.044  0.1843  0.5814  0.1590
17010TIP3    H172445   0.430   3.390  16.079  1.6098 -0.2513  1.1598
17010TIP3    H272446   0.479   3.273  15.997 -0.3832 -0.1174 -0.3038
17011TIP3   OH272447   6.499   5.291  13.199 -0.0750  0.2777 -0.0695
17011TIP3    H172448   6.406   5.313  13.207 -0.2948  0.0835 -1.7330
17011TIP3    H272449   6.502   5.196  13.213 -0.2492  0.1677 -0.7234
17012TIP3   OH272450   6.163   4.048   3.903  0.1236 -0.0710 -0.0523
17012TIP3    H172451   6.074   4.042   3.868  0.4276  0.1855 -0.8796
17012TIP3    H272452   6.199   3.960   3.896  0.7206  0.2862 -1.8539
17013TIP3   OH272453   5.579   5.256   0.091  0.1191  0.3632  0.7448
17013TIP3    H172454   5.651   5.217   0.141  0.2232  1.2928  1.3461
17013TIP3    H272455   5.623   5.313   0.028 -0.0922  2.0790  2.0801
17014TIP3   OH272456   3.258   5.968  12.178 -0.1341 -0.7261 -0.4030
17014TIP3    H172457   3.215   5.906  12.238  0.1533 -0.0068  0.5838
17014TIP3    H272458   3.316   5.914  12.124 -0.5093 -1.4142 -0.1298
17015TIP3   OH272459   5.322   5.144   2.364 -0.2317  0.1768 -0.5920
17015TIP3    H172460   5.368   5.087   2.427 -1.3191 -0.4522 -0.3307
17015TIP3    H272461   5.363   5.124   2.280  0.6415  0.3676 -0.2242
17016TIP3   OH272462   2.194   5.547   5.034 -0.1629 -0.3662  0.6872
17016TIP3    H172463   2.152   5.628   5.008  0.3540 -0.1046  0.6655
17016TIP3    H272464   2.248   5.571   5.110  1.3082 -0.3315 -0.3398
17017TIP3   OH272465   5.338   2.538   2.413 -0.0134  0.5542  0.0539
17017TIP3    H172466   5.374   2.608   2.359  1.9919 -0.7977 -0.4348
17017TIP3    H272467   5.246   2.533   2.387  0.1163  2.0848 -0.8423
17018TIP3   OH272468   0.407   1.176   2.580  0.0337 -0.0412 -0.1248
17018TIP3    H172469   0.339   1.155   2.644  0.1169 -1.1773 -0.3959
17018TIP3    H272470   0.391   1.117   2.507  0.9137  0.1303 -0.4748
17019TIP3   OH272471   6.551   2.157  16.482  0.1617 -0.2606 -0.2216
17019TIP3    H172472   6.550   2.096  16.555  1.1255  0.7267  0.6623
17019TIP3    H272473   6.544   2.244  16.523 -0.2885  0.2780 -1.3729
17020TIP3   OH272474   3.144   0.219  15.000 -0.4237 -0.0756 -0.5044
17020TIP3    H172475   3.079   0.289  15.002  0.5566  0.8519 -0.0115
17020TIP3    H272476   3.219   0.257  14.954  1.0862  0.1057  1.9394
17021TIP3   OH272477   0.542   3.723  17.177  0.1128 -0.1459  0.0924
17021TIP3    H172478   0.449   3.716  17.153  0.0447  0.9094 -0.0107
17021TIP3    H272479   0.582   3.772  17.105  0.3972  0.8979  0.9277
17022TIP3   OH272480   1.795   5.778  16.400 -0.7325  0.0326  0.5299
17022TIP3    H172481   1.846   5.838  16.346  1.3451 -0.0609  2.2603
17022TIP3    H272482   1.833   5.786  16.487 -0.5129 -3.5621  0.9163
17023TIP3   OH272483   4.797   4.191   6.182 -0.1535 -0.0217  0.4705
17023TIP3    H172484   4.722   4.244   6.208 -1.0787 -1.0707 -0.0057
17023TIP3    H272485   4.829   4.153   6.263  1.4989  2.4082  1.0882
17024TIP3   OH272486   0.301   6.290  14.803  0.1964  0.6067 -0.5130
17024TIP3    H172487   0.301   6.375  14.758 -0.5373  0.9573  0.1130
17024TIP3    H272488   0.209   6.264  14.804  0.3970 -0.1240 -0.5568
17025TIP3   OH272489   4.443   4.920  12.810  0.0114  0.3980  0.4297
17025TIP3    H172490   4.403   4.969  12.882  1.1409  0.2510  1.2035
17025TIP3    H272491   4.537   4.941  12.817  0.0378  1.1927 -1.6512
17026TIP3   OH272492   0.876   3.853  15.943 -0.1913  0.5822 -0.3967
17026TIP3    H172493   0.970   3.855  15.924 -0.3434  1.2772 -1.1195
17026TIP3    H272494   0.841   3.931  15.900 -1.0847  0.3985 -0.0270
17027TIP3   OH272495   4.131   4.634   0.781 -0.0448 -0.2239 -0.5229
17027TIP3    H172496   4.065   4.577   0.742 -0.7174  0.3614 -0.2618
17027TIP3    H272497   4.173   4.677   0.707 -1.4447  1.0275 -0.6241
17028TIP3   OH272498   4.792   2.873   0.371 -0.3906 -0.6478 -0.1073
17028TIP3    H172499   4.719   2.934   0.379  1.1326  0.9897  2.6071
17028TIP3    H272500   4.811   2.847   0.461  1.8536 -1.6471 -0.8190
17029TIP3   OH272501   5.099   5.501   2.169 -0.6049  0.9466  0.0831
17029TIP3    H172502   5.067   5.484   2.081 -1.0657 -1.0871  0.5994
17029TIP3    H272503   5.189   5.469   2.170 -0.8642  0.2056  0.5582
17030TIP3   OH272504   6.247   5.798   0.556  0.7696 -0.2605  0.1686
17030TIP3    H172505   6.236   5.873   0.497 -0.6040 -0.9146 -0.4647
17030TIP3    H272506   6.266   5.837   0.641 -2.5294  1.0326  0.4787
17031TIP3   OH272507   5.570   1.930  13.107 -0.0798  0.4746  0.2833
17031TIP3    H172508   5.566   2.024  13.087 -2.1909  0.6204  1.1759
17031TIP3    H272509   5.529   1.887  13.032 -1.5807  0.5099  1.0404
17032TIP3   OH272510   3.174   5.024   4.916 -0.4568  0.2298 -0.7423
17032TIP3    H172511   3.112   5.072   4.971 -2.4883  1.7705 -4.0664
17032TIP3    H272512   3.245   5.086   4.899 -0.5310  0.2435 -0.9986
17033TIP3   OH272513   6.177   0.018  12.189  0.0840 -0.2102  0.6286
17033TIP3    H172514   6.092   0.017  12.233 -0.0788 -1.3239  0.3241
17033TIP3    H272515   6.162  -0.029  12.107  0.9192 -0.1459  0.4323
17034TIP3   OH272516   3.025   1.636   1.295  0.3384 -0.1776  0.5504
17034TIP3    H172517   2.932   1.635   1.274  0.6571  0.6923 -1.0651
17034TIP3    H272518   3.053   1.545   1.283 -0.4415 -0.6074  1.8393
17035TIP3   OH272519   4.544   2.732  12.686  0.2803 -0.7178  0.1596
17035TIP3    H172520   4.632   2.764  12.666 -0.5081  0.4440 -1.7476
17035TIP3    H272521   4.491   2.812  12.695 -0.8611 -1.4140 -0.2013
17036TIP3   OH272522   3.412   3.625   6.630 -0.1791 -0.0129  0.1201
17036TIP3    H172523   3.352   3.605   6.559  1.7842 -2.5140 -0.9903
17036TIP3    H272524   3.400   3.554   6.693 -1.4586  1.8445  2.1164
17037TIP3   OH272525   1.377   4.992   0.534 -1.0574  0.1614 -0.0349
17037TIP3    H172526   1.399   5.079   0.568 -0.7894  0.1969 -0.2966
17037TIP3    H272527   1.342   4.945   0.609 -0.8397  0.3681  0.1973
17038TIP3   OH272528   4.676   1.207   2.086 -0.2965 -0.1642 -0.9502
17038TIP3    H172529   4.629   1.219   2.003 -0.7778  0.1640 -0.6387
17038TIP3    H272530   4.658   1.287   2.134 -0.7076 -0.7047 -0.1923
17039TIP3   OH272531   4.414   0.019   1.760  0.0866 -0.1956 -0.3351
17039TIP3    H172532   4.330  -0.006   1.721 -0.0548 -0.0026 -0.1594
17039TIP3    H272533   4.391   0.086   1.825  0.5368  0.8837 -1.2638
17040TIP3   OH272534   0.518   3.938  15.762 -0.0610 -0.3044 -0.0780
17040TIP3    H172535   0.561   4.007  15.812 -0.1849 -1.1326  1.2152
17040TIP3    H272536   0.549   3.951  15.672  0.2168  1.1781  0.2038
17041TIP3   OH272537   3.662   1.266  15.675  0.3155 -0.4666  0.5698
17041TIP3    H172538   3.674   1.182  15.719  0.8252 -1.3364 -1.1252
17041TIP3    H272539   3.745   1.281  15.630 -0.3728  0.0326 -0.5954
17042TIP3   OH272540   6.652   3.031  14.806 -0.0333 -0.1463 -0.3141
17042TIP3    H172541   6.579   2.972  14.827  0.6526 -1.5303 -1.6138
17042TIP3    H272542   6.648   3.041  14.711  1.5829 -0.4365 -0.4438
17043TIP3   OH272543   3.023   2.528  13.098  0.6535 -0.0562 -0.9237
17043TIP3    H172544   2.941   2.570  13.072 -0.8220 -1.0587  1.6857
17043TIP3    H272545   3.089   2.597  13.092 -0.9419  1.5667 -0.4160
17044TIP3   OH272546   5.007   3.815  16.865 -0.1813  0.6213 -0.1898
17044TIP3    H172547   5.048   3.823  16.951 -2.4692  0.6263  0.9926
17044TIP3    H272548   5.034   3.894  16.819 -0.5484  1.6786  1.3131
17045TIP3   OH272549   4.554   1.736  11.826  0.0054  0.1732  0.3092
17045TIP3    H172550   4.616   1.777  11.886  0.9035 -2.9040  1.6747
17045TIP3    H272551   4.602   1.728  11.744  0.8832 -0.7189  0.8886
17046TIP3   OH272552   2.699   2.477   3.851  0.5053  0.4136 -0.8377
17046TIP3    H172553   2.645   2.483   3.772 -0.0888  1.8348 -0.3590
17046TIP3    H272554   2.641   2.504   3.922  0.9911 -0.9791  0.1330
17047TIP3   OH272555   5.630   3.896   2.048  0.1252  0.4156 -0.2828
17047TIP3    H172556   5.621   3.989   2.070 -0.8178  0.2286  0.1530
17047TIP3    H272557   5.724   3.879   2.056  0.4195  1.4985 -1.0764
17048TIP3   OH272558   2.924   3.809   2.401  0.0894 -0.1849 -0.3445
17048TIP3    H172559   2.890   3.805   2.490 -0.2855  3.0353 -0.1994
17048TIP3    H272560   2.994   3.745   2.398  0.9863  0.5136  2.6986
17049TIP3   OH272561   6.620   4.511  14.645  0.0592 -0.2994  0.3694
17049TIP3    H172562   6.640   4.417  14.650  0.8048 -0.1585  0.1017
17049TIP3    H272563   6.549   4.516  14.581 -0.9927 -0.8216  1.4580
17050TIP3   OH272564   1.991   1.586   2.178  0.3715  0.0682  0.8429
17050TIP3    H172565   2.054   1.515   2.165  0.9268  0.6975  0.0535
17050TIP3    H272566   2.027   1.637   2.250  0.7530  0.4067  0.4167
17051TIP3   OH272567   0.212   5.270   5.757 -0.0669  0.5304 -0.1501
17051TIP3    H172568   0.228   5.212   5.682  0.6609  1.6921 -0.9347
17051TIP3    H272569   0.295   5.316   5.770  0.4408 -0.9572  2.6246
17052TIP3   OH272570   2.883   5.406   3.958  0.1292  0.3902 -0.8836
17052TIP3    H172571   2.858   5.353   4.034 -0.7724  1.4415 -0.4265
17052TIP3    H272572   2.821   5.380   3.889  0.9968 -0.6205 -1.3060
17053TIP3   OH272573   5.506   3.965  17.038  0.3524 -0.0453 -0.0329
17053TIP3    H172574   5.485   3.993  16.949 -0.3172  0.2811  0.2204
17053TIP3    H272575   5.425   3.928  17.072  0.5849 -0.1193  0.4588
17054TIP3   OH272576   1.948   6.169  12.135 -0.0182  0.3148 -0.1020
17054TIP3    H172577   1.981   6.220  12.061 -1.1581  2.3038  0.6788
17054TIP3    H272578   1.856   6.152  12.113 -0.2284  0.4873  0.6114
17055TIP3   OH272579   0.417   6.195  17.228 -0.7445  0.3700 -0.0159
17055TIP3    H172580   0.452   6.114  17.192 -0.6198  0.3512  0.1431
17055TIP3    H272581   0.356   6.166  17.297  0.0669  0.4128  0.7456
17056TIP3   OH272582   2.485   1.371  14.650  0.4981 -0.4049  0.6713
17056TIP3    H172583   2.498   1.288  14.696  1.4034 -0.8916 -0.3993
17056TIP3    H272584   2.559   1.376  14.590 -0.6697  0.1579 -0.7715
17057TIP3   OH272585   3.207   4.983   5.486 -0.3081  0.0121  0.1104
17057TIP3    H172586   3.173   4.975   5.576 -0.7155  0.0473 -0.0364
17057TIP3    H272587   3.191   5.075   5.463 -0.7486 -0.1458 -0.2130
17058TIP3   OH272588   4.466   5.617   1.683 -1.0023 -0.3239  0.1063
17058TIP3    H172589   4.455   5.570   1.766  1.4011 -0.9478  0.1507
17058TIP3    H272590   4.500   5.552   1.622 -0.5009  0.6489 -0.6851
17059TIP3   OH272591   0.138   5.067  16.780 -0.1789 -0.1456 -0.5718
17059TIP3    H172592   0.127   5.134  16.713  1.0757  1.1981  0.5121
17059TIP3    H272593   0.084   4.994  16.749 -3.3420  2.0635 -0.7783
17060TIP3   OH272594   1.168   5.809   1.395  0.1350 -0.1265  0.1887
17060TIP3    H172595   1.134   5.889   1.355  0.4614 -0.0120  0.1384
17060TIP3    H272596   1.226   5.840   1.465 -0.8428 -0.3262  1.1075
17061TIP3   OH272597   4.025   3.161  13.926 -0.1563 -0.2372  0.2417
17061TIP3    H172598   4.020   3.066  13.922 -1.4383 -0.2079  0.6874
17061TIP3    H272599   4.016   3.189  13.835 -3.0086 -0.4789  0.3445
17062TIP3   OH272600   1.708   2.223   1.271  0.1497 -0.3650  0.1949
17062TIP3    H172601   1.708   2.274   1.352 -2.0939 -0.5621  0.3970
17062TIP3    H272602   1.765   2.149   1.289 -0.1006 -0.2650  1.5259
17063TIP3   OH272603   0.365   5.982  12.181 -0.1351 -0.3350 -0.2648
17063TIP3    H172604   0.426   6.049  12.214  0.7675 -0.3610 -1.7965
17063TIP3    H272605   0.385   5.904  12.233 -0.6868  0.3499  1.0331
17064TIP3   OH272606   6.388   2.222   6.050  0.4944  0.2760  0.4674
17064TIP3    H172607   6.455   2.286   6.024  1.4369 -1.3289 -1.2847
17064TIP3    H272608   6.381   2.233   6.145  1.8075  1.8456  0.4389
17065TIP3   OH272609   3.838   4.155  16.681  0.2148  0.2986 -0.2442
17065TIP3    H172610   3.900   4.081  16.683  0.7401  0.7396 -0.1507
17065TIP3    H272611   3.888   4.230  16.712 -0.6398  0.4756  0.7472
17066TIP3   OH272612   6.641   4.124   1.918 -0.3748  0.0330  0.0864
17066TIP3    H172613   6.719   4.079   1.951 -0.3637 -0.6070 -0.7967
17066TIP3    H272614   6.590   4.056   1.875 -2.2771  0.0694  2.0649
17067TIP3   OH272615   6.124   5.078   3.488  0.1049  0.1362  0.4921
17067TIP3    H172616   6.193   5.057   3.552 -0.2977  0.8893  1.1957
17067TIP3    H272617   6.067   5.139   3.535 -0.9465 -0.3538 -0.1444
17068TIP3   OH272618   5.648   0.154  11.884  0.6911  0.1883  0.6394
17068TIP3    H172619   5.658   0.241  11.922  3.2752  1.3377 -2.3063
17068TIP3    H272620   5.553   0.143  11.874  0.2996  2.6759  0.9902
17069TIP3   OH272621   2.629   2.889  15.691 -0.0445 -0.4546  0.2264
17069TIP3    H172622   2.604   2.805  15.652  1.9115  0.0966 -2.5098
17069TIP3    H272623   2.601   2.954  15.626  0.5057  0.8417  1.2478
17070TIP3   OH272624   2.887   3.150   3.675  0.2466 -0.2105 -0.6435
17070TIP3    H172625   2.859   3.163   3.766  2.1076 -0.0109 -0.0428
17070TIP3    H272626   2.847   3.068   3.649 -0.5520 -0.1236  0.2664
17071TIP3   OH272627   4.063   6.574   3.848  0.2150 -0.3309  0.0363
17071TIP3    H172628   4.149   6.548   3.816  1.1061  0.3393  1.7333
17071TIP3    H272629   4.081   6.623   3.929 -1.8089 -1.1242  1.0609
17072TIP3   OH272630   4.673   5.420  14.710  0.0190  0.3953  0.0648
17072TIP3    H172631   4.646   5.353  14.648  1.1369 -0.6732  0.6783
17072TIP3    H272632   4.767   5.432  14.692  0.1048  0.8767  0.7922
17073TIP3   OH272633   2.507   5.571  16.956  0.0621  0.1367  0.0194
17073TIP3    H172634   2.526   5.603  16.868  2.5063  0.6873  0.6560
17073TIP3    H272635   2.585   5.521  16.980 -1.1614 -1.2514  1.3525
17074TIP3   OH272636   4.289   2.776   4.257  0.3113  0.6933 -0.0881
17074TIP3    H172637   4.290   2.864   4.219  1.6486  0.0200 -1.7207
17074TIP3    H272638   4.376   2.766   4.297  0.7030 -0.3361 -1.1158
17075TIP3   OH272639   4.419   5.315  15.647 -0.7016 -0.6025  0.8477
17075TIP3    H172640   4.342   5.350  15.603  0.3486  2.5796  1.3353
17075TIP3    H272641   4.463   5.263  15.580 -1.5434  0.2907 -0.4535
17076TIP3   OH272642   2.793   3.228   3.351  0.5734 -0.1298  0.2679
17076TIP3    H172643   2.834   3.264   3.272 -2.2031 -0.7042 -1.5830
17076TIP3    H272644   2.804   3.134   3.344 -0.4634 -0.2461  0.0703
17077TIP3   OH272645   6.159   0.649  11.153 -0.0745 -0.2187 -0.1878
17077TIP3    H172646   6.179   0.586  11.083 -0.0819  0.3256 -0.6827
17077TIP3    H272647   6.064   0.659  11.148 -0.0127  0.2351 -0.4573
17078TIP3   OH272648   3.003   3.648  15.396  0.1870 -0.5059  0.5174
17078TIP3    H172649   3.032   3.663  15.486  0.7042 -1.5654  0.5435
17078TIP3    H272650   3.083   3.624  15.350 -0.2969 -1.3341  0.0913
17079TIP3   OH272651   2.775   0.962   4.281  0.1619 -0.0853  0.2257
17079TIP3    H172652   2.863   0.924   4.275 -0.0862 -0.6936  0.3779
17079TIP3    H272653   2.790   1.053   4.307  0.7031 -0.4629  1.2969
17080TIP3   OH272654   3.707   4.578  13.189 -0.1464  0.2576  0.4153
17080TIP3    H172655   3.649   4.574  13.265 -0.3853  0.9324  0.2776
17080TIP3    H272656   3.677   4.655  13.140 -0.9592 -0.9742 -1.1460
17081TIP3   OH272657   4.468   2.332   4.374 -0.0048  0.3727 -0.1366
17081TIP3    H172658   4.409   2.268   4.336 -0.1353  0.0504  0.6030
17081TIP3    H272659   4.504   2.289   4.452 -0.8582  1.5524  0.9428
17082TIP3   OH272660   5.614   1.149  15.082  0.4652  0.0753  0.3570
17082TIP3    H172661   5.651   1.219  15.028  0.1436 -0.1158 -0.1093
17082TIP3    H272662   5.521   1.171  15.089  0.3452 -0.3692  0.1203
17083TIP3   OH272663   2.427   6.162  11.844  0.4459 -0.1612  0.0358
17083TIP3    H172664   2.430   6.195  11.934 -0.1805  0.7353 -0.2672
17083TIP3    H272665   2.369   6.086  11.849  1.0876 -0.6259  0.5459
17084TIP3   OH272666   5.961   5.073  12.899  0.0286 -0.5647  0.2801
17084TIP3    H172667   6.016   5.112  12.967 -0.6421  1.1318 -0.1137
17084TIP3    H272668   6.021   5.057  12.826  0.0363  1.3454 -0.1803
17085TIP3   OH272669   4.879   4.506   0.952 -0.1380 -0.0208  0.3867
17085TIP3    H172670   4.908   4.496   0.861  0.7467  0.0123  0.6644
17085TIP3    H272671   4.892   4.419   0.991  1.6773  0.5258  1.0986
17086TIP3   OH272672   0.822   1.736   5.396  0.3133 -0.1266  0.0944
17086TIP3    H172673   0.738   1.752   5.439  0.8162 -1.3288  1.6075
17086TIP3    H272674   0.881   1.709   5.467  1.0124 -2.9092 -1.4078
17087TIP3   OH272675   6.039   2.815   5.286 -0.5264  0.1499 -0.3221
17087TIP3    H172676   6.115   2.871   5.273  0.1404 -0.5542  0.4157
17087TIP3    H272677   5.971   2.873   5.320  0.8934  0.1927  2.8480
17088TIP3   OH272678   1.346   1.165  15.663 -0.3901 -0.4039 -0.7041
17088TIP3    H172679   1.392   1.114  15.597  0.7495 -1.5877  0.9324
17088TIP3    H272680   1.415   1.209  15.712 -1.3054  2.5544 -1.8165
17089TIP3   OH272681   6.597   5.760  15.036  0.4729  0.0306 -0.5439
17089TIP3    H172682   6.596   5.853  15.012  1.3865 -0.2306 -1.6856
17089TIP3    H272683   6.681   5.747  15.080  0.0528 -0.1186  0.2244
17090TIP3   OH272684   5.011   4.308   1.942  0.2757 -0.0851  0.2699
17090TIP3    H172685   4.916   4.293   1.937  0.3323 -0.3865  0.0490
17090TIP3    H272686   5.048   4.243   1.882  0.6706 -0.4954  0.9420
17091TIP3   OH272687   5.500   2.022   2.751 -0.3191  0.1496  0.2728
17091TIP3    H172688   5.418   1.984   2.782 -1.3233  0.6906 -1.5943
17091TIP3    H272689   5.499   2.112   2.783 -1.1629  0.5881 -0.9416
17092TIP3   OH272690   5.600   4.273   6.117  0.3627 -0.6044  0.2029
17092TIP3    H172691   5.574   4.290   6.208  2.0381 -0.0890  0.6188
17092TIP3    H272692   5.594   4.178   6.108 -0.0956 -0.6348  0.7530
17093TIP3   OH272693   0.997   6.286  11.294 -0.4225  0.1887  0.2198
17093TIP3    H172694   0.973   6.224  11.363 -0.9490  0.4532  0.2800
17093TIP3    H272695   1.023   6.231  11.220 -0.8970 -0.1031  0.2691
17094TIP3   OH272696   4.856   4.040   4.689  0.4348 -0.0402  0.2387
17094TIP3    H172697   4.919   4.064   4.757  0.9049 -0.3237 -0.0968
17094TIP3    H272698   4.885   3.955   4.658 -1.8116 -1.6224  2.1529
17095TIP3   OH272699   4.507   1.228   3.026 -0.3723  0.1623  0.1292
17095TIP3    H172700   4.487   1.256   2.937 -0.4370 -0.1037  0.0592
17095TIP3    H272701   4.458   1.146   3.037 -0.0371 -0.0228  0.2676
17096TIP3   OH272702   3.836   1.937   5.565 -0.1690  0.2870  0.2563
17096TIP3    H172703   3.821   1.929   5.471  0.9908  0.5758  0.0328
17096TIP3    H272704   3.758   1.982   5.597 -0.2708  0.8108 -0.6813
17097TIP3   OH272705   2.145   2.442  16.462  0.1654 -0.6621  0.2346
17097TIP3    H172706   2.160   2.352  16.490 -0.0497 -0.2284  1.8735
17097TIP3    H272707   2.194   2.451  16.381 -1.7235 -2.9271 -1.2921
17098TIP3   OH272708   4.282   0.225   4.751  0.5594  0.3595 -0.9208
17098TIP3    H172709   4.304   0.282   4.826  2.3103  0.5067 -1.4919
17098TIP3    H272710   4.195   0.191   4.771  0.7982  0.7510  0.9728
17099TIP3   OH272711   1.273   0.864   4.744  0.1300 -0.4089 -0.2678
17099TIP3    H172712   1.254   0.947   4.699 -1.3540 -0.6296 -0.0866
17099TIP3    H272713   1.365   0.870   4.767  0.4419  0.5372 -1.6292
17100TIP3   OH272714   0.149   4.469   0.008  0.7209  0.2718  0.4700
17100TIP3    H172715   0.193   4.435  -0.070 -0.4931 -0.1582 -0.0505
17100TIP3    H272716   0.076   4.520  -0.026 -0.5449 -0.9122  1.3004
17101TIP3   OH272717   3.915   3.376   4.996 -0.5902 -0.1867 -0.5728
17101TIP3    H172718   3.982   3.443   5.004  1.7093 -2.3716 -0.3839
17101TIP3    H272719   3.895   3.373   4.902 -0.6873  0.7022 -0.5881
17102TIP3   OH272720   2.329   0.727  12.469 -0.5474 -1.4906  0.0160
17102TIP3    H172721   2.386   0.780  12.414 -0.3070 -1.9284 -0.1638
17102TIP3    H272722   2.340   0.763  12.557 -0.5784 -1.0857 -0.1415
17103TIP3   OH272723   0.472   4.005  13.487 -0.2244  0.1037  0.1265
17103TIP3    H172724   0.428   3.985  13.569  2.9964 -3.0094  1.3714
17103TIP3    H272725   0.563   4.023  13.512  1.2233 -2.3083 -2.7143
17104TIP3   OH272726   1.657   6.286   4.854  0.1012  0.3968  0.5545
17104TIP3    H172727   1.660   6.245   4.940 -1.0522  1.1623  0.9846
17104TIP3    H272728   1.692   6.374   4.867  1.2559  0.0451 -0.0663
17105TIP3   OH272729   0.122   1.684   3.155 -0.5855 -0.5795 -0.1139
17105TIP3    H172730   0.044   1.648   3.113  0.1851 -2.4451 -0.0351
17105TIP3    H272731   0.170   1.726   3.083 -1.4341  0.1932 -0.2412
17106TIP3   OH272732   1.814   2.108  15.987  0.8979  0.5033  0.0432
17106TIP3    H172733   1.896   2.123  15.940 -0.1016  0.0688 -1.9498
17106TIP3    H272734   1.755   2.177  15.956  0.3137  0.4181  0.9342
17107TIP3   OH272735   2.433   3.347  13.273  0.5241 -0.6466 -0.1564
17107TIP3    H172736   2.389   3.348  13.358 -0.4514 -1.1813 -0.6467
17107TIP3    H272737   2.521   3.314  13.292  0.4880 -0.2584  0.7220
17108TIP3   OH272738   0.082   5.081  14.889  0.3364  0.0696  0.2890
17108TIP3    H172739  -0.004   5.040  14.893  0.2437  0.0394 -1.3675
17108TIP3    H272740   0.065   5.174  14.901  0.1502 -0.0031  0.5927
17109TIP3   OH272741   5.547   5.930  16.856 -0.6231  0.9116  0.1019
17109TIP3    H172742   5.483   5.860  16.842  0.4015  0.2026 -1.3055
17109TIP3    H272743   5.624   5.885  16.893 -0.5207  1.5615  0.6972
17110TIP3   OH272744   3.642   2.663   0.519  0.0470  0.1162  0.1201
17110TIP3    H172745   3.703   2.697   0.585  0.4024 -0.3582  0.0460
17110TIP3    H272746   3.652   2.721   0.444  2.3908 -1.4133 -0.9050
17111TIP3   OH272747   0.992   2.953  13.246  0.4923  0.2420 -0.6312
17111TIP3    H172748   0.964   3.034  13.204 -1.2265 -1.0884 -2.2524
17111TIP3    H272749   1.085   2.947  13.228  0.5696  1.6312 -0.8220
17112TIP3   OH272750   0.962   0.277   1.084 -0.3659 -0.6230  0.3036
17112TIP3    H172751   0.868   0.262   1.079 -0.6289  0.1895  2.1168
17112TIP3    H272752   1.000   0.204   1.035 -1.8515 -2.5356  1.8266
17113TIP3   OH272753   2.896   2.639  11.393 -0.0671  0.3442 -0.2050
17113TIP3    H172754   2.836   2.633  11.467 -1.2046  0.3141 -1.1109
17113TIP3    H272755   2.971   2.687  11.428 -1.3436  1.9351  0.4967
17114TIP3   OH272756   5.719   3.786   2.408  0.2447  0.3140  0.1117
17114TIP3    H172757   5.802   3.776   2.362  1.0029  0.0256  1.5110
17114TIP3    H272758   5.716   3.878   2.432  0.3477  0.2382  0.4143
17115TIP3   OH272759   5.129   4.830   4.249  0.0563 -0.3474 -0.1860
17115TIP3    H172760   5.181   4.904   4.282 -0.1234 -0.2984 -0.0102
17115TIP3    H272761   5.038   4.858   4.260 -0.0025 -0.2535 -0.9173
17116TIP3   OH272762   3.390   1.119   3.136 -0.1239  0.0460  0.3033
17116TIP3    H172763   3.382   1.207   3.100 -1.8386 -0.3680 -0.4095
17116TIP3    H272764   3.394   1.131   3.231  0.1100  0.9080  0.1898
17117TIP3   OH272765   1.235   4.065  11.229  0.3328  0.0372 -0.7689
17117TIP3    H172766   1.213   4.158  11.224  0.2140  0.1860  1.4400
17117TIP3    H272767   1.276   4.055  11.315  2.2429 -1.5917 -1.7729
17118TIP3   OH272768   0.127   3.318   3.568 -0.3670 -0.3091  0.1000
17118TIP3    H172769   0.053   3.262   3.595 -0.8132  0.7993  1.2743
17118TIP3    H272770   0.150   3.366   3.648  1.2283 -0.1766 -0.4206
17119TIP3   OH272771   1.543   3.379   3.831  0.7291 -0.5392  0.4728
17119TIP3    H172772   1.503   3.437   3.896 -1.5577 -0.6689 -0.6991
17119TIP3    H272773   1.606   3.327   3.880  0.9267  1.1001  2.0666
17120TIP3   OH272774   3.979   3.013   4.881 -0.0122 -0.0552  0.1200
17120TIP3    H172775   3.883   3.006   4.875  0.0141  0.8018 -2.7741
17120TIP3    H272776   4.005   3.050   4.797  2.9427 -0.7935  0.6164
17121TIP3   OH272777   5.284   4.623   0.199 -0.1141 -0.2425 -0.5469
17121TIP3    H172778   5.301   4.706   0.153  0.0209 -0.5369 -1.0431
17121TIP3    H272779   5.363   4.609   0.251 -0.4104  0.2687  0.0624
17122TIP3   OH272780   2.244   5.854  13.262 -0.0404 -0.0618 -0.7528
17122TIP3    H172781   2.221   5.786  13.199 -0.5490  0.4234 -1.1028
17122TIP3    H272782   2.282   5.924  13.208 -1.7043  0.9207 -0.7129
17123TIP3   OH272783   6.466   2.422   4.392  0.5791 -0.8145 -0.5321
17123TIP3    H172784   6.407   2.429   4.317  0.8559 -3.4706 -1.1062
17123TIP3    H272785   6.427   2.355   4.448  1.1554  0.0632  0.9847
17124TIP3   OH272786   6.585   4.421   5.523 -0.6973  0.0260 -0.4073
17124TIP3    H172787   6.556   4.462   5.605 -0.6358 -2.2753  0.8427
17124TIP3    H272788   6.652   4.481   5.489  0.5772  0.2197  2.1535
17125TIP3   OH272789   5.142   4.146   4.581 -0.0873  0.0611  0.1732
17125TIP3    H172790   5.109   4.170   4.495  0.8535  1.2558  0.1108
17125TIP3    H272791   5.208   4.079   4.564  0.0113  0.2096 -0.0256
17126TIP3   OH272792   1.243   6.520  13.399  0.5003  0.2301  0.0465
17126TIP3    H172793   1.326   6.532  13.444  0.6632  1.5836 -0.5541
17126TIP3    H272794   1.241   6.427  13.375  1.3849 -0.0231  0.9193
17127TIP3   OH272795   5.615   0.063   4.859 -0.1733 -0.3087  0.1738
17127TIP3    H172796   5.705   0.065   4.891  0.4181 -1.3141 -1.3541
17127TIP3    H272797   5.609  -0.016   4.806 -1.3179  0.8472 -1.5387
17128TIP3   OH272798   4.856   2.899  11.595  0.2407 -0.0901  0.0036
17128TIP3    H172799   4.931   2.839  11.589  0.9763  0.9104 -1.5785
17128TIP3    H272800   4.806   2.867  11.670  2.4703 -0.5498  1.4048
17129TIP3   OH272801   1.406   0.109   5.852  0.4109 -0.1686  0.3483
17129TIP3    H172802   1.389   0.015   5.856 -0.5017 -0.0576 -0.5537
17129TIP3    H272803   1.335   0.149   5.902  0.3984  0.0861  0.1272
17130TIP3   OH272804   5.273   5.819   2.266  0.3665 -0.3353 -0.6758
17130TIP3    H172805   5.245   5.758   2.334  0.1570  0.6592  0.1732
17130TIP3    H272806   5.352   5.860   2.303  0.8944 -0.5625 -1.5172
17131TIP3   OH272807   3.889   4.604   5.858  0.6020  0.1269  0.6317
17131TIP3    H172808   3.915   4.585   5.949  0.1220  0.5634  0.8683
17131TIP3    H272809   3.881   4.518   5.817  1.1979 -0.0594  0.8955
17132TIP3   OH272810   1.257   3.854   5.373  0.3710  0.0856  0.2328
17132TIP3    H172811   1.300   3.818   5.295  0.5289  0.5523  0.0966
17132TIP3    H272812   1.320   3.838   5.444  0.3078 -0.1750  0.2307
17133TIP3   OH272813   5.031   3.933  12.189  0.3100  0.1279  0.1133
17133TIP3    H172814   5.069   3.889  12.113  0.7153 -0.2954  0.5560
17133TIP3    H272815   4.957   3.982  12.154  1.5149  1.3208 -0.8420
17134TIP3   OH272816   2.301   0.915   0.170  0.0203  0.5977 -0.2470
17134TIP3    H172817   2.286   0.965   0.090 -0.6576  0.4375 -0.2283
17134TIP3    H272818   2.229   0.940   0.228 -0.7377 -0.8694 -0.4824
17135TIP3   OH272819   4.654   3.846   3.201  0.9551 -0.0758 -0.2134
17135TIP3    H172820   4.592   3.835   3.129  1.9201  0.9589 -1.2511
17135TIP3    H272821   4.697   3.930   3.183  3.2144 -1.1153  0.0080
17136TIP3   OH272822   0.976   2.658  13.736 -0.0384  0.0424  0.2215
17136TIP3    H172823   1.068   2.633  13.729  0.3803  1.3330  0.8345
17136TIP3    H272824   0.928   2.582  13.705  1.2516 -0.4712 -0.5875
17137TIP3   OH272825   2.636   4.744   5.055 -0.1994  0.2384  0.3076
17137TIP3    H172826   2.550   4.783   5.042 -0.6871 -0.7503  0.4909
17137TIP3    H272827   2.620   4.650   5.056  0.7656  0.0620  1.1739
17138TIP3   OH272828   4.611   3.808   3.526 -0.0558  0.3659 -0.6139
17138TIP3    H172829   4.668   3.801   3.450 -0.3719  1.4470 -0.9725
17138TIP3    H272830   4.669   3.796   3.601  0.1523 -1.3743 -1.0152
17139TIP3   OH272831   0.769   4.653   2.072  0.1997 -0.2825 -0.6473
17139TIP3    H172832   0.794   4.560   2.080 -0.5109 -0.6766 -2.6025
17139TIP3    H272833   0.777   4.673   1.979  0.5475  1.7093 -0.2315
17140TIP3   OH272834   0.455   3.246   2.544 -0.2308  0.2416 -0.5480
17140TIP3    H172835   0.501   3.253   2.460 -1.6898 -1.1884 -1.5415
17140TIP3    H272836   0.516   3.202   2.602  0.2827 -0.0974 -1.3283
17141TIP3   OH272837   3.777   1.032   2.706 -0.0967  0.4246  0.1025
17141TIP3    H172838   3.809   1.000   2.622  0.8446  0.5300  0.4041
17141TIP3    H272839   3.783   0.956   2.765 -0.3801  0.4526  0.1670
17142TIP3   OH272840   6.137   3.994  13.046 -0.0248  0.2211 -0.5105
17142TIP3    H172841   6.168   3.945  12.970 -0.1777 -0.4808 -0.1245
17142TIP3    H272842   6.159   3.940  13.121 -2.1778 -0.3299 -0.2159
17143TIP3   OH272843   3.390   5.699  16.574  0.1729  0.6064 -0.4641
17143TIP3    H172844   3.374   5.728  16.484 -1.3675  2.0319  0.2179
17143TIP3    H272845   3.436   5.773  16.615 -0.0605  0.3987  0.1825
17144TIP3   OH272846   0.980   3.760   3.355  0.2684  0.2220 -0.1549
17144TIP3    H172847   1.027   3.729   3.432  0.4330 -1.2774 -0.8328
17144TIP3    H272848   1.031   3.836   3.325  0.6347  0.3407  0.7548
17145TIP3   OH272849   5.723   2.582  11.722 -0.3718  0.2642  0.0517
17145TIP3    H172850   5.706   2.488  11.719  0.4986  0.1136 -0.7283
17145TIP3    H272851   5.659   2.616  11.783 -1.1956 -0.7375 -0.2232
17146TIP3   OH272852   4.872   1.441  14.715  0.3572  0.7742  0.2707
17146TIP3    H172853   4.867   1.351  14.684  1.0665  0.8078  0.0559
17146TIP3    H272854   4.908   1.490  14.641  0.3846  1.1591  0.5352
17147TIP3   OH272855   1.999   3.459   6.398 -0.4756  0.3896 -0.2250
17147TIP3    H172856   1.941   3.404   6.345 -1.1562  0.4208  0.4616
17147TIP3    H272857   2.045   3.397   6.456  2.3336  0.0187 -2.6297
17148TIP3   OH272858   1.977   2.976   0.997  0.4957  0.1125  0.5330
17148TIP3    H172859   2.063   2.951   0.963  1.1560  2.6456  0.1432
17148TIP3    H272860   1.976   3.071   0.989 -2.0268  0.1970  1.3514
17149TIP3   OH272861   0.924   6.110  12.853 -0.1955  0.3126 -0.7753
17149TIP3    H172862   0.830   6.121  12.864 -0.1931  0.3478 -0.7878
17149TIP3    H272863   0.941   6.018  12.873 -0.2667  0.2485 -0.9999
17150TIP3   OH272864   3.829   4.905   5.293 -0.5382 -0.3466 -0.3250
17150TIP3    H172865   3.772   4.980   5.280  0.5999  0.8226  1.0499
17150TIP3    H272866   3.918   4.939   5.282  0.3313 -0.3202  4.3902
17151TIP3   OH272867   0.780   5.776  11.462 -0.0162  0.0832  0.0492
17151TIP3    H172868   0.835   5.775  11.541  0.6625 -0.1475 -0.4176
17151TIP3    H272869   0.696   5.741  11.491 -0.4856  1.9782  1.1690
17152TIP3   OH272870   0.637   5.858   3.797 -0.5960  0.1567 -0.5350
17152TIP3    H172871   0.594   5.926   3.745  0.7549  0.3855 -1.4116
17152TIP3    H272872   0.726   5.890   3.808 -0.2825 -0.9030  0.1212
17153TIP3   OH272873   2.355   5.458  11.837  0.1012  0.0964 -0.2631
17153TIP3    H172874   2.402   5.529  11.880 -0.6818  1.5481 -1.7045
17153TIP3    H272875   2.333   5.492  11.750 -0.8578 -1.6788 -0.7762
17154TIP3   OH272876   4.649   3.088   4.114 -0.3954  0.6012  0.6425
17154TIP3    H172877   4.651   3.157   4.181  1.4797  1.3124 -0.0867
17154TIP3    H272878   4.734   3.044   4.122 -0.8669 -0.4961 -0.0807
17155TIP3   OH272879   1.333   2.301  12.389 -0.0654 -0.0908  0.5048
17155TIP3    H172880   1.334   2.396  12.394  1.1925  0.0144 -0.8813
17155TIP3    H272881   1.274   2.281  12.316  1.9660 -0.1609 -1.2234
17156TIP3   OH272882   4.283   0.942  12.814 -0.3450  0.4142 -0.3357
17156TIP3    H172883   4.296   0.850  12.792 -1.4022  0.4773 -1.3299
17156TIP3    H272884   4.328   0.954  12.897  2.9765 -0.1311 -1.8764
17157TIP3   OH272885   0.353   5.665   3.101  0.2148 -0.6912  0.5634
17157TIP3    H172886   0.327   5.612   3.176 -2.4818 -1.1315 -0.5858
17157TIP3    H272887   0.397   5.604   3.042 -0.8890 -1.1838  0.2299
17158TIP3   OH272888   2.249   6.614   5.791  0.2744  0.1878 -0.3387
17158TIP3    H172889   2.213   6.700   5.771  0.2845  0.4352  0.7031
17158TIP3    H272890   2.179   6.553   5.764 -0.1667  0.5749 -0.0833
17159TIP3   OH272891   2.436   3.882   5.514  0.8481  0.1799  0.0047
17159TIP3    H172892   2.473   3.919   5.594  1.4810  0.8344 -0.5713
17159TIP3    H272893   2.501   3.902   5.447  0.7306 -1.1185 -0.5194
17160TIP3   OH272894   5.202   5.421   2.858  0.0193  0.0323 -0.0602
17160TIP3    H172895   5.198   5.478   2.935  0.2797 -0.8207  0.5883
17160TIP3    H272896   5.113   5.422   2.822 -0.3115 -0.2502  0.7449
17161TIP3   OH272897   6.734   6.441   0.142 -0.0733  0.3819  0.3797
17161TIP3    H172898   6.756   6.406   0.056 -1.3217 -2.6414  1.1271
17161TIP3    H272899   6.816   6.478   0.175  0.1773  2.6028 -2.4381
17162TIP3   OH272900   1.679   5.262  14.056  0.0131 -0.4024 -0.0455
17162TIP3    H172901   1.676   5.331  13.990  0.6642  0.4867  0.8301
17162TIP3    H272902   1.761   5.277  14.103 -1.0068 -0.2396  1.7641
17163TIP3   OH272903   6.114   3.134   3.670 -0.2630 -0.4374 -0.6001
17163TIP3    H172904   6.035   3.084   3.691 -0.2174  0.0597  0.9543
17163TIP3    H272905   6.081   3.221   3.646 -0.2497 -0.6757 -1.5173
17164TIP3   OH272906   5.953   5.619   6.693  0.0471 -0.8038  0.3968
17164TIP3    H172907   5.886   5.569   6.647  0.4277 -0.2836 -0.7751
17164TIP3    H272908   5.906   5.661   6.766 -0.7387 -1.0508  0.0433
17165TIP3   OH272909   5.127   6.705   2.166 -0.0450 -0.6053 -1.2545
17165TIP3    H172910   5.050   6.681   2.113 -0.5358 -0.7075 -0.5092
17165TIP3    H272911   5.183   6.628   2.162 -0.2409 -0.7466 -1.3318
17166TIP3   OH272912   1.734   4.677  16.555 -0.6153  1.2805 -0.4237
17166TIP3    H172913   1.826   4.702  16.544 -0.2869  0.0274 -0.5962
17166TIP3    H272914   1.696   4.687  16.468 -0.6608  1.8281 -0.3474
17167TIP3   OH272915   4.305   4.223  11.655  0.5520  0.1479 -0.3481
17167TIP3    H172916   4.261   4.288  11.602  0.1892 -0.0864 -0.3376
17167TIP3    H272917   4.294   4.252  11.745  3.6997  2.1760 -0.4487
17168TIP3   OH272918   5.827   2.031   4.450 -0.4855 -0.0818  0.0813
17168TIP3    H172919   5.890   2.034   4.378 -0.5649  1.0152  0.0397
17168TIP3    H272920   5.858   2.097   4.511 -2.5256  1.7573 -0.7345
17169TIP3   OH272921   3.294   1.088  11.759  0.4177  0.3927  0.6951
17169TIP3    H172922   3.339   1.131  11.831 -2.3501  1.5938  1.8106
17169TIP3    H272923   3.221   1.146  11.738  0.1657 -0.7555 -1.9896
17170TIP3   OH272924   1.723   3.178  12.874  0.6164 -0.5611 -0.2870
17170TIP3    H172925   1.656   3.117  12.844  1.8505 -0.7338 -3.0309
17170TIP3    H272926   1.689   3.215  12.955 -2.3061 -1.3721 -1.0572
17171TIP3   OH272927   1.067   0.766  16.792  0.6714 -0.4542 -0.1923
17171TIP3    H172928   1.060   0.771  16.697 -0.2169 -0.8294 -0.1549
17171TIP3    H272929   1.027   0.847  16.824 -0.9144 -1.2353 -0.0847
17172TIP3   OH272930   5.952   3.182  12.903  0.4390  0.1899 -0.0246
17172TIP3    H172931   5.969   3.227  12.985 -0.0757  1.6041 -0.6537
17172TIP3    H272932   5.962   3.250  12.836 -2.4000 -0.0584 -0.8587
17173TIP3   OH272933   4.689   6.211   0.298  0.1135  0.1918 -0.1676
17173TIP3    H172934   4.695   6.258   0.215  0.5491 -2.8285 -1.9856
17173TIP3    H272935   4.776   6.219   0.337  0.4807  0.0631 -0.9425
17174TIP3   OH272936   3.454   1.171  15.227  0.5598 -0.0869 -0.0184
17174TIP3    H172937   3.435   1.230  15.300 -2.1418 -1.3709  0.4750
17174TIP3    H272938   3.513   1.105  15.264  2.4518  1.4585 -0.1827
17175TIP3   OH272939   0.313   5.084   0.655 -0.3397  0.3853 -0.3411
17175TIP3    H172940   0.346   5.172   0.672 -2.2875  1.3916 -1.3721
17175TIP3    H272941   0.287   5.085   0.563 -0.9050 -1.1026 -0.2365
17176TIP3   OH272942   1.903   3.570   1.906 -0.3145 -0.6912 -0.2867
17176TIP3    H172943   1.854   3.509   1.961  1.2337 -0.0136  2.0473
17176TIP3    H272944   1.842   3.641   1.888 -0.9209 -0.9954  0.5201
17177TIP3   OH272945   0.106   4.787   0.110 -0.0587 -0.4261  0.6981
17177TIP3    H172946   0.106   4.815   0.018 -1.0057 -0.6654  0.6145
17177TIP3    H272947   0.189   4.741   0.120 -0.2727 -1.0628 -0.2608
17178TIP3   OH272948   5.312   1.643   0.899 -0.2942 -0.0267 -0.2143
17178TIP3    H172949   5.385   1.673   0.954 -0.0920  0.2422 -0.6222
17178TIP3    H272950   5.337   1.670   0.810 -1.1886  0.6531 -0.2672
17179TIP3   OH272951   5.108   3.760   3.443  0.0338  0.2288  0.6146
17179TIP3    H172952   5.171   3.832   3.433 -0.9169  0.9930 -0.0809
17179TIP3    H272953   5.025   3.803   3.459 -0.8428 -0.6267 -1.2974
17180TIP3   OH272954   3.097   5.053   0.533 -0.3985 -0.0790  0.1434
17180TIP3    H172955   3.062   5.030   0.620  0.3363  0.2094  0.5243
17180TIP3    H272956   3.086   4.974   0.481 -1.5410 -0.0250  0.2690
17181TIP3   OH272957   2.738   5.223   5.390  0.2771  0.2461  0.1003
17181TIP3    H172958   2.811   5.279   5.416  0.6436 -0.0193 -0.3512
17181TIP3    H272959   2.696   5.199   5.473  1.2320 -0.3149  0.4364
17182TIP3   OH272960   2.094   2.981  14.202  0.3325 -0.3711 -0.1659
17182TIP3    H172961   2.000   2.973  14.215 -0.2057  1.9714 -1.9036
17182TIP3    H272962   2.112   2.931  14.122  1.0103 -2.5636  1.2766
17183TIP3   OH272963   0.701   4.237   2.813  0.2155  0.1192 -0.4311
17183TIP3    H172964   0.724   4.227   2.720 -0.2933  0.5484 -0.6080
17183TIP3    H272965   0.621   4.290   2.812 -1.1878 -1.9046  0.1294
17184TIP3   OH272966   4.066   2.266   4.440  0.3427  0.3626 -0.7650
17184TIP3    H172967   4.115   2.243   4.361 -1.8791 -1.9302 -1.6131
17184TIP3    H272968   3.994   2.322   4.409  0.3413  0.7494 -0.1004
17185TIP3   OH272969   2.110   0.471   3.858  0.0743 -0.2784  0.6802
17185TIP3    H172970   2.142   0.402   3.799 -0.7143 -1.4747  1.5994
17185TIP3    H272971   2.115   0.551   3.806 -0.5281 -1.2792 -1.0062
17186TIP3   OH272972   4.239   0.814  12.397  0.1546 -0.0389  0.4665
17186TIP3    H172973   4.146   0.836  12.401  0.6425  2.0834  1.4817
17186TIP3    H272974   4.240   0.723  12.368 -2.2430 -0.2655  0.8365
17187TIP3   OH272975   3.421   6.042  15.992 -0.0862  0.3220  0.5825
17187TIP3    H172976   3.473   6.120  15.971  0.7089 -0.5197 -0.6365
17187TIP3    H272977   3.483   5.982  16.033 -0.3814 -0.2145  0.2458
17188TIP3   OH272978   5.858   1.161  12.188 -0.4255  0.2619  0.1050
17188TIP3    H172979   5.846   1.066  12.189 -0.2074  0.2321 -0.1016
17188TIP3    H272980   5.953   1.173  12.186 -0.3966  0.5009  1.7515
17189TIP3   OH272981   5.965   0.719   1.370  0.6774  0.4877  0.1053
17189TIP3    H172982   5.947   0.784   1.302  0.0400 -1.4541 -1.6618
17189TIP3    H272983   5.932   0.637   1.335  3.5202 -1.2966  1.2117
17190TIP3   OH272984   1.015   1.852   1.126  0.1703 -0.0324  0.0745
17190TIP3    H172985   1.106   1.842   1.155  0.2173 -1.0096 -0.3823
17190TIP3    H272986   0.963   1.822   1.201  0.2578 -0.7783 -0.1555
17191TIP3   OH272987   3.618   0.575   2.096 -0.2772  0.5759 -0.0280
17191TIP3    H172988   3.610   0.577   2.001 -0.5998  0.4119 -0.0021
17191TIP3    H272989   3.605   0.666   2.123 -1.7202  0.3766 -0.0115
17192TIP3   OH272990   5.776   2.876   6.705 -0.3431  0.3812 -0.2655
17192TIP3    H172991   5.714   2.824   6.653  0.3260  0.1275 -0.8260
17192TIP3    H272992   5.848   2.816   6.723  0.1052  0.9037 -0.3089
17193TIP3   OH272993   0.783   2.605  11.591  0.3570 -0.1362  0.0005
17193TIP3    H172994   0.810   2.587  11.681  2.0693 -2.2993 -0.8292
17193TIP3    H272995   0.724   2.533  11.569  1.8298 -1.0426 -1.2643
17194TIP3   OH272996   6.550   1.660   3.460 -0.2372 -0.1511 -0.2577
17194TIP3    H172997   6.514   1.738   3.418  1.9490  0.4944 -1.0353
17194TIP3    H272998   6.540   1.590   3.395  0.4883  0.1869 -0.7499
17195TIP3   OH272999   5.109   3.200  16.280  0.0408 -0.0475  0.0919
17195TIP3    H173000   5.046   3.200  16.208  0.6946 -1.8086 -0.5346
17195TIP3    H273001   5.083   3.127  16.335  0.3408  0.4641  0.9318
17196TIP3   OH273002   5.469   1.089  16.855  0.3978  0.3023  0.2975
17196TIP3    H173003   5.492   1.181  16.839  1.9758 -0.0657  0.3131
17196TIP3    H273004   5.547   1.052  16.896 -1.0048 -0.5239  2.3591
17197TIP3   OH273005   1.477   3.419  15.433 -0.1308 -0.1382  0.2735
17197TIP3    H173006   1.461   3.510  15.459  0.9646  0.2684 -0.4174
17197TIP3    H273007   1.459   3.368  15.512  1.2322  0.8731  1.2774
17198TIP3   OH273008   1.771   1.319  14.344  0.2861 -0.2261  0.7648
17198TIP3    H173009   1.713   1.370  14.401  0.9445  1.3971  0.0570
17198TIP3    H273010   1.827   1.270  14.404 -0.2171  0.0742  1.4896
17199TIP3   OH273011   1.415   0.221  12.614 -0.1265  0.1602  0.2100
17199TIP3    H173012   1.464   0.149  12.573 -0.7023 -0.9934  1.4791
17199TIP3    H273013   1.482   0.272  12.660  0.2035  0.1025 -0.1977
17200TIP3   OH273014   0.845   3.767  10.408  0.4292 -0.7595  0.0294
17200TIP3    H173015   0.781   3.786  10.338 -2.0624  0.7388  2.5126
17200TIP3    H273016   0.867   3.674  10.395 -2.4688 -1.4432 -0.8728
17201TIP3   OH273017   5.641   5.440   5.672  0.3423 -0.1868 -0.1173
17201TIP3    H173018   5.701   5.451   5.599 -0.7527  1.7628 -0.7933
17201TIP3    H273019   5.691   5.468   5.749  0.7893 -0.0468 -0.4589
17202TIP3   OH273020   4.684   2.271   2.820 -0.3064 -0.0164 -0.1487
17202TIP3    H173021   4.651   2.307   2.902  0.7462  1.7191 -0.4284
17202TIP3    H273022   4.775   2.300   2.816  0.3182 -1.9440 -0.9040
17203TIP3   OH273023   3.539   1.883   2.968 -0.0547 -0.0178 -0.3789
17203TIP3    H173024   3.488   1.823   2.914 -0.3354 -0.1518  0.0329
17203TIP3    H273025   3.593   1.827   3.023  1.0194  0.1227 -1.2498
17204TIP3   OH273026   2.790   1.093   1.171 -0.9330  0.1261  0.0407
17204TIP3    H173027   2.853   1.042   1.120  0.8205 -1.3652  3.3582
17204TIP3    H273028   2.742   1.144   1.106  2.7591  0.3219 -2.8565
17205TIP3   OH273029   5.929   4.325   3.018 -0.5105 -0.2688  0.2516
17205TIP3    H173030   5.905   4.377   2.941  1.0213 -1.1443 -0.8743
17205TIP3    H273031   5.979   4.251   2.983  2.4290  0.5899  2.2412
17206TIP3   OH273032   1.046   5.081   1.365 -0.0436  0.4514 -0.7557
17206TIP3    H173033   1.109   5.153   1.360  1.0151 -0.4730 -0.9597
17206TIP3    H273034   1.098   5.002   1.350 -1.3329 -0.2977 -1.4116
17207TIP3   OH273035   2.560   0.440  12.911 -0.1417  0.1306 -0.3745
17207TIP3    H173036   2.499   0.368  12.926  0.0524  0.0359 -0.0390
17207TIP3    H273037   2.550   0.461  12.818  0.5009 -0.9669 -0.7123
17208TIP3   OH273038   1.050   1.345   5.604 -0.2560 -0.0903 -0.4065
17208TIP3    H173039   0.970   1.295   5.585 -0.9629  0.7331  0.2864
17208TIP3    H273040   1.051   1.414   5.537 -0.2620  0.0444 -0.2683
17209TIP3   OH273041   4.439   3.681  12.343 -0.8189  0.5777  0.9230
17209TIP3    H173042   4.529   3.702  12.365  0.3296 -0.7875 -1.8775
17209TIP3    H273043   4.405   3.761  12.303  0.1624  0.2976 -0.5694
17210TIP3   OH273044   0.424   4.816  11.575  0.4953 -0.6955 -0.4970
17210TIP3    H173045   0.462   4.807  11.663 -0.7892 -0.8557  0.0740
17210TIP3    H273046   0.342   4.767  11.580 -1.6488  2.5596 -0.4819
17211TIP3   OH273047   5.011   5.722  16.185 -0.3814 -0.5069 -0.2757
17211TIP3    H173048   4.957   5.788  16.141 -0.7345 -0.0362  0.8390
17211TIP3    H273049   5.008   5.646  16.127 -1.5353 -0.1977 -0.6382
17212TIP3   OH273050   2.515   5.479   5.333 -0.4549  0.1467  0.4701
17212TIP3    H173051   2.504   5.386   5.315 -1.0816 -0.0596  1.7766
17212TIP3    H273052   2.442   5.521   5.288 -0.9405 -0.1478  0.9704
17213TIP3   OH273053   4.865   5.037  12.987  0.1894 -0.0093  0.1585
17213TIP3    H173054   4.955   5.065  13.005  0.1412 -0.5470  1.3440
17213TIP3    H273055   4.812   5.113  13.010  0.0626 -0.9034  3.3493
17214TIP3   OH273056   3.884   2.523  13.541 -0.3647 -0.1796  0.1905
17214TIP3    H173057   3.964   2.497  13.495  0.7854 -0.0130  2.0173
17214TIP3    H273058   3.834   2.442  13.550  0.1895 -0.5307  0.1680
17215TIP3   OH273059   1.012   2.159   1.053 -0.5419 -0.4227  0.0083
17215TIP3    H173060   1.061   2.179   1.133 -1.8292  0.0807  0.7132
17215TIP3    H273061   0.994   2.065   1.060 -0.9346 -0.3163  0.4886
17216TIP3   OH273062   0.985   1.912  15.564 -0.0794  0.1522  0.1908
17216TIP3    H173063   0.977   1.866  15.481  0.9661 -2.3056  1.3346
17216TIP3    H273064   0.927   1.864  15.624  1.8126 -0.4304  1.6839
17217TIP3   OH273065   4.297   6.741   1.144 -0.3167 -0.2034  0.4518
17217TIP3    H173066   4.222   6.685   1.122 -1.4639  1.2636  0.4626
17217TIP3    H273067   4.259   6.828   1.157  0.9409 -0.0122  3.6477
17218TIP3   OH273068   0.967   2.707  14.372 -0.3494  0.3883 -0.6350
17218TIP3    H173069   0.876   2.680  14.361 -0.1039 -1.0359  0.5021
17218TIP3    H273070   1.001   2.647  14.439  0.5933  2.8160  1.1858
17219TIP3   OH273071   0.406   3.935   3.295 -0.2352  0.3194  0.4770
17219TIP3    H173072   0.328   3.921   3.241 -0.1271  0.6575  0.2286
17219TIP3    H273073   0.457   3.855   3.286  0.8044  1.1597 -1.6219
17220TIP3   OH273074   5.021   5.142   2.074 -0.1145 -0.1862  0.1121
17220TIP3    H173075   5.018   5.053   2.110  0.4027 -0.7375 -1.1431
17220TIP3    H273076   4.932   5.158   2.042 -0.2709 -0.1439  0.5555
17221TIP3   OH273077   4.430   1.735   3.563 -0.2849 -0.5042 -0.2975
17221TIP3    H173078   4.518   1.703   3.543 -0.5415 -0.6747 -1.2228
17221TIP3    H273079   4.375   1.657   3.560 -0.2839 -0.6041  1.5561
17222TIP3   OH273080   3.404   3.059  17.247  0.1029 -0.1213 -0.4255
17222TIP3    H173081   3.466   3.073  17.176  1.0777  0.3974  0.4887
17222TIP3    H273082   3.429   2.974  17.284  0.1725  0.0068 -0.1697
17223TIP3   OH273083   0.434   4.024   4.233  0.6964 -0.6971 -0.2011
17223TIP3    H173084   0.440   4.076   4.153  0.2028  1.0943  0.8894
17223TIP3    H273085   0.350   3.978   4.225  0.0388  0.4691 -0.1537
17224TIP3   OH273086   4.579   1.712   5.272 -0.3034 -0.0561 -0.2787
17224TIP3    H173087   4.626   1.702   5.355 -0.4560  1.2350 -0.0159
17224TIP3    H273088   4.598   1.632   5.224 -1.6744 -1.7055  1.7269
17225TIP3   OH273089   3.343   1.671  15.016 -0.6867 -0.1284 -0.5141
17225TIP3    H173090   3.381   1.632  15.095 -1.4796 -0.2351 -0.1722
17225TIP3    H273091   3.410   1.661  14.950 -0.8154 -2.0366 -0.4252
17226TIP3   OH273092   6.129   0.125   2.402  0.6229 -0.1980 -0.0022
17226TIP3    H173093   6.171   0.150   2.320 -0.1405 -1.1093 -0.7019
17226TIP3    H273094   6.190   0.153   2.470 -0.1554  3.6754 -0.6193
17227TIP3   OH273095   3.329   0.046  17.077  0.4136  0.4411  0.2271
17227TIP3    H173096   3.267   0.114  17.051 -0.1644 -0.1064  0.1443
17227TIP3    H273097   3.364   0.076  17.161 -0.7647  0.2500  0.8076
17228TIP3   OH273098   2.772   0.886  15.030  0.1896  0.2387 -0.1215
17228TIP3    H173099   2.707   0.952  15.053  0.1542 -0.5259  2.1252
17228TIP3    H273100   2.726   0.827  14.971 -0.0582  1.6335 -1.4028
17229TIP3   OH273101   5.368   2.136  10.956  0.1716 -0.0165 -0.0742
17229TIP3    H173102   5.311   2.059  10.955  1.0195 -0.6977  1.3691
17229TIP3    H273103   5.442   2.112  10.900 -0.2043  0.2922 -0.7206
17230TIP3   OH273104   5.678   5.476   4.900  0.1369 -0.7210  0.5162
17230TIP3    H173105   5.702   5.465   4.808 -1.1388 -0.3392  0.1196
17230TIP3    H273106   5.760   5.503   4.943  0.1240  2.2749 -1.0592
17231TIP3   OH273107   1.548   6.069  16.259  0.4495 -0.2519 -0.3580
17231TIP3    H173108   1.622   6.114  16.218 -0.4339  1.6904  0.1167
17231TIP3    H273109   1.472   6.121  16.237 -0.0689  1.1990  3.9464
17232TIP3   OH273110   5.565   4.494   4.680  0.0539  0.1549 -0.2125
17232TIP3    H173111   5.526   4.482   4.766  1.3664 -2.0370  0.1421
17232TIP3    H273112   5.558   4.409   4.638  0.1888  0.9570 -1.9876
17233TIP3   OH273113   2.435   1.052   6.643 -0.7339  0.4874  0.3949
17233TIP3    H173114   2.467   1.036   6.554  0.2224 -1.3139  1.0192
17233TIP3    H273115   2.412   1.145   6.644 -0.9456  0.5088 -1.7789
17234TIP3   OH273116   1.489   5.866  14.925  0.3008 -0.3136 -0.2497
17234TIP3    H173117   1.417   5.820  14.882  1.2334  0.1920 -2.4962
17234TIP3    H273118   1.533   5.913  14.854  1.4590  1.2529  1.4205
17235TIP3   OH273119   2.210   4.508   4.606  0.6013  0.4327  0.1959
17235TIP3    H173120   2.213   4.412   4.603  1.2299  0.4593 -0.6138
17235TIP3    H273121   2.130   4.528   4.653  1.1768 -0.4980  1.6325
17236TIP3   OH273122   4.930   1.896   3.987  0.0896  0.1207  0.4480
17236TIP3    H173123   4.965   1.970   3.936  3.1041 -1.9954 -0.8577
17236TIP3    H273124   4.861   1.859   3.932  1.9820 -0.9562 -1.3306
17237TIP3   OH273125   1.951   4.902  11.671 -0.2161 -0.0214  0.2601
17237TIP3    H173126   1.993   4.905  11.586  1.7297 -0.5306  1.1515
17237TIP3    H273127   1.882   4.836  11.662  2.1531 -2.6542 -0.0664
17238TIP3   OH273128   5.912   2.412   4.725  0.4281  0.0315 -0.0661
17238TIP3    H173129   5.876   2.497   4.752  1.1920  0.1336  0.6767
17238TIP3    H273130   5.890   2.405   4.632  0.6294  1.1958 -0.2189
17239TIP3   OH273131   4.468   5.968  15.078 -0.0958 -0.0958  0.8354
17239TIP3    H173132   4.374   5.957  15.062 -0.4676  1.0605  2.0686
17239TIP3    H273133   4.496   6.033  15.014  0.1309 -1.2058 -0.2462
17240TIP3   OH273134   4.706   3.353   3.399 -0.4282 -0.4657 -0.0000
17240TIP3    H173135   4.756   3.375   3.477  0.0160  0.3285 -0.4998
17240TIP3    H273136   4.705   3.433   3.346 -0.4751 -1.0633 -0.9439
17241TIP3   OH273137   5.226   2.399  11.152  0.0705  0.1673 -0.5012
17241TIP3    H173138   5.232   2.494  11.145 -0.6407  0.4390  1.7079
17241TIP3    H273139   5.176   2.372  11.075  1.6927  1.3413 -2.0476
17242TIP3   OH273140   4.809   4.144   3.139  0.0923  0.1486  0.1690
17242TIP3    H173141   4.811   4.159   3.234 -0.3530 -0.7073  0.3288
17242TIP3    H273142   4.900   4.133   3.114  0.3121  1.4896  0.2956
17243TIP3   OH273143   5.825   4.955   2.757  0.0374  0.5403  0.7711
17243TIP3    H173144   5.833   5.050   2.745 -1.1232  0.4612 -1.1903
17243TIP3    H273145   5.888   4.917   2.696 -0.8628  0.0650  0.1120
17244TIP3   OH273146   0.490   2.099  15.252  0.0088 -0.2061  0.4654
17244TIP3    H173147   0.415   2.047  15.282 -0.2377 -0.8592 -1.2111
17244TIP3    H273148   0.473   2.114  15.159  0.6858  1.8793  0.6350
17245TIP3   OH273149   3.807   4.403  15.867  0.4901  0.3420  0.3075
17245TIP3    H173150   3.755   4.394  15.947  0.1252  0.0689  0.0387
17245TIP3    H273151   3.748   4.377  15.796  0.0195  2.8744 -0.3101
17246TIP3   OH273152   2.705   0.866   5.348 -0.1730 -0.2336 -0.1703
17246TIP3    H173153   2.647   0.791   5.360  2.9305 -2.6939  0.4758
17246TIP3    H273154   2.688   0.922   5.424 -1.2806 -1.1592  0.2876
17247TIP3   OH273155   6.216   2.815   3.129 -0.0150 -0.1796 -0.1191
17247TIP3    H173156   6.244   2.744   3.187  1.9464  0.9822  0.4362
17247TIP3    H273157   6.288   2.877   3.131 -0.2520  0.3179 -3.1888
17248TIP3   OH273158   6.322   6.575   3.962  0.0715  0.1328 -0.5280
17248TIP3    H173159   6.377   6.521   4.019  0.6324  2.0538  0.8546
17248TIP3    H273160   6.251   6.605   4.018  0.4520  1.7983 -0.8729
17249TIP3   OH273161   2.273   5.004   0.500  0.6258 -0.1363  0.0810
17249TIP3    H173162   2.226   5.077   0.460  0.1582 -0.7677 -0.5408
17249TIP3    H273163   2.204   4.944   0.527  0.9961 -0.2591  0.7807
17250TIP3   OH273164   4.355   0.408   4.927  0.4180  0.3912 -0.1614
17250TIP3    H173165   4.430   0.442   4.878  0.4490 -0.7889 -0.9907
17250TIP3    H273166   4.339   0.472   4.996  1.9812  0.8218 -0.1714
17251TIP3   OH273167   1.637   2.139   3.694 -0.6062 -0.0723  0.1904
17251TIP3    H173168   1.697   2.108   3.762 -1.4986 -1.6089  0.3208
17251TIP3    H273169   1.692   2.155   3.618 -0.2863 -4.7689 -0.8295
17252TIP3   OH273170   4.471   1.738   1.716  0.3327  0.4175 -0.1169
17252TIP3    H173171   4.387   1.694   1.732  1.9571 -2.1479  2.3414
17252TIP3    H273172   4.489   1.720   1.624 -0.8127 -0.9240 -0.1212
17253TIP3   OH273173   1.180   5.002   0.092 -0.2564 -0.1782 -0.7764
17253TIP3    H173174   1.135   4.970   0.170 -0.3791  0.0278 -0.7639
17253TIP3    H273175   1.255   5.051   0.127 -1.0667  1.0878 -0.7448
17254TIP3   OH273176   1.112   5.396   4.508 -0.0805 -0.3198  0.0995
17254TIP3    H173177   1.048   5.448   4.556  0.8559  1.1695 -0.2078
17254TIP3    H273178   1.159   5.460   4.454  1.5250 -1.3953  0.1569
17255TIP3   OH273179   5.793   1.153  14.258  0.6452 -0.1562 -0.1484
17255TIP3    H173180   5.779   1.242  14.224  2.2806 -0.1695 -0.9895
17255TIP3    H273181   5.758   1.096  14.189  0.9835 -0.1642 -0.3162
17256TIP3   OH273182   1.575   5.758   2.996 -0.5329  0.0783 -0.4861
17256TIP3    H173183   1.634   5.828   2.966  0.8824 -1.3532 -1.2504
17256TIP3    H273184   1.602   5.742   3.086  0.7985 -1.0467 -1.0500
17257TIP3   OH273185   1.417   0.972  17.011  0.0098 -0.1938 -0.3035
17257TIP3    H173186   1.321   0.973  17.009 -0.0257 -1.3409  0.2180
17257TIP3    H273187   1.439   0.899  17.068  1.1954  1.6565  1.7220
17258TIP3   OH273188   5.445   5.424   0.720  0.2666 -0.2382 -0.2690
17258TIP3    H173189   5.418   5.396   0.633  1.4020 -0.9945 -0.4096
17258TIP3    H273190   5.458   5.518   0.713  1.9839 -0.5085 -1.4102
17259TIP3   OH273191   1.363   0.414   0.880  0.2491  0.3574 -0.1825
17259TIP3    H173192   1.362   0.390   0.787  1.3689 -1.4297  0.2203
17259TIP3    H273193   1.336   0.506   0.881  0.1814  0.4101 -2.2649
17260TIP3   OH273194   0.210   6.701  15.174  0.2684  0.1637  0.1824
17260TIP3    H173195   0.236   6.729  15.261 -0.6846  0.8605  0.2598
17260TIP3    H273196   0.202   6.782  15.124 -1.6898  0.0044  0.1732
17261TIP3   OH273197   5.486   2.744   5.963  0.1213  0.3113 -0.0534
17261TIP3    H173198   5.490   2.777   6.052 -2.3666 -0.8919  0.6006
17261TIP3    H273199   5.428   2.668   5.968 -0.0205  0.1439 -2.6916
17262TIP3   OH273200   2.073   1.690  15.341 -0.2327  0.4907 -0.0312
17262TIP3    H173201   2.042   1.697  15.250  3.8531  2.3755 -1.5053
17262TIP3    H273202   2.119   1.607  15.345 -2.1635 -0.6128  1.1009
17263TIP3   OH273203   4.017   3.404   3.163 -0.3245 -0.1432  0.1898
17263TIP3    H173204   4.076   3.330   3.179  0.8977  0.3075 -1.8358
17263TIP3    H273205   4.040   3.468   3.230  1.0062 -0.2901 -0.0962
17264TIP3   OH273206   0.746   0.724  12.922 -0.5874  0.3238 -0.1069
17264TIP3    H173207   0.837   0.727  12.953 -0.3107 -0.3291 -0.8325
17264TIP3    H273208   0.704   0.659  12.978  0.6349 -3.1126 -2.7885
17265TIP3   OH273209   2.452   6.739   0.078 -0.0538 -0.2366 -0.1413
17265TIP3    H173210   2.412   6.809   0.130 -0.2969 -0.1551 -0.4294
17265TIP3    H273211   2.381   6.710   0.021  0.4660  0.3488 -1.1152
17266TIP3   OH273212   6.086   3.929  13.884  0.4160 -0.2644 -0.5572
17266TIP3    H173213   6.180   3.946  13.894  0.3566  0.4733 -1.1842
17266TIP3    H273214   6.044   4.010  13.911 -0.0738 -0.7522  0.1791
17267TIP3   OH273215   3.749   3.182  16.867  0.1116 -0.4091  0.3275
17267TIP3    H173216   3.764   3.148  16.779  0.4806 -0.0107  0.2302
17267TIP3    H273217   3.754   3.277  16.857  0.3876 -0.3675  0.8141
17268TIP3   OH273218   2.546   5.076   3.085 -0.1243 -0.0349  0.1964
17268TIP3    H173219   2.575   5.145   3.145  1.8440 -0.0258 -0.6779
17268TIP3    H273220   2.569   4.994   3.130 -0.4829 -0.0668  0.3182
17269TIP3   OH273221   0.901   0.204   5.340  0.2334 -0.0958  0.2705
17269TIP3    H173222   0.943   0.136   5.287  0.7577 -1.0884  1.8881
17269TIP3    H273223   0.926   0.286   5.298  0.3906 -0.8474 -1.1685
17270TIP3   OH273224   5.381   1.666  14.881  0.4868  0.0360  0.5149
17270TIP3    H173225   5.338   1.683  14.797 -0.5085 -0.6287  0.8605
17270TIP3    H273226   5.460   1.617  14.858 -1.4436 -3.1908  0.0736
17271TIP3   OH273227   1.817   6.471  17.298  0.2541  0.2100  0.5214
17271TIP3    H173228   1.731   6.505  17.323  0.2835  0.9106 -0.3326
17271TIP3    H273229   1.876   6.504  17.365  0.3389  2.1298 -0.4569
17272TIP3   OH273230   2.666   4.969  15.076  0.1838 -0.3265  0.3856
17272TIP3    H173231   2.724   4.921  15.018 -0.5160  1.6626 -2.1667
17272TIP3    H273232   2.579   4.958  15.037 -0.9624 -1.7720  3.1016
17273TIP3   OH273233   1.526   5.865  10.577 -0.3554 -0.9325 -0.2010
17273TIP3    H173234   1.549   5.925  10.506 -1.0298  0.5563  0.7836
17273TIP3    H273235   1.548   5.913  10.657  0.8641 -2.7703  0.6310
17274TIP3   OH273236   0.169   2.914   3.566 -0.3130  0.3267 -0.1187
17274TIP3    H173237   0.096   2.897   3.625 -0.8687 -0.3473 -0.9698
17274TIP3    H273238   0.221   2.981   3.610 -1.2692  0.5815  0.6468
17275TIP3   OH273239   3.774   3.697   4.834  0.7015  0.1173 -0.1375
17275TIP3    H173240   3.696   3.745   4.805  0.6380 -0.4406 -0.9424
17275TIP3    H273241   3.847   3.757   4.816  0.2879  2.1454  3.8935
17276TIP3   OH273242   5.320   2.641  17.176 -0.2454 -0.4273 -0.2447
17276TIP3    H173243   5.260   2.577  17.215 -0.6117 -0.2804 -0.5627
17276TIP3    H273244   5.297   2.724  17.217 -0.6206 -0.2750 -0.7561
17277TIP3   OH273245   4.989   2.872  17.091 -0.2251 -0.2952  0.1860
17277TIP3    H173246   4.918   2.926  17.057  0.0348 -0.1707 -0.1653
17277TIP3    H273247   4.945   2.796  17.129 -0.4833 -1.1149 -1.6273
17278TIP3   OH273248   3.676   3.589  13.739  0.3030  0.5700 -0.4375
17278TIP3    H173249   3.602   3.540  13.773  1.6069 -0.5217  0.9259
17278TIP3    H273250   3.636   3.658  13.686 -1.6132 -1.6982 -2.1773
17279TIP3   OH273251   3.215   6.456   1.507 -0.2475  0.0792  0.6048
17279TIP3    H173252   3.143   6.484   1.450 -1.9939  0.1968  2.7396
17279TIP3    H273253   3.251   6.379   1.463 -0.2830  1.2007 -1.5563
17280TIP3   OH273254   0.074   3.767  16.634 -0.3081 -0.6995 -0.4728
17280TIP3    H173255  -0.016   3.793  16.613  0.6205  2.5164 -0.9601
17280TIP3    H273256   0.128   3.843  16.610  2.5503 -2.4158 -0.0116
17281TIP3   OH273257   2.125   3.364   1.436 -0.6194 -0.1011  0.2381
17281TIP3    H173258   2.081   3.415   1.504 -0.6183  0.2350 -0.0086
17281TIP3    H273259   2.079   3.388   1.355 -1.1468 -1.1110  0.2341
17282TIP3   OH273260   1.596   2.664   1.155  0.2222  0.3008  0.0464
17282TIP3    H173261   1.669   2.640   1.098  1.2971  0.3349  1.3530
17282TIP3    H273262   1.601   2.601   1.227  0.3771  1.6978  1.3110
17283TIP3   OH273263   0.356   1.729  13.490 -0.1155  0.2716  0.5437
17283TIP3    H173264   0.347   1.810  13.440  0.3056 -0.3977 -0.6508
17283TIP3    H273265   0.329   1.753  13.579 -0.0217  1.7104  0.2120
17284TIP3   OH273266   0.260   1.291  16.238 -0.3967 -0.1284 -0.1709
17284TIP3    H173267   0.348   1.261  16.263 -0.4226 -0.0330  0.0356
17284TIP3    H273268   0.214   1.300  16.321 -0.9873 -1.3599 -0.3334
17285TIP3   OH273269   0.469   4.896  15.552  0.2497 -0.5280  0.1335
17285TIP3    H173270   0.559   4.892  15.584  0.2644  0.1278  0.1878
17285TIP3    H273271   0.434   4.978  15.587  0.3828  0.4084 -1.8211
17286TIP3   OH273272   1.949   3.537  11.553 -0.0619  0.0980 -0.1595
17286TIP3    H173273   1.961   3.468  11.618 -0.3556 -1.4670 -1.6914
17286TIP3    H273274   1.858   3.564  11.563 -0.2622 -0.5245 -0.2723
17287TIP3   OH273275   0.620   5.436   3.515 -0.3754  0.1229 -0.4812
17287TIP3    H173276   0.641   5.423   3.422  1.5928 -0.4805  0.0125
17287TIP3    H273277   0.676   5.509   3.542  0.3216 -0.7934  0.6259
17288TIP3   OH273278   5.373   1.353  14.629 -0.1237 -0.0208  0.0962
17288TIP3    H173279   5.329   1.285  14.579  2.5895 -2.3462  0.5777
17288TIP3    H273280   5.375   1.429  14.570 -3.5833 -0.0812 -0.3149
17289TIP3   OH273281   1.317   5.736  14.621  0.2413  0.0619  0.0454
17289TIP3    H173282   1.406   5.759  14.592  0.1477  0.2131 -0.1250
17289TIP3    H273283   1.311   5.642  14.604 -0.0030  0.2478 -0.9594
17290TIP3   OH273284   3.105   2.408   2.102 -0.1708 -0.6227  0.3762
17290TIP3    H173285   3.131   2.338   2.162  1.0820 -0.5525 -0.0507
17290TIP3    H273286   3.181   2.466   2.098 -0.8350  0.2441 -0.0278
17291TIP3   OH273287   2.842   0.453   1.645 -0.1193  0.2170 -0.4317
17291TIP3    H173288   2.923   0.405   1.659  0.9667  2.0612  0.0502
17291TIP3    H273289   2.778   0.412   1.704  1.3410  0.6832  1.5949
17292TIP3   OH273290   1.077   1.950   0.282  0.3297  0.3320 -0.3902
17292TIP3    H173291   1.115   2.015   0.341  0.3848  0.0406 -0.1061
17292TIP3    H273292   1.105   1.866   0.317 -1.5165  0.0484  0.4812
17293TIP3   OH273293   3.747   6.334   5.930  0.4271  0.7218  0.5647
17293TIP3    H173294   3.730   6.403   5.865  1.5642 -1.5841 -2.4630
17293TIP3    H273295   3.684   6.266   5.909  0.0964  0.3283  2.6951
17294TIP3   OH273296   2.254   0.834  14.450 -0.3834 -0.0206 -0.4378
17294TIP3    H173297   2.340   0.798  14.475 -0.8101  0.3301  1.7006
17294TIP3    H273298   2.272   0.887  14.373  1.5038  0.7342  0.4640
17295TIP3   OH273299   0.319   5.861   6.624  0.4895  0.1687  0.7159
17295TIP3    H173300   0.226   5.866   6.650 -0.0451  0.3279 -1.0979
17295TIP3    H273301   0.328   5.774   6.584  0.5429  0.9387 -1.0514
17296TIP3   OH273302   3.503   3.073   1.871 -0.1902 -0.0566  0.0049
17296TIP3    H173303   3.423   3.101   1.916 -0.5895  0.0994 -0.7880
17296TIP3    H273304   3.570   3.071   1.939 -0.5864  1.0195  0.4387
17297TIP3   OH273305   6.641   4.241   2.757 -0.3471 -0.1765 -0.7487
17297TIP3    H173306   6.655   4.289   2.676 -0.0205 -0.6069 -0.9469
17297TIP3    H273307   6.571   4.179   2.737  0.3734 -0.9266 -0.9764
17298TIP3   OH273308   3.707   1.696  12.458 -0.7220  0.2383  0.2623
17298TIP3    H173309   3.625   1.711  12.412 -0.0491 -1.3829 -1.6046
17298TIP3    H273310   3.683   1.643  12.534 -1.5713  1.0739  0.5928
17299TIP3   OH273311   4.149   6.441  13.130  0.5818  0.2683 -0.0152
17299TIP3    H173312   4.101   6.494  13.194  1.2085  1.2213 -0.3200
17299TIP3    H273313   4.217   6.499  13.096  0.9458 -0.5653 -0.7580
17300TIP3   OH273314   5.502   0.755  11.324  0.9924  0.2340  0.1644
17300TIP3    H173315   5.543   0.731  11.241 -0.2354  1.6516 -0.8767
17300TIP3    H273316   5.452   0.834  11.305  1.1097  0.9110  2.3849
17301TIP3   OH273317   5.861   6.430  12.141 -0.0383  0.3421  0.2190
17301TIP3    H173318   5.804   6.427  12.218 -0.3484  0.5098 -0.0038
17301TIP3    H273319   5.947   6.405  12.175 -0.1538  0.4904  0.6360
17302TIP3   OH273320   6.393   2.217  12.853 -0.2488  0.1642 -0.0591
17302TIP3    H173321   6.322   2.281  12.861 -0.7818 -0.4836  0.5224
17302TIP3    H273322   6.361   2.139  12.899  1.1883  0.1613  1.0264
17303TIP3   OH273323   2.464   2.607   3.983  0.2991 -0.9892  0.1201
17303TIP3    H173324   2.450   2.693   3.942 -0.9123 -1.0701  0.3163
17303TIP3    H273325   2.504   2.627   4.067  1.3382 -0.7176 -0.4192
17304TIP3   OH273326   3.521   6.209  14.024 -0.2966  0.6551  0.0512
17304TIP3    H173327   3.518   6.145  14.096  0.6471 -1.0158 -1.3187
17304TIP3    H273328   3.464   6.280  14.053 -2.1526 -1.2016  1.2907
17305TIP3   OH273329   1.064   2.346  12.661 -0.2412 -0.3103  0.2345
17305TIP3    H173330   1.075   2.252  12.647 -2.4212 -0.7025  0.7126
17305TIP3    H273331   1.144   2.374  12.705 -0.5007 -2.4233  2.2346
17306TIP3   OH273332   6.652   1.017  15.978  0.0176  0.3909 -0.2454
17306TIP3    H173333   6.606   0.935  15.996  1.0898 -0.6250 -1.8633
17306TIP3    H273334   6.732   1.012  16.029 -0.1444  0.6684  0.0399
17307TIP3   OH273335   5.157   1.817  16.288  0.7949  0.1018  0.2511
17307TIP3    H173336   5.230   1.810  16.226 -0.4900 -0.4891 -1.2461
17307TIP3    H273337   5.092   1.871  16.244  0.3440  0.7439  1.6293
17308TIP3   OH273338   6.706   5.568   1.536 -0.2190 -0.3367  0.2332
17308TIP3    H173339   6.694   5.480   1.502 -3.5102  1.1302 -3.2123
17308TIP3    H273340   6.629   5.583   1.592 -1.6542  1.3017 -2.0106
17309TIP3   OH273341   2.608   2.939   1.649 -0.5187 -0.0788 -0.2824
17309TIP3    H173342   2.628   2.963   1.558 -3.6519  2.3802 -0.4836
17309TIP3    H273343   2.658   3.002   1.701 -0.8389  0.2739 -0.4029
17310TIP3   OH273344   0.669   4.095  16.103 -0.1034 -0.2512 -0.0290
17310TIP3    H173345   0.640   4.119  16.015 -0.7557  0.3124  0.3301
17310TIP3    H273346   0.742   4.153  16.121  1.6210 -1.9708 -1.1105
17311TIP3   OH273347   5.612   1.192  13.260  0.4729 -0.3622  0.4954
17311TIP3    H173348   5.536   1.247  13.281 -0.3058 -1.4032  0.4781
17311TIP3    H273349   5.678   1.214  13.326  0.9134  1.9787 -0.6239
17312TIP3   OH273350   2.498   4.484   3.818 -0.2651 -0.1180  0.0080
17312TIP3    H173351   2.571   4.426   3.841 -0.7552 -1.4484 -1.5602
17312TIP3    H273352   2.541   4.563   3.783  0.4184 -0.3421  0.3211
17313TIP3   OH273353   4.433   4.837  15.556 -0.4661  0.0685  0.5793
17313TIP3    H173354   4.509   4.816  15.501  0.7958  2.4705  1.2559
17313TIP3    H273355   4.377   4.760  15.549  0.9533 -0.8775 -1.7852
17314TIP3   OH273356   6.290   1.770  11.958 -0.5544  0.5783  0.1519
17314TIP3    H173357   6.296   1.783  12.053 -0.2757 -0.7504  0.3218
17314TIP3    H273358   6.197   1.784  11.939 -0.3460  2.4813  0.3470
17315TIP3   OH273359   0.215   6.568   1.294  0.2625 -0.0252 -0.2686
17315TIP3    H173360   0.289   6.533   1.245  0.8530  0.3972  0.3006
17315TIP3    H273361   0.166   6.620   1.230 -0.0063 -0.9699 -0.8467
17316TIP3   OH273362   2.230   6.630  16.417  0.1786 -0.5343 -0.4810
17316TIP3    H173363   2.200   6.573  16.488  1.0514  0.1420  0.4638
17316TIP3    H273364   2.209   6.582  16.337  0.2193 -1.8482  0.2649
17317TIP3   OH273365   0.279   0.190   2.336  0.3045  0.6369  0.0401
17317TIP3    H173366   0.249   0.117   2.281 -1.6612  1.8419 -0.5897
17317TIP3    H273367   0.256   0.268   2.287  1.3455  1.7258  1.2141
17318TIP3   OH273368   3.080   1.212  14.923  0.6107 -0.1632 -0.6774
17318TIP3    H173369   3.022   1.143  14.890  0.2030  0.0964 -0.5238
17318TIP3    H273370   3.035   1.294  14.899  1.7404  0.0775 -2.0401
17319TIP3   OH273371   3.576   6.564  13.744  0.3918 -0.2255 -0.5464
17319TIP3    H173372   3.523   6.511  13.684  0.7540 -1.1152 -0.0838
17319TIP3    H273373   3.625   6.501  13.796  0.1770  0.5329  0.6193
17320TIP3   OH273374   0.836   5.338   3.957 -0.0509 -0.2279  0.2768
17320TIP3    H173375   0.766   5.301   3.903  0.5912 -0.6746 -0.2775
17320TIP3    H273376   0.794   5.361   4.039 -0.9907  0.1670 -0.3038
17321TIP3   OH273377   1.126   1.541  14.456  0.0011 -0.3564  0.0020
17321TIP3    H173378   1.115   1.464  14.400  0.3810 -1.8113  1.8334
17321TIP3    H273379   1.108   1.509  14.545  0.6588  1.5647  0.8849
17322TIP3   OH273380   0.876   1.468   3.181 -0.0483  0.5600 -0.3832
17322TIP3    H173381   0.877   1.477   3.276 -0.8117  3.8103 -0.5591
17322TIP3    H273382   0.968   1.461   3.156  0.2325  0.9256  0.5241
17323TIP3   OH273383   2.104   1.589   1.564 -0.1931  0.4074  0.4672
17323TIP3    H173384   2.171   1.573   1.631 -1.2721  0.3845  1.5868
17323TIP3    H273385   2.027   1.614   1.614 -1.4379 -0.9543 -0.6882
17324TIP3   OH273386   1.289   2.473   1.651 -0.0077  0.5424 -0.0864
17324TIP3    H173387   1.294   2.567   1.636  0.3315  0.6868  0.8641
17324TIP3    H273388   1.206   2.459   1.695  0.2436  0.4852  0.3738
17325TIP3   OH273389   6.306   4.861  11.504  0.3276 -0.7692  0.1303
17325TIP3    H173390   6.328   4.888  11.415 -0.2151 -0.5710  0.0505
17325TIP3    H273391   6.299   4.943  11.553  3.2787 -0.9508  1.0287
17326TIP3   OH273392   2.391   1.021  16.470 -0.2212  0.3726 -0.4444
17326TIP3    H173393   2.317   1.023  16.531 -0.1576 -1.5918 -0.2343
17326TIP3    H273394   2.355   1.053  16.387 -1.3241 -0.5946 -0.3588
17327TIP3   OH273395   4.181   1.176   3.543  0.1155 -0.6735  0.1575
17327TIP3    H173396   4.226   1.156   3.625 -0.8803 -0.0324  0.8845
17327TIP3    H273397   4.167   1.271   3.546  0.8961 -0.4914 -1.2045
17328TIP3   OH273398   0.674   1.742   3.725 -0.3398 -0.0928  0.4155
17328TIP3    H173399   0.736   1.812   3.704 -1.3195  1.2657  1.8519
17328TIP3    H273400   0.606   1.750   3.658 -0.2370  0.0626  0.3290
17329TIP3   OH273401   5.316   1.191   3.633 -0.2545 -0.4765  0.0505
17329TIP3    H173402   5.338   1.196   3.539 -1.2827 -1.2301 -0.2441
17329TIP3    H273403   5.261   1.268   3.648  0.4675  0.0216  0.2074
17330TIP3   OH273404   3.269   1.130  14.597  0.0123  0.0149 -0.4135
17330TIP3    H173405   3.306   1.065  14.537 -0.2137  1.1590 -1.8592
17330TIP3    H273406   3.321   1.209  14.583 -0.9917  0.7382 -0.2070
17331TIP3   OH273407   6.207   2.492   0.059  1.0345  0.6180 -0.0094
17331TIP3    H173408   6.226   2.578   0.021  0.0771  0.8254 -0.0572
17331TIP3    H273409   6.179   2.439  -0.016 -0.7171  0.9829  0.3392
17332TIP3   OH273410   3.374   0.658   5.124  0.5675  0.1040  0.5112
17332TIP3    H173411   3.342   0.676   5.036 -1.1465 -1.1137  0.8326
17332TIP3    H273412   3.317   0.709   5.181 -0.5369 -1.6587  1.0643
17333TIP3   OH273413   5.426   3.661   1.964 -0.2331  0.2118 -0.9560
17333TIP3    H173414   5.449   3.693   2.052 -1.5763 -1.6695  0.1393
17333TIP3    H273415   5.509   3.666   1.916  1.9028 -3.1380  1.8312
17334TIP3   OH273416   6.503   2.245   4.072 -0.5065 -0.4057  0.1839
17334TIP3    H173417   6.552   2.169   4.103 -0.6590 -0.3311  0.6267
17334TIP3    H273418   6.549   2.274   3.994  1.6494  1.1358  1.8896
17335TIP3   OH273419   0.268   1.287   3.964  0.4707 -0.0973 -0.0230
17335TIP3    H173420   0.322   1.344   4.019  0.7773 -1.6939  1.4074
17335TIP3    H273421   0.245   1.342   3.889 -0.2582  2.2927  1.8071
17336TIP3   OH273422   0.327   0.262   5.374 -0.1830  0.6543 -0.7724
17336TIP3    H173423   0.254   0.201   5.365 -1.2552  1.9845 -1.4264
17336TIP3    H273424   0.405   0.208   5.360 -0.8583 -1.1857  1.7237
17337TIP3   OH273425   6.715   4.963   4.622  0.4548  0.3930  0.0700
17337TIP3    H173426   6.665   4.978   4.541  2.8294  1.7690 -1.2659
17337TIP3    H273427   6.737   5.051   4.653  1.6389 -0.1524  0.8475
17338TIP3   OH273428   6.710   6.095   5.382 -0.5849 -0.0414  0.2520
17338TIP3    H173429   6.635   6.154   5.376 -1.4451 -0.9577  1.5743
17338TIP3    H273430   6.723   6.063   5.293 -0.0143  2.1905 -0.5370
17339TIP3   OH273431   1.156   2.531   1.009  0.2442  0.3360 -0.5347
17339TIP3    H173432   1.251   2.518   1.000  0.1887 -0.3433 -0.2274
17339TIP3    H273433   1.120   2.504   0.925  0.3676  1.1681 -0.8647
17340TIP3   OH273434   5.954   3.209   3.072  0.1243 -0.1112 -0.5158
17340TIP3    H173435   6.032   3.159   3.095  0.0252 -0.0220  0.0134
17340TIP3    H273436   5.934   3.260   3.150 -0.9485 -0.7485 -0.3596
17341TIP3   OH273437   2.583   3.337   5.325 -0.2906  0.0883  0.0271
17341TIP3    H173438   2.584   3.276   5.398 -0.7627  0.4690  0.3576
17341TIP3    H273439   2.573   3.423   5.365 -1.5868  0.2174 -0.5172
17342TIP3   OH273440   4.989   4.990   0.513 -0.0441  0.5127  0.0786
17342TIP3    H173441   5.024   5.002   0.602 -1.6085 -0.8765  0.9384
17342TIP3    H273442   5.033   4.911   0.481  0.8851  1.2857 -0.6159
17343TIP3   OH273443   0.202   4.606  11.333  0.0273  0.4447 -0.8376
17343TIP3    H173444   0.202   4.548  11.257  1.0450  0.9011 -1.2010
17343TIP3    H273445   0.277   4.577  11.385 -0.5275  0.2830 -0.1078
17344TIP3   OH273446   5.993   2.637  15.841 -0.0447  0.0724 -0.4562
17344TIP3    H173447   5.937   2.560  15.828  0.4455 -0.5978  1.1625
17344TIP3    H273448   6.068   2.605  15.890  0.4660  1.4826 -0.2573
17345TIP3   OH273449   0.197   1.419  10.987  0.0541 -0.0889  0.0069
17345TIP3    H173450   0.145   1.339  10.978  0.3568 -0.5238  1.6188
17345TIP3    H273451   0.288   1.390  10.974  0.0700  0.2504 -0.6742
17346TIP3   OH273452   0.621   3.780   5.203 -0.0133  0.6551  0.0589
17346TIP3    H173453   0.667   3.754   5.283 -1.5202 -1.1610  0.3941
17346TIP3    H273454   0.581   3.864   5.225 -0.4459  0.1558  1.2375
17347TIP3   OH273455   5.504   2.682   2.935  0.1623  0.0297 -0.0119
17347TIP3    H173456   5.453   2.756   2.902 -0.6652 -1.1144 -1.3841
17347TIP3    H273457   5.485   2.679   3.029 -1.0625  0.5820 -0.2293
17348TIP3   OH273458   1.285   5.794  13.724  0.0561  0.2784  0.1764
17348TIP3    H173459   1.371   5.783  13.765 -0.2568 -1.7630  0.3466
17348TIP3    H273460   1.236   5.849  13.785  0.3856 -0.7332  1.3969
17349TIP3   OH273461   5.335   2.681   6.587 -0.6070 -0.4188 -0.3931
17349TIP3    H173462   5.349   2.587   6.591  0.5069 -0.4318 -2.8083
17349TIP3    H273463   5.255   2.696   6.637 -1.1077 -2.7158 -0.4185
17350TIP3   OH273464   0.746   4.844  15.605  0.0904 -0.0458  0.1278
17350TIP3    H173465   0.815   4.879  15.661 -0.0807 -1.0922  1.0288
17350TIP3    H273466   0.772   4.753  15.589 -1.3438 -0.6351  0.9595
17351TIP3   OH273467   0.858   4.051  16.453  0.6613 -0.4431  0.0601
17351TIP3    H173468   0.937   4.084  16.408  1.0664 -0.0871  1.0015
17351TIP3    H273469   0.841   4.117  16.521  0.1976 -1.0818  0.5681
17352TIP3   OH273470   0.286   2.062   5.612  0.2020 -0.5911  0.3597
17352TIP3    H173471   0.225   1.991   5.632 -0.2061 -0.2878  0.2055
17352TIP3    H273472   0.293   2.112   5.694 -1.3566  0.5663 -0.1805
17353TIP3   OH273473   0.126   3.784  16.279  0.3673  0.3393 -0.6460
17353TIP3    H173474   0.124   3.873  16.316 -2.2782  0.5356 -1.0414
17353TIP3    H273475   0.150   3.728  16.352  0.1360  1.1998  0.1117
17354TIP3   OH273476   1.370   0.690  12.290 -0.0934  0.8141 -0.1880
17354TIP3    H173477   1.420   0.613  12.266  2.4250  1.6183  2.0363
17354TIP3    H273478   1.363   0.741  12.209  1.7000  0.1132 -0.8107
17355TIP3   OH273479   0.913   4.677   1.812 -0.1759  0.2806 -0.1477
17355TIP3    H173480   0.882   4.707   1.726 -1.0966  0.4324  0.2221
17355TIP3    H273481   0.938   4.586   1.798 -0.6398  0.2039 -0.5052
17356TIP3   OH273482   6.249   0.729   3.102 -0.7571 -0.8557 -0.1900
17356TIP3    H173483   6.273   0.736   3.010  0.3358  0.6416  0.1835
17356TIP3    H273484   6.332   0.739   3.149 -1.5153  0.0639  0.9990
17357TIP3   OH273485   3.706   1.381  11.542 -0.4076 -0.1534 -0.1645
17357TIP3    H173486   3.713   1.307  11.481 -1.2875  0.3937 -0.9740
17357TIP3    H273487   3.618   1.372  11.580 -0.6816  0.6862 -0.5734
17358TIP3   OH273488   2.682   5.421  13.752 -0.4407 -0.0057  0.4345
17358TIP3    H173489   2.599   5.391  13.791 -0.6272  0.2398  0.2298
17358TIP3    H273490   2.741   5.431  13.826 -0.1209 -1.6625  0.4517
17359TIP3   OH273491   5.136   2.801   1.240  0.6169 -0.1650  0.2887
17359TIP3    H173492   5.041   2.798   1.236  0.5952 -1.4374  1.0679
17359TIP3    H273493   5.158   2.894   1.238 -0.4664  0.1162 -2.6474
17360TIP3   OH273494   1.990   5.356   4.223  0.2342 -0.2168 -0.3283
17360TIP3    H173495   1.962   5.267   4.201 -0.6610 -0.8524  2.8618
17360TIP3    H273496   1.948   5.411   4.157 -2.1326 -1.8802 -0.3369
17361TIP3   OH273497   0.070   6.254  16.581 -0.0022 -0.1608 -0.3405
17361TIP3    H173498   0.147   6.233  16.527  0.6383  1.4287 -0.1040
17361TIP3    H273499   0.059   6.349  16.571 -0.3804  0.0380  1.6431
17362TIP3   OH273500   6.467   0.403  16.134 -0.3323 -0.3527  0.1381
17362TIP3    H173501   6.430   0.429  16.049 -0.9133  0.2639  0.5668
17362TIP3    H273502   6.542   0.347  16.112 -1.7818 -2.0296 -0.7453
17363TIP3   OH273503   5.800   3.249   5.227 -0.0132 -0.4709  0.0735
17363TIP3    H173504   5.817   3.205   5.144 -1.2605 -0.1039 -0.4000
17363TIP3    H273505   5.736   3.317   5.206 -0.5158 -0.5040  1.3671
17364TIP3   OH273506   1.229   6.474   0.659  0.4657 -0.3786  0.6873
17364TIP3    H173507   1.321   6.497   0.670  0.1404  0.8181  1.0006
17364TIP3    H273508   1.200   6.525   0.583 -0.1588 -0.0717  1.1254
17365TIP3   OH273509   2.568   5.765   1.014  0.6361 -0.1463  0.2700
17365TIP3    H173510   2.523   5.680   1.016  1.1430 -0.4288 -0.1736
17365TIP3    H273511   2.497   5.829   1.012  0.1356 -0.6123 -2.6211
17366TIP3   OH273512   4.986   4.392   0.708  0.1113  0.3085  0.9352
17366TIP3    H173513   4.915   4.425   0.653  0.6786 -1.1679 -0.7977
17366TIP3    H273514   5.065   4.409   0.657  0.8708  0.6480  2.1965
17367TIP3   OH273515   3.235   4.359   3.752 -0.0954  0.6434 -0.3867
17367TIP3    H173516   3.287   4.332   3.828 -0.5275 -0.4190 -0.4574
17367TIP3    H273517   3.162   4.298   3.750 -1.1437  1.8671 -0.5387
17368TIP3   OH273518   1.597   5.636   2.747 -0.6472  0.0174  1.3952
17368TIP3    H173519   1.577   5.645   2.840  0.3006  2.1606  1.4579
17368TIP3    H273520   1.652   5.712   2.727 -0.4920 -0.6059 -0.8297
17369TIP3   OH273521   2.703   4.189   5.404  0.1433 -0.0213 -0.1933
17369TIP3    H173522   2.709   4.277   5.442 -1.3599 -0.2166  0.5504
17369TIP3    H273523   2.794   4.163   5.391  0.6234  1.6648 -0.4873
17370TIP3   OH273524   2.990   3.407  11.491 -0.4935 -0.3032  0.3456
17370TIP3    H173525   3.044   3.484  11.471  1.2827 -1.3469  0.8972
17370TIP3    H273526   3.004   3.348  11.417  0.2166 -1.1368  1.1301
17371TIP3   OH273527   3.885   1.192  13.544  0.0907 -0.4626 -0.6347
17371TIP3    H173528   3.923   1.277  13.566  1.5471 -0.7949 -1.6801
17371TIP3    H273529   3.816   1.179  13.609  1.5290  0.3507  1.1380
17372TIP3   OH273530   6.531   1.803  17.205 -0.0597 -0.2607  0.1493
17372TIP3    H173531   6.441   1.802  17.236  0.2336  1.0977  1.1753
17372TIP3    H273532   6.577   1.859  17.268  1.4039 -0.5664 -0.6000
17373TIP3   OH273533   5.326   3.845   5.982 -0.2523  0.1531 -0.6266
17373TIP3    H173534   5.269   3.768   5.987  0.7085 -0.5740 -0.5862
17373TIP3    H273535   5.280   3.905   5.925  0.8109 -2.0913 -4.1535
17374TIP3   OH273536   3.526   1.963  15.007 -0.0855 -0.1406  0.4898
17374TIP3    H173537   3.575   1.881  15.014 -0.8704 -0.6571  0.0228
17374TIP3    H273538   3.480   1.957  14.924  1.6977  1.8197 -0.7305
17375TIP3   OH273539   4.996   5.967  10.864 -0.6089  0.3547 -0.2933
17375TIP3    H173540   4.925   5.943  10.805 -0.6432  0.1934 -0.1897
17375TIP3    H273541   5.075   5.968  10.810 -0.5678 -0.2423 -0.2527
17376TIP3   OH273542   6.378   0.370  17.381 -0.2915 -0.0524 -0.5715
17376TIP3    H173543   6.414   0.376  17.470 -1.3204  2.4509 -0.2271
17376TIP3    H273544   6.447   0.404  17.325  0.4545 -1.8727 -0.7948
17377TIP3   OH273545   6.639   6.467  16.840  0.5087 -0.2567  0.3400
17377TIP3    H173546   6.552   6.444  16.808  1.1961 -1.5139 -0.6966
17377TIP3    H273547   6.675   6.523  16.771  0.7136 -0.1480  0.5353
17378TIP3   OH273548   4.488   5.376  14.953  0.3031 -0.2871 -0.2549
17378TIP3    H173549   4.538   5.409  14.877  0.2890 -0.9971 -0.5847
17378TIP3    H273550   4.434   5.306  14.917 -1.6038  1.0203 -0.0722
17379TIP3   OH273551   3.409   2.828  16.869  0.2776  0.8712 -0.1473
17379TIP3    H173552   3.445   2.889  16.805  0.6105  0.9525  0.1135
17379TIP3    H273553   3.358   2.766  16.817 -0.7341  1.8396 -0.3404
17380TIP3   OH273554   4.922   3.772  16.342 -0.4327  0.1036 -0.3813
17380TIP3    H173555   4.840   3.775  16.293 -0.6381 -1.0200 -0.1232
17380TIP3    H273556   4.949   3.681  16.337 -0.6968 -0.1430  1.9845
17381TIP3   OH273557   3.369   0.105   0.342 -0.2866 -0.2420 -0.8997
17381TIP3    H173558   3.370   0.009   0.338 -0.9297 -0.2185 -2.5629
17381TIP3    H273559   3.461   0.130   0.328 -0.0562 -0.6169 -0.0796
17382TIP3   OH273560   3.126   5.962  15.931 -0.3440  0.3762  0.2332
17382TIP3    H173561   3.110   5.876  15.971 -1.2993  1.0728  1.4409
17382TIP3    H273562   3.217   5.982  15.954 -0.5245  0.2543  1.1039
17383TIP3   OH273563   5.795   0.759  12.903  0.3039  0.0143 -0.1764
17383TIP3    H173564   5.851   0.705  12.847  0.2835 -0.5691  0.3456
17383TIP3    H273565   5.753   0.696  12.962 -1.9809  0.2700 -1.4388
17384TIP3   OH273566   1.548   4.987  10.381 -0.2161 -0.0433  0.0269
17384TIP3    H173567   1.499   5.029  10.452 -0.7491 -2.3544  1.1321
17384TIP3    H273568   1.600   4.920  10.425  1.5714  0.2751 -1.4981
17385TIP3   OH273569   0.707   1.478  15.208  0.5975 -0.1171 -0.1532
17385TIP3    H173570   0.758   1.443  15.135  0.3581  0.1576 -0.4580
17385TIP3    H273571   0.639   1.412  15.223  2.7101 -1.9508  2.1828
17386TIP3   OH273572   6.206   5.776  12.581 -0.4282  0.0489 -0.3250
17386TIP3    H173573   6.294   5.794  12.546  1.2199 -0.9114  2.9382
17386TIP3    H273574   6.160   5.859  12.573  0.1187  0.1897 -3.5511
17387TIP3   OH273575   2.261   3.470   0.095 -0.6911  0.5537  0.0914
17387TIP3    H173576   2.276   3.456   0.002  0.0973  1.1330  0.1175
17387TIP3    H273577   2.219   3.390   0.125  0.9872 -0.5296 -0.3430
17388TIP3   OH273578   4.560   3.624   4.613  0.6748  0.6686  0.0775
17388TIP3    H173579   4.522   3.704   4.649  1.3601  1.3120 -0.5835
17388TIP3    H273580   4.640   3.653   4.569  0.2276 -0.1830 -1.3820
17389TIP3   OH273581   5.285   2.300   1.182  0.0899  0.4478 -0.0504
17389TIP3    H173582   5.358   2.356   1.157  0.9347 -0.4090  0.4232
17389TIP3    H273583   5.301   2.218   1.136 -0.0083 -0.0848  0.8288
17390TIP3   OH273584   4.766   4.492   3.749 -0.0862  0.7701  0.2243
17390TIP3    H173585   4.837   4.505   3.812 -0.9226  0.3808  1.3039
17390TIP3    H273586   4.749   4.579   3.713 -0.5952  1.3142  1.7019
17391TIP3   OH273587   5.465   1.320   4.219 -0.2452  0.6130 -0.1167
17391TIP3    H173588   5.447   1.337   4.127 -0.1842  2.5457  0.1908
17391TIP3    H273589   5.380   1.298   4.257 -0.0873 -1.4225 -0.8325
17392TIP3   OH273590   1.335   4.376   4.413 -0.2141  0.0112  0.0763
17392TIP3    H173591   1.401   4.310   4.434 -0.6489 -0.9256 -1.3513
17392TIP3    H273592   1.340   4.386   4.318 -1.6861  0.3982  0.0141
17393TIP3   OH273593   5.875   1.889  15.664  0.0062  0.1009  0.0741
17393TIP3    H173594   5.825   1.948  15.608 -0.2475  0.1911  0.3903
17393TIP3    H273595   5.952   1.865  15.612 -0.6129 -0.4397 -0.6102
17394TIP3   OH273596   5.778   3.300  14.359  0.0529  0.2960  0.1720
17394TIP3    H173597   5.701   3.317  14.414  0.1565  0.1837  0.3543
17394TIP3    H273598   5.754   3.335  14.273 -0.9424 -1.3717 -0.2815
17395TIP3   OH273599   1.755   5.571  16.210  0.0328  0.0138 -0.2739
17395TIP3    H173600   1.753   5.641  16.144  0.0510 -0.2795 -0.5841
17395TIP3    H273601   1.743   5.617  16.293  1.4536  0.5417 -0.3409
17396TIP3   OH273602   1.567   4.792  15.356  0.0719 -0.0889 -0.0351
17396TIP3    H173603   1.607   4.706  15.364  1.2256  0.4302  0.0222
17396TIP3    H273604   1.641   4.852  15.350 -0.7102  0.8445 -0.6725
17397TIP3   OH273605   0.217   2.564   2.100  0.0301 -0.0924 -0.1332
17397TIP3    H173606   0.207   2.595   2.190 -0.5229 -0.5596 -0.0293
17397TIP3    H273607   0.311   2.549   2.091  0.1075  0.0839  0.3270
17398TIP3   OH273608   5.335   2.063   1.758  0.3050 -0.8288 -0.3151
17398TIP3    H173609   5.395   2.121   1.711  0.7712 -1.3953 -0.4250
17398TIP3    H273610   5.376   2.049   1.843 -0.9564  0.9037  0.6565
17399TIP3   OH273611   3.860   0.387  14.341 -0.2894 -0.1131  0.1492
17399TIP3    H173612   3.871   0.310  14.284  0.0344  0.1620 -0.1618
17399TIP3    H273613   3.843   0.350  14.428  2.3806 -0.5741  0.5474
17400TIP3   OH273614   4.526   4.769  14.063 -0.3298  0.3263  0.3110
17400TIP3    H173615   4.551   4.724  13.983  2.0800  0.7222  0.7558
17400TIP3    H273616   4.500   4.699  14.123 -0.4507 -0.1124 -0.2488
17401TIP3   OH273617   6.029   4.072  12.333  0.4333 -0.1485 -0.1375
17401TIP3    H173618   5.941   4.103  12.352  0.3722 -1.0049  1.1066
17401TIP3    H273619   6.084   4.150  12.341  0.1261 -0.0822  1.7828
17402TIP3   OH273620   0.817   3.905  11.112 -0.1811  0.3989  0.4981
17402TIP3    H173621   0.784   3.970  11.049  1.2278  1.9669  1.3048
17402TIP3    H273622   0.757   3.911  11.186  0.4108  1.4129  0.9130
17403TIP3   OH273623   0.409   0.114   4.169 -0.7239 -0.0270 -0.3454
17403TIP3    H173624   0.440   0.080   4.085 -1.0616  1.1079 -0.9445
17403TIP3    H273625   0.425   0.043   4.230 -0.6344 -0.9490 -1.4000
17404TIP3   OH273626   3.790   6.244  12.182 -0.1075  0.0033  0.0474
17404TIP3    H173627   3.867   6.187  12.186  0.3245  0.6333  0.8807
17404TIP3    H273628   3.805   6.311  12.249 -0.9537  0.6740 -0.4072
17405TIP3   OH273629   1.682   0.026   6.024 -0.1776  0.2679  0.0215
17405TIP3    H173630   1.681   0.098   5.960 -0.7885 -0.6289 -1.0076
17405TIP3    H273631   1.625  -0.041   5.986  0.7025 -0.9382  0.7451
17406TIP3   OH273632   5.246   3.891  11.789 -0.0880 -0.6285 -0.4868
17406TIP3    H173633   5.292   3.818  11.831 -0.6340 -0.1390  1.0337
17406TIP3    H273634   5.153   3.874  11.807 -0.3591 -0.4820 -1.6753
17407TIP3   OH273635   1.739   5.909   2.722 -0.1371  0.0126  0.0622
17407TIP3    H173636   1.678   5.954   2.780 -0.7488 -0.2080 -0.3999
17407TIP3    H273637   1.750   5.968   2.647  0.7962  0.3819  0.4653
17408TIP3   OH273638   1.860   2.216  13.496  0.2148  0.2250  0.3003
17408TIP3    H173639   1.868   2.195  13.589  2.3104 -1.3052 -0.1525
17408TIP3    H273640   1.897   2.140  13.451 -1.7143  0.4632 -1.8606
17409TIP3   OH273641   5.293   2.368  16.875 -0.0434  0.1735  0.6189
17409TIP3    H173642   5.205   2.386  16.909 -0.2269 -0.5728  0.5558
17409TIP3    H273643   5.317   2.284  16.914 -0.1730 -0.6073 -0.9063
17410TIP3   OH273644   2.187   4.353   5.127 -0.2249  0.4272  0.6777
17410TIP3    H173645   2.239   4.279   5.096 -2.4473 -1.1408  0.4631
17410TIP3    H273646   2.185   4.413   5.052  1.3410  0.6354  0.7525
17411TIP3   OH273647   5.625   0.919  14.152 -0.5461  0.0623  0.6063
17411TIP3    H173648   5.596   0.838  14.193  0.4161 -1.9985 -2.4187
17411TIP3    H273649   5.547   0.955  14.109 -0.3080 -1.3568 -1.1334
17412TIP3   OH273650   1.579   2.200  15.683 -0.0779 -0.2968  0.0387
17412TIP3    H173651   1.548   2.287  15.708  1.3921 -0.2031  1.7127
17412TIP3    H273652   1.670   2.214  15.657  0.3600 -1.3874  0.8924
17413TIP3   OH273653   4.123   0.244  17.180  0.3820  0.1277 -0.4444
17413TIP3    H173654   4.194   0.225  17.120 -0.2384 -1.1876 -0.7790
17413TIP3    H273655   4.069   0.165  17.182 -0.3480  0.6072  0.8203
17414TIP3   OH273656   4.609   2.519   1.025  0.0307 -0.8899 -0.3001
17414TIP3    H173657   4.553   2.451   0.988 -2.1147  0.8168 -0.3723
17414TIP3    H273658   4.597   2.594   0.967  1.8728 -0.2108  0.1167
17415TIP3   OH273659   0.656   4.488  16.848 -0.5066  0.4382  0.3562
17415TIP3    H173660   0.627   4.486  16.757  0.5614 -1.1918  0.0061
17415TIP3    H273661   0.717   4.562  16.852 -1.1140  0.9737 -0.0438
17416TIP3   OH273662   0.647   6.656   4.428 -0.1137  0.5409 -0.5749
17416TIP3    H173663   0.724   6.697   4.467 -0.1704 -0.7733  0.9972
17416TIP3    H273664   0.683   6.592   4.367  0.0358  0.2355 -0.1688
17417TIP3   OH273665   0.890   2.224  16.555  0.2452 -0.2065 -0.5865
17417TIP3    H173666   0.934   2.140  16.564  0.5798  0.1066  1.1241
17417TIP3    H273667   0.938   2.270  16.487  3.5771  0.6322  2.0359
17418TIP3   OH273668   5.559   5.206   1.505 -0.1066  0.4579  0.3016
17418TIP3    H173669   5.627   5.242   1.562  0.7069  1.1926 -1.0694
17418TIP3    H273670   5.527   5.281   1.455 -0.1399 -0.2901 -0.8502
17419TIP3   OH273671   6.202   4.127   2.382  0.8081 -0.4444  0.2569
17419TIP3    H173672   6.280   4.164   2.342  0.0912  0.5493 -0.2587
17419TIP3    H273673   6.235   4.075   2.456  1.9825 -0.5550 -0.3269
17420TIP3   OH273674   3.130   3.857  14.298 -0.1282  0.2293  0.2095
17420TIP3    H173675   3.056   3.870  14.238 -0.1076  0.1319  0.1644
17420TIP3    H273676   3.091   3.817  14.375 -0.3797  1.4755  0.7659
17421TIP3   OH273677   0.614   3.130   2.300 -0.4758  0.4009 -0.6103
17421TIP3    H173678   0.676   3.056   2.298 -0.5803  0.2118  1.1252
17421TIP3    H273679   0.531   3.091   2.327 -0.5061  1.1392  0.4352
17422TIP3   OH273680   2.088   0.080   5.667 -0.1766 -0.2205 -0.0375
17422TIP3    H173681   1.998   0.055   5.645  0.1792 -0.4435 -1.3500
17422TIP3    H273682   2.080   0.137   5.744 -1.2793 -1.7266  1.0189
17423TIP3   OH273683   2.010   2.928   4.813 -0.1983 -0.4590 -0.7167
17423TIP3    H173684   1.936   2.988   4.817 -0.4888 -0.7803 -1.2133
17423TIP3    H273685   2.010   2.895   4.723  0.4162 -0.6237 -0.6603
17424TIP3   OH273686   1.638   2.935  11.799 -0.1687 -0.3857  0.4385
17424TIP3    H173687   1.625   2.880  11.875  1.1046 -2.6293 -0.8631
17424TIP3    H273688   1.577   2.900  11.733  0.5217 -0.1357 -0.3525
17425TIP3   OH273689   2.740   2.197   0.407 -0.3026  0.3281 -0.0355
17425TIP3    H173690   2.762   2.186   0.315  0.2079 -1.8003  0.2837
17425TIP3    H273691   2.806   2.258   0.441  0.7630 -0.4709 -0.6376
17426TIP3   OH273692   1.912   3.155  17.328 -0.0285 -0.4381 -0.2576
17426TIP3    H173693   1.985   3.136  17.269 -0.5469  0.3957 -1.1783
17426TIP3    H273694   1.837   3.111  17.287 -0.8467  1.9045 -1.4063
17427TIP3   OH273695   2.395   5.488  13.640 -0.1614 -0.6099 -0.2547
17427TIP3    H173696   2.416   5.570  13.595 -1.8613  0.1595  0.2554
17427TIP3    H273697   2.311   5.461  13.602  0.0829 -1.8035  0.0167
17428TIP3   OH273698   1.769   1.220   3.391  0.0400  0.1468 -0.2785
17428TIP3    H173699   1.805   1.235   3.478 -0.3441  1.2307 -0.2968
17428TIP3    H273700   1.789   1.300   3.342 -0.1088 -0.2817 -1.0653
17429TIP3   OH273701   2.528   5.743   6.394 -0.3155 -0.3897  0.1922
17429TIP3    H173702   2.562   5.654   6.399  1.3959  0.1150 -1.1702
17429TIP3    H273703   2.600   5.798   6.426 -0.9272  0.5681 -0.0252
17430TIP3   OH273704   5.689   6.444   4.588  0.2000 -0.7090 -0.7196
17430TIP3    H173705   5.717   6.371   4.643 -1.3300  0.0482  1.1991
17430TIP3    H273706   5.629   6.404   4.524 -0.0480 -1.2630 -0.1562
17431TIP3   OH273707   5.534   4.288   4.374 -0.7300  0.2683  0.5197
17431TIP3    H173708   5.489   4.214   4.333 -0.7991  0.6885 -0.1832
17431TIP3    H273709   5.495   4.295   4.461 -1.5288  0.1875  0.1716
17432TIP3   OH273710   4.649   0.638  12.975 -0.0938 -0.0359 -0.1320
17432TIP3    H173711   4.736   0.602  12.992 -0.3153 -1.1270 -1.1939
17432TIP3    H273712   4.591   0.562  12.978 -0.6582  0.3044 -1.8489
17433TIP3   OH273713   1.688   4.838  11.490  0.8267 -0.0953  0.4837
17433TIP3    H173714   1.762   4.780  11.470 -0.9845 -2.3198 -0.1774
17433TIP3    H273715   1.711   4.921  11.448  1.5193 -1.7123 -2.6810
17434TIP3   OH273716   5.196   1.540   3.917 -0.1432  0.2895  0.1410
17434TIP3    H173717   5.273   1.485   3.925 -2.3851 -3.1832 -0.0925
17434TIP3    H273718   5.157   1.541   4.004 -0.0628  1.7968  0.1995
17435TIP3   OH273719   2.578   6.302   2.045  0.1502  0.0342  0.3768
17435TIP3    H173720   2.538   6.301   2.132 -0.5780 -0.1594  0.0516
17435TIP3    H273721   2.617   6.389   2.038 -0.9875  0.5738  0.3786
17436TIP3   OH273722   0.792   2.399   5.190 -0.1019  0.3295 -0.1300
17436TIP3    H173723   0.699   2.376   5.188 -0.2256  0.8564 -0.9567
17436TIP3    H273724   0.806   2.433   5.279 -1.0423  1.5669 -0.4272
17437TIP3   OH273725   4.555   1.168  15.468 -0.3673 -0.0273 -0.1759
17437TIP3    H173726   4.536   1.075  15.481 -2.4140  0.4020  0.2309
17437TIP3    H273727   4.502   1.214  15.533  1.2811  1.4184  0.2376
17438TIP3   OH273728   5.296   4.425   5.987  0.4379  0.0412 -0.2072
17438TIP3    H173729   5.209   4.425   5.946  0.5714  0.6489 -0.5095
17438TIP3    H273730   5.281   4.462   6.074  0.2044 -0.9695  0.1969
17439TIP3   OH273731   3.354   4.600   2.830  0.0072 -0.0204  0.0724
17439TIP3    H173732   3.393   4.687   2.831 -0.4596  0.1953  1.7469
17439TIP3    H273733   3.313   4.590   2.916  0.9018 -2.2800  0.3140
17440TIP3   OH273734   2.117   2.225  11.390  0.4551  0.4107 -0.3419
17440TIP3    H173735   2.122   2.321  11.382 -1.0592  0.3528 -2.8786
17440TIP3    H273736   2.188   2.193  11.334  1.8596 -0.0340  1.5676
17441TIP3   OH273737   0.282   0.439   3.513  0.1342 -0.4144 -0.3580
17441TIP3    H173738   0.200   0.487   3.523  0.0866 -0.4096 -0.7579
17441TIP3    H273739   0.255   0.349   3.493  0.2281 -0.3882 -0.6019
17442TIP3   OH273740   0.203   5.962   4.824  0.3934 -0.1833  0.5381
17442TIP3    H173741   0.148   6.038   4.804  0.4713  0.0866  1.3212
17442TIP3    H273742   0.275   5.967   4.761  1.0782  1.1021  1.3894
17443TIP3   OH273743   2.281   3.406  14.758  0.1183 -0.0800  0.1999
17443TIP3    H173744   2.307   3.451  14.677  2.3142  0.3191  1.0440
17443TIP3    H273745   2.199   3.363  14.736 -0.1612  1.2888 -1.7733
17444TIP3   OH273746   4.102   6.540   0.143  0.0824 -0.3712  0.2778
17444TIP3    H173747   4.172   6.567   0.083 -1.2281  1.6068 -0.4371
17444TIP3    H273748   4.143   6.542   0.229  1.1109  0.0293 -0.1999
17445TIP3   OH273749   6.712   2.155  11.730  0.3709  0.0652 -0.3213
17445TIP3    H173750   6.759   2.230  11.767  1.0621  0.1248 -1.2797
17445TIP3    H273751   6.695   2.180  11.639  1.5109 -1.3283 -0.9567
17446TIP3   OH273752   4.421   1.689  12.833 -0.0579 -0.0315 -0.5979
17446TIP3    H173753   4.388   1.599  12.842 -0.7100  0.3620  1.9794
17446TIP3    H273754   4.487   1.697  12.902 -1.8319  2.1467  1.0279
17447TIP3   OH273755   0.345   1.889  11.912 -0.2304  0.0626 -0.3174
17447TIP3    H173756   0.390   1.883  11.996 -0.0027 -0.2754 -0.4649
17447TIP3    H273757   0.260   1.927  11.934 -0.7441 -1.3556  0.2872
17448TIP3   OH273758   6.021   4.318  12.891  0.2988  0.9210  0.3549
17448TIP3    H173759   6.028   4.293  12.984 -0.9138  1.4718  0.6189
17448TIP3    H273760   5.932   4.293  12.867  0.8537  0.0747 -0.8991
17449TIP3   OH273761   1.285   1.235   3.650  0.4225 -0.4078 -0.1299
17449TIP3    H173762   1.294   1.151   3.695 -0.1363 -0.8591 -0.8371
17449TIP3    H273763   1.368   1.247   3.604  1.5455  0.7113  2.0568
17450TIP3   OH273764   4.271   4.500   4.781  0.3562 -0.1606  0.3933
17450TIP3    H173765   4.287   4.461   4.867 -1.5017 -0.5593  0.5956
17450TIP3    H273766   4.325   4.579   4.781 -0.6585  0.6293  2.5382
17451TIP3   OH273767   5.432   1.811  14.054  0.6586  0.1543 -0.4425
17451TIP3    H173768   5.445   1.853  13.969  0.3549 -2.0601 -1.6471
17451TIP3    H273769   5.483   1.730  14.049 -0.8029 -0.8923  0.7958
17452TIP3   OH273770   3.884   0.743   3.494 -0.1487 -0.2733  0.1209
17452TIP3    H173771   3.913   0.712   3.408  1.3871 -0.6972  0.7703
17452TIP3    H273772   3.947   0.706   3.556 -0.6906  0.7837  1.3462
17453TIP3   OH273773   5.660   0.340  12.217  0.4059 -0.0943  0.0493
17453TIP3    H173774   5.701   0.332  12.302  0.1129  0.3228  0.2358
17453TIP3    H273775   5.572   0.304  12.229  0.8859 -1.5113 -0.4940
17454TIP3   OH273776   4.367   2.343   4.012 -0.2033  0.1994 -0.3154
17454TIP3    H173777   4.393   2.353   3.921 -1.1764 -0.1094 -0.6410
17454TIP3    H273778   4.324   2.426   4.035 -2.0880 -0.5645 -0.8937
17455TIP3   OH273779   3.819   4.656  16.154  0.5405  0.3835 -0.8205
17455TIP3    H173780   3.844   4.568  16.183  2.9127  1.4002  0.5392
17455TIP3    H273781   3.771   4.692  16.229  0.7853  0.7074 -0.8194
17456TIP3   OH273782   1.250   3.574   1.603 -0.4772  0.2093  0.3854
17456TIP3    H173783   1.204   3.564   1.520 -0.1764  0.2032  0.2180
17456TIP3    H273784   1.243   3.667   1.623  1.3600  0.6446 -0.7746
17457TIP3   OH273785   0.975   5.718  15.040  0.2645 -0.1523  0.4606
17457TIP3    H173786   1.020   5.634  15.045 -0.0491 -0.3301  0.3605
17457TIP3    H273787   0.882   5.695  15.048  0.0579  0.0125 -1.0874
17458TIP3   OH273788   3.202   2.426  13.634  0.3203  0.1455 -0.2173
17458TIP3    H173789   3.172   2.403  13.723  1.4556 -0.7672 -0.0539
17458TIP3    H273790   3.176   2.351  13.580 -1.7587  1.3520 -1.0181
17459TIP3   OH273791   2.007   3.979   2.494 -0.0613  0.0516  0.0337
17459TIP3    H173792   2.025   4.010   2.405 -1.1754 -0.1326 -0.2667
17459TIP3    H273793   2.094   3.964   2.531  0.4582 -1.7150 -1.6892
17460TIP3   OH273794   0.105   3.205   5.179 -0.2244 -0.0509  0.0778
17460TIP3    H173795   0.100   3.164   5.265  0.1417  0.2030  0.2209
17460TIP3    H273796   0.192   3.245   5.176 -0.9027  1.5338  0.3142
17461TIP3   OH273797   3.103   1.952   1.854  0.7376 -0.1444 -0.0561
17461TIP3    H173798   3.132   1.986   1.939 -1.4411  1.6969  0.0318
17461TIP3    H273799   3.120   2.023   1.792  2.0161 -1.3478 -1.1834
17462TIP3   OH273800   0.089   6.268  13.814  0.5083 -0.3389  0.0420
17462TIP3    H173801   0.100   6.335  13.746  3.0670 -0.5545  0.1491
17462TIP3    H273802   0.022   6.209  13.779  0.0386  0.8710 -1.1847
17463TIP3   OH273803   2.153   4.724  13.088 -0.2291  0.3439 -0.0476
17463TIP3    H173804   2.070   4.706  13.132  0.1583 -0.1866  0.4910
17463TIP3    H273805   2.219   4.694  13.150  0.3653  0.7912 -0.4561
17464TIP3   OH273806   6.319   2.528  16.551 -0.0933  0.5977 -0.0447
17464TIP3    H173807   6.331   2.517  16.456 -1.0376  2.1466 -0.3719
17464TIP3    H273808   6.282   2.616  16.561 -2.1182 -0.3745  1.6014
17465TIP3   OH273809   2.581   6.281  13.618 -0.2121  0.2405  0.0191
17465TIP3    H173810   2.651   6.262  13.680 -0.3260  0.2205  0.1412
17465TIP3    H273811   2.609   6.361  13.574  0.1220 -0.0333 -0.2761
17466TIP3   OH273812   2.826   2.986  11.483  0.5809  0.2573 -0.0730
17466TIP3    H173813   2.786   2.944  11.407 -0.2846  0.9261 -0.0054
17466TIP3    H273814   2.917   2.957  11.482  0.2810 -0.6901 -0.6742
17467TIP3   OH273815   1.051   3.210   2.278 -0.5725  0.2165 -0.3699
17467TIP3    H173816   1.055   3.273   2.349 -1.6964 -0.1428  0.0331
17467TIP3    H273817   1.079   3.127   2.318 -2.9467 -0.4027  0.2059
17468TIP3   OH273818   1.410   5.488  13.084 -0.6380  0.3273 -0.3868
17468TIP3    H173819   1.314   5.481  13.089 -0.5219 -0.8362  0.5666
17468TIP3    H273820   1.428   5.580  13.103 -1.4986  0.2459  0.9795
17469TIP3   OH273821   1.318   3.678   4.699 -0.5392 -0.1687  0.0108
17469TIP3    H173822   1.378   3.743   4.734 -0.1796 -0.0342 -0.8260
17469TIP3    H273823   1.281   3.634   4.776  1.4179 -0.9849  0.5430
17470TIP3   OH273824   6.350   4.301   9.040 -0.6073  0.1741  0.3422
17470TIP3    H173825   6.384   4.213   9.022  1.3916  1.2481 -1.7188
17470TIP3    H273826   6.275   4.287   9.097  0.8613 -2.7127  1.7702
17471TIP3   OH273827   0.993   2.716  11.988 -0.3084  0.5455  0.6679
17471TIP3    H173828   0.903   2.746  11.997 -0.7514 -1.0842  2.0724
17471TIP3    H273829   1.046   2.789  12.019 -1.3427  0.0016  4.0786
17472TIP3   OH273830   3.953   1.281   2.514  0.4563  0.2430 -0.6865
17472TIP3    H173831   3.866   1.321   2.518 -0.5093 -1.8263  1.0098
17472TIP3    H273832   3.982   1.276   2.606  1.7002 -0.5022 -1.0907
17473TIP3   OH273833   2.425   6.223  14.084 -0.3244  0.3016  0.3570
17473TIP3    H173834   2.392   6.143  14.042 -1.5913  1.6718 -1.4771
17473TIP3    H273835   2.462   6.273  14.012  0.8263  1.2098  1.5438
17474TIP3   OH273836   2.014   6.590   0.725 -0.3691 -0.3854  0.3811
17474TIP3    H173837   2.102   6.592   0.762 -0.6462 -0.0298  1.0269
17474TIP3    H273838   1.993   6.497   0.718 -0.2755 -0.4569  1.0279
17475TIP3   OH273839   6.251   2.171  15.007  0.4718  0.6334 -0.3605
17475TIP3    H173840   6.307   2.203  14.937 -0.5209  2.4830 -0.3470
17475TIP3    H273841   6.165   2.162  14.967  0.4154 -0.7697  0.0033
17476TIP3   OH273842   0.716   4.603   0.338  0.2016 -0.1205  0.1312
17476TIP3    H173843   0.778   4.601   0.265 -1.0888  0.3772 -1.0237
17476TIP3    H273844   0.678   4.515   0.339  1.1463 -0.5344  1.0618
17477TIP3   OH273845   3.142   6.037  12.478 -0.1527 -0.5121 -0.4094
17477TIP3    H173846   3.094   6.116  12.500 -0.1277  0.0834 -2.3040
17477TIP3    H273847   3.222   6.068  12.435 -0.2920 -1.5450 -1.4749
17478TIP3   OH273848   2.552   0.633   5.390 -0.1861 -0.0216 -0.3370
17478TIP3    H173849   2.523   0.542   5.402  0.7885 -0.1590  1.1916
17478TIP3    H273850   2.472   0.681   5.367 -0.3929 -1.6077 -3.5720
17479TIP3   OH273851   5.920   2.819  14.251 -0.2602 -0.1714 -0.8140
17479TIP3    H173852   5.899   2.809  14.344  0.0965 -1.6303 -0.8581
17479TIP3    H273853   5.925   2.913  14.238 -0.1692  0.0672  0.6833
17480TIP3   OH273854   1.188   3.772  15.503 -0.3488 -0.3183 -0.3394
17480TIP3    H173855   1.112   3.831  15.502 -0.4379 -0.3195  1.6041
17480TIP3    H273856   1.152   3.685  15.518 -0.0317 -0.4338 -0.2179
17481TIP3   OH273857   2.147   1.530   5.022  0.0121  0.1441  0.4555
17481TIP3    H173858   2.228   1.550   5.070 -0.8270  1.6235  1.3097
17481TIP3    H273859   2.133   1.437   5.039  1.5656 -0.1741  0.2246
17482TIP3   OH273860   3.454   3.124  12.742 -0.0051  0.0030  0.0508
17482TIP3    H173861   3.436   3.030  12.747  0.0129  0.0407  1.2029
17482TIP3    H273862   3.371   3.164  12.719 -0.0809 -0.2725 -0.1547
17483TIP3   OH273863   2.374   3.578  16.036  0.4047  0.0300  0.3874
17483TIP3    H173864   2.304   3.518  16.062  0.2733 -0.5131 -1.0867
17483TIP3    H273865   2.427   3.527  15.974 -1.5360  2.3023 -3.5010
17484TIP3   OH273866   1.571   2.298  16.194  0.0855  0.2551  0.2190
17484TIP3    H173867   1.528   2.380  16.218  1.2456  1.1551 -0.6605
17484TIP3    H273868   1.521   2.266  16.118  1.2384  1.6180 -1.1939
17485TIP3   OH273869   0.043   0.160  12.375  0.1466  0.1621 -0.1681
17485TIP3    H173870  -0.012   0.160  12.296  0.6698 -0.9927 -0.5464
17485TIP3    H273871   0.065   0.252  12.388 -0.3155  0.4241 -1.1105
17486TIP3   OH273872   0.950   3.960   0.364 -0.1816  0.3987  0.6975
17486TIP3    H173873   0.990   3.873   0.368 -1.5818 -0.2396  1.3333
17486TIP3    H273874   0.868   3.951   0.412 -0.3183  2.1019  0.8390
17487TIP3   OH273875   1.588   1.737   1.127 -0.1622  0.5054  0.0990
17487TIP3    H173876   1.669   1.756   1.174 -0.8248  1.3175  0.9692
17487TIP3    H273877   1.608   1.661   1.074  1.9027  2.1115 -1.5993
17488TIP3   OH273878   3.655   2.294   3.464 -0.6583 -0.1471  0.3519
17488TIP3    H173879   3.719   2.321   3.398 -2.1976  1.5672 -0.5180
17488TIP3    H273880   3.684   2.338   3.544 -0.4115  0.0915  0.1333
17489TIP3   OH273881   1.576   0.048   1.057 -0.3959 -0.1352 -0.3512
17489TIP3    H173882   1.637   0.044   1.131 -0.5975 -0.5857 -0.2092
17489TIP3    H273883   1.529  -0.035   1.060  1.2421 -1.2421 -2.4079
17490TIP3   OH273884   4.500   3.850  14.041  0.1240 -0.1398  0.3370
17490TIP3    H173885   4.483   3.944  14.044  1.5445  0.1689 -0.2200
17490TIP3    H273886   4.498   3.829  13.947 -4.3917 -1.5778  0.5281
17491TIP3   OH273887   2.086   0.738  16.918  0.2436  0.0152 -0.0438
17491TIP3    H173888   2.112   0.828  16.898  0.2966 -0.2392 -1.2153
17491TIP3    H273889   2.162   0.685  16.896  0.0214 -0.3708  0.1011
17492TIP3   OH273890   0.826   2.481  12.705  0.3741 -0.1421 -0.7781
17492TIP3    H173891   0.917   2.459  12.685  0.6133  1.1379 -1.1600
17492TIP3    H273892   0.774   2.414  12.660  1.0075  0.9553 -3.2697
17493TIP3   OH273893   2.015   2.960   0.378 -0.5725  0.2781  0.1605
17493TIP3    H173894   2.104   2.937   0.402 -0.3380 -0.8954 -1.6537
17493TIP3    H273895   2.023   3.044   0.333  0.2836 -1.5374 -3.4405
17494TIP3   OH273896   4.586   4.134   4.719  0.1750 -0.0957  0.4956
17494TIP3    H173897   4.676   4.102   4.711  0.4980  0.8357  0.3393
17494TIP3    H273898   4.592   4.212   4.773 -0.7657 -0.9222  1.8507
17495TIP3   OH273899   5.099   5.869  16.394  0.0936 -0.7963  0.1525
17495TIP3    H173900   5.040   5.934  16.431  1.0605  1.0197 -1.3100
17495TIP3    H273901   5.044   5.815  16.338 -0.3867  0.1910 -0.3533
17496TIP3   OH273902   2.040   4.249  12.801  0.3913 -0.0824 -0.2003
17496TIP3    H173903   2.123   4.203  12.783  0.7428  1.1189 -1.8954
17496TIP3    H273904   2.067   4.336  12.829 -0.2910 -0.6196  2.4004
17497TIP3   OH273905   5.462   0.653   5.446  0.3199 -0.0313 -0.1212
17497TIP3    H173906   5.541   0.665   5.499 -0.4392  1.5439  0.7205
17497TIP3    H273907   5.493   0.607   5.368  1.7983 -0.7675  0.8414
17498TIP3   OH273908   4.006   4.209   4.570  0.4354  0.6510  0.0005
17498TIP3    H173909   3.994   4.240   4.481 -0.0888  0.6134  0.0537
17498TIP3    H273910   4.059   4.277   4.613 -0.2370  1.2111 -0.0359
17499TIP3   OH273911   6.755   2.077   1.891  0.1843  0.4346 -0.0848
17499TIP3    H173912   6.805   1.998   1.909 -0.4603  0.2991  1.2964
17499TIP3    H273913   6.684   2.048   1.834  1.1709  0.4743 -1.3797
17500TIP3   OH273914   5.361   5.168   0.827 -0.2520 -0.0450 -0.5333
17500TIP3    H173915   5.453   5.142   0.839 -0.2121 -0.4805 -1.6262
17500TIP3    H273916   5.366   5.256   0.789 -0.3078  0.1529 -0.0909
17501TIP3   OH273917   6.169   6.357   2.293 -0.1746 -0.2196  0.2785
17501TIP3    H173918   6.254   6.368   2.334  1.0326 -0.2832 -2.0155
17501TIP3    H273919   6.124   6.293   2.348  1.0977  0.0988  1.7570
17502TIP3   OH273920   2.686   5.200   5.646  0.2269  0.2281  0.1160
17502TIP3    H173921   2.767   5.154   5.668 -0.9688 -1.0411  2.1230
17502TIP3    H273922   2.626   5.179   5.717 -2.1109  0.5659 -1.6303
17503TIP3   OH273923   3.813   5.225   1.588 -0.4896  0.7070 -0.1450
17503TIP3    H173924   3.869   5.303   1.583  0.8806 -0.2393 -0.0594
17503TIP3    H273925   3.855   5.162   1.530 -1.3617 -0.1142  0.0986
17504TIP3   OH273926   4.115   2.237  17.127  0.1866 -0.4236  0.0756
17504TIP3    H173927   4.089   2.278  17.044 -1.7268  0.5849  1.1230
17504TIP3    H273928   4.183   2.294  17.162  1.4044 -1.1453 -0.9896
17505TIP3   OH273929   5.811   0.090  12.848  0.5279  0.2410 -0.4887
17505TIP3    H173930   5.758   0.076  12.770  0.6111 -0.9075 -0.3461
17505TIP3    H273931   5.796   0.182  12.870 -2.6890 -0.3782  0.4635
17506TIP3   OH273932   2.890   4.153   3.945 -0.8567  0.6747  0.9171
17506TIP3    H173933   2.950   4.178   3.875 -3.0288  1.3144 -0.8543
17506TIP3    H273934   2.943   4.100   4.005  1.4115  1.1834 -0.5178
17507TIP3   OH273935   1.170   4.816  13.565 -0.1588 -0.0091  0.4264
17507TIP3    H173936   1.092   4.822  13.619 -0.0688  1.8009  0.4347
17507TIP3    H273937   1.234   4.772  13.620 -0.6197  0.1816  1.1296
17508TIP3   OH273938   3.467   2.555   3.615 -0.1715  0.3154 -0.3797
17508TIP3    H173939   3.450   2.533   3.524 -1.0380 -1.2115  0.1181
17508TIP3    H273940   3.399   2.509   3.664  0.9742  0.1545  1.1338
17509TIP3   OH273941   0.880   6.003   3.231 -0.4162  0.1479 -0.1073
17509TIP3    H173942   0.923   5.964   3.154  0.6599  0.9273  0.0662
17509TIP3    H273943   0.891   6.097   3.218 -2.1896  0.3952 -0.0843
17510TIP3   OH273944   2.805   3.975   3.298 -0.2170 -0.4480  0.3643
17510TIP3    H173945   2.768   3.916   3.233  0.4539 -0.2378 -0.2187
17510TIP3    H273946   2.892   3.996   3.265 -0.6795  1.4261  0.1901
17511TIP3   OH273947   3.046   4.818  15.763  0.3622 -0.2961  0.2176
17511TIP3    H173948   3.088   4.885  15.709  0.3681 -0.2188  0.3169
17511TIP3    H273949   2.955   4.847  15.771  0.1706 -0.7117 -0.3906
17512TIP3   OH273950   1.245   1.544  15.991  0.5269 -0.2140 -0.2554
17512TIP3    H173951   1.305   1.471  15.976 -0.9315 -1.2841 -1.1525
17512TIP3    H273952   1.179   1.509  16.052  0.7909  0.9426  0.7349
17513TIP3   OH273953   5.477   1.584  13.710  0.1614 -0.3350  0.0952
17513TIP3    H173954   5.557   1.621  13.671 -0.1460  0.9205  0.6311
17513TIP3    H273955   5.435   1.658  13.754 -1.3324 -0.9696 -0.2204
17514TIP3   OH273956   0.898   0.915   1.449  0.3816  0.4195  1.1664
17514TIP3    H173957   0.992   0.918   1.430  0.5484  0.4415  1.9641
17514TIP3    H273958   0.892   0.933   1.543 -0.2731 -1.4031  1.5157
17515TIP3   OH273959   3.915   3.717  13.788  0.4632  0.2463  0.5378
17515TIP3    H173960   3.831   3.674  13.776  1.5000 -1.6619 -0.5369
17515TIP3    H273961   3.897   3.793  13.842 -1.8792 -0.2854  0.5805
17516TIP3   OH273962   2.323   4.934   2.241  0.0335 -0.6022  0.0475
17516TIP3    H173963   2.318   4.843   2.212  1.5709 -1.4052  2.0037
17516TIP3    H273964   2.416   4.956   2.234 -0.1583  0.4514  0.5874
17517TIP3   OH273965   2.633   4.480   5.442 -0.5381 -0.4460  0.3594
17517TIP3    H173966   2.714   4.530   5.459 -0.5101  0.1352 -1.3397
17517TIP3    H273967   2.573   4.509   5.511  0.7185 -1.0227  1.7764
17518TIP3   OH273968   4.755   0.514   0.780 -0.0702  0.2974 -0.3276
17518TIP3    H173969   4.724   0.451   0.714 -1.8148  1.6799 -0.8914
17518TIP3    H273970   4.746   0.599   0.738 -0.0891  1.1228  1.2924
17519TIP3   OH273971   1.445   4.618  17.242  0.1548 -0.2185  0.4913
17519TIP3    H173972   1.435   4.649  17.331 -2.3762 -1.1987  0.6525
17519TIP3    H273973   1.427   4.524  17.247 -1.7466 -0.0352 -1.2107
17520TIP3   OH273974   6.086   0.287  16.199  0.1350  0.0900 -0.0984
17520TIP3    H173975   6.119   0.331  16.121  1.8457 -0.8890  0.0292
17520TIP3    H273976   6.147   0.312  16.269  0.0690 -0.9950  0.3727
17521TIP3   OH273977   2.361   2.752   0.563 -0.3560  0.1971 -0.2603
17521TIP3    H173978   2.362   2.658   0.581 -1.4127 -0.1406 -1.7829
17521TIP3    H273979   2.447   2.771   0.525 -0.5032 -0.3673 -0.8838
17522TIP3   OH273980   6.651   4.263  12.515 -0.1468 -0.3180  0.0586
17522TIP3    H173981   6.658   4.217  12.599  0.6417 -0.2634  0.0257
17522TIP3    H273982   6.740   4.291  12.495 -0.3811 -0.0562 -0.6489
17523TIP3   OH273983   2.239   5.343   2.585 -0.2183  0.2906  0.6490
17523TIP3    H173984   2.309   5.341   2.520  1.5935 -1.0233  2.5162
17523TIP3    H273985   2.207   5.433   2.584  0.6996  0.6362 -1.0461
17524TIP3   OH273986   3.442   3.953   3.139 -0.2252  0.3444  0.1672
17524TIP3    H173987   3.366   3.898   3.123 -0.6104  0.7686  0.5128
17524TIP3    H273988   3.451   4.006   3.060  1.2226 -1.4258 -0.9405
17525TIP3   OH273989   2.351   2.482   0.619 -0.2315  0.1679 -0.2641
17525TIP3    H173990   2.269   2.443   0.587 -0.3848  0.2586  0.0069
17525TIP3    H273991   2.401   2.407   0.652  1.1056 -0.3290 -3.1118
17526TIP3   OH273992   5.255   1.047   5.976 -0.0145 -0.1414 -0.1849
17526TIP3    H173993   5.341   1.074   6.009 -0.6084  1.3617  0.2233
17526TIP3    H273994   5.267   0.955   5.953  1.6668 -0.0120 -0.0209
17527TIP3   OH273995   1.210   5.918  13.140  0.1639  0.3690 -0.0622
17527TIP3    H173996   1.271   5.967  13.195  0.0797  0.7505 -0.3075
17527TIP3    H273997   1.222   5.954  13.053  1.2263 -1.1063 -0.5575
17528TIP3   OH273998   2.048   4.007   0.974 -0.0719 -1.2561 -0.0685
17528TIP3    H173999   2.004   4.049   1.047 -0.8176 -0.5952 -0.8797
17528TIP3    H274000   1.978   3.962   0.926  0.1087 -0.2472 -1.3374
17529TIP3   OH274001   0.752   3.608  11.388  0.0245  0.0193  0.4581
17529TIP3    H174002   0.709   3.550  11.452 -1.7596 -0.1531 -0.8260
17529TIP3    H274003   0.819   3.653  11.439 -0.9435 -0.5184  2.3346
17530TIP3   OH274004   3.898   4.017   1.554  0.1363  0.5963  0.2279
17530TIP3    H174005   3.852   4.094   1.588 -1.0626 -0.2290  0.5036
17530TIP3    H274006   3.952   3.987   1.627  0.5612  1.1247  0.1395
17531TIP3   OH274007   1.139   2.059   2.000  0.2954  0.0361  0.1487
17531TIP3    H174008   1.087   1.980   2.014 -0.3767  0.7915  2.2176
17531TIP3    H274009   1.083   2.117   1.949  0.2272 -0.2515 -0.1043
17532TIP3   OH274010   5.503   5.645   6.151 -0.1884 -0.4894 -0.4834
17532TIP3    H174011   5.587   5.691   6.153 -0.6410  0.3725  1.7431
17532TIP3    H274012   5.453   5.688   6.082  0.2898  0.7204 -0.0945
17533TIP3   OH274013   1.219   5.910  12.449  0.1139 -0.1588  0.2239
17533TIP3    H174014   1.141   5.919  12.504  0.1902 -0.7724  0.4390
17533TIP3    H274015   1.219   5.988  12.394 -2.4486 -1.6296 -2.0898
17534TIP3   OH274016   3.324   3.223  10.878 -0.7307  0.4963 -0.0197
17534TIP3    H174017   3.308   3.129  10.887 -0.5750  0.4086 -0.6303
17534TIP3    H274018   3.256   3.264  10.931 -0.7472  0.0383  0.3192
17535TIP3   OH274019   4.319   2.495  15.748 -0.0178  0.7016  0.2148
17535TIP3    H174020   4.277   2.581  15.747 -0.0028  0.7082 -0.1178
17535TIP3    H274021   4.248   2.433  15.738 -0.0618  0.6568  0.7705
17536TIP3   OH274022   4.077   1.065   0.896  0.2280 -0.2779  0.7028
17536TIP3    H174023   4.067   1.159   0.881  0.9345 -0.4129 -0.8889
17536TIP3    H274024   3.988   1.033   0.907 -0.1618  0.3551 -0.3944
17537TIP3   OH274025   3.726   3.709   5.367 -0.3441  0.0964 -0.2758
17537TIP3    H174026   3.769   3.702   5.281  1.1276 -0.2236  0.4470
17537TIP3    H274027   3.638   3.675   5.353 -0.4700  0.9650 -1.8845
17538TIP3   OH274028   2.295   6.446  14.383 -0.0790  0.3313 -0.2093
17538TIP3    H174029   2.284   6.370  14.327 -0.8239  1.0952 -1.1305
17538TIP3    H274030   2.389   6.451  14.399  0.1572  0.1510 -1.4640
17539TIP3   OH274031   2.689   0.576   3.648 -0.3268  0.4368  0.6044
17539TIP3    H174032   2.720   0.506   3.591 -3.1246  1.0586 -1.9867
17539TIP3    H274033   2.623   0.535   3.704  0.4186  0.3947  1.4784
17540TIP3   OH274034   2.991   0.130  16.022 -0.3462 -0.2643 -0.1111
17540TIP3    H174035   2.993   0.056  16.083 -0.6899 -0.5768 -0.4769
17540TIP3    H274036   2.904   0.167  16.032  0.3418  1.1265  1.2807
17541TIP3   OH274037   1.889   3.128   3.097 -0.5171 -0.2965 -0.1479
17541TIP3    H174038   1.956   3.065   3.125 -1.6427 -1.9517 -0.9755
17541TIP3    H274039   1.930   3.214   3.110  0.0879 -0.9927  3.6506
17542TIP3   OH274040   0.973   5.437   4.892 -0.0554 -0.1209 -0.0940
17542TIP3    H174041   0.993   5.495   4.819  0.8771 -0.1964  0.0766
17542TIP3    H274042   0.993   5.349   4.858  1.3640 -0.0759  0.5332
17543TIP3   OH274043   3.559   4.755   3.763 -0.1938  0.6314  0.5172
17543TIP3    H174044   3.648   4.787   3.748  0.5985 -1.2017  1.0712
17543TIP3    H274045   3.517   4.824   3.813  0.6862  1.8257 -0.3286
17544TIP3   OH274046   2.706   5.435   6.241  0.0176 -0.2043 -0.1637
17544TIP3    H174047   2.652   5.428   6.320 -0.8676  2.8386 -0.3818
17544TIP3    H274048   2.796   5.435   6.275 -0.2551 -0.9861  0.6169
17545TIP3   OH274049   0.473   3.296   3.978  0.1598  0.0578  0.3738
17545TIP3    H174050   0.459   3.382   4.018 -0.8568 -0.2483  0.7275
17545TIP3    H274051   0.562   3.299   3.943  0.7868  0.6327  1.9469
17546TIP3   OH274052   1.429   4.125  16.212  0.5106 -0.4744 -0.2877
17546TIP3    H174053   1.456   4.101  16.124  0.8971  0.3866 -0.4199
17546TIP3    H274054   1.510   4.151  16.257 -0.0371  2.7209 -0.8859
17547TIP3   OH274055   1.988   2.690  15.055 -0.1308 -0.6600 -0.2630
17547TIP3    H174056   2.032   2.750  14.995  0.6736  1.9660  2.6958
17547TIP3    H274057   1.926   2.745  15.103 -1.9353 -2.9723  0.2071
17548TIP3   OH274058   4.841   3.506   3.594 -0.0704 -0.2054  0.0569
17548TIP3    H174059   4.751   3.500   3.628 -0.5252  0.5506 -0.9619
17548TIP3    H274060   4.894   3.523   3.671 -0.9878  0.7211  0.5124
17549TIP3   OH274061   2.852   4.196   4.869 -0.0460  0.4581 -0.4230
17549TIP3    H174062   2.830   4.136   4.939  0.0118  0.9004 -0.0234
17549TIP3    H274063   2.769   4.213   4.824  0.2362 -1.4586 -1.7833
17550TIP3   OH274064   5.048   2.470  12.958 -0.0883 -0.4278  0.2061
17550TIP3    H174065   5.133   2.498  12.990  0.1758 -2.5989  1.6683
17550TIP3    H274066   4.992   2.470  13.037 -0.9404 -0.7174 -0.3793
17551TIP3   OH274067   2.205   0.588   1.615 -0.7343  0.5831 -0.5968
17551TIP3    H174068   2.190   0.666   1.561  1.0487  1.0290 -0.5114
17551TIP3    H274069   2.120   0.544   1.618 -1.8505  2.6434 -0.4375
17552TIP3   OH274070   5.669   4.706   5.669  0.2319 -0.0902 -0.2664
17552TIP3    H174071   5.708   4.790   5.646  1.5972 -0.7410 -0.4546
17552TIP3    H274072   5.645   4.667   5.585  2.4028 -1.1520 -0.4671
17553TIP3   OH274073   0.468   0.153   4.686 -0.1768  0.0692  0.3320
17553TIP3    H174074   0.394   0.211   4.667 -1.3628 -1.3441  0.4297
17553TIP3    H274075   0.543   0.197   4.647 -0.7165  2.4374  1.7813
17554TIP3   OH274076   2.227   4.576   6.874 -0.2993  0.3112 -0.3775
17554TIP3    H174077   2.198   4.615   6.956  1.6988  0.3633  0.3634
17554TIP3    H274078   2.173   4.618   6.807  0.0087  2.4595  0.6383
17555TIP3   OH274079   1.307   5.927  15.338 -0.0716 -0.4010 -0.5224
17555TIP3    H174080   1.296   5.975  15.256 -0.8795  0.2164 -0.0704
17555TIP3    H274081   1.253   5.849  15.328 -0.4024 -0.1822 -0.4755
17556TIP3   OH274082   2.266   1.563  16.870  0.0570  0.5841 -0.1459
17556TIP3    H174083   2.318   1.563  16.951  2.2284  0.7027 -1.4670
17556TIP3    H274084   2.327   1.591  16.802 -1.5726  0.0304 -1.9313
17557TIP3   OH274085   2.114   6.403   5.690 -0.1335  0.0588 -0.1063
17557TIP3    H174086   2.168   6.327   5.671 -0.7652 -0.8026  1.3852
17557TIP3    H274087   2.114   6.453   5.608  2.4707 -0.1387 -0.3203
17558TIP3   OH274088   1.166   3.307   0.490  0.8115 -0.6577 -0.5149
17558TIP3    H174089   1.126   3.221   0.480 -1.0233 -0.0161  0.8586
17558TIP3    H274090   1.188   3.312   0.584  0.7072  0.4444 -0.5400
17559TIP3   OH274091   5.847   2.470   1.598  0.6423  0.2509 -0.2151
17559TIP3    H174092   5.830   2.439   1.508 -1.4926 -1.0248  0.5557
17559TIP3    H274093   5.869   2.391   1.646  0.9225  0.8122  0.5911
17560TIP3   OH274094   0.953   5.287  11.032  0.3963  0.2310 -0.4516
17560TIP3    H174095   1.045   5.286  11.004  0.0344  0.3756 -1.7212
17560TIP3    H274096   0.954   5.249  11.120  1.6237 -0.1302 -0.6019
17561TIP3   OH274097   5.600   2.198  16.493  0.1093 -0.4616  0.6798
17561TIP3    H174098   5.682   2.228  16.453  1.6591 -1.2175  3.0583
17561TIP3    H274099   5.594   2.248  16.574 -1.5943 -0.7307  0.7485
17562TIP3   OH274100   2.723   5.455   1.919  0.0376  0.0142  0.0284
17562TIP3    H174101   2.723   5.469   1.825 -0.8695 -1.4710 -0.2227
17562TIP3    H274102   2.727   5.360   1.929  0.9528  0.1783  1.5086
17563TIP3   OH274103   6.527   2.884   6.656 -0.4460 -0.2132 -0.1670
17563TIP3    H174104   6.564   2.796   6.641  0.2640  0.3165 -1.8845
17563TIP3    H274105   6.483   2.905   6.573  0.8815  1.7122 -0.4419
17564TIP3   OH274106   2.554   4.210   0.247 -0.1056  0.3306  0.6296
17564TIP3    H174107   2.511   4.162   0.318 -2.3333  1.2961  0.0021
17564TIP3    H274108   2.484   4.257   0.203  1.2999  0.2634 -1.8652
17565TIP3   OH274109   5.146   3.493   4.500  0.1767 -0.0553 -0.3509
17565TIP3    H174110   5.104   3.462   4.580  1.7903 -1.2869  0.0571
17565TIP3    H274111   5.150   3.415   4.444  0.1859  0.5049 -1.1399
17566TIP3   OH274112   0.658   0.279   3.069 -0.0623  0.4735 -0.0020
17566TIP3    H174113   0.675   0.366   3.032 -0.4123  0.4760 -0.1589
17566TIP3    H274114   0.740   0.231   3.055 -0.5096  0.1439 -1.7594
17567TIP3   OH274115   2.658   2.826   1.067  0.4924 -0.7014  0.0497
17567TIP3    H174116   2.636   2.794   0.980  0.6148 -1.3683  0.2582
17567TIP3    H274117   2.583   2.880   1.093  1.3946  1.3454 -1.3458
17568TIP3   OH274118   3.463   1.530   1.599  0.1159  0.4621  0.4898
17568TIP3    H174119   3.376   1.566   1.611 -0.7024 -0.7724 -1.2604
17568TIP3    H274120   3.482   1.485   1.681 -1.6574 -0.7331  0.2988
17569TIP3   OH274121   5.390   0.910  13.996 -0.2000 -0.8499  0.0862
17569TIP3    H174122   5.386   0.823  13.956  1.7189  0.1841 -2.6903
17569TIP3    H274123   5.336   0.965  13.939 -0.9509 -0.0777  1.4906
17570TIP3   OH274124   0.807   2.782   5.305 -0.7242  0.3936 -0.0949
17570TIP3    H174125   0.765   2.868   5.314 -0.3211  0.5911 -0.0630
17570TIP3    H274126   0.875   2.795   5.239 -0.2764  0.2527  0.3280
17571TIP3   OH274127   2.739   4.590  16.256  0.2249  0.2134 -0.4900
17571TIP3    H174128   2.704   4.648  16.324  0.0402 -1.3228  0.8024
17571TIP3    H274129   2.808   4.541  16.302  0.8201 -0.1196 -1.7178
17572TIP3   OH274130   0.410   4.731   1.289 -0.0256 -0.2488  0.1643
17572TIP3    H174131   0.388   4.706   1.199 -0.5013  0.6574  0.0175
17572TIP3    H274132   0.490   4.783   1.280 -0.2917  0.1778  0.2097
17573TIP3   OH274133   4.729   4.821  11.180 -0.0388 -0.0399 -0.3114
17573TIP3    H174134   4.685   4.852  11.260 -2.0311  0.3967 -1.5061
17573TIP3    H274135   4.801   4.883  11.167  0.4582 -0.2397  1.2302
17574TIP3   OH274136   6.152   1.087  14.013 -0.2411 -0.5236 -0.3448
17574TIP3    H174137   6.114   1.075  14.100 -0.5462 -0.6442 -0.4955
17574TIP3    H274138   6.150   1.000  13.973 -0.3775 -0.4096 -0.5854
17575TIP3   OH274139   3.876   6.068   4.351  0.5853 -0.3455  0.0474
17575TIP3    H174140   3.909   6.125   4.420 -0.8364 -1.3681  1.6619
17575TIP3    H274141   3.812   6.012   4.395 -2.7530  0.9928 -2.6323
17576TIP3   OH274142   5.736   0.146   3.827  0.4197 -0.4013 -0.4631
17576TIP3    H174143   5.759   0.228   3.871 -0.4721  0.1277 -0.9585
17576TIP3    H274144   5.644   0.158   3.802  0.1439 -1.7258 -0.1432
17577TIP3   OH274145   0.850   4.984  10.928  0.3403 -0.1050  0.1927
17577TIP3    H174146   0.812   4.968  11.014 -0.0496  3.5303  0.8616
17577TIP3    H274147   0.911   5.057  10.942 -0.8907  1.6902 -2.7894
17578TIP3   OH274148   0.584   4.942   2.445  0.3553 -0.0956 -0.0412
17578TIP3    H174149   0.669   4.915   2.410  0.9551  0.6375  0.8175
17578TIP3    H274150   0.565   4.879   2.514 -0.4062 -1.0007 -1.0320
17579TIP3   OH274151   4.490   3.304   2.787  0.3235  0.1605  0.3827
17579TIP3    H174152   4.469   3.235   2.850 -0.9504 -0.0904 -0.2701
17579TIP3    H274153   4.405   3.343   2.765  0.9032  1.1621 -0.1346
17580TIP3   OH274154   4.632   3.556  11.130 -0.3209  0.7224 -0.1248
17580TIP3    H174155   4.695   3.552  11.059  0.4883 -1.4835  0.6241
17580TIP3    H274156   4.553   3.592  11.091  0.0406 -0.5872 -2.1998
17581TIP3   OH274157   2.852   2.919  16.738  0.8261 -0.1873  0.3197
17581TIP3    H174158   2.873   2.860  16.810 -2.0378 -0.4793  1.0163
17581TIP3    H274159   2.826   3.001  16.781  0.8661  0.2685 -0.4912
17582TIP3   OH274160   5.608   5.625   4.030 -0.7884  0.4314 -0.2713
17582TIP3    H174161   5.642   5.694   3.974  0.3855  0.2113  0.1528
17582TIP3    H274162   5.663   5.549   4.011 -1.0714  0.0491  0.3877
17583TIP3   OH274163   0.030   5.423   3.627  0.1315 -0.0578  0.6184
17583TIP3    H174164  -0.018   5.430   3.710  2.4329 -0.4441  2.0568
17583TIP3    H274165   0.118   5.454   3.647  0.6202  0.3833 -1.8679
17584TIP3   OH274166   6.290   0.918  13.028 -0.0346  0.3048  0.0517
17584TIP3    H174167   6.287   0.834  13.075  0.1082  0.2795  0.0145
17584TIP3    H274168   6.198   0.935  13.006  0.0639 -0.4369 -0.9912
17585TIP3   OH274169   3.327   5.118   1.645  0.1921  0.0114  0.4129
17585TIP3    H174170   3.300   5.027   1.638 -1.1882  0.5331 -1.7882
17585TIP3    H274171   3.384   5.133   1.570 -0.8289  1.3114 -0.1607
17586TIP3   OH274172   3.960   5.084   5.665 -0.0906  0.1722 -1.2686
17586TIP3    H174173   3.903   5.007   5.662 -1.3707  1.0297  0.0257
17586TIP3    H274174   3.927   5.136   5.738  2.1110  0.9146 -0.7108
17587TIP3   OH274175   3.698   2.979  14.135 -0.7601  0.9175 -0.6186
17587TIP3    H174176   3.611   2.940  14.139 -0.4236  0.0627 -1.3157
17587TIP3    H274177   3.753   2.922  14.189 -0.3279  0.5563 -1.4078
17588TIP3   OH274178   5.069   6.006   5.446  0.4534  0.3802 -0.0987
17588TIP3    H174179   5.024   6.089   5.461  0.8272  0.9533 -1.9288
17588TIP3    H274180   5.023   5.944   5.503  0.2149  1.8237  1.3672
17589TIP3   OH274181   5.130   0.928   0.918 -0.3671  0.4665 -0.8099
17589TIP3    H174182   5.060   0.957   0.860 -1.3126 -0.5689 -0.2361
17589TIP3    H274183   5.099   0.949   1.006 -0.3598 -0.7429 -0.4923
17590TIP3   OH274184   0.984   1.533   5.912 -0.4174  0.6224 -0.1157
17590TIP3    H174185   1.023   1.447   5.931  0.4476  1.0760  0.1872
17590TIP3    H274186   0.893   1.525   5.943 -0.1744  0.0184  0.4708
17591TIP3   OH274187   1.796   1.348   6.637  0.0388 -0.0550 -0.1421
17591TIP3    H174188   1.803   1.443   6.624 -0.8023  0.0659  0.2900
17591TIP3    H274189   1.704   1.332   6.655  0.1129 -1.0050 -0.5458
17592TIP3   OH274190   0.759   3.475  10.267 -0.4337  0.1780 -0.1888
17592TIP3    H174191   0.789   3.385  10.285  0.6796  0.8441  1.5848
17592TIP3    H274192   0.700   3.495  10.339  1.7567  1.8851  1.2740
17593TIP3   OH274193   1.543   3.588   5.264 -0.2826 -0.0062 -0.3427
17593TIP3    H174194   1.626   3.564   5.222 -0.8357  0.5718 -1.8354
17593TIP3    H274195   1.493   3.632   5.195 -2.4695 -1.7282  0.0049
17594TIP3   OH274196   5.936   6.721  13.147  0.0799  0.4139 -0.5333
17594TIP3    H174197   5.914   6.741  13.056 -0.1004  0.9853 -0.3685
17594TIP3    H274198   5.983   6.798  13.178 -0.1969  0.3876 -0.0282
17595TIP3   OH274199   4.812   5.278  11.535  0.4920 -0.2825 -0.7144
17595TIP3    H174200   4.733   5.244  11.492  0.2143  0.3789 -0.7434
17595TIP3    H274201   4.819   5.229  11.617  0.7397 -1.1993 -1.2718
17596TIP3   OH274202   3.845   4.620   4.179 -0.0368  0.1151  0.0069
17596TIP3    H174203   3.852   4.634   4.085 -1.6591 -0.6340 -0.2736
17596TIP3    H274204   3.778   4.551   4.187  0.4024 -0.1448  1.6800
17597TIP3   OH274205   4.429   3.093   2.951 -0.2765  0.0192  0.3669
17597TIP3    H174206   4.363   3.051   3.007 -0.7833  0.6792  0.2758
17597TIP3    H274207   4.462   3.022   2.896 -0.3759 -0.4673  0.9174
17598TIP3   OH274208   3.869   1.456  13.854  0.0905 -0.6811 -0.0869
17598TIP3    H174209   3.887   1.484  13.764  0.8037  0.4504  0.3996
17598TIP3    H274210   3.920   1.375  13.864 -0.1428 -0.9232 -0.7438
17599TIP3   OH274211   6.280   1.486  16.955  0.0707 -0.1405  0.5993
17599TIP3    H174212   6.340   1.521  16.888 -1.1459 -1.8620 -1.4932
17599TIP3    H274213   6.234   1.564  16.987  0.3658  0.7139 -0.9017
17600TIP3   OH274214   0.958   5.309   1.916 -0.2695  0.5022  0.2165
17600TIP3    H174215   1.001   5.237   1.962 -2.3766 -1.0436 -0.1009
17600TIP3    H274216   0.956   5.380   1.980  2.7449  0.7153  0.2122
17601TIP3   OH274217   5.437   1.745  10.649  0.1448  0.4844  0.2881
17601TIP3    H174218   5.477   1.783  10.572 -1.1008 -2.9705 -2.3425
17601TIP3    H274219   5.351   1.786  10.655 -0.7314 -0.8443 -1.8062
17602TIP3   OH274220   2.973   3.545  15.919  0.0230  0.5165  0.2739
17602TIP3    H174221   3.009   3.578  15.837  1.4974 -2.5587 -0.4751
17602TIP3    H274222   2.887   3.511  15.895  0.0959  0.3949  0.1819
17603TIP3   OH274223   1.005   0.709   2.302  0.9633 -0.1602  0.3880
17603TIP3    H174224   1.057   0.779   2.263  0.9839 -0.6331 -0.4706
17603TIP3    H274225   1.070   0.647   2.335  1.1898 -2.3577 -3.4939
17604TIP3   OH274226   4.714   1.889   0.425  0.5347 -0.5972 -0.4012
17604TIP3    H174227   4.737   1.882   0.518  1.0863 -2.1691 -0.6207
17604TIP3    H274228   4.670   1.806   0.405  0.4320 -0.2842 -1.5365
17605TIP3   OH274229   1.174   4.069  11.721 -0.2353  0.2864  0.0536
17605TIP3    H174230   1.086   4.040  11.696  0.7332 -1.2521 -1.8717
17605TIP3    H274231   1.210   3.996  11.771 -0.2068  1.1415  1.3281
17606TIP3   OH274232   1.980   0.380   0.487 -0.4145  0.3205  0.4473
17606TIP3    H174233   2.010   0.348   0.572  0.1017  1.0369  0.5483
17606TIP3    H274234   2.058   0.419   0.447 -1.1274  2.0007  0.6114
17607TIP3   OH274235   4.128   0.110  11.369  0.0254  0.0032 -0.2740
17607TIP3    H174236   4.191   0.074  11.431  1.1067 -1.3626 -2.0600
17607TIP3    H274237   4.042   0.090  11.407  0.6232  0.3918  1.3777
17608TIP3   OH274238   5.551   6.677   2.752  0.3126 -0.2301 -0.0281
17608TIP3    H174239   5.631   6.677   2.701 -0.9280  2.0404 -2.1545
17608TIP3    H274240   5.580   6.692   2.842  2.2429  1.3479 -0.8488
17609TIP3   OH274241   6.468   4.768  16.854  0.2570  0.0318 -0.7806
17609TIP3    H174242   6.375   4.748  16.868  0.4362 -0.7914 -0.6835
17609TIP3    H274243   6.469   4.828  16.779 -0.2652 -1.3226 -1.9348
17610TIP3   OH274244   0.378   0.582  12.950  0.3783  0.0689  0.2125
17610TIP3    H174245   0.452   0.578  13.010  0.0915  0.7264  0.6215
17610TIP3    H274246   0.334   0.664  12.971 -1.6561 -1.2369  1.3435
17611TIP3   OH274247   1.449   4.591  15.160 -0.0728  0.1495  0.4271
17611TIP3    H174248   1.463   4.673  15.207  0.3852  0.7475 -0.6893
17611TIP3    H274249   1.355   4.590  15.140 -0.3863 -0.4052  1.8311
17612TIP3   OH274250   1.755   0.993  13.178 -0.1763  0.0471 -0.5623
17612TIP3    H174251   1.772   1.029  13.265  0.4401  0.3636 -0.8025
17612TIP3    H274252   1.758   0.898  13.190 -0.7049  0.0819 -0.1292
17613TIP3   OH274253   1.379   3.861  12.789 -0.1518  0.2650  0.4859
17613TIP3    H174254   1.439   3.931  12.817 -0.1610  1.5778 -2.3766
17613TIP3    H274255   1.415   3.832  12.705 -2.5197 -0.1852 -0.4306
17614TIP3   OH274256   4.064   5.901   3.756  0.4456  0.1993 -0.3721
17614TIP3    H174257   3.998   5.940   3.813 -0.8008 -2.2520  0.0125
17614TIP3    H274258   4.035   5.923   3.667 -0.9752 -0.8813 -0.2100
17615TIP3   OH274259   6.753   2.972   5.785  0.5224  0.3642  0.1189
17615TIP3    H174260   6.746   3.001   5.876 -0.0988  0.8342 -0.0730
17615TIP3    H274261   6.812   2.897   5.789 -0.2098 -0.1790  1.0280
17616TIP3   OH274262   3.749   3.365   3.277 -0.2821 -0.0807 -0.2717
17616TIP3    H174263   3.839   3.393   3.259 -0.4226  0.6558  0.1068
17616TIP3    H274264   3.716   3.333   3.193  0.9862 -2.3206  0.0005
17617TIP3   OH274265   3.535   5.756  12.794  0.7988  0.2481 -0.1218
17617TIP3    H174266   3.630   5.760  12.783  0.8509 -0.6556 -0.0808
17617TIP3    H274267   3.500   5.799  12.716  1.2343 -1.0330 -1.0700
17618TIP3   OH274268   3.540   0.452  17.078  0.3140  0.3475 -0.0377
17618TIP3    H174269   3.588   0.376  17.111  1.7278  0.2762 -2.0684
17618TIP3    H274270   3.534   0.511  17.153 -0.6745 -1.6383  1.5470
17619TIP3   OH274271   4.626   1.664  13.037 -0.4069  0.7813 -0.3018
17619TIP3    H174272   4.672   1.622  13.109 -1.1738  0.6033  0.0983
17619TIP3    H274273   4.637   1.758  13.053  0.9170  0.7556 -0.9443
17620TIP3   OH274274   4.291   1.237  15.546 -0.0395  0.3582 -0.0487
17620TIP3    H174275   4.225   1.168  15.552 -0.0990  0.5227  2.6399
17620TIP3    H274276   4.266   1.288  15.469 -2.2455 -0.4024  0.0888
17621TIP3   OH274277   1.099   5.520  15.519 -0.5112 -0.4717  0.3552
17621TIP3    H174278   1.117   5.558  15.433  0.4076  0.8989  1.1102
17621TIP3    H274279   1.019   5.469  15.507 -0.3239 -0.4153 -1.3352
17622TIP3   OH274280   6.395   0.952  13.839 -0.0626 -0.2479  0.1659
17622TIP3    H174281   6.412   1.009  13.914  0.7583 -0.9352  0.5161
17622TIP3    H274282   6.352   0.875  13.876 -0.9449  0.0192 -0.2727
17623TIP3   OH274283   6.444   6.487  11.565  0.0800  0.1043  0.3267
17623TIP3    H174284   6.501   6.557  11.599 -1.9918  1.2094  1.7043
17623TIP3    H274285   6.415   6.519  11.480 -0.2796  0.6213  0.6344
17624TIP3   OH274286   6.744   6.219   2.157 -1.0123 -0.3310 -0.5301
17624TIP3    H174287   6.832   6.254   2.147 -0.5340 -0.7120  1.8203
17624TIP3    H274288   6.740   6.146   2.094  1.1757 -1.7229  0.8090
17625TIP3   OH274289   1.999   1.963   4.402 -0.4484  0.1165 -0.2100
17625TIP3    H174290   1.989   1.873   4.370 -1.2534 -0.3361  1.2112
17625TIP3    H274291   1.996   1.954   4.497 -0.8225  1.6847 -0.0568
17626TIP3   OH274292   5.604   5.862  12.890 -0.0491 -0.3581  0.1972
17626TIP3    H174293   5.647   5.787  12.930 -1.0150 -0.0277  1.9344
17626TIP3    H274294   5.511   5.836  12.885 -0.2259  0.3260 -0.1214
17627TIP3   OH274295   6.238   2.715   5.458  0.3172  0.0789  0.0088
17627TIP3    H174296   6.280   2.638   5.419 -0.1416  0.0589 -0.4438
17627TIP3    H274297   6.159   2.729   5.406 -0.3115  0.0473  0.9272
17628TIP3   OH274298   2.277   6.381  12.942  0.0620  0.0060  0.0861
17628TIP3    H174299   2.277   6.330  13.023 -0.9834  0.5174  0.4299
17628TIP3    H274300   2.351   6.441  12.951  1.0647 -1.1502 -0.1492
17629TIP3   OH274301   6.005   3.245  14.503  0.0542  0.1982 -0.0006
17629TIP3    H174302   6.017   3.150  14.504  0.0049  0.1915 -0.0177
17629TIP3    H274303   5.928   3.258  14.448 -0.5699  0.1743  0.8556
17630TIP3   OH274304   3.934   2.733   1.172  0.3032  0.1356 -0.1177
17630TIP3    H174305   4.027   2.710   1.179 -0.2850 -2.4232  0.5078
17630TIP3    H274306   3.900   2.719   1.260 -1.1567 -1.7493 -0.9000
17631TIP3   OH274307   2.833   3.497   3.460 -0.2256  0.5607 -0.0554
17631TIP3    H174308   2.835   3.463   3.370 -3.1080 -0.8070  0.2659
17631TIP3    H274309   2.902   3.450   3.506  0.6689  0.5893 -1.3342
17632TIP3   OH274310   0.415   1.908   2.713 -0.1425 -0.3376  0.0603
17632TIP3    H174311   0.365   1.827   2.724 -2.4515  0.9223 -0.5614
17632TIP3    H274312   0.439   1.910   2.621  2.2518 -1.4944  0.5558
17633TIP3   OH274313   5.457   1.876  14.649 -0.0452 -0.9134  0.1052
17633TIP3    H174314   5.464   1.937  14.722  0.8773 -0.0749 -0.6416
17633TIP3    H274315   5.469   1.931  14.571 -0.8453 -1.8038 -0.6748
17634TIP3   OH274316   5.003   3.092   2.935 -0.5629 -0.3936 -0.5260
17634TIP3    H174317   4.994   3.089   2.840 -2.5840 -1.0006 -0.3686
17634TIP3    H274318   4.918   3.063   2.968  1.0300 -3.3620  1.4832
17635TIP3   OH274319   5.410   6.392  16.861 -0.2722 -0.1483 -0.3357
17635TIP3    H174320   5.418   6.485  16.881  0.6068 -0.1072 -0.8487
17635TIP3    H274321   5.425   6.348  16.945  1.6644  0.0910 -0.5086
17636TIP3   OH274322   1.479   6.267   5.705  0.1626 -0.1393 -0.5990
17636TIP3    H174323   1.404   6.318   5.673  0.4066  0.0185 -0.9327
17636TIP3    H274324   1.464   6.257   5.798 -1.5807 -2.2892 -1.0428
17637TIP3   OH274325   4.335   5.461   5.363  0.1098  0.1971 -0.1086
17637TIP3    H174326   4.329   5.557   5.371  2.0354  0.3711 -0.2027
17637TIP3    H274327   4.286   5.428   5.438  1.6460  1.3623  1.5215
17638TIP3   OH274328   2.144   0.941   3.926 -0.3404  0.1896  0.1065
17638TIP3    H174329   2.048   0.947   3.921 -0.2537  3.6500  0.0822
17638TIP3    H274330   2.162   0.940   4.020 -0.3854 -1.4782  0.1173
17639TIP3   OH274331   2.941   1.967  13.399 -0.4961 -0.4337  0.3035
17639TIP3    H174332   3.003   2.010  13.457  1.4321  1.7513 -3.0390
17639TIP3    H274333   2.982   1.882  13.380  1.9962  1.1488 -2.2118
17640TIP3   OH274334   3.336   4.607   2.174  0.0337  0.2204  0.4832
17640TIP3    H174335   3.407   4.606   2.110  0.4989  0.7540  0.9807
17640TIP3    H274336   3.257   4.592   2.122  0.5649 -1.0935  0.0173
17641TIP3   OH274337   0.435   0.556  15.333 -0.0222  0.0876  0.2466
17641TIP3    H174338   0.507   0.529  15.391 -0.0676 -1.7020 -0.4680
17641TIP3    H274339   0.426   0.484  15.271  1.1280  2.6138 -3.1086
17642TIP3   OH274340   4.697   4.680   5.089  0.6905 -1.1025  0.4552
17642TIP3    H174341   4.726   4.678   4.998  2.5422  0.0979  0.9666
17642TIP3    H274342   4.602   4.680   5.084  0.7582 -1.3388 -1.4696
17643TIP3   OH274343   5.168   0.423  11.357 -0.0892 -0.1201 -0.7586
17643TIP3    H174344   5.147   0.429  11.263 -1.2191 -0.1363 -0.5214
17643TIP3    H274345   5.112   0.352  11.389 -1.2731  1.2507  0.3385
17644TIP3   OH274346   1.631   0.178  17.319 -0.0332  0.4856  0.0209
17644TIP3    H174347   1.545   0.190  17.278 -0.5074  1.0949  1.1696
17644TIP3    H274348   1.639   0.083  17.329 -0.2067  0.3700 -0.8432
17645TIP3   OH274349   6.203   3.130   3.157 -0.0120  0.0107 -0.1452
17645TIP3    H174350   6.283   3.083   3.179 -0.8071 -0.1442  2.9160
17645TIP3    H274351   6.233   3.211   3.116  1.7002 -0.2373  0.5225
17646TIP3   OH274352   2.899   1.786   3.357 -0.6474  0.3336 -0.2560
17646TIP3    H174353   2.953   1.742   3.423 -0.7712 -0.8748 -0.9381
17646TIP3    H274354   2.864   1.863   3.403  0.3229  0.2440  0.6854
17647TIP3   OH274355   1.076   5.579  15.774 -0.0401 -0.0791 -0.1920
17647TIP3    H174356   1.154   5.633  15.779  0.2503 -0.5149  0.0734
17647TIP3    H274357   1.057   5.572  15.680  0.0724  0.2536 -0.2415
17648TIP3   OH274358   5.024   0.614  14.220 -0.0383 -0.1442 -0.3464
17648TIP3    H174359   5.106   0.567  14.233  0.7046  1.2392  0.1464
17648TIP3    H274360   4.989   0.580  14.138  1.5881  0.0387 -1.1385
17649TIP3   OH274361   2.899   4.122  14.254 -0.6431  0.3124  0.1524
17649TIP3    H174362   2.969   4.184  14.235 -1.2025  0.7800 -0.4054
17649TIP3    H274363   2.926   4.042  14.209  0.3478 -0.0473  1.3189
17650TIP3   OH274364   6.243   2.779   0.595  0.2685 -0.4502  0.1948
17650TIP3    H174365   6.327   2.824   0.602  0.0419 -0.2367  2.0251
17650TIP3    H274366   6.179   2.842   0.628 -0.4995 -0.9167 -0.3810
17651TIP3   OH274367   0.564   3.263  11.292  0.2504 -0.2072  0.0903
17651TIP3    H174368   0.548   3.265  11.386 -2.6090 -0.7605 -0.2950
17651TIP3    H274369   0.653   3.231  11.283  0.8152  0.4500  2.6047
17652TIP3   OH274370   5.637   2.654  15.353  0.0746 -0.0148  0.1640
17652TIP3    H174371   5.697   2.663  15.427 -0.7540 -1.1293  1.0145
17652TIP3    H274372   5.693   2.660  15.276  1.0621  0.4538  0.8970
17653TIP3   OH274373   0.478   2.699   3.674 -0.5298 -0.3626 -0.8319
17653TIP3    H174374   0.519   2.777   3.710 -1.0515 -0.0126 -0.9895
17653TIP3    H274375   0.487   2.709   3.579 -0.6143 -0.4827 -0.8532
17654TIP3   OH274376   1.140   2.249  12.171  0.0126 -0.4895 -0.1847
17654TIP3    H174377   1.112   2.303  12.098  1.5786 -0.2370 -0.6475
17654TIP3    H274378   1.064   2.243  12.229 -0.7928  0.5145 -1.1207
17655TIP3   OH274379   3.335   6.440   5.009  0.2549 -0.5255  0.0471
17655TIP3    H174380   3.297   6.378   5.072  0.7802 -0.6673  0.2283
17655TIP3    H274381   3.353   6.387   4.931  2.0692 -0.9525  0.7077
17656TIP3   OH274382   5.602   2.826   3.898  0.3562  0.3401  0.5915
17656TIP3    H174383   5.540   2.843   3.969  0.5043 -0.4989  0.9281
17656TIP3    H274384   5.686   2.814   3.941  0.2257 -1.4725  0.4185
17657TIP3   OH274385   2.922   6.322  16.102 -0.1711 -0.7454  0.0383
17657TIP3    H174386   2.949   6.284  16.186  1.3963  1.5700  0.6713
17657TIP3    H274387   3.002   6.320  16.049  0.3422  2.6097  0.5215
17658TIP3   OH274388   0.449   0.526   0.040 -0.2836  0.0902  0.1011
17658TIP3    H174389   0.395   0.586   0.092 -0.0012 -0.4233  1.0174
17658TIP3    H274390   0.498   0.583  -0.019  0.8329  0.8916  1.7445
17659TIP3   OH274391   1.381   5.067   0.291  0.6185  0.0269  0.2483
17659TIP3    H174392   1.355   5.023   0.372 -1.9209 -0.1526 -0.5612
17659TIP3    H274393   1.406   5.155   0.319 -2.9604  0.9533  1.0864
17660TIP3   OH274394   5.874   5.678  13.166  0.1428  0.4388  0.0193
17660TIP3    H174395   5.902   5.587  13.165 -0.3856  0.2388  1.1617
17660TIP3    H274396   5.897   5.712  13.080 -0.6594 -1.0866 -0.8316
17661TIP3   OH274397   1.104   1.190  15.960  0.4230  0.1119 -0.2342
17661TIP3    H174398   1.139   1.110  15.921 -1.5718 -1.9435  1.8293
17661TIP3    H274399   1.015   1.197  15.925  0.6387  1.5781 -0.5438
17662TIP3   OH274400   2.810   0.906  16.425  0.3259  0.1808  0.5042
17662TIP3    H174401   2.834   0.996  16.446  2.4341  0.2352 -1.7242
17662TIP3    H274402   2.810   0.860  16.509  1.1643  1.8361  1.4411
17663TIP3   OH274403   0.687   3.024   5.347 -0.2615 -0.2099 -0.1822
17663TIP3    H174404   0.723   3.112   5.340 -1.3301  0.2780  0.3421
17663TIP3    H274405   0.614   3.021   5.286 -0.2197 -0.7478 -0.2191
17664TIP3   OH274406   3.472   4.956  12.586 -0.3209 -0.4275  0.0791
17664TIP3    H174407   3.427   4.911  12.657 -1.6058 -0.7980 -0.9222
17664TIP3    H274408   3.439   4.914  12.506  1.0475 -0.0019 -0.7541
17665TIP3   OH274409   5.130   0.231  16.842 -0.0417 -0.1179  0.0309
17665TIP3    H174410   5.056   0.292  16.846 -0.5232 -0.7169  0.4269
17665TIP3    H274411   5.139   0.199  16.931  0.1970 -0.6447 -0.1806
17666TIP3   OH274412   0.453   6.295  13.534  0.2978 -0.1072 -0.1115
17666TIP3    H174413   0.488   6.272  13.620 -0.9063 -1.6100  0.0317
17666TIP3    H274414   0.374   6.346  13.553  0.8800  0.9247 -0.3786
17667TIP3   OH274415   1.710   0.541  17.106  0.5610  0.0979 -0.0184
17667TIP3    H174416   1.786   0.486  17.124 -0.3200 -1.8581 -1.9182
17667TIP3    H274417   1.684   0.574  17.192  3.9348  1.4816  0.6432
17668TIP3   OH274418   3.547   2.055  16.509  0.2822 -0.1119 -0.1494
17668TIP3    H174419   3.489   2.064  16.585  0.6688 -1.7980  0.3853
17668TIP3    H274420   3.511   1.980  16.461  1.2262 -0.3330 -0.5342
17669TIP3   OH274421   1.916   3.326  11.726  0.4724 -0.3173 -0.0811
17669TIP3    H174422   1.856   3.260  11.691  0.5147 -0.4734  0.1414
17669TIP3    H274423   1.971   3.278  11.787 -0.5474  0.2369  1.3215
17670TIP3   OH274424   6.227   2.599   1.565 -0.2988  0.2816  0.4244
17670TIP3    H174425   6.288   2.611   1.637  0.9393  2.4156 -0.8798
17670TIP3    H274426   6.146   2.642   1.594  0.0831  0.8346  0.6776
17671TIP3   OH274427   1.616   3.962  15.096  0.2332  0.1754 -0.5338
17671TIP3    H174428   1.680   4.029  15.121 -0.4661  0.6120  0.1313
17671TIP3    H274429   1.572   3.999  15.019 -0.5057  0.7280  0.1388
17672TIP3   OH274430   1.333   3.693   2.635 -0.1825  0.1205  0.3910
17672TIP3    H174431   1.312   3.639   2.559 -1.7926 -0.0201  0.9068
17672TIP3    H274432   1.313   3.638   2.711 -1.9432  1.4097  0.9276
17673TIP3   OH274433   0.667   6.562  16.669  0.9645  0.0751 -0.5278
17673TIP3    H174434   0.703   6.585  16.755  0.4223  2.1839 -0.8044
17673TIP3    H274435   0.726   6.604  16.607  0.9064 -0.7883 -1.1887
17674TIP3   OH274436   4.819   6.726  13.865 -0.1121 -0.1188 -0.2089
17674TIP3    H174437   4.801   6.669  13.940  1.4460 -0.3660  0.0000
17674TIP3    H274438   4.764   6.690  13.794 -1.1242 -0.2540  0.6152
17675TIP3   OH274439   6.627   2.589  11.815 -0.6424 -0.3781  0.4270
17675TIP3    H174440   6.693   2.579  11.746 -0.4999 -1.3876  0.6856
17675TIP3    H274441   6.633   2.681  11.841 -1.6674  0.3836 -1.8434
17676TIP3   OH274442   1.013   6.018   0.507 -0.0134 -0.2790  0.2096
17676TIP3    H174443   1.076   5.961   0.551  0.4790 -1.6404 -2.1424
17676TIP3    H274444   0.933   5.966   0.501  0.3089 -0.6175 -1.5862
17677TIP3   OH274445   0.520   1.036  12.854 -0.2113 -0.0978  0.2620
17677TIP3    H174446   0.436   1.068  12.887  0.2847  0.1242  1.3246
17677TIP3    H274447   0.571   1.115  12.836  0.1855 -0.2421  0.7231
17678TIP3   OH274448   3.454   6.705   2.964 -0.1755  0.5486  0.4200
17678TIP3    H174449   3.420   6.720   2.876 -0.4108  0.2269  0.4525
17678TIP3    H274450   3.550   6.705   2.954 -0.1972  0.7878  0.2142
17679TIP3   OH274451   1.075   6.706  13.742 -0.1518  0.1421 -0.1211
17679TIP3    H174452   1.054   6.616  13.717 -0.5536  0.7033 -1.9040
17679TIP3    H274453   1.148   6.697  13.804 -0.0283 -1.3884 -0.4548
17680TIP3   OH274454   2.219   2.823   1.665  0.3792  0.7497 -0.2876
17680TIP3    H174455   2.175   2.738   1.656 -1.2021  1.3884  0.9635
17680TIP3    H274456   2.230   2.834   1.759 -0.2448  2.3308 -0.3821
17681TIP3   OH274457   0.646   4.433   0.813 -0.2582 -0.2425 -0.6285
17681TIP3    H174458   0.726   4.442   0.762 -0.7344  0.1008 -1.3279
17681TIP3    H274459   0.650   4.345   0.850  0.5711 -0.1250 -0.4224
17682TIP3   OH274460   3.556   3.264  15.257 -0.4004 -0.0557 -0.5699
17682TIP3    H174461   3.597   3.349  15.276 -1.3138  0.2938 -0.0821
17682TIP3    H274462   3.573   3.250  15.164  2.4697 -0.8537 -0.0232
17683TIP3   OH274463   6.422   1.166   3.361 -0.3532  0.0514  0.0203
17683TIP3    H174464   6.335   1.167   3.400 -0.8151  2.6636 -0.8626
17683TIP3    H274465   6.482   1.171   3.436 -1.1403  2.4945  0.5817
17684TIP3   OH274466   0.465   6.575  14.031  0.3830  0.2521  0.4287
17684TIP3    H174467   0.392   6.545  14.086  0.6677 -0.0434  0.6509
17684TIP3    H274468   0.423   6.624  13.960 -0.0526 -0.1419  0.4072
17685TIP3   OH274469   3.401   4.505  11.642 -0.2947  0.2222  0.1212
17685TIP3    H174470   3.365   4.576  11.696 -0.8646 -1.1057  1.6010
17685TIP3    H274471   3.401   4.540  11.553  0.4899  2.4546  0.9202
17686TIP3   OH274472   5.077   2.371  14.184 -0.0078  0.0208  0.2170
17686TIP3    H174473   5.020   2.388  14.108  1.1988  2.1539 -0.2980
17686TIP3    H274474   5.073   2.276  14.195 -1.3426 -0.2150 -1.6296
17687TIP3   OH274475   0.081   6.501   4.790  0.2436 -0.1954  0.4325
17687TIP3    H174476   0.115   6.588   4.770 -0.0944 -0.1016  0.2524
17687TIP3    H274477   0.158   6.445   4.791  0.3094 -0.1716 -0.9499
17688TIP3   OH274478   1.325   3.996  12.101  0.0463 -0.2260 -0.3035
17688TIP3    H174479   1.380   3.937  12.152 -1.3723 -1.2667  0.0811
17688TIP3    H274480   1.356   4.084  12.125 -0.2702 -0.6859  2.0503
17689TIP3   OH274481   1.945   5.520  14.382 -0.3657 -0.6579  0.3504
17689TIP3    H174482   1.868   5.474  14.416 -1.8090  2.1305  1.1897
17689TIP3    H274483   2.005   5.524  14.457 -0.9310  0.1744  0.7756
17690TIP3   OH274484   5.234   5.616   5.626 -0.2779  0.3405  0.5285
17690TIP3    H174485   5.179   5.667   5.686 -0.1394  0.7527  0.3080
17690TIP3    H274486   5.308   5.674   5.607  2.4276 -1.5944  3.9706
17691TIP3   OH274487   3.977   5.553   4.905  0.5239 -0.1751 -0.0890
17691TIP3    H174488   3.973   5.495   4.981  0.1923  0.9860  0.8030
17691TIP3    H274489   3.977   5.641   4.941  0.1033  0.4190 -1.4442
17692TIP3   OH274490   6.676   3.893   0.732 -0.0258 -0.7181  0.6749
17692TIP3    H174491   6.605   3.856   0.679 -2.6857  2.1481  1.9068
17692TIP3    H274492   6.727   3.945   0.671 -0.5613 -0.7642  0.1801
17693TIP3   OH274493   4.093   2.538  15.133  0.2833 -0.4570  0.5223
17693TIP3    H174494   4.124   2.625  15.109 -1.0797  0.1596  0.9023
17693TIP3    H274495   4.125   2.524  15.222  1.2879 -0.7504  0.1292
17694TIP3   OH274496   2.247   1.932  12.981  0.4132  0.1011  0.0569
17694TIP3    H174497   2.183   1.867  12.950 -0.0182 -0.9755  2.8878
17694TIP3    H274498   2.207   2.016  12.963 -0.5997 -0.4944 -0.5672
17695TIP3   OH274499   2.060   4.313   0.740 -0.0818 -0.0330 -0.0119
17695TIP3    H174500   2.135   4.271   0.700 -1.5443 -1.3836 -1.4992
17695TIP3    H274501   1.989   4.250   0.730 -1.2040  0.7622  2.2566
17696TIP3   OH274502   0.535   5.089  11.791 -0.3034  0.3555  0.7592
17696TIP3    H174503   0.476   5.081  11.716  0.1450 -0.0480  0.4385
17696TIP3    H274504   0.483   5.060  11.866 -0.4749 -0.1384  0.4552
17697TIP3   OH274505   2.976   1.494  11.878  0.1555  0.1672  0.4407
17697TIP3    H174506   2.994   1.587  11.868  0.3119  0.0883 -0.0840
17697TIP3    H274507   3.041   1.463  11.941 -1.0814  0.7623  2.0851
17698TIP3   OH274508   4.609   2.624   4.569 -0.2441 -0.2536 -0.3028
17698TIP3    H174509   4.527   2.669   4.588  0.7100  1.3264  0.3014
17698TIP3    H274510   4.601   2.597   4.477 -1.6411 -0.6021 -0.0934
17699TIP3   OH274511   3.589   5.267   6.146 -0.7015  0.1143 -0.0454
17699TIP3    H174512   3.538   5.296   6.222  0.1127  0.0845  0.5270
17699TIP3    H274513   3.632   5.187   6.176 -0.2877  0.1612 -0.5115
17700TIP3   OH274514   0.391   0.211  17.160 -0.3396 -0.0497 -0.0167
17700TIP3    H174515   0.307   0.230  17.119 -0.2167 -0.2994 -0.3947
17700TIP3    H274516   0.456   0.243  17.097 -0.1357 -1.4175 -0.5380
17701TIP3   OH274517   1.157   2.377   5.495 -0.0775  0.6752  0.0065
17701TIP3    H174518   1.167   2.307   5.431 -1.3034  1.0084 -0.5812
17701TIP3    H274519   1.117   2.449   5.446 -0.0730  1.3109  0.9093
17702TIP3   OH274520   1.645   4.219   0.246  0.4022 -0.2259 -0.2145
17702TIP3    H174521   1.698   4.139   0.245  1.2497  0.2578  1.3501
17702TIP3    H274522   1.563   4.193   0.288  1.3679  0.0558  1.9751
17703TIP3   OH274523   2.931   1.904   0.256  0.2367  0.1878 -0.6215
17703TIP3    H174524   2.857   1.945   0.212 -1.2263  0.2168  1.6917
17703TIP3    H274525   2.965   1.971   0.315 -0.5626 -1.0299  1.3360
17704TIP3   OH274526   2.126   4.499  12.937  0.4632 -0.8926  0.0826
17704TIP3    H174527   2.156   4.562  13.003 -1.5539  0.0951  0.1298
17704TIP3    H274528   2.206   4.472  12.892  1.7535 -0.5957  2.0353
17705TIP3   OH274529   3.482   5.382  13.827  0.1042 -0.5944 -0.3498
17705TIP3    H174530   3.573   5.401  13.807  0.1691 -0.1175  0.3697
17705TIP3    H274531   3.472   5.289  13.808  0.9929 -0.8751  0.4730
17706TIP3   OH274532   0.335   2.646  10.690 -0.2985 -0.8313 -0.0577
17706TIP3    H174533   0.362   2.651  10.598  0.6438 -3.1190  0.0195
17706TIP3    H274534   0.240   2.634  10.686 -0.3301 -0.4371 -0.7034
17707TIP3   OH274535   0.288   3.199   2.152  0.0107  0.6143  0.6153
17707TIP3    H174536   0.356   3.229   2.091 -0.9775 -0.4106 -1.0966
17707TIP3    H274537   0.328   3.123   2.196  0.0855  0.1461 -0.2251
17708TIP3   OH274538   3.720   4.709   5.111 -0.4091  0.2973  0.1857
17708TIP3    H174539   3.631   4.733   5.137  0.0323  1.6261  0.5341
17708TIP3    H274540   3.777   4.766   5.164  0.6942 -1.2734  0.7800
17709TIP3   OH274541   3.496   3.792   4.792 -0.4571 -0.8845  0.2356
17709TIP3    H174542   3.466   3.705   4.766  0.4146 -0.7421 -1.2853
17709TIP3    H274543   3.487   3.791   4.888 -2.4901 -1.8747  0.1075
17710TIP3   OH274544   4.342   4.856  13.836  0.1575  0.6306  0.0251
17710TIP3    H174545   4.357   4.944  13.802  0.2450  0.5007 -0.2754
17710TIP3    H274546   4.416   4.840  13.894 -0.4957  1.2304  1.0401
17711TIP3   OH274547   6.060   5.946   6.467 -0.4940 -0.0274  0.3776
17711TIP3    H174548   6.002   6.012   6.430 -0.2679  0.4559  0.8751
17711TIP3    H274549   6.146   5.966   6.430 -0.6829 -0.9056 -0.5693
17712TIP3   OH274550   4.311   6.460  12.787  0.0152 -0.0378  0.6696
17712TIP3    H174551   4.397   6.428  12.758 -0.2723 -0.0211 -0.1957
17712TIP3    H274552   4.274   6.386  12.836 -0.2252 -0.6927 -0.4717
17713TIP3   OH274553   0.531   0.409   4.989  0.5712 -0.0994 -0.3252
17713TIP3    H174554   0.436   0.424   4.995  0.7714  0.9518  0.4485
17713TIP3    H274555   0.539   0.330   4.936 -0.9076 -2.5467  2.7491
17714TIP3   OH274556   2.730   1.311  13.995  0.0622 -0.2345  0.5900
17714TIP3    H174557   2.756   1.275  13.910  0.0685 -1.1632  0.9716
17714TIP3    H274558   2.685   1.392  13.974  1.3778  0.3159 -0.2137
17715TIP3   OH274559   5.327   6.168  11.713 -0.4728  0.4111  0.6344
17715TIP3    H174560   5.292   6.196  11.628  0.2821 -0.5168 -0.0052
17715TIP3    H274561   5.376   6.243  11.745 -1.0342  0.8806  0.4085
17716TIP3   OH274562   0.519   0.037  15.347 -0.8928 -0.1220 -0.1625
17716TIP3    H174563   0.545   0.123  15.381 -0.7024 -0.3768  0.3404
17716TIP3    H274564   0.445   0.011  15.402 -0.2350 -0.7804  0.4359
17717TIP3   OH274565   5.634   3.560  13.627  0.2474  0.4011  0.8503
17717TIP3    H174566   5.613   3.477  13.669 -0.2346 -0.2461 -0.6289
17717TIP3    H274567   5.676   3.536  13.545  1.3040  1.6455  0.9946
17718TIP3   OH274568   6.052   3.066   2.601 -0.1268 -0.2846  0.2085
17718TIP3    H174569   5.967   3.106   2.585  1.0010  1.7654 -1.1376
17718TIP3    H274570   6.088   3.050   2.514  0.8060 -1.2545  0.7543
17719TIP3   OH274571   1.527   3.118  16.046  0.9226 -0.0726  0.2005
17719TIP3    H174572   1.490   3.203  16.069 -0.8099 -0.7099 -0.0710
17719TIP3    H274573   1.569   3.087  16.126  0.7002  0.5955  0.5810
17720TIP3   OH274574   4.041   3.307   2.398  0.1969 -0.0096  0.7607
17720TIP3    H174575   4.093   3.387   2.387  0.7552 -0.6616 -2.2191
17720TIP3    H274576   3.962   3.323   2.345 -0.6765 -0.6830  1.8183
17721TIP3   OH274577   4.925   3.367  15.723  0.3533 -0.2909  0.3079
17721TIP3    H174578   4.955   3.422  15.795  2.1072 -0.2339 -0.4028
17721TIP3    H274579   4.958   3.411  15.644  0.8165 -1.7515 -0.3516
17722TIP3   OH274580   1.147   6.061   3.355  0.2603 -0.4657  0.6048
17722TIP3    H174581   1.136   5.973   3.318 -2.6886  0.6417 -1.6161
17722TIP3    H274582   1.170   6.116   3.279 -0.8864  1.1142  1.3474
17723TIP3   OH274583   6.377   4.075   4.296 -0.8771 -0.0396 -0.3531
17723TIP3    H174584   6.355   4.076   4.389 -1.3931 -0.4960 -0.4671
17723TIP3    H274585   6.461   4.028   4.291 -1.0183 -0.3156 -0.1494
17724TIP3   OH274586   4.049   5.434   1.162  0.1649  0.6562  0.3371
17724TIP3    H174587   4.002   5.420   1.080  0.6869 -1.3783  0.3386
17724TIP3    H274588   4.138   5.455   1.136  0.3406 -0.0299  0.3693
17725TIP3   OH274589   2.621   1.167   4.774 -0.2196 -0.3074  0.1146
17725TIP3    H174590   2.675   1.240   4.741 -0.3914 -0.5911 -0.8147
17725TIP3    H274591   2.662   1.144   4.857 -1.1491  1.9410  1.2827
17726TIP3   OH274592   5.263   3.288   1.086 -0.3621  0.1326  0.0895
17726TIP3    H174593   5.310   3.363   1.123 -1.4844 -0.1734  2.2840
17726TIP3    H274594   5.228   3.321   1.003 -0.4345  1.9171  0.7758
17727TIP3   OH274595   3.639   4.341   2.910 -0.2611 -0.2584  0.0788
17727TIP3    H174596   3.584   4.330   2.832 -2.0618  0.7690  1.1257
17727TIP3    H274597   3.633   4.256   2.955  0.8094 -0.8654 -0.8716
17728TIP3   OH274598   1.982   1.026  16.232 -0.5852 -0.4068 -0.6050
17728TIP3    H174599   1.986   1.119  16.210  0.6968 -0.7254 -1.9034
17728TIP3    H274600   1.992   0.981  16.147 -0.6497 -1.7231  0.0546
17729TIP3   OH274601   3.660   4.407  17.101 -0.5465 -0.2689 -0.0458
17729TIP3    H174602   3.628   4.489  17.137  0.1996  0.4023 -0.8316
17729TIP3    H274603   3.631   4.339  17.162 -1.3281  0.5633  0.5164
17730TIP3   OH274604   1.150   5.399  13.134  0.2208  0.4638  0.7230
17730TIP3    H174605   1.072   5.391  13.189  0.4812  1.6082  1.3020
17730TIP3    H274606   1.183   5.310  13.126 -0.3530  0.1507  1.6668
17731TIP3   OH274607   5.973   1.880   1.721 -0.6951 -0.3478  0.1436
17731TIP3    H174608   6.047   1.842   1.768  1.4607  0.7968 -2.0801
17731TIP3    H274609   5.997   1.872   1.628 -2.3871  1.9290 -0.5900
17732TIP3   OH274610   2.821   0.919   1.431 -0.3256 -0.7006 -0.2682
17732TIP3    H174611   2.808   0.999   1.380  0.1950 -0.4178  0.0340
17732TIP3    H274612   2.911   0.925   1.462  0.8158 -2.8572 -2.7671
17733TIP3   OH274613   1.835   6.243  12.403 -0.5867 -0.1037  0.5192
17733TIP3    H174614   1.881   6.239  12.319  0.6351 -1.4295  1.2199
17733TIP3    H274615   1.814   6.336  12.413 -0.1601  0.1838 -0.9219
17734TIP3   OH274616   2.678   0.199  16.306 -0.0107 -0.3712 -0.1463
17734TIP3    H174617   2.689   0.224  16.214 -2.1860 -0.8194 -0.5723
17734TIP3    H274618   2.601   0.143  16.307 -1.6100  1.6591  2.2958
17735TIP3   OH274619   2.832   4.540  15.631  0.5202 -0.0862  0.2167
17735TIP3    H174620   2.740   4.563  15.643  0.2455 -1.0203  0.0268
17735TIP3    H274621   2.857   4.499  15.713  0.6548 -0.1777  0.1296
17736TIP3   OH274622   0.566   4.045   3.909  0.2899  0.4266 -0.0997
17736TIP3    H174623   0.599   4.011   3.826  0.3431 -0.2282  0.1806
17736TIP3    H274624   0.629   4.015   3.974 -0.2419  0.1373  0.2943
17737TIP3   OH274625   3.761   5.496  15.979  0.0555 -0.0675 -0.1252
17737TIP3    H174626   3.710   5.419  16.005 -2.1140  1.2716 -0.1453
17737TIP3    H274627   3.804   5.524  16.060 -3.0318  1.4323  1.1637
17738TIP3   OH274628   0.275   4.215   5.719  0.4608 -1.0239  0.1871
17738TIP3    H174629   0.250   4.274   5.791  4.0137  0.0078  0.7891
17738TIP3    H274630   0.354   4.255   5.682  0.2162 -2.9039 -2.6629
17739TIP3   OH274631   1.821   6.321   5.625  0.5101  0.0861 -0.1029
17739TIP3    H174632   1.907   6.360   5.613  0.0989  1.6420  1.6146
17739TIP3    H274633   1.762   6.396   5.632 -0.8028 -0.9365  0.0541
17740TIP3   OH274634   2.160   1.481   3.016  0.1333  0.7026  0.3870
17740TIP3    H174635   2.244   1.520   2.992  1.5919 -2.5168 -0.3611
17740TIP3    H274636   2.095   1.546   2.993  2.2307  2.1171 -2.0214
17741TIP3   OH274637   3.887   3.543  17.129 -0.9132 -0.2030 -0.2748
17741TIP3    H174638   3.938   3.472  17.168 -1.2280 -0.5019 -0.3992
17741TIP3    H274639   3.919   3.622  17.171 -0.6114 -0.4285 -0.0793
17742TIP3   OH274640   6.490   0.745   3.310  0.7353  0.0422 -0.0868
17742TIP3    H174641   6.540   0.722   3.232  1.0823  1.1746 -0.2120
17742TIP3    H274642   6.535   0.821   3.346 -1.6785  2.1131 -1.0567
17743TIP3   OH274643   3.187   5.064  15.588  0.1298  0.1279  0.0647
17743TIP3    H174644   3.249   5.073  15.516 -1.0342  0.2323 -0.9418
17743TIP3    H274645   3.206   5.139  15.645  0.9686  0.1158 -0.1864
17744TIP3   OH274646   2.082   0.082  17.063 -0.4399 -0.1981 -0.6282
17744TIP3    H174647   2.071  -0.010  17.086  0.4143 -0.3056 -0.6360
17744TIP3    H274648   2.100   0.126  17.145 -0.6966 -0.0600 -0.6453
17745TIP3   OH274649   5.737   6.337  13.325  0.0497  0.3988  0.0693
17745TIP3    H174650   5.676   6.280  13.279 -0.7719  0.4921  1.0221
17745TIP3    H274651   5.755   6.293  13.407  1.4802  0.2527 -0.2896
17746TIP3   OH274652   5.830   2.620  15.547 -0.1767  0.0783 -0.2030
17746TIP3    H174653   5.869   2.536  15.524  0.3937  0.5007 -0.7857
17746TIP3    H274654   5.904   2.674  15.575 -0.2720  0.9894 -1.6169
17747TIP3   OH274655   4.502   0.856  13.423  0.9689 -0.1057  0.3963
17747TIP3    H174656   4.467   0.944  13.422 -0.3736 -0.6264 -0.4879
17747TIP3    H274657   4.597   0.868  13.436  0.6998  1.3907  1.1974
17748TIP3   OH274658   3.181   3.496  12.826  0.1555 -0.0664  0.1380
17748TIP3    H174659   3.271   3.494  12.858 -0.0074 -0.1470  0.6140
17748TIP3    H274660   3.142   3.415  12.861  0.3544 -0.8906 -1.4798
17749TIP3   OH274661   6.379   4.656  15.714  0.5739  0.3555  0.1080
17749TIP3    H174662   6.372   4.688  15.804  0.3445  0.8420 -0.0801
17749TIP3    H274663   6.371   4.734  15.660  2.7579  0.3480 -0.3030
17750TIP3   OH274664   3.574   4.325   0.306  0.5293  0.0251  0.3356
17750TIP3    H174665   3.554   4.355   0.217 -0.8634  0.1613  0.6626
17750TIP3    H274666   3.627   4.247   0.294  0.1542 -0.0957 -0.6276
17751TIP3   OH274667   6.166   4.027  14.734  0.1798  0.1191 -0.1054
17751TIP3    H174668   6.180   4.121  14.724  0.3422  0.0694 -0.3341
17751TIP3    H274669   6.229   3.986  14.675 -0.5393 -0.1181 -0.7306
17752TIP3   OH274670   5.539   4.784  11.452  0.3142 -0.0822  0.2628
17752TIP3    H174671   5.464   4.770  11.510 -0.3441  1.0218 -0.2897
17752TIP3    H274672   5.505   4.769  11.364  1.2544 -1.5254  0.1225
17753TIP3   OH274673   3.753   6.515   5.277  0.4414 -0.1663 -0.6962
17753TIP3    H174674   3.760   6.561   5.193 -1.2220 -0.6370 -1.1358
17753TIP3    H274675   3.659   6.505   5.291  0.7129 -1.1354  0.6710
17754TIP3   OH274676   4.038   5.648  12.971  0.3280  0.2037  0.3571
17754TIP3    H174677   4.081   5.563  12.961 -1.0792 -0.3873 -1.1046
17754TIP3    H274678   4.092   5.708  12.920  1.1020  0.1363  1.0645
17755TIP3   OH274679   5.168   0.409  13.721  0.1624  0.0380 -0.2235
17755TIP3    H174680   5.075   0.389  13.710  0.3000 -0.9751  0.4060
17755TIP3    H274681   5.207   0.392  13.635 -0.2523  0.6922 -0.5574
17756TIP3   OH274682   2.306   2.670  16.550 -0.2072  0.4580  0.9279
17756TIP3    H174683   2.360   2.634  16.621  1.3958  0.4183 -0.2502
17756TIP3    H274684   2.252   2.597  16.522  1.7243 -0.6095 -0.2260
17757TIP3   OH274685   6.592   4.039  12.714 -0.0841 -0.0014 -0.0079
17757TIP3    H174686   6.590   3.986  12.634  0.8856 -0.0625  0.0018
17757TIP3    H274687   6.507   4.083  12.715  0.4745  1.2211 -1.8960
17758TIP3   OH274688   2.466   1.025   2.167 -0.6360  0.4670 -0.8930
17758TIP3    H174689   2.562   1.029   2.165 -0.6322  2.6916  0.0215
17758TIP3    H274690   2.441   0.997   2.079  0.8385  1.2984 -1.6191
17759TIP3   OH274691   0.814   4.352  16.468  0.0080 -0.0660  0.4739
17759TIP3    H174692   0.804   4.447  16.465 -1.4808 -0.1334  1.6905
17759TIP3    H274693   0.751   4.324  16.534  0.5765 -1.8893  0.2993
17760TIP3   OH274694   2.290   5.829   1.036  0.4434  0.0966 -0.4997
17760TIP3    H174695   2.214   5.798   0.987 -0.2698 -1.4383  1.4570
17760TIP3    H274696   2.258   5.903   1.086  0.7721  0.6924 -1.1561
17761TIP3   OH274697   5.489   3.988   0.887  0.3931 -0.4214  0.2635
17761TIP3    H174698   5.451   4.075   0.875  0.3382 -0.6236 -1.1575
17761TIP3    H274699   5.424   3.928   0.851  1.2462 -0.9073 -0.5124
17762TIP3   OH274700   0.229   6.058  13.326 -0.4902 -0.2557  0.2679
17762TIP3    H174701   0.199   6.134  13.375  0.4291  0.6124 -0.4855
17762TIP3    H274702   0.308   6.029  13.372  0.3072  0.4886 -0.5831
17763TIP3   OH274703   0.098   6.118   4.603  0.3277 -0.3912  0.2098
17763TIP3    H174704   0.165   6.069   4.555  0.8274 -0.1992  0.7045
17763TIP3    H274705   0.065   6.181   4.539  1.2185  0.0812  0.1950
17764TIP3   OH274706   3.120   0.283  11.185 -0.4329 -0.0975  0.1946
17764TIP3    H174707   3.029   0.282  11.156 -0.0324 -2.1600 -1.2297
17764TIP3    H274708   3.167   0.328  11.114 -0.4204  1.9394  1.4205
17765TIP3   OH274709   0.898   5.190  14.540  0.1278  0.2078  0.6981
17765TIP3    H174710   0.932   5.248  14.473  1.1834 -2.0559 -0.8260
17765TIP3    H274711   0.826   5.142  14.497  1.9212 -2.5153  0.4774
17766TIP3   OH274712   1.930   1.670  14.071  0.2178 -0.3270 -0.4752
17766TIP3    H174713   1.958   1.750  14.116 -0.6549 -0.3821  0.1837
17766TIP3    H274714   1.863   1.700  14.009  1.0704 -0.3215 -1.4197
17767TIP3   OH274715   1.880   0.378  14.457 -0.0071  0.2338 -0.4140
17767TIP3    H174716   1.853   0.396  14.547  1.0052  1.2621 -0.2948
17767TIP3    H274717   1.945   0.308  14.465  0.7565  0.9515 -0.2440
17768TIP3   OH274718   2.792   5.495   0.777  0.0881 -0.2259 -0.3234
17768TIP3    H174719   2.744   5.555   0.835 -0.8244 -0.4697 -0.7977
17768TIP3    H274720   2.791   5.411   0.824  1.4668  0.1296  0.3939
17769TIP3   OH274721   1.717   3.169  11.646  0.3182 -0.5736  0.0495
17769TIP3    H174722   1.740   3.095  11.590 -1.3587  0.0962 -1.6088
17769TIP3    H274723   1.653   3.134  11.708  0.1390 -0.6909 -0.2039
17770TIP3   OH274724   6.221   0.976   0.897  0.3913  0.2019  0.2410
17770TIP3    H174725   6.291   0.942   0.841  0.5799 -1.4371  1.4234
17770TIP3    H274726   6.152   0.910   0.892  0.5856 -0.1997  2.2492
17771TIP3   OH274727   0.552   2.917   0.982 -0.6200  0.3038 -0.3447
17771TIP3    H174728   0.597   2.969   0.915 -1.5777  0.9197 -0.5166
17771TIP3    H274729   0.560   2.827   0.951 -0.8706  0.5645 -1.1907
17772TIP3   OH274730   6.008   4.825   4.891  0.0984  0.1282 -0.0330
17772TIP3    H174731   6.026   4.733   4.912  4.4421  0.9397  0.8873
17772TIP3    H274732   6.019   4.829   4.796  0.1944 -0.2749 -0.0448
17773TIP3   OH274733   0.665   5.734  15.035  0.0255 -0.1648  0.3839
17773TIP3    H174734   0.572   5.715  15.022 -0.0300 -0.0888  0.6684
17773TIP3    H274735   0.666   5.817  15.082  0.2453 -0.0033  0.1007
17774TIP3   OH274736   6.328   3.009   0.162  0.1895  0.0190 -0.0314
17774TIP3    H174737   6.333   3.102   0.182 -0.0625  0.4513 -1.8610
17774TIP3    H274738   6.409   2.972   0.198  1.4784  1.3778 -1.4220
17775TIP3   OH274739   6.358   1.373   0.480  0.4883  0.5295  0.3311
17775TIP3    H174740   6.382   1.358   0.572  0.8482 -0.0551  0.1417
17775TIP3    H274741   6.320   1.290   0.451  2.1319  0.0703 -0.6002
17776TIP3   OH274742   0.462   3.261  14.577  0.1954  0.5967 -0.4063
17776TIP3    H174743   0.528   3.330  14.580  1.9620 -0.9937  2.3514
17776TIP3    H274744   0.385   3.298  14.620  1.0134  1.0081  0.7636
17777TIP3   OH274745   5.712   1.735  13.658 -0.4142 -0.9110  0.3124
17777TIP3    H174746   5.705   1.798  13.730 -2.0614  0.2815 -0.8141
17777TIP3    H274747   5.800   1.749  13.622 -0.3294 -0.0847  0.8237
17778TIP3   OH274748   6.456   5.728   1.031  0.0546 -0.0296 -0.1502
17778TIP3    H174749   6.525   5.672   0.996  0.8586  0.5974  0.4025
17778TIP3    H274750   6.476   5.816   0.998 -0.0535  0.2899  0.6131
17779TIP3   OH274751   6.718   4.456   3.850 -1.1614  0.2575 -0.0787
17779TIP3    H174752   6.643   4.512   3.868 -0.1336  1.4894  0.5627
17779TIP3    H274753   6.688   4.368   3.873 -1.4997  1.0969  3.1943
17780TIP3   OH274754   1.645   4.600  14.684  0.0349  0.1804  0.2239
17780TIP3    H174755   1.678   4.682  14.720  0.0450 -0.3464  1.4552
17780TIP3    H274756   1.700   4.532  14.723 -1.1925 -0.5590  0.7610
17781TIP3   OH274757   1.971   1.495  11.988  0.2632 -0.5882 -0.2340
17781TIP3    H174758   1.889   1.534  11.959  1.1807  0.8403 -1.0963
17781TIP3    H274759   1.997   1.438  11.916  1.4400  1.2602 -1.3891
17782TIP3   OH274760   1.896   5.872   0.186  0.5487  0.2694 -0.3190
17782TIP3    H174761   1.941   5.878   0.270 -0.2272 -0.5748  0.1788
17782TIP3    H274762   1.803   5.884   0.208  0.3623  0.2527 -1.0807
17783TIP3   OH274763   1.075   6.340   5.615 -0.7085  0.0806  0.3969
17783TIP3    H174764   1.094   6.360   5.707 -0.6409 -0.2857  0.4676
17783TIP3    H274765   0.981   6.321   5.615 -1.3805  3.0328 -0.1613
17784TIP3   OH274766   3.145   6.192   6.589 -0.1332  0.3014 -0.0810
17784TIP3    H174767   3.232   6.153   6.584  2.2358  4.6999  1.0937
17784TIP3    H274768   3.132   6.212   6.682 -0.6803  2.9040 -0.6299
17785TIP3   OH274769   1.718   2.325   5.138  0.4244 -0.0060 -0.0193
17785TIP3    H174770   1.718   2.236   5.105  0.5070 -0.4226  1.0509
17785TIP3    H274771   1.641   2.366   5.097  1.0496 -0.1885 -1.4311
17786TIP3   OH274772   5.512   4.063   5.341  0.1466 -0.5639  0.0247
17786TIP3    H174773   5.512   4.158   5.325 -1.3088 -0.6880 -0.8812
17786TIP3    H274774   5.560   4.053   5.424 -0.7471  1.0871  0.7879
17787TIP3   OH274775   6.723   5.778   0.846  0.0286  0.2265  0.4458
17787TIP3    H174776   6.737   5.686   0.867 -0.6712 -0.0580 -0.2686
17787TIP3    H274777   6.808   5.819   0.860  0.7701 -0.8237 -0.7157
17788TIP3   OH274778   3.433   5.485  14.113 -0.6461  0.0696  0.4485
17788TIP3    H174779   3.516   5.462  14.155 -0.5914  1.9887  1.4763
17788TIP3    H274780   3.444   5.455  14.022  1.5523  1.0882  0.3146
17789TIP3   OH274781   1.714   2.614   0.276  0.2818  0.1530 -0.0839
17789TIP3    H174782   1.690   2.602   0.368  0.3575  0.8475  0.0349
17789TIP3    H274783   1.794   2.667   0.279  0.7968 -0.5722 -0.5300
17790TIP3   OH274784   3.163   1.943   4.016  0.1194 -0.6639 -0.2451
17790TIP3    H174785   3.098   1.893   4.064 -1.2090 -0.1652 -1.4501
17790TIP3    H274786   3.169   2.026   4.064  0.4511 -0.9991  0.3042
17791TIP3   OH274787   4.520   5.138   5.537 -0.5943 -0.3273 -0.4460
17791TIP3    H174788   4.542   5.054   5.578 -0.9324 -0.3987 -0.4103
17791TIP3    H274789   4.441   5.121   5.486  1.2609 -0.9244 -3.3677
17792TIP3   OH274790   0.115   6.144  12.201  0.1511  0.2889 -0.6558
17792TIP3    H174791   0.085   6.138  12.111 -2.0741 -0.6156  0.0669
17792TIP3    H274792   0.183   6.077  12.209  0.0198  0.0394 -1.5444
17793TIP3   OH274793   0.480   1.510   0.225  0.2570  0.3493  0.3081
17793TIP3    H174794   0.453   1.508   0.317  0.2056  0.3446  0.2932
17793TIP3    H274795   0.530   1.591   0.216 -0.8217  1.0150  0.0418
17794TIP3   OH274796   2.469   6.329   2.912  0.3737 -0.2718 -0.2153
17794TIP3    H174797   2.558   6.308   2.943 -1.5051 -3.0522  4.2797
17794TIP3    H274798   2.437   6.249   2.872 -0.9039 -0.1368  0.4821
17795TIP3   OH274799   1.125   4.066   0.734  0.6204  0.0861  0.3391
17795TIP3    H174800   1.186   4.045   0.804  0.1691 -0.5119  0.5663
17795TIP3    H274801   1.041   4.032   0.765  0.6102 -1.1769 -0.9413
17796TIP3   OH274802   3.599   6.629   0.579 -0.1112  0.0237 -0.0561
17796TIP3    H174803   3.546   6.587   0.512  1.3945 -0.7197 -0.8485
17796TIP3    H274804   3.605   6.721   0.550 -1.6529  0.3397  0.5332
17797TIP3   OH274805   1.716   2.951  11.467 -0.1669  0.2250 -0.2433
17797TIP3    H174806   1.621   2.957  11.478 -0.1538 -0.3547  0.2899
17797TIP3    H274807   1.730   2.867  11.424  0.2258 -0.8910  1.8954
17798TIP3   OH274808   0.863   4.524   5.247 -0.2116  0.1342  0.1272
17798TIP3    H174809   0.780   4.570   5.239 -0.1402  0.2533  0.0765
17798TIP3    H274810   0.863   4.490   5.336  0.3065  1.3233  0.5964
17799TIP3   OH274811   3.974   4.507  17.283 -0.2086  0.2880  0.1811
17799TIP3    H174812   4.038   4.578  17.293  0.7212 -0.5498  0.2550
17799TIP3    H274813   3.984   4.478  17.192 -0.7729  0.4182  0.0733
17800TIP3   OH274814   6.027   5.026  11.290 -0.3110 -0.2746 -0.5066
17800TIP3    H174815   6.039   5.102  11.347 -0.4459 -1.1710  0.7550
17800TIP3    H274816   6.111   4.981  11.292 -0.8034 -1.1986  0.3351
17801TIP3   OH274817   5.725   2.067  11.974 -0.5911  0.4698  0.1714
17801TIP3    H174818   5.814   2.103  11.970  0.3198 -1.7005 -0.6292
17801TIP3    H274819   5.738   1.973  11.978 -2.8848  0.1081  0.2198
17802TIP3   OH274820   3.481   6.725   3.528  0.3988 -0.3011  0.2397
17802TIP3    H174821   3.493   6.812   3.489 -1.8289  0.4755  1.1119
17802TIP3    H274822   3.456   6.743   3.618  2.3318 -1.9772  1.1771
17803TIP3   OH274823   0.767   1.677   1.108 -0.2197 -0.1394 -0.1755
17803TIP3    H174824   0.776   1.587   1.139  0.9456  0.5372  1.6111
17803TIP3    H274825   0.705   1.718   1.168 -0.2494  0.4167 -0.5730
17804TIP3   OH274826   1.746   1.528   5.867  0.5136  0.0270  0.0907
17804TIP3    H174827   1.715   1.448   5.824 -2.7840  0.6039  1.1185
17804TIP3    H274828   1.794   1.497   5.943  1.8477 -0.9337 -1.0784
17805TIP3   OH274829   4.209   3.774   6.382 -0.0141  0.1614 -0.0507
17805TIP3    H174830   4.236   3.864   6.402 -0.8144  0.3178  0.3921
17805TIP3    H274831   4.203   3.731   6.467 -4.8127  1.2155  0.4396
17806TIP3   OH274832   4.855   6.078  14.915  0.1498 -0.5284  0.3719
17806TIP3    H174833   4.826   6.075  14.824 -3.1270 -0.6159  1.2845
17806TIP3    H274834   4.875   5.988  14.937  1.0435 -0.4923 -0.2771
17807TIP3   OH274835   5.503   4.556   1.437  0.9412 -0.4568  0.6432
17807TIP3    H174836   5.567   4.490   1.409  1.0449 -1.2639  2.5979
17807TIP3    H274837   5.543   4.597   1.514  0.3815  1.1479  0.1254
17808TIP3   OH274838   1.909   1.915  15.092  0.2472 -0.2252  0.0407
17808TIP3    H174839   2.004   1.911  15.102  0.0347 -1.0080  2.3861
17808TIP3    H274840   1.885   1.832  15.051  0.3506 -1.5891  2.5317
17809TIP3   OH274841   3.851   3.955   4.610 -0.0643  0.5263  0.4756
17809TIP3    H174842   3.868   4.047   4.631 -0.0856  0.3946  1.0856
17809TIP3    H274843   3.756   3.949   4.604 -0.0639  0.5408  0.4535
17810TIP3   OH274844   0.735   5.260   5.780 -0.0812 -0.2399 -0.5920
17810TIP3    H174845   0.660   5.250   5.722  0.4759 -1.8778 -1.0816
17810TIP3    H274846   0.736   5.353   5.802 -0.3386  0.4703 -3.1858
17811TIP3   OH274847   0.118   3.705   2.039 -0.0538 -0.9528  0.6625
17811TIP3    H174848   0.098   3.680   1.949 -0.1618  1.8929 -0.1892
17811TIP3    H274849   0.033   3.727   2.077  0.2441  0.2428  0.6562
17812TIP3   OH274850   5.696   0.278  14.788 -0.0087 -0.7081 -0.1550
17812TIP3    H174851   5.645   0.243  14.715  0.7229 -1.0619 -0.5113
17812TIP3    H274852   5.636   0.275  14.863 -0.5177 -1.0805 -0.5681
17813TIP3   OH274853   3.461   3.362  16.695  0.1358 -0.7656  0.3372
17813TIP3    H174854   3.451   3.349  16.601 -1.5418 -0.1523  0.4023
17813TIP3    H274855   3.553   3.386  16.706 -0.2143  1.9234 -1.5135
17814TIP3   OH274856   1.714   0.792  12.726 -0.0963 -0.3633 -0.2962
17814TIP3    H174857   1.653   0.729  12.764 -0.6318  0.4488  0.2244
17814TIP3    H274858   1.710   0.776  12.632 -1.9061  0.3520 -0.3730
17815TIP3   OH274859   4.957   6.061  12.520 -0.4887 -0.1586  0.4725
17815TIP3    H174860   4.920   5.992  12.465  0.5826 -0.7708  0.4937
17815TIP3    H274861   4.900   6.137  12.505 -1.4108 -0.9067  0.0926
17816TIP3   OH274862   5.661   5.111   1.853 -0.4477  0.1640 -0.3508
17816TIP3    H174863   5.620   5.196   1.839 -0.6994  0.0474 -0.3179
17816TIP3    H274864   5.663   5.071   1.766 -2.6210 -0.8388  0.0165
17817TIP3   OH274865   3.553   4.348  15.403  0.3480 -0.2472 -0.1945
17817TIP3    H174866   3.572   4.373  15.312 -1.1257  1.9414  0.0243
17817TIP3    H274867   3.608   4.272  15.418  1.8989  0.3134 -2.3971
17818TIP3   OH274868   0.689   3.913   0.418  0.0380 -0.6572  0.4154
17818TIP3    H174869   0.632   3.931   0.343 -2.0240 -0.9934  1.8074
17818TIP3    H274870   0.654   3.968   0.488  1.3544 -1.0155  1.3987
17819TIP3   OH274871   4.224   5.087   4.552  0.0148 -0.4943  0.6276
17819TIP3    H174872   4.285   5.156   4.579  0.3164  0.5260 -2.3257
17819TIP3    H274873   4.276   5.028   4.498 -1.4265  0.1946 -1.6685
17820TIP3   OH274874   2.519   0.211   5.956  0.2457  0.4835  0.1611
17820TIP3    H174875   2.523   0.286   6.015 -0.3023  0.3194  0.4110
17820TIP3    H274876   2.448   0.157   5.990  0.6308 -0.1507 -0.0129
17821TIP3   OH274877   1.262   6.113  15.984  0.0807 -0.4892  0.6984
17821TIP3    H174878   1.272   6.140  16.076 -2.1364 -2.9823  1.7823
17821TIP3    H274879   1.264   6.017  15.987 -0.8694 -0.6442 -1.7533
17822TIP3   OH274880   1.465   3.940  12.494 -0.2390 -0.1348  0.1691
17822TIP3    H174881   1.531   3.903  12.436 -0.7496  0.1157 -0.5804
17822TIP3    H274882   1.504   4.022  12.526 -0.6795  0.6902 -1.3027
17823TIP3   OH274883   2.210   4.515   3.814 -0.1057 -1.1793  0.3262
17823TIP3    H174884   2.230   4.602   3.779 -0.5756 -0.6471  1.3238
17823TIP3    H274885   2.296   4.474   3.827  0.1647 -0.5385  0.6156
17824TIP3   OH274886   3.305   4.939  13.076 -0.1554  0.8941 -0.0054
17824TIP3    H174887   3.324   4.859  13.126 -0.1597  0.2457 -1.0231
17824TIP3    H274888   3.223   4.921  13.031  0.6759  0.8045 -1.5665
17825TIP3   OH274889   2.328   5.022   2.499  0.0291 -0.4243  0.0104
17825TIP3    H174890   2.286   5.107   2.506  0.4528 -0.2383  0.3391
17825TIP3    H274891   2.276   4.974   2.434 -2.7950 -1.4211  2.7545
17826TIP3   OH274892   3.454   5.781  14.522  0.2479  0.3499  0.7123
17826TIP3    H174893   3.474   5.755  14.612  2.2612 -0.6785  0.0226
17826TIP3    H274894   3.530   5.755  14.472 -0.1672  2.2819 -1.0813
17827TIP3   OH274895   5.836   5.886  10.780 -0.5534 -0.3555 -0.7634
17827TIP3    H174896   5.856   5.812  10.838  0.5210  0.3277 -0.2242
17827TIP3    H274897   5.747   5.912  10.803 -0.6834 -1.0346 -0.4735
17828TIP3   OH274898   1.950   3.352  13.086  0.2722 -0.1846  0.1504
17828TIP3    H174899   1.906   3.433  13.110  0.9516 -0.2612  1.7772
17828TIP3    H274900   1.921   3.334  12.996 -1.2181  0.9328  0.3828
17829TIP3   OH274901   4.431   1.254   0.619 -0.6419 -0.0894 -0.1222
17829TIP3    H174902   4.344   1.258   0.659 -0.9477  0.6359 -0.8161
17829TIP3    H274903   4.490   1.235   0.692 -1.4929 -1.7458  0.1734
17830TIP3   OH274904   1.962   4.401   2.896 -0.4927  0.2680  0.2030
17830TIP3    H174905   2.011   4.341   2.840  0.1564  0.9682  0.0045
17830TIP3    H274906   1.981   4.488   2.861 -0.3538  0.6930  1.2802
17831TIP3   OH274907   4.675   2.462  11.903 -0.5972  0.0466  0.6554
17831TIP3    H174908   4.755   2.463  11.851 -0.4905 -2.1385  0.7074
17831TIP3    H274909   4.703   2.493  11.990  0.7882 -2.7811  1.3526
17832TIP3   OH274910   0.257   0.382   5.633 -0.0513  0.2070 -0.2381
17832TIP3    H174911   0.315   0.370   5.558 -0.2892  0.3145 -0.4367
17832TIP3    H274912   0.192   0.313   5.625  0.7053 -0.6469  0.6107
17833TIP3   OH274913   5.304   1.442   4.826 -0.1532  0.1543 -0.3422
17833TIP3    H174914   5.364   1.494   4.773 -0.1591 -0.6245 -1.1474
17833TIP3    H274915   5.222   1.442   4.776 -0.0980 -0.7537 -0.4500
17834TIP3   OH274916   4.001   1.824   1.108 -0.2032 -0.3004 -0.1862
17834TIP3    H174917   4.089   1.848   1.078 -0.9054  0.9939 -1.3307
17834TIP3    H274918   3.982   1.741   1.064  0.3859 -0.5269 -0.0222
17835TIP3   OH274919   5.006   4.974  12.625 -0.0879 -0.0920  0.4125
17835TIP3    H174920   5.041   4.986  12.536 -2.3942  0.1277 -0.5614
17835TIP3    H274921   5.026   5.056  12.670 -1.5276  1.0987 -0.9555
17836TIP3   OH274922   5.883   0.328  17.160 -0.4501 -0.2719 -0.4573
17836TIP3    H174923   5.972   0.292  17.164 -0.3618  0.0412  1.9570
17836TIP3    H274924   5.873   0.358  17.069  1.4950 -1.2859 -1.0620
17837TIP3   OH274925   2.723   0.609  15.850 -0.0586 -0.6454  0.2975
17837TIP3    H174926   2.818   0.616  15.848 -0.1842  1.9054 -0.9668
17837TIP3    H274927   2.698   0.594  15.759 -0.9373  2.1674 -0.0289
17838TIP3   OH274928   4.040   4.694  11.295 -0.5615  0.4778 -0.6496
17838TIP3    H174929   3.964   4.702  11.353  0.0470  1.5241  0.0427
17838TIP3    H274930   4.008   4.722  11.209 -0.8655  1.3475 -0.2677
17839TIP3   OH274931   4.495   5.608   1.361 -0.4272  0.5947 -0.6194
17839TIP3    H174932   4.500   5.585   1.269  3.4189  0.2670 -0.4800
17839TIP3    H274933   4.538   5.694   1.367 -1.0267  0.8309  0.8224
17840TIP3   OH274934   5.863   5.191  10.756  0.0009  0.4092  0.1277
17840TIP3    H174935   5.768   5.196  10.771 -0.0107 -1.0761  0.7138
17840TIP3    H274936   5.891   5.118  10.811  1.2113 -0.3270 -1.4377
17841TIP3   OH274937   4.938   1.319   5.407 -0.0792  0.1929 -0.1280
17841TIP3    H174938   5.006   1.253   5.415 -0.6353 -0.4871 -0.8641
17841TIP3    H274939   4.941   1.368   5.489  1.4575  0.3392 -0.2433
17842TIP3   OH274940   4.165   1.182  16.670 -0.0225  0.1661 -0.5289
17842TIP3    H174941   4.139   1.258  16.722 -3.1452 -0.5966 -0.8264
17842TIP3    H274942   4.110   1.186  16.592 -1.8234 -3.3955  0.3671
17843TIP3   OH274943   4.963   2.084   2.593 -0.4833 -0.0190  0.2773
17843TIP3    H174944   4.874   2.061   2.622 -0.2350 -1.9977 -0.3977
17843TIP3    H274945   4.951   2.116   2.503 -0.7898  2.3784  1.1072
17844TIP3   OH274946   3.716   2.476  12.016  0.3965 -0.0612  0.2117
17844TIP3    H174947   3.804   2.494  11.984  1.1130 -0.7619  1.7095
17844TIP3    H274948   3.729   2.418  12.091 -1.4143 -1.2338 -0.3136
17845TIP3   OH274949   4.127   5.428   1.878  0.5924  0.1674  0.3072
17845TIP3    H174950   4.168   5.366   1.818 -0.7276 -0.8253  0.4008
17845TIP3    H274951   4.066   5.376   1.930 -1.4933  1.7178 -0.4308
17846TIP3   OH274952   2.016   6.372  13.653 -0.4539 -1.1327  0.2620
17846TIP3    H174953   1.998   6.465  13.665  0.3105 -0.8505 -0.7391
17846TIP3    H274954   2.074   6.349  13.726  0.2627 -0.5654 -0.1278
17847TIP3   OH274955   5.967   0.345   6.101  0.1820  0.2489 -0.1562
17847TIP3    H174956   5.927   0.385   6.024 -0.2352 -0.5213 -0.3465
17847TIP3    H274957   5.902   0.358   6.170 -1.2979 -2.6189 -0.8814
17848TIP3   OH274958   2.757   4.905  14.601 -0.0554 -0.2870  0.1803
17848TIP3    H174959   2.722   4.832  14.550  0.5625 -0.0528 -0.5887
17848TIP3    H274960   2.786   4.865  14.683 -2.3511 -0.4426  0.9762
17849TIP3   OH274961   3.170   4.329  16.021 -0.6923  0.0367 -0.0711
17849TIP3    H174962   3.178   4.234  16.018 -0.1318  0.0773  0.0270
17849TIP3    H274963   3.253   4.361  15.984  0.5869  0.4841  2.8869
17850TIP3   OH274964   0.992   6.548   4.902 -0.2481  0.1450  0.0489
17850TIP3    H174965   1.086   6.539   4.883  0.1361  2.9551  0.1358
17850TIP3    H274966   0.953   6.572   4.819 -1.1431 -1.9826 -0.2115
17851TIP3   OH274967   4.541   6.236  12.313  0.4032  0.6164  0.2950
17851TIP3    H174968   4.530   6.258  12.221 -1.0474 -2.0887 -0.2659
17851TIP3    H274969   4.461   6.268  12.355  1.7111  3.2325  1.0185
17852TIP3   OH274970   5.936   4.133   2.303 -0.0897 -0.1416  0.4398
17852TIP3    H174971   6.025   4.126   2.337 -0.5348  0.8804  1.9263
17852TIP3    H274972   5.945   4.186   2.224  0.8647 -1.8730 -0.6655
17853TIP3   OH274973   4.852   3.446  13.859  0.0499 -0.1945  0.0390
17853TIP3    H174974   4.834   3.378  13.925  2.2989 -1.3535 -0.4030
17853TIP3    H274975   4.807   3.524  13.891 -0.9718 -1.3809  1.6398
17854TIP3   OH274976   5.178   2.732  12.422 -0.1220  0.1950  0.4366
17854TIP3    H174977   5.161   2.648  12.380  0.6679  0.2703 -0.0598
17854TIP3    H274978   5.271   2.730  12.443  0.1889  1.4100 -0.6702
17855TIP3   OH274979   1.740   2.780  13.174  1.6703  0.2519 -0.2925
17855TIP3    H174980   1.655   2.816  13.198  0.8506 -2.5735  1.4750
17855TIP3    H274981   1.738   2.775  13.078  0.3717  1.3105 -0.3565
17856TIP3   OH274982   1.232   6.141  12.254 -0.7326 -0.4824 -0.2195
17856TIP3    H174983   1.186   6.197  12.317 -0.8963  0.0318 -0.7811
17856TIP3    H274984   1.312   6.190  12.234 -1.7605  0.5328 -2.1688
17857TIP3   OH274985   1.679   1.044  16.151  0.4449 -0.3646 -0.2203
17857TIP3    H174986   1.702   1.127  16.193 -0.1978  0.3280 -1.1878
17857TIP3    H274987   1.749   0.984  16.175  0.8131  0.4010  0.6613
17858TIP3   OH274988   5.267   4.436   0.657 -1.1577 -0.0166 -0.6900
17858TIP3    H174989   5.291   4.528   0.666  0.4203 -0.5376  0.8060
17858TIP3    H274990   5.286   4.415   0.566 -2.1706  1.2707 -1.2379
17859TIP3   OH274991   2.247   1.137  11.576  0.2088 -0.6323 -0.2716
17859TIP3    H174992   2.186   1.207  11.598  0.9675 -0.7751  2.7488
17859TIP3    H274993   2.193   1.071  11.532 -1.3794  0.0961  0.5145
17860TIP3   OH274994   6.315   4.514   2.828  0.4400  0.2952 -0.2607
17860TIP3    H174995   6.252   4.509   2.900  0.6119 -0.4161 -0.1516
17860TIP3    H274996   6.357   4.600   2.839  0.0021  0.4686  0.0925
17861TIP3   OH274997   2.777   4.632   6.321 -0.0496 -0.3552  0.2074
17861TIP3    H174998   2.790   4.540   6.300  0.0768 -0.3414  0.2229
17861TIP3    H274999   2.828   4.646   6.401  0.5444 -0.0939 -0.2103
17862TIP3   OH275000   2.317   5.694   5.228  0.2368 -0.3016  0.4423
17862TIP3    H175001   2.382   5.753   5.266  0.8908  0.3745 -1.5811
17862TIP3    H275002   2.234   5.743   5.235  0.3975 -0.0648  0.7153
17863TIP3   OH275003   3.710   6.618   4.180  0.2658  0.0669 -0.1777
17863TIP3    H175004   3.709   6.525   4.204  0.7197 -0.7815 -3.0144
17863TIP3    H275005   3.700   6.618   4.085 -3.3653  3.1155 -0.0163
17864TIP3   OH275006   1.568   0.765  12.490  0.1940  0.5317 -0.5909
17864TIP3    H175007   1.514   0.764  12.411  0.8413  0.0049 -1.0469
17864TIP3    H275008   1.507   0.786  12.561 -0.6333 -0.1734 -1.0693
17865TIP3   OH275009   5.833   1.391   2.132 -0.5537 -0.4738  0.0152
17865TIP3    H175010   5.754   1.443   2.124  0.0616  0.3613 -0.8808
17865TIP3    H275011   5.891   1.442   2.188 -0.2696 -0.5954 -0.1614
17866TIP3   OH275012   5.739   4.356  12.956 -0.5770  0.1076 -0.1887
17866TIP3    H175013   5.740   4.446  12.925 -1.0980 -0.0603 -0.7044
17866TIP3    H275014   5.653   4.322  12.930  0.3080 -1.1175 -1.7212
17867TIP3   OH275015   4.041   4.585  11.716  0.2560 -0.6783 -0.3582
17867TIP3    H175016   3.959   4.630  11.737  0.0898 -1.1451  0.0258
17867TIP3    H275017   4.109   4.641  11.751  0.0584 -0.6384 -0.0267
17868TIP3   OH275018   0.381   1.114  11.452 -0.0416  0.3647 -0.0623
17868TIP3    H175019   0.358   1.035  11.501  0.7257 -0.4102 -0.9005
17868TIP3    H275020   0.303   1.134  11.400 -1.0421  1.4796  1.7840
17869TIP3   OH275021   6.061   1.654   5.726  0.0139 -0.0523  0.1437
17869TIP3    H175022   5.996   1.724   5.737  1.6903  1.3939  1.5300
17869TIP3    H275023   6.028   1.582   5.779 -1.2522  0.0418 -0.4892
17870TIP3   OH275024   2.094   1.660  11.382  0.4257 -0.1716  0.0774
17870TIP3    H175025   2.145   1.603  11.324  0.6734 -0.4459  0.5585
17870TIP3    H275026   2.154   1.731  11.405  0.4486 -0.2515  0.2745
17871TIP3   OH275027   4.141   6.695  12.775 -0.3154 -0.0742  0.4452
17871TIP3    H175028   4.142   6.739  12.860  1.4651 -0.0178  0.4347
17871TIP3    H275029   4.195   6.617  12.787  0.2146  0.0943 -0.6979
17872TIP3   OH275030   1.761   2.869   5.538 -0.4709  0.4077 -0.1580
17872TIP3    H175031   1.797   2.850   5.452 -0.2241 -0.4359  0.1205
17872TIP3    H275032   1.668   2.889   5.522 -0.4444  0.1793 -0.6036
17873TIP3   OH275033   2.726   4.515  13.384  0.0470  0.0095  0.3633
17873TIP3    H175034   2.746   4.517  13.478  1.0112 -0.7980  0.1890
17873TIP3    H275035   2.799   4.561  13.343 -0.5245  0.6232  0.0235
17874TIP3   OH275036   5.346   1.179  14.068  0.1777  0.2943  0.1824
17874TIP3    H175037   5.314   1.256  14.114 -0.4473  0.1842 -0.0522
17874TIP3    H275038   5.378   1.121  14.137  2.6172  1.5990  0.2447
17875TIP3   OH275039   5.999   0.072   4.723 -0.4757  0.1308 -0.2532
17875TIP3    H175040   6.086   0.053   4.758 -0.7736  1.0922  1.0612
17875TIP3    H275041   5.940   0.058   4.796 -1.5483 -1.2423 -1.3237
17876TIP3   OH275042   4.546   5.380   2.689  0.1146  0.3484 -0.0756
17876TIP3    H175043   4.491   5.307   2.717  2.2554 -0.6683  1.7375
17876TIP3    H275044   4.575   5.421   2.770  2.9151  0.1260 -0.8670
17877TIP3   OH275045   5.517   5.743  14.729 -0.4145 -0.0936  0.2788
17877TIP3    H175046   5.492   5.676  14.665  0.1201  1.2162 -1.3725
17877TIP3    H275047   5.612   5.747  14.725 -0.2334 -1.1145  2.4017
17878TIP3   OH275048   4.481   0.990  14.449 -0.0705 -0.2236  0.6203
17878TIP3    H175049   4.390   0.967  14.431 -0.3203  1.0367  0.1565
17878TIP3    H275050   4.480   1.018  14.541 -0.2206  0.0614  0.5348
17879TIP3   OH275051   3.375   3.805  15.640 -0.3638  0.1572 -0.4414
17879TIP3    H175052   3.419   3.720  15.635 -1.5787 -0.5709  0.5237
17879TIP3    H275053   3.389   3.844  15.554  1.1926 -0.5132 -0.5214
17880TIP3   OH275054   1.458   5.409   2.355  0.4882  0.2852 -0.5620
17880TIP3    H175055   1.552   5.413   2.372  0.2496  2.5185  0.6169
17880TIP3    H275056   1.424   5.347   2.420  1.1019 -0.4377 -0.9190
17881TIP3   OH275057   1.889   3.787  12.836  0.4276 -0.1295 -0.2866
17881TIP3    H175058   1.810   3.824  12.796  0.9043  0.0925 -1.0364
17881TIP3    H275059   1.904   3.842  12.913 -0.8876 -0.9828  0.6391
17882TIP3   OH275060   2.271   1.476  15.423 -0.6090 -0.2769  0.3827
17882TIP3    H175061   2.356   1.499  15.384 -1.0843 -0.0799 -0.5733
17882TIP3    H275062   2.262   1.382  15.408 -0.7584 -0.2148  0.0718
17883TIP3   OH275063   4.715   5.653  12.232 -0.0858  0.2790  0.5689
17883TIP3    H175064   4.679   5.566  12.216 -0.6610  0.1800  2.2205
17883TIP3    H275065   4.639   5.711  12.235  0.2903  0.8482 -0.4816
17884TIP3   OH275066   3.857   0.194  13.293 -0.2301 -0.0808 -0.6036
17884TIP3    H175067   3.930   0.212  13.352 -0.2695  0.3579 -0.6861
17884TIP3    H275068   3.833   0.280  13.257 -0.0366 -0.3754 -1.4533
17885TIP3   OH275069   0.317   3.011   5.403  0.6760  0.5736  0.5831
17885TIP3    H175070   0.378   2.976   5.468 -0.1137  0.8470  1.5141
17885TIP3    H275071   0.236   2.962   5.419  0.6150  0.2867 -0.5553
17886TIP3   OH275072   3.447   4.513   2.414 -0.5266 -0.3874  0.1198
17886TIP3    H175073   3.427   4.533   2.322 -1.2844 -1.7193 -0.0211
17886TIP3    H275074   3.362   4.505   2.457 -0.1780  0.1757  0.9464
17887TIP3   OH275075   4.621   1.530  16.228  0.2611 -0.4510  0.3812
17887TIP3    H175076   4.582   1.601  16.177  1.1632 -0.5432 -0.4520
17887TIP3    H275077   4.714   1.532  16.207  0.3972 -1.5162  0.7883
17888TIP3   OH275078   4.389   0.162  12.131 -0.3517  0.4944  0.2115
17888TIP3    H175079   4.333   0.094  12.169  0.1495  0.1840  0.4022
17888TIP3    H275080   4.444   0.115  12.069 -0.8843  0.9353 -0.6130
17889TIP3   OH275081   5.012   1.161  16.558  0.4339  0.4546 -0.4146
17889TIP3    H175082   5.102   1.179  16.530  0.9089  0.1447  0.8457
17889TIP3    H275083   5.022   1.113  16.641 -0.8917  0.2467 -0.3600
17890TIP3   OH275084   5.509   6.398   4.376 -0.0384  0.1632 -0.4724
17890TIP3    H175085   5.427   6.390   4.327 -0.7957  0.0076  0.7726
17890TIP3    H275086   5.566   6.449   4.318 -0.3296 -1.3294 -2.1896
17891TIP3   OH275087   3.875   0.996   1.935  0.2063  0.2871 -0.0746
17891TIP3    H175088   3.929   0.961   2.006  1.4445 -0.0192 -1.1409
17891TIP3    H275089   3.906   0.952   1.856 -2.3391 -0.7186 -0.6244
17892TIP3   OH275090   4.415   5.911   6.127 -0.4696 -0.0334  0.3468
17892TIP3    H175091   4.349   5.949   6.068 -0.5709 -0.6763  0.0341
17892TIP3    H275092   4.483   5.977   6.133  0.1412 -0.4231 -1.4831
17893TIP3   OH275093   4.260   1.763  15.779  0.4492 -0.0337  0.5030
17893TIP3    H175094   4.196   1.821  15.738 -1.4001 -1.6484  0.9946
17893TIP3    H275095   4.309   1.820  15.839 -0.8188  1.1543  0.4616
17894TIP3   OH275096   0.021   3.019  16.377 -0.0616  0.5308  0.1000
17894TIP3    H175097   0.091   3.039  16.315  1.5471 -1.7307  1.0276
17894TIP3    H275098  -0.054   2.995  16.323  1.5013 -2.0433 -1.1099
17895TIP3   OH275099   6.743   3.176   2.236 -0.7196  0.3900 -0.1566
17895TIP3    H175100   6.828   3.215   2.217 -0.6193 -0.2000 -0.9654
17895TIP3    H275101   6.763   3.083   2.252 -0.9564  0.6190  1.6726
17896TIP3   OH275102   1.898   4.765   0.834 -0.6247 -0.3701  0.1144
17896TIP3    H175103   1.909   4.853   0.872  0.5916 -0.3774 -0.1741
17896TIP3    H275104   1.925   4.706   0.904 -2.3989 -0.5956  0.6662
17897TIP3   OH275105   6.299   6.594   4.722  0.6482  0.3774  0.0950
17897TIP3    H175106   6.229   6.589   4.787 -1.2863  0.4089 -1.8601
17897TIP3    H275107   6.296   6.508   4.678  0.9563  0.8419 -0.8481
17898TIP3   OH275108   6.025   1.433  14.828 -0.5883  0.3734  0.2342
17898TIP3    H175109   6.117   1.453  14.847 -0.0775 -1.2882 -0.3680
17898TIP3    H275110   5.996   1.506  14.774  1.1438 -0.3102 -1.7476
17899TIP3   OH275111   1.603   3.359   2.305  0.2208  0.4482 -0.5914
17899TIP3    H175112   1.515   3.372   2.270  0.5926  1.6998 -1.1322
17899TIP3    H275113   1.615   3.429   2.369  1.4851  1.5408 -1.9260
17900TIP3   OH275114   3.571   4.848   0.335  0.2996 -0.0345  0.0695
17900TIP3    H175115   3.656   4.848   0.379  0.1431  2.4358  0.5006
17900TIP3    H275116   3.587   4.894   0.252 -0.8373  1.6708  0.7518
17901TIP3   OH275117   5.838   3.539  16.365 -0.2265  0.5815 -0.3937
17901TIP3    H175118   5.913   3.552  16.423 -0.3961 -0.8516  0.1900
17901TIP3    H275119   5.777   3.608  16.390  0.7110  1.5249 -0.6058
17902TIP3   OH275120   1.609   2.127  13.808 -0.5218  0.1710  0.3798
17902TIP3    H175121   1.590   2.065  13.737 -0.2626  1.6243 -1.0162
17902TIP3    H275122   1.665   2.078  13.868 -0.2766 -0.9369 -0.7089
17903TIP3   OH275123   1.986   1.141  13.136 -0.2677  0.2810 -0.0776
17903TIP3    H175124   2.042   1.080  13.183  2.2231  1.2120 -1.6189
17903TIP3    H275125   1.909   1.090  13.111  0.9018 -1.6959  0.2168
17904TIP3   OH275126   6.333   4.232   5.610 -0.1549  0.3177  0.4372
17904TIP3    H175127   6.324   4.143   5.644 -2.3907  0.2660 -0.1473
17904TIP3    H275128   6.253   4.277   5.638  0.3080  1.7421 -0.4212
17905TIP3   OH275129   5.259   0.904   4.128 -0.3926 -0.1803  0.3873
17905TIP3    H175130   5.283   0.994   4.105  0.6689 -0.6042 -0.2545
17905TIP3    H275131   5.331   0.850   4.094 -1.8839 -1.4605 -0.8971
17906TIP3   OH275132   2.746   4.937   1.542 -0.1691 -0.5562  0.4317
17906TIP3    H175133   2.832   4.931   1.501 -0.4646 -0.1920 -0.2542
17906TIP3    H275134   2.763   4.973   1.629  0.4018 -0.8165  0.4340
17907TIP3   OH275135   2.646   2.749   0.477  0.2104  0.2185 -0.3588
17907TIP3    H175136   2.673   2.839   0.458  0.0087  0.4125  0.2378
17907TIP3    H275137   2.687   2.696   0.409  1.2173  0.6344 -0.0959
17908TIP3   OH275138   0.257   4.564  12.792 -0.0708  0.2072 -0.3543
17908TIP3    H175139   0.288   4.560  12.882  0.3281 -0.1352 -0.5035
17908TIP3    H275140   0.178   4.619  12.796 -0.1600  0.0418  0.2279
17909TIP3   OH275141   5.583   0.126   4.271  0.0641 -0.1742 -0.0010
17909TIP3    H175142   5.542   0.198   4.223  0.5146 -0.5526 -0.9884
17909TIP3    H275143   5.598   0.161   4.359 -0.3819  0.6920 -0.2598
17910TIP3   OH275144   6.407   0.377  15.854 -0.3280 -0.3097  0.1521
17910TIP3    H175145   6.388   0.329  15.773  1.0059  0.0722 -0.4179
17910TIP3    H275146   6.496   0.350  15.877 -0.8535 -0.7692  1.7727
17911TIP3   OH275147   2.590   6.029   4.001  0.1449  0.1750  0.0071
17911TIP3    H175148   2.629   6.061   3.920  0.7610 -0.8996 -0.1383
17911TIP3    H275149   2.614   5.936   4.004 -0.6871 -0.0205  0.9388
17912TIP3   OH275150   3.907   5.224   0.927  0.4112 -0.9341 -0.5961
17912TIP3    H175151   3.829   5.279   0.934 -0.2411 -1.7674 -1.0405
17912TIP3    H275152   3.909   5.197   0.835 -0.1008 -2.7636 -0.1256
17913TIP3   OH275153   0.991   1.037  12.772 -0.1771  0.7386 -0.3042
17913TIP3    H175154   0.971   0.946  12.748 -0.8196  1.0155 -0.8576
17913TIP3    H275155   0.953   1.089  12.701 -0.3770  1.4768  0.3327
17914TIP3   OH275156   5.876   5.322   1.356  0.3574  0.0591  0.6501
17914TIP3    H175157   5.907   5.234   1.378  1.0689  0.2446  0.4144
17914TIP3    H275158   5.917   5.379   1.421 -0.6118  0.1492  1.1982
17915TIP3   OH275159   5.484   1.553   3.660  0.5352 -0.0536  0.4142
17915TIP3    H175160   5.557   1.598   3.618  0.5961  0.4186  1.0055
17915TIP3    H275161   5.458   1.486   3.597  1.7171 -0.4769  0.3383
17916TIP3   OH275162   5.055   3.414  11.730 -0.3477 -0.6328  0.0981
17916TIP3    H175163   5.020   3.330  11.700 -0.4710 -0.7923  0.6759
17916TIP3    H275164   5.054   3.408  11.826 -0.0664 -0.0918  0.1413
17917TIP3   OH275165   3.036   6.371   0.477  0.6572 -0.0739 -0.0706
17917TIP3    H175166   2.987   6.289   0.468  0.8546 -0.7194  3.2077
17917TIP3    H275167   3.122   6.345   0.508  1.6368  1.2975 -1.4926
17918TIP3   OH275168   5.202   3.269   3.474 -0.1617 -0.3533 -0.0590
17918TIP3    H175169   5.232   3.280   3.565 -0.0936 -1.2403  0.0295
17918TIP3    H275170   5.186   3.175   3.465  0.5566 -0.3841 -1.1924
17919TIP3   OH275171   0.903   3.689   4.008 -0.3179  0.3665 -0.0493
17919TIP3    H175172   0.882   3.657   4.096  0.0234  0.3407  0.0247
17919TIP3    H275173   0.981   3.742   4.021 -0.5852  0.8097 -0.2543
17920TIP3   OH275174   1.771   4.377  13.751 -0.0238  0.3307  0.3259
17920TIP3    H175175   1.809   4.383  13.839  0.5481  0.6634  0.0589
17920TIP3    H275176   1.824   4.312  13.706 -2.0134 -1.9602  1.0600
17921TIP3   OH275177   6.107   4.375   1.392  0.1654  0.2689  0.3558
17921TIP3    H175178   6.072   4.406   1.309 -0.2889 -1.1285 -0.0080
17921TIP3    H275179   6.043   4.309   1.421  0.4106  0.6019  1.7221
17922TIP3   OH275180   3.581   3.318   4.588 -0.0022 -0.4247  0.3086
17922TIP3    H175181   3.563   3.374   4.663 -0.5015 -0.7074  0.4030
17922TIP3    H275182   3.495   3.287   4.560 -0.0519  1.1954 -1.5785
17923TIP3   OH275183   1.759   5.987   4.034  0.6331  0.2416 -0.0925
17923TIP3    H175184   1.742   5.918   3.970  0.2772 -0.1939  0.4543
17923TIP3    H275185   1.692   5.974   4.101  0.1106  1.5737 -0.3270
17924TIP3   OH275186   0.056   1.093  13.069  0.5365  0.5493 -0.5867
17924TIP3    H175187   0.106   1.136  13.000  1.0500 -1.1953 -1.3452
17924TIP3    H275188   0.040   1.005  13.036  0.2139 -0.1186  1.2467
17925TIP3   OH275189   3.639   0.432   2.808  0.0401 -0.0310  0.0531
17925TIP3    H175190   3.637   0.382   2.889  0.8323 -0.0563  0.0605
17925TIP3    H275191   3.669   0.370   2.742 -0.6606 -0.0277 -0.2782
17926TIP3   OH275192   2.091   3.210   0.915  0.7250  0.2551  0.4577
17926TIP3    H175193   2.168   3.194   0.861  0.1336  0.2308 -0.3865
17926TIP3    H275194   2.123   3.265   0.987  1.7592 -0.6789  0.7426
17927TIP3   OH275195   2.746   6.076  14.823 -0.0396  0.2135 -0.1053
17927TIP3    H175196   2.669   6.036  14.782  0.1494 -0.3675  0.1095
17927TIP3    H275197   2.743   6.167  14.793 -1.1594  0.3668  0.4005
17928TIP3   OH275198   6.496   4.287  13.621  0.0879 -0.3734  0.4035
17928TIP3    H175199   6.482   4.197  13.592  1.1065 -0.1022 -1.0857
17928TIP3    H275200   6.568   4.319  13.566 -1.4803  1.9692 -0.4666
17929TIP3   OH275201   2.144   5.603   2.656  0.2570 -0.6622  0.1624
17929TIP3    H175202   2.161   5.688   2.616  1.3018 -0.7208  0.4696
17929TIP3    H275203   2.060   5.614   2.702 -1.2467 -0.7258 -2.3577
17930TIP3   OH275204   2.940   6.079  15.787  0.1710  0.8095 -0.4366
17930TIP3    H175205   2.961   6.079  15.693  0.2335  0.3853 -0.4245
17930TIP3    H275206   3.015   6.037  15.828 -0.1856  0.3285 -0.2699
17931TIP3   OH275207   1.951   5.902  17.310 -0.1021  0.1340  0.2062
17931TIP3    H175208   1.937   5.868  17.398 -0.7852 -1.0451 -0.3240
17931TIP3    H275209   2.000   5.832  17.265 -0.0714  0.5656 -0.4432
17932TIP3   OH275210   4.355   5.684  13.405  0.6529 -0.3291 -0.3414
17932TIP3    H175211   4.395   5.666  13.490  2.3029  0.6260 -0.8722
17932TIP3    H275212   4.411   5.750  13.366 -1.3519  0.9005 -1.2671
17933TIP3   OH275213   4.171   3.738   2.108  0.5233  0.3807  0.9119
17933TIP3    H175214   4.181   3.830   2.133 -0.0628  0.6154  0.3156
17933TIP3    H275215   4.082   3.715   2.135  0.8235 -0.1459  1.4626
17934TIP3   OH275216   5.608   2.841  13.085 -0.0125 -0.3313 -0.6574
17934TIP3    H175217   5.660   2.771  13.125 -0.3400  0.4907  1.3239
17934TIP3    H275218   5.672   2.895  13.040  0.9790  0.6891  1.7753
17935TIP3   OH275219   1.288   6.474  16.060 -0.4338 -0.2669  0.1292
17935TIP3    H175220   1.301   6.479  15.966  0.7862 -0.9205  0.2387
17935TIP3    H275221   1.362   6.521  16.097 -0.3477 -0.8720  0.7615
17936TIP3   OH275222   3.590   3.886  13.310 -0.1944  0.3643 -0.1102
17936TIP3    H175223   3.584   3.979  13.334  0.0739  0.5925 -0.8925
17936TIP3    H275224   3.510   3.869  13.260 -0.6207 -0.0377  0.6879
17937TIP3   OH275225   1.798   1.558   2.380 -0.1189 -0.3563 -0.5962
17937TIP3    H175226   1.867   1.567   2.314  0.8611  0.9759  0.5691
17937TIP3    H275227   1.815   1.473   2.421  1.5082  0.3944  0.3838
17938TIP3   OH275228   2.285   5.597  11.591  0.1450  0.2582 -0.5346
17938TIP3    H175229   2.337   5.588  11.511 -1.4005  0.3247 -1.5943
17938TIP3    H275230   2.204   5.639  11.562 -0.1807  0.9058  1.1972
17939TIP3   OH275231   1.332   5.921  11.961 -0.0288  0.3975  0.0508
17939TIP3    H175232   1.351   6.014  11.948 -0.7792  0.7211  1.1698
17939TIP3    H275233   1.291   5.916  12.047 -1.0811 -0.8168 -0.4871
17940TIP3   OH275234   5.007   4.881  13.610  0.2388 -0.1947  0.0628
17940TIP3    H175235   4.929   4.834  13.581  0.0296 -0.4326  0.9805
17940TIP3    H275236   5.046   4.915  13.529 -0.2777 -0.8984 -0.4956
17941TIP3   OH275237   3.353   1.369   3.519 -0.6202  0.6624 -0.4895
17941TIP3    H175238   3.289   1.358   3.590 -0.9344  0.4295 -0.8050
17941TIP3    H275239   3.424   1.309   3.543 -0.2439  1.3558  0.1663
17942TIP3   OH275240   3.981   2.746  13.832 -0.0794  0.5884 -0.5248
17942TIP3    H175241   3.900   2.696  13.825  0.4830 -0.5080  0.3317
17942TIP3    H275242   3.954   2.834  13.857 -1.0561  0.5089 -1.2761
17943TIP3   OH275243   1.075   0.746  13.120  0.3503 -0.0444 -0.3540
17943TIP3    H175244   1.051   0.837  13.105 -1.8219 -0.7799 -1.8721
17943TIP3    H275245   1.060   0.702  13.036 -1.4483 -2.2940  0.9897
17944TIP3   OH275246   4.628   4.831  13.370  0.1692 -0.3886 -0.1444
17944TIP3    H175247   4.629   4.863  13.279  1.5858 -0.1977 -0.0777
17944TIP3    H275248   4.704   4.773  13.375  1.0968  0.9011  1.3739
17945TIP3   OH275249   3.166   6.063   0.469 -0.1050 -0.5997 -0.0415
17945TIP3    H175250   3.166   5.968   0.478 -0.2283 -0.5747  0.2125
17945TIP3    H275251   3.073   6.087   0.473 -0.0615 -0.4518  0.0665
17946TIP3   OH275252   4.208   6.002  14.661  0.2256  0.0889 -0.0746
17946TIP3    H175253   4.240   5.913  14.673  1.2195  0.3413 -0.7324
17946TIP3    H275254   4.166   6.024  14.744 -0.7232 -1.2538 -0.1656
17947TIP3   OH275255   2.960   3.031   3.993  0.2998 -0.3906  0.3075
17947TIP3    H175256   2.954   3.125   4.007 -1.8708 -0.8805  3.9133
17947TIP3    H275257   3.029   3.021   3.928  1.8851  3.5808  1.0968
17948TIP3   OH275258   2.301   2.701  14.979 -0.5072  0.1519 -0.1884
17948TIP3    H175259   2.253   2.756  14.917  1.0797  0.6913 -0.9692
17948TIP3    H275260   2.233   2.646  15.019 -1.4691 -0.9245 -3.0945
17949TIP3   OH275261   4.881   3.919   0.756 -0.3746  0.3380 -0.0884
17949TIP3    H175262   4.870   3.995   0.699 -1.7154  0.8659  0.8279
17949TIP3    H275263   4.814   3.929   0.823  0.4578 -0.8300  0.9734
17950TIP3   OH275264   1.212   4.086  13.505  0.1628  0.5354  0.1185
17950TIP3    H175265   1.191   4.062  13.415 -1.4953  0.0516  0.6025
17950TIP3    H275266   1.238   4.004  13.546 -2.9677 -0.0862  1.0839
17951TIP3   OH275267   4.323   2.541   6.760 -0.4019 -0.1042  0.2567
17951TIP3    H175268   4.290   2.630   6.754  1.0396  0.3517 -3.1004
17951TIP3    H275269   4.306   2.502   6.674  2.3835 -1.7451  0.3000
17952TIP3   OH275270   4.882   1.678   6.181 -0.5507 -0.1550 -0.1174
17952TIP3    H175271   4.842   1.622   6.115  2.7143 -1.0632 -1.5438
17952TIP3    H275272   4.933   1.618   6.235  1.4419  1.1571 -0.4382
17953TIP3   OH275273   0.413   4.559  16.981 -0.8672  0.1160  0.2201
17953TIP3    H175274   0.497   4.529  16.947 -0.9791 -1.1233  0.9896
17953TIP3    H275275   0.391   4.634  16.926 -0.3968 -0.9872 -1.5545
17954TIP3   OH275276   3.391   0.579   6.861  0.6013  0.1646  0.2619
17954TIP3    H175277   3.318   0.581   6.798 -0.7237  1.2398  1.7505
17954TIP3    H275278   3.415   0.487   6.867 -2.1609 -0.5658  1.3570
17955TIP3   OH275279   0.460   4.333   1.359  0.1087  0.0670  0.0019
17955TIP3    H175280   0.472   4.309   1.451  1.5750 -0.9528 -0.4180
17955TIP3    H275281   0.529   4.285   1.313 -0.2715  0.9764 -1.5703
17956TIP3   OH275282   5.314   2.473   3.527  0.0330 -0.1705 -0.5530
17956TIP3    H175283   5.265   2.394   3.506  0.9292 -0.9027  0.0482
17956TIP3    H275284   5.294   2.489   3.619 -0.4679  0.5439 -0.7801
17957TIP3   OH275285   2.683   0.806  12.551  0.2707 -0.3741 -0.5876
17957TIP3    H175286   2.608   0.834  12.603  0.1146 -2.7212  0.5870
17957TIP3    H275287   2.649   0.792  12.463 -0.4766 -0.6268 -0.2605
17958TIP3   OH275288   4.245   4.294   1.463  0.7851 -0.5880  0.3128
17958TIP3    H175289   4.180   4.263   1.400  0.5603 -0.6307  0.5654
17958TIP3    H275290   4.303   4.219   1.477  1.3258 -0.3314 -0.4627
17959TIP3   OH275291   2.486   1.491  17.365  0.0166 -0.6151  0.5910
17959TIP3    H175292   2.481   1.528  17.453 -1.1881  0.9416 -0.0730
17959TIP3    H275293   2.567   1.440  17.365  0.0211 -0.6959  2.5987
17960TIP3   OH275294   3.910   1.391  15.539 -0.9712  0.1138 -0.0102
17960TIP3    H175295   3.910   1.365  15.447 -1.7226 -0.1967  0.0704
17960TIP3    H275296   3.870   1.478  15.539 -0.3900  0.3905 -0.0378
17961TIP3   OH275297   0.955   6.568  16.830 -0.3252 -0.2318  0.4087
17961TIP3    H175298   1.008   6.562  16.909 -0.2324 -0.3141  0.3406
17961TIP3    H275299   0.911   6.653  16.836  0.0119 -0.0510  0.3429
17962TIP3   OH275300   5.450   1.972  14.939  0.0799  0.0399 -0.7623
17962TIP3    H175301   5.387   2.042  14.927  0.4534  0.7890  1.2102
17962TIP3    H275302   5.397   1.895  14.959 -0.2760  0.2862 -0.7532
17963TIP3   OH275303   2.224   0.218  14.696 -0.4271  0.8022 -0.0118
17963TIP3    H175304   2.262   0.166  14.625 -1.2631  1.0232 -0.6339
17963TIP3    H275305   2.155   0.163  14.732 -0.1455  0.7756  0.5055
17964TIP3   OH275306   5.083   1.595  15.698 -0.5294 -0.1635  0.0185
17964TIP3    H175307   5.043   1.548  15.771 -2.0974  0.5294 -0.3565
17964TIP3    H275308   5.027   1.672  15.685 -0.4593 -0.3961 -2.0678
17965TIP3   OH275309   1.572   2.122  11.901 -0.6086 -0.5236  0.6254
17965TIP3    H175310   1.507   2.060  11.934 -1.7246  0.3725  0.1616
17965TIP3    H275311   1.571   2.110  11.807 -2.6868  1.8616  0.2335
17966TIP3   OH275312   6.126   2.443  13.244  0.0197 -0.0332 -0.2385
17966TIP3    H175313   6.149   2.525  13.200  1.8399 -0.1769  0.3576
17966TIP3    H275314   6.067   2.398  13.182  0.0488  1.1212 -1.1426
17967TIP3   OH275315   0.148   5.632  13.155  0.0035  0.4224 -0.0395
17967TIP3    H175316   0.101   5.590  13.227 -0.4570 -0.4867 -0.8618
17967TIP3    H275317   0.152   5.724  13.180  0.3498  0.0353  1.4260
17968TIP3   OH275318   3.958   5.206  16.429  0.1165  0.1819  0.2296
17968TIP3    H175319   4.021   5.135  16.446 -1.1830 -1.0696 -0.0036
17968TIP3    H275320   3.948   5.206  16.334 -0.8554 -0.1976  0.3241
17969TIP3   OH275321   2.366   2.559   5.409  0.0135 -0.2326  0.0368
17969TIP3    H175322   2.393   2.485   5.464 -0.1263 -0.2185  0.1258
17969TIP3    H275323   2.344   2.628   5.470 -1.0890 -0.5427  0.0070
17970TIP3   OH275324   2.388   1.397  16.071 -0.7630 -0.3893  0.4740
17970TIP3    H175325   2.344   1.316  16.043  0.0439 -0.8673  0.5510
17970TIP3    H275326   2.376   1.457  15.998 -1.1488 -0.6677  0.3036
17971TIP3   OH275327   0.006   0.169  13.544  0.3333 -0.0991  0.1963
17971TIP3    H175328  -0.033   0.248  13.506 -0.1494  0.8643  2.5156
17971TIP3    H275329  -0.063   0.103  13.536 -0.0921  0.3341  0.1990
17972TIP3   OH275330   2.615   5.222   1.288  0.4549 -0.2216 -0.2702
17972TIP3    H175331   2.525   5.194   1.305  0.8171 -0.7518  0.8000
17972TIP3    H275332   2.609   5.317   1.280 -0.2754 -0.2935 -0.7477
17973TIP3   OH275333   3.499   6.357   4.235  0.4458  0.3634 -0.0467
17973TIP3    H175334   3.498   6.350   4.140 -0.5534  2.5092 -0.2385
17973TIP3    H275335   3.432   6.422   4.256 -0.1199 -0.8414  2.2205
17974TIP3   OH275336   1.428   2.920  14.638 -0.0517 -0.1998 -0.0388
17974TIP3    H175337   1.348   2.868  14.642 -0.0213 -0.2993 -0.5754
17974TIP3    H275338   1.402   3.006  14.670 -0.0723 -0.5718  0.9656
17975TIP3   OH275339   2.448   3.710   2.736  0.5560  0.2740 -0.7660
17975TIP3    H175340   2.441   3.704   2.641 -0.5122 -0.8617 -0.6365
17975TIP3    H275341   2.420   3.799   2.757 -1.3767 -0.1560 -1.3613
17976TIP3   OH275342   0.791   4.955   0.907  0.7930  0.1751 -0.1407
17976TIP3    H175343   0.736   4.886   0.869  0.7438  0.1908 -0.0987
17976TIP3    H275344   0.846   4.985   0.835 -0.2390  1.1479 -0.5580
17977TIP3   OH275345   0.836   6.684   1.160 -0.1598  0.3605  0.0486
17977TIP3    H175346   0.822   6.666   1.067  1.9336  2.1947 -0.6968
17977TIP3    H275347   0.796   6.770   1.174 -0.1129  0.2736  0.7750
17978TIP3   OH275348   2.621   5.819   5.222  0.4918 -0.3607  0.1295
17978TIP3    H175349   2.709   5.849   5.200  0.2310 -0.6263 -1.4259
17978TIP3    H275350   2.566   5.851   5.150 -0.6151 -0.5680  0.8453
17979TIP3   OH275351   0.392   0.029  16.172 -0.5176  0.4919 -0.4599
17979TIP3    H175352   0.480   0.027  16.134  0.2062  1.8112  1.0402
17979TIP3    H275353   0.361   0.119  16.157 -0.7349  0.6579  0.8815
17980TIP3   OH275354   4.174   2.655  17.145  0.3621  0.2437 -0.1922
17980TIP3    H175355   4.234   2.688  17.078  1.4191 -1.1743  0.0095
17980TIP3    H275356   4.210   2.570  17.169  1.1925  1.5109  3.6325
17981TIP3   OH275357   2.656   5.864  11.329  0.1335 -0.2390 -0.2633
17981TIP3    H175358   2.573   5.864  11.282 -0.6630 -0.8406  1.0908
17981TIP3    H275359   2.680   5.771  11.335 -0.3269 -0.2710  1.4201
17982TIP3   OH275360   2.361   6.311  17.032 -0.2997 -0.3253 -0.4210
17982TIP3    H175361   2.350   6.343  16.943  2.0837  0.5358 -0.4911
17982TIP3    H275362   2.356   6.390  17.087  0.4077 -0.5223 -0.0506
17983TIP3   OH275363   2.034   3.589  16.679 -0.2807  0.2036  0.3008
17983TIP3    H175364   2.057   3.647  16.607 -0.5628  1.0993  0.9182
17983TIP3    H275365   1.965   3.636  16.727 -1.3464 -1.1433  0.1508
17984TIP3   OH275366   4.867   5.813  11.457  0.1475  0.1237  0.9006
17984TIP3    H175367   4.931   5.829  11.388  0.4837  0.6652  1.3262
17984TIP3    H275368   4.885   5.725  11.487 -0.8291 -0.6227 -0.5569
17985TIP3   OH275369   4.797   2.158   0.395 -0.2200 -0.1728  0.5455
17985TIP3    H175370   4.869   2.167   0.457 -0.1433  0.9344  0.3180
17985TIP3    H275371   4.793   2.064   0.376  0.5091 -0.3711  1.3178
17986TIP3   OH275372   2.328   4.918   5.887 -1.0443 -0.3228 -0.7118
17986TIP3    H175373   2.388   4.844   5.890 -0.3248  0.1203 -2.7570
17986TIP3    H275374   2.309   4.938   5.979  3.5175  0.7622  0.2275
17987TIP3   OH275375   6.070   5.401  16.183  0.1684  0.5712 -0.1531
17987TIP3    H175376   6.011   5.335  16.147  0.0078  0.0823  0.9828
17987TIP3    H275377   6.066   5.389  16.278 -0.4442  2.6806  0.1627
17988TIP3   OH275378   2.875   6.534   5.607  0.4658 -0.4347 -0.5875
17988TIP3    H175379   2.810   6.477   5.565 -0.7467 -0.0837  0.7258
17988TIP3    H275380   2.959   6.491   5.591 -0.2387 -1.6597 -1.1313
17989TIP3   OH275381   1.191   1.681   0.586  0.5580 -0.0569 -0.1518
17989TIP3    H175382   1.167   1.773   0.597  4.5052  1.4406 -2.2276
17989TIP3    H275383   1.125   1.646   0.526 -1.0785  1.2843  0.7476
17990TIP3   OH275384   1.589   6.609  14.204  0.3657  0.1628 -0.0406
17990TIP3    H175385   1.620   6.663  14.277  0.5107 -0.2860  0.2338
17990TIP3    H275386   1.632   6.525  14.216 -1.1964 -0.6053  0.5516
17991TIP3   OH275387   1.189   2.062   4.245  0.0274  0.0616 -0.5349
17991TIP3    H175388   1.214   2.036   4.156 -3.0327 -1.2351 -1.1408
17991TIP3    H275389   1.148   2.148   4.235 -0.1418  0.0036 -0.3534
17992TIP3   OH275390   3.765   1.439  14.743  0.4643  0.5484  0.3412
17992TIP3    H175391   3.777   1.444  14.648  1.3981 -2.1436  0.2449
17992TIP3    H275392   3.849   1.410  14.776 -0.1899  0.3293  1.8839
17993TIP3   OH275393   4.209   2.200   4.221 -0.3593 -0.2692 -0.0033
17993TIP3    H175394   4.276   2.210   4.153  1.9160  0.0249  2.1578
17993TIP3    H275395   4.180   2.109   4.212 -0.1276 -0.2294 -1.3537
17994TIP3   OH275396   5.064   4.040   3.158 -0.1122  0.1026 -0.0326
17994TIP3    H175397   5.119   4.096   3.104  2.0741 -0.4503  1.4820
17994TIP3    H275398   5.097   4.053   3.247 -1.9991 -0.8130  0.8622
17995TIP3   OH275399   0.014   6.383   3.330 -0.4499 -0.3018 -0.2789
17995TIP3    H175400   0.055   6.429   3.258  2.2682 -1.0255  0.6946
17995TIP3    H275401  -0.042   6.448   3.371 -0.1742  0.7985 -1.5871
17996TIP3   OH275402   2.763   6.601  12.861 -0.2968  0.9587 -0.2875
17996TIP3    H175403   2.859   6.609  12.860  0.3918 -4.0078 -0.8442
17996TIP3    H275404   2.739   6.592  12.769 -0.6399 -1.7896  0.0036
17997TIP3   OH275405   4.020   6.632  13.286  0.5227  0.2889 -0.1192
17997TIP3    H175406   4.035   6.701  13.352 -0.2144 -0.1499  0.5235
17997TIP3    H275407   3.944   6.584  13.319  2.3935 -2.3561  0.7103
17998TIP3   OH275408   2.990   4.822   5.393  0.0982 -0.4072  0.7955
17998TIP3    H175409   3.075   4.861   5.417  0.0689 -0.6822  1.3612
17998TIP3    H275410   2.965   4.868   5.313  0.7791 -0.3149  0.6269
17999TIP3   OH275411   0.003   4.268   0.815 -0.1898 -0.5013 -0.1227
17999TIP3    H175412   0.083   4.216   0.820 -0.1765 -0.3967  1.2386
17999TIP3    H275413  -0.038   4.257   0.901 -1.1274  0.2479 -0.4534
18000TIP3   OH275414   0.659   4.727   0.780 -0.1260 -0.6648  0.0709
18000TIP3    H175415   0.654   4.633   0.793 -1.4529 -0.6069  0.1131
18000TIP3    H275416   0.679   4.739   0.687  0.9531 -0.9825  0.2503
18001TIP3   OH275417   1.882   1.307  13.579 -0.5730 -0.2982 -0.0749
18001TIP3    H175418   1.855   1.345  13.663  0.2339  0.5924 -0.1997
18001TIP3    H275419   1.977   1.319  13.577 -0.8315  2.4711 -2.3764
18002TIP3   OH275420   0.865   1.954   3.627 -0.4468 -0.0737  0.4995
18002TIP3    H175421   0.892   1.909   3.547 -1.6525  1.0367 -0.5749
18002TIP3    H275422   0.945   1.997   3.659 -0.4131  1.5310 -1.5226
18003TIP3   OH275423   1.275   2.114   2.227 -0.3141 -0.0286 -0.5919
18003TIP3    H175424   1.232   2.081   2.147 -1.3765 -2.4990  0.9020
18003TIP3    H275425   1.342   2.049   2.247  0.6164  1.0869  0.0293
18004TIP3   OH275426   2.980   4.087   6.181 -0.1091 -0.3548  0.3815
18004TIP3    H175427   2.911   4.042   6.231  0.4294  0.8405  2.3257
18004TIP3    H275428   2.934   4.157   6.135 -0.8262 -2.2893 -2.0313
18005TIP3   OH275429   2.857   2.619  15.621  0.3938  0.3544 -0.4065
18005TIP3    H175430   2.790   2.555  15.642  0.6432  0.4702  0.8276
18005TIP3    H275431   2.931   2.567  15.588 -0.0340  0.1767 -1.1231
18006TIP3   OH275432   0.052   1.467  12.405 -0.2830  0.3862 -0.2999
18006TIP3    H175433   0.047   1.483  12.499  1.5465 -3.9302  0.7642
18006TIP3    H275434  -0.039   1.459  12.377 -0.8656  1.8610  1.0200
18007TIP3   OH275435   6.171   6.428  11.034 -0.7521  0.4007  0.2538
18007TIP3    H175436   6.257   6.467  11.045 -0.4688 -0.3365  0.7409
18007TIP3    H275437   6.150   6.441  10.942 -0.5497  1.4418  0.3474
18008TIP3   OH275438   1.787   2.970  12.178 -0.2701 -0.4636 -0.2692
18008TIP3    H175439   1.761   2.974  12.270  0.6893 -0.8752  0.0303
18008TIP3    H275440   1.790   2.876  12.158  0.5452 -0.4133 -0.4157
18009TIP3   OH275441   5.866   0.760  14.554  0.0933  0.3004  0.1634
18009TIP3    H175442   5.914   0.828  14.508 -1.6732  0.5101 -1.4959
18009TIP3    H275443   5.913   0.679  14.534 -0.8475  0.3094 -2.5407
18010TIP3   OH275444   0.543   2.350  12.295  0.1439 -0.4637 -0.2576
18010TIP3    H175445   0.485   2.425  12.283  0.2220 -0.3154  0.2779
18010TIP3    H275446   0.488   2.285  12.339  0.8394  0.3029  1.8536
18011TIP3   OH275447   0.561   2.746   0.391 -0.1116 -0.3791 -0.1671
18011TIP3    H175448   0.602   2.774   0.309 -0.8122 -0.6763 -0.6280
18011TIP3    H275449   0.536   2.655   0.375 -0.5226 -0.3472  0.2699
18012TIP3   OH275450   2.373   4.274  15.813  0.8209 -0.0072  0.0747
18012TIP3    H175451   2.298   4.252  15.758  0.1712  0.2482  0.8363
18012TIP3    H275452   2.343   4.349  15.866  0.9854 -0.9913  1.6253
18013TIP3   OH275453   1.497   4.033   1.583  0.2388  0.9187  0.5553
18013TIP3    H175454   1.554   4.057   1.656  1.4403 -0.7601  0.2399
18013TIP3    H275455   1.502   3.937   1.580 -1.8439  0.7781 -0.1205
18014TIP3   OH275456   6.433   3.012   3.141 -0.1441  0.1956 -0.5748
18014TIP3    H175457   6.520   3.026   3.103 -0.3165  0.8676 -0.7293
18014TIP3    H275458   6.449   3.011   3.236 -0.0617  1.0747 -0.5678
18015TIP3   OH275459   5.281   5.819   6.208 -0.4007 -0.2135  0.1239
18015TIP3    H175460   5.221   5.818   6.282  0.4494  0.5242  0.8652
18015TIP3    H275461   5.365   5.790   6.245 -0.2284 -0.9669 -0.8208
18016TIP3   OH275462   5.478   2.694  11.851  0.2802 -0.1785 -0.1569
18016TIP3    H175463   5.383   2.692  11.840  0.1117  0.8975  0.9251
18016TIP3    H275464   5.504   2.780  11.819  0.7073  0.0842  0.8747
18017TIP3   OH275465   4.125   3.160   3.860  0.2969  0.8082  0.4818
18017TIP3    H175466   4.152   3.093   3.798  1.1644 -0.4203  2.0885
18017TIP3    H275467   4.205   3.180   3.910 -0.5129  1.1879  1.6884
18018TIP3   OH275468   5.936   0.202   5.423  0.2261 -0.5644 -0.7105
18018TIP3    H175469   5.988   0.279   5.399 -0.5701  0.6701  1.1988
18018TIP3    H275470   5.990   0.154   5.485 -0.3671  0.0696  0.3391
18019TIP3   OH275471   3.248   0.460  14.046 -0.4462  0.3354  0.2075
18019TIP3    H175472   3.322   0.507  14.008 -0.0973 -0.1054  0.3322
18019TIP3    H275473   3.285   0.414  14.121 -0.3392 -1.7683 -1.0737
18020TIP3   OH275474   0.768   4.334  16.193  0.1694  0.1746 -0.3067
18020TIP3    H175475   0.855   4.363  16.164  1.3833  0.2206  2.8770
18020TIP3    H275476   0.773   4.337  16.289 -1.6710 -4.5254  0.2311
18021TIP3   OH275477   0.101   1.899  17.153 -0.2431  0.3766  0.2732
18021TIP3    H175478   0.110   1.828  17.090  0.1688  0.8720 -0.2458
18021TIP3    H275479   0.065   1.858  17.232 -1.5948 -0.1178 -0.5522
18022TIP3   OH275480   1.573   2.671   0.805 -0.0239 -0.6330  0.1364
18022TIP3    H175481   1.551   2.600   0.864  0.5715 -1.4774 -0.6237
18022TIP3    H275482   1.668   2.663   0.791 -0.4421 -2.0834 -2.8536
18023TIP3   OH275483   1.259   5.845  15.817 -0.2074  0.3724  0.0669
18023TIP3    H175484   1.173   5.884  15.800 -0.6899  0.0466  1.6116
18023TIP3    H275485   1.257   5.822  15.910  0.8427 -1.4187 -0.3084
18024TIP3   OH275486   5.739   5.657   1.853  0.5290  0.3239  0.8674
18024TIP3    H175487   5.792   5.588   1.814 -0.1705  0.8142 -1.0595
18024TIP3    H275488   5.794   5.735   1.848  1.1770  0.0206  2.7031
18025TIP3   OH275489   1.584   6.468  15.655  0.1669 -0.0918  0.3829
18025TIP3    H175490   1.523   6.532  15.617  0.2452 -0.0609  0.3077
18025TIP3    H275491   1.528   6.403  15.697  0.0486 -0.4471 -0.2927
18026TIP3   OH275492   0.445   0.750   4.458  0.3612 -0.6955 -0.2560
18026TIP3    H175493   0.431   0.657   4.474  1.2928 -1.2201 -2.2182
18026TIP3    H275494   0.390   0.771   4.383  0.4886  0.2388 -0.1017
18027TIP3   OH275495   3.826   5.226  15.542 -0.0688 -0.0996 -0.3421
18027TIP3    H175496   3.838   5.304  15.596  2.0121 -0.3083 -0.4397
18027TIP3    H275497   3.835   5.153  15.603 -1.5396 -0.3013 -0.3356
18028TIP3   OH275498   0.714   5.992   2.951 -0.0701  0.6655  0.5466
18028TIP3    H175499   0.620   6.007   2.963 -0.0925  0.0396  1.1774
18028TIP3    H275500   0.722   5.958   2.862 -0.4379  0.7310  0.4879
18029TIP3   OH275501   2.462   3.659  11.493 -0.2736  0.0533 -0.1060
18029TIP3    H175502   2.463   3.731  11.556 -1.5690  0.0367 -0.0375
18029TIP3    H275503   2.418   3.587  11.539  0.2421 -0.4984 -0.4672
18030TIP3   OH275504   1.780   0.144   1.653  0.5960  0.2615  0.3386
18030TIP3    H175505   1.724   0.080   1.697 -0.3271 -0.5077 -1.8208
18030TIP3    H275506   1.750   0.229   1.687 -0.8542 -0.2321  0.3634
18031TIP3   OH275507   2.851   0.606  13.379  1.1848 -0.7100  0.3094
18031TIP3    H175508   2.942   0.583  13.394  1.5774 -0.3322 -1.2494
18031TIP3    H275509   2.816   0.534  13.326  1.2727  0.2566 -1.1156
18032TIP3   OH275510   0.568   3.526  15.868  1.1098  0.9019  0.0061
18032TIP3    H175511   0.491   3.581  15.882  1.2062  0.9840  0.2115
18032TIP3    H275512   0.629   3.582  15.820  1.2031  0.9684  0.2041
18033TIP3   OH275513   6.224   5.774   0.265  0.1887  0.0264 -0.6827
18033TIP3    H175514   6.292   5.768   0.198  1.4336 -0.6770  0.6103
18033TIP3    H275515   6.218   5.867   0.285  2.0931 -0.0424  0.4647
18034TIP3   OH275516   5.130   0.528   1.987  0.3918  0.2273  0.0186
18034TIP3    H175517   5.062   0.522   1.920  2.1176 -0.5135 -1.7649
18034TIP3    H275518   5.146   0.438   2.014 -0.7651  0.5513  2.0535
18035TIP3   OH275519   6.484   2.559   5.143  0.1088 -0.0725  0.5748
18035TIP3    H175520   6.535   2.583   5.220  0.6790  0.6222  0.0009
18035TIP3    H275521   6.474   2.642   5.095  2.0818 -0.9050 -1.4580
18036TIP3   OH275522   1.239   0.158  14.287  0.0407 -0.0438 -0.4309
18036TIP3    H175523   1.274   0.140  14.200 -1.5908  0.7056 -1.3020
18036TIP3    H275524   1.303   0.122  14.347  3.1694  2.6879 -1.8298
18037TIP3   OH275525   5.351   1.684  15.701  0.1970  0.2144  0.4848
18037TIP3    H175526   5.258   1.678  15.681  0.3202 -0.3302  0.0660
18037TIP3    H275527   5.360   1.644  15.787  0.4614 -2.4673 -0.7028
18038TIP3   OH275528   3.755   0.226  12.690 -0.1691  0.0753  0.2554
18038TIP3    H175529   3.758   0.322  12.685  1.9417  0.0402  0.1190
18038TIP3    H275530   3.668   0.207  12.724 -0.2887  2.0855  1.2272
18039TIP3   OH275531   1.861   5.851   5.369  0.2228  0.3245 -0.2050
18039TIP3    H175532   1.787   5.815   5.320  0.1598  0.5790 -0.3005
18039TIP3    H275533   1.830   5.937   5.400 -0.3193 -0.4844  1.6367
18040TIP3   OH275534   6.161   3.871   2.813 -0.2426 -0.6071 -0.0859
18040TIP3    H175535   6.210   3.841   2.889  0.3647 -0.1893 -0.3016
18040TIP3    H275536   6.164   3.798   2.752 -1.9036 -1.4738  0.7971
18041TIP3   OH275537   0.414   3.835  16.088  0.4300 -0.1546  0.0625
18041TIP3    H175538   0.441   3.858  16.177  0.6624  0.5119 -0.1739
18041TIP3    H275539   0.495   3.811  16.043  0.8451  2.6074 -0.8720
18042TIP3   OH275540   2.921   0.866   0.022  0.2595  0.1149 -0.7647
18042TIP3    H175541   2.981   0.853   0.095  1.1327  1.5797 -1.1729
18042TIP3    H275542   2.872   0.784   0.015  0.5782 -0.2644  1.0585
18043TIP3   OH275543   3.998   1.120  15.517 -0.4361  0.0653  0.1946
18043TIP3    H175544   3.982   1.213  15.531 -0.0876  0.0260  0.8641
18043TIP3    H275545   4.002   1.111  15.422 -0.8165  0.6730  0.1113
18044TIP3   OH275546   3.637   3.443  13.150 -0.1995 -0.0331 -0.9666
18044TIP3    H175547   3.576   3.378  13.114  1.3752 -2.1511  0.0084
18044TIP3    H275548   3.607   3.456  13.240  0.8298 -1.2015 -0.4333
18045TIP3   OH275549   2.144   5.775  15.802  0.3352 -0.1254 -0.9425
18045TIP3    H175550   2.195   5.701  15.769  0.6275  0.7910 -2.6460
18045TIP3    H275551   2.074   5.787  15.739  0.0067  0.7469 -0.4341
18046TIP3   OH275552   6.538   0.425  16.656 -0.4590  0.2310  0.4388
18046TIP3    H175553   6.447   0.444  16.680 -0.8238 -0.1315 -0.6016
18046TIP3    H275554   6.541   0.436  16.561  0.5820  0.2024  0.4511
18047TIP3   OH275555   5.040   0.874  12.128  0.6125  0.0237 -0.1285
18047TIP3    H175556   5.008   0.897  12.041 -0.0468 -0.3213  0.0227
18047TIP3    H275557   4.984   0.802  12.157  0.7302  0.2313  0.6407
18048TIP3   OH275558   5.014   5.541   5.169 -0.7300 -0.2217  0.1747
18048TIP3    H175559   4.966   5.462   5.195 -0.3459 -0.1067  1.2685
18048TIP3    H275560   4.996   5.550   5.076  1.7433 -3.3971 -0.7902
18049TIP3   OH275561   1.852   3.980   3.851 -0.3467  0.2933 -0.2214
18049TIP3    H175562   1.830   4.003   3.761 -0.5156 -1.6826 -0.7395
18049TIP3    H275563   1.773   3.938   3.885  0.4812 -1.1203  0.0313
18050TIP3   OH275564   2.439   2.316  13.654  0.1393  0.2730  0.7013
18050TIP3    H175565   2.363   2.259  13.641  0.9175 -1.0174  1.5704
18050TIP3    H275566   2.484   2.279  13.730  0.3476  2.4527  1.7032
18051TIP3   OH275567   0.395   5.431  14.435 -0.1641 -0.5113  0.0895
18051TIP3    H175568   0.330   5.360  14.442  1.4586 -1.8707  2.4061
18051TIP3    H275569   0.413   5.436  14.341 -1.8741 -1.7220 -0.3622
18052TIP3   OH275570   2.299   1.448   0.279  0.1144  0.0299  0.2206
18052TIP3    H175571   2.356   1.524   0.266  0.5243 -0.0275  1.5104
18052TIP3    H275572   2.325   1.413   0.365  0.0851 -1.6997 -0.4367
18053TIP3   OH275573   3.695   0.487   0.503 -0.5094  0.3253 -1.0789
18053TIP3    H175574   3.741   0.567   0.529  0.1149  0.1311 -1.5645
18053TIP3    H275575   3.738   0.417   0.553  0.1166  0.0657 -1.9591
18054TIP3   OH275576   5.665   3.252   4.455  0.1159  0.3070 -0.5340
18054TIP3    H175577   5.693   3.272   4.366 -0.6628  2.4166 -0.3520
18054TIP3    H275578   5.574   3.223   4.446  0.7110 -1.7303 -0.6041
18055TIP3   OH275579   6.276   6.029   0.391  0.2200 -0.2512  0.3214
18055TIP3    H175580   6.245   6.112   0.355 -0.3273 -1.2075 -1.5457
18055TIP3    H275581   6.366   6.047   0.420  0.5684  0.7004 -1.2372
18056TIP3   OH275582   1.149   4.344   0.688 -0.0969  0.6506  0.0927
18056TIP3    H175583   1.062   4.380   0.671 -0.1466 -0.0564 -1.2759
18056TIP3    H275584   1.138   4.250   0.679  0.8846  0.5806 -0.4343
18057TIP3   OH275585   0.364   6.572   3.298  0.0591  0.0979  0.4787
18057TIP3    H175586   0.439   6.573   3.239 -0.3994  0.7340 -0.1014
18057TIP3    H275587   0.291   6.545   3.244 -0.6618  2.1301  0.3689
18058TIP3   OH275588   5.555   2.858  14.092  0.1518 -0.0468 -0.6075
18058TIP3    H175589   5.472   2.853  14.043  0.0386  0.1812 -0.4441
18058TIP3    H275590   5.605   2.782  14.062  0.5054  0.6474 -1.8497
18059TIP3   OH275591   5.617   0.451  16.608  0.2644  0.3850  0.2707
18059TIP3    H175592   5.650   0.540  16.615 -2.2840  1.4039  0.1063
18059TIP3    H275593   5.609   0.435  16.514  2.2499 -0.6773  0.2335
18060TIP3   OH275594   0.297   1.161  15.481  0.1051  0.0482  0.3764
18060TIP3    H175595   0.358   1.125  15.417  0.0778  0.5117  0.0859
18060TIP3    H275596   0.353   1.191  15.552  0.1898  0.1657  0.2612
18061TIP3   OH275597   2.302   1.484   1.013 -0.0238  0.0360  0.0311
18061TIP3    H175598   2.394   1.483   1.039 -0.0153  0.1462  0.0051
18061TIP3    H275599   2.295   1.418   0.944 -0.0861 -0.3928  0.4480
18062TIP3   OH275600   0.509   4.878  16.197 -0.2836 -0.2608  0.0726
18062TIP3    H175601   0.535   4.838  16.115 -1.5689  0.4120 -0.6972
18062TIP3    H275602   0.536   4.815  16.265 -1.0212 -1.7834 -0.9900
18063TIP3   OH275603   6.432   6.233   5.783 -0.1153  0.2714 -0.3060
18063TIP3    H175604   6.497   6.302   5.767  0.7734 -0.6859 -0.9528
18063TIP3    H275605   6.411   6.199   5.696  1.7791 -2.3162  0.1161
18064TIP3   OH275606   1.569   3.238  12.566 -0.5643  0.2968 -0.7456
18064TIP3    H175607   1.524   3.264  12.646  0.8006  1.0149 -0.1803
18064TIP3    H275608   1.504   3.189  12.517 -1.1231 -1.1134  1.2894
18065TIP3   OH275609   5.988   4.561   1.061 -0.4061 -0.4416  0.2955
18065TIP3    H175610   6.062   4.503   1.079 -1.1956 -1.9671 -1.0341
18065TIP3    H275611   5.940   4.516   0.991 -0.4297  2.4183 -1.6624
18066TIP3   OH275612   2.731   6.112   3.496 -0.3901 -0.5980  0.5778
18066TIP3    H175613   2.675   6.166   3.439 -0.2689 -0.7924  0.2733
18066TIP3    H275614   2.815   6.108   3.450 -0.5685 -1.5157  0.3235
18067TIP3   OH275615   2.424   4.551   4.163  0.5704  0.8274 -0.0095
18067TIP3    H175616   2.481   4.573   4.089 -0.1557  2.5037 -0.1085
18067TIP3    H275617   2.372   4.629   4.177 -0.6703 -0.1493  1.0523
18068TIP3   OH275618   0.829   1.419   5.110  0.0061  0.4017  0.1024
18068TIP3    H175619   0.863   1.506   5.090  1.6699 -0.0151  0.9048
18068TIP3    H275620   0.846   1.367   5.031 -1.7543  0.9860 -0.6886
18069TIP3   OH275621   0.990   5.647   4.382 -0.1187  0.6070 -0.4963
18069TIP3    H175622   1.073   5.624   4.339 -0.1439  0.9951 -0.7646
18069TIP3    H275623   0.964   5.729   4.340 -0.6145  0.5140 -0.3765
18070TIP3   OH275624   3.412   0.089  14.302 -0.3007 -0.6463  0.3421
18070TIP3    H175625   3.331   0.069  14.348 -0.7459 -1.4031 -0.7249
18070TIP3    H275626   3.481   0.079  14.368 -1.0201 -0.5011  1.1314
18071TIP3   OH275627   0.119   4.650   1.930  0.1920  0.4701 -0.8087
18071TIP3    H175628   0.063   4.626   1.856  0.2489 -0.8882 -0.4490
18071TIP3    H275629   0.197   4.688   1.889 -0.1624  0.5572 -1.4116
18072TIP3   OH275630   1.127   3.861   5.705  0.7987  0.5407 -0.5186
18072TIP3    H175631   1.192   3.881   5.772  1.0727  0.6254 -0.8034
18072TIP3    H275632   1.108   3.946   5.665  2.2708  0.2146 -2.0164
18073TIP3   OH275633   0.599   4.280   5.719 -0.1423  0.5318  0.2769
18073TIP3    H175634   0.674   4.302   5.664  0.1096 -0.8572  0.0369
18073TIP3    H275635   0.615   4.190   5.747 -0.8383  0.8289  1.6916
18074TIP3   OH275636   4.860   6.071   1.845 -0.2754  0.6321  0.0349
18074TIP3    H175637   4.832   5.989   1.886 -1.1115  0.9010  0.0268
18074TIP3    H275638   4.955   6.065   1.842 -0.3576 -0.7912 -0.8936
18075TIP3   OH275639   0.572   5.546   6.023  1.0432  0.1410  0.1813
18075TIP3    H175640   0.552   5.639   6.029 -0.2370 -0.1075  0.1588
18075TIP3    H275641   0.657   5.536   6.064  2.8264  1.8339 -2.7759
18076TIP3   OH275642   4.809   2.379   0.855 -0.4884 -0.0814 -0.3292
18076TIP3    H175643   4.745   2.411   0.919 -0.8520  0.6403 -1.0308
18076TIP3    H275644   4.837   2.295   0.889 -0.0566  0.6577  1.2064
18077TIP3   OH275645   5.985   4.239  15.020 -0.4552 -0.3188  0.2454
18077TIP3    H175646   6.010   4.148  15.005  0.1062 -0.1684  0.2482
18077TIP3    H275647   5.914   4.255  14.958  0.7623 -0.1804 -1.1593
18078TIP3   OH275648   0.086   0.186  13.086 -0.8792  0.4723  0.4974
18078TIP3    H175649   0.099   0.279  13.103 -2.9274  0.4351  2.8262
18078TIP3    H275650  -0.003   0.168  13.116 -0.4075 -2.3275  0.5063
18079TIP3   OH275651   0.181   0.576  12.765  0.5323 -0.2509 -0.0909
18079TIP3    H175652   0.188   0.656  12.714  1.8534 -0.4634 -0.2647
18079TIP3    H275653   0.256   0.578  12.824  0.0839 -0.9370  0.5275
18080TIP3   OH275654   1.981   1.578   0.264 -0.4520 -0.2871  0.2731
18080TIP3    H175655   2.048   1.638   0.297  0.2790 -0.8789 -0.1041
18080TIP3    H275656   1.998   1.573   0.170  0.4107 -2.1598  0.4790
18081TIP3   OH275657   1.818   3.399   0.276  0.3014 -0.2819 -0.4190
18081TIP3    H175658   1.814   3.444   0.192  1.9332  1.5976  0.4343
18081TIP3    H275659   1.726   3.385   0.300 -0.2489  1.2682 -1.4590
18082TIP3   OH275660   4.730   0.316   0.596  0.0003  0.1839  0.3646
18082TIP3    H175661   4.695   0.246   0.541  0.0381  0.5738 -0.1683
18082TIP3    H275662   4.759   0.383   0.533  0.2979  0.5177  0.8526
18083TIP3   OH275663   0.512   1.147   0.451  0.0973  0.1559 -0.0822
18083TIP3    H175664   0.438   1.170   0.507 -1.4131  1.3441 -2.3940
18083TIP3    H275665   0.589   1.182   0.496 -1.2234  2.4909  0.5158
18084TIP3   OH275666   3.169   0.378  12.746  0.6657  0.2433  0.1417
18084TIP3    H175667   3.093   0.387  12.688  0.2160 -1.1290  0.4912
18084TIP3    H275668   3.170   0.459  12.797 -0.3521  0.4320 -0.1196
18085TIP3   OH275669   5.285   1.440  17.296  0.3454  0.0918 -0.2213
18085TIP3    H175670   5.309   1.393  17.216  1.2323 -0.9066  0.6166
18085TIP3    H275671   5.354   1.420  17.358 -1.3934 -0.8701  1.5056
18086TIP3   OH275672   3.551   4.646   1.990 -0.4694 -0.2030  0.0962
18086TIP3    H175673   3.547   4.732   2.031  0.0985  0.3409 -0.9376
18086TIP3    H275674   3.613   4.597   2.044 -2.6219 -0.8348  2.1463
18087TIP3   OH275675   0.035   4.075  17.300  0.4763  0.4533 -0.4303
18087TIP3    H175676  -0.042   4.098  17.351  0.8257  0.7790 -0.0418
18087TIP3    H275677   0.029   3.980  17.290  0.1610  0.4434 -0.1752
18088TIP3   OH275678   6.481   3.745   2.984 -0.6410 -0.0280  0.0264
18088TIP3    H175679   6.562   3.722   3.031 -0.8786 -0.9312  0.0093
18088TIP3    H275680   6.484   3.841   2.978 -1.5460  0.3489  3.5985
18089TIP3   OH275681   2.326   2.300  12.880 -0.1544  0.4858  0.0664
18089TIP3    H175682   2.302   2.282  12.789  0.8396  0.2197 -0.1575
18089TIP3    H275683   2.350   2.393  12.880  0.0300  0.4392  0.0086
18090TIP3   OH275684   0.664   3.256  15.990  0.4847  0.2281 -0.1271
18090TIP3    H175685   0.675   3.290  15.901 -2.3022  0.6064 -0.4248
18090TIP3    H275686   0.722   3.309  16.044  1.2650  0.8645 -1.5358
18091TIP3   OH275687   5.093   1.491  14.023 -0.3415  0.7754 -0.2710
18091TIP3    H175688   5.105   1.543  14.102 -0.5321 -1.1356  1.0757
18091TIP3    H275689   5.176   1.445  14.011 -0.7517  0.0683 -0.4367
18092TIP3   OH275690   4.889   6.135   1.032  0.0380  0.2634 -0.3982
18092TIP3    H175691   4.935   6.052   1.041  1.1224  1.0067  1.2934
18092TIP3    H275692   4.861   6.137   0.941  0.9551 -1.4531 -0.7528
18093TIP3   OH275693   5.012   3.331  10.816  0.1155 -0.0651 -0.2442
18093TIP3    H175694   5.054   3.245  10.814 -0.3059 -0.2991  0.6144
18093TIP3    H275695   5.053   3.379  10.743 -0.8246 -1.5286 -1.8171
18094TIP3   OH275696   1.456   3.607  16.210 -0.5908  0.2871  0.3687
18094TIP3    H175697   1.484   3.698  16.223 -0.9392  0.5993 -0.9286
18094TIP3    H275698   1.375   3.614  16.160  0.3113 -0.7741 -1.3466
18095TIP3   OH275699   2.937   1.287   3.194 -0.0920  0.0710  0.5520
18095TIP3    H175700   3.003   1.310   3.260  1.1024 -1.7522  0.0628
18095TIP3    H275701   2.865   1.250   3.245 -0.4721  1.4054  1.0315
18096TIP3   OH275702   0.664   2.087  14.760  0.0702  0.1217  0.2232
18096TIP3    H175703   0.742   2.126  14.720  0.2608  0.2438  0.7077
18096TIP3    H275704   0.594   2.105  14.698 -0.1645  2.5337  1.1062
18097TIP3   OH275705   4.115   4.181  13.780 -0.0033  0.1967 -0.3747
18097TIP3    H175706   4.092   4.102  13.732  2.2431 -1.9653  1.8190
18097TIP3    H275707   4.145   4.242  13.713 -2.1494 -0.5972 -2.1703
18098TIP3   OH275708   3.092   4.530  15.159 -0.1247  0.0587  0.4906
18098TIP3    H175709   3.065   4.444  15.127  2.2716 -1.0450  1.2508
18098TIP3    H275710   3.026   4.552  15.225  0.0445 -1.9295  1.3968
18099TIP3   OH275711   2.479   1.071  15.676  0.2073 -0.6038  0.7672
18099TIP3    H175712   2.475   1.166  15.662 -2.7780 -0.7057  0.3355
18099TIP3    H275713   2.564   1.057  15.718  2.6360  1.6960 -2.7978
18100TIP3   OH275714   5.090   3.202  16.657  0.1468  0.2864 -0.0453
18100TIP3    H175715   5.017   3.196  16.718  0.1757 -0.1087 -0.0456
18100TIP3    H275716   5.109   3.295  16.651  1.3960  0.2152  2.0230
18101TIP3   OH275717   0.123   0.493  14.992 -0.6102 -0.5961  0.1103
18101TIP3    H175718   0.140   0.403  14.963  1.7341 -0.5911  1.2466
18101TIP3    H275719   0.193   0.545  14.952 -0.7581  0.3705  1.0598
18102TIP3   OH275720   5.804   3.968   0.001 -0.1577  0.3093 -0.5110
18102TIP3    H175721   5.867   3.909   0.043 -1.3071 -1.2525 -0.8604
18102TIP3    H275722   5.852   4.007  -0.072  0.1830 -1.5954 -1.3709
18103TIP3   OH275723   3.197   5.555   5.507 -0.7409  0.5050 -0.1731
18103TIP3    H175724   3.175   5.637   5.463 -1.7433 -0.5514 -1.7625
18103TIP3    H275725   3.264   5.515   5.451 -0.0327  0.3571  0.7521
18104TIP3   OH275726   3.789   4.466   4.677 -0.1039  0.8070  0.0203
18104TIP3    H175727   3.775   4.560   4.688 -1.2524  0.6592 -0.0747
18104TIP3    H275728   3.881   4.459   4.651 -0.0218  1.9083 -0.0573
18105TIP3   OH275729   4.513   2.926  15.856 -0.6249 -0.2243  0.5298
18105TIP3    H175730   4.467   2.937  15.773  0.9197  0.7068 -0.2431
18105TIP3    H275731   4.456   2.968  15.920 -0.9922  0.6618 -0.3441
18106TIP3   OH275732   3.487   4.782  16.537  0.4029  0.2045  0.4811
18106TIP3    H175733   3.413   4.724  16.520 -0.0880  0.7608  0.6647
18106TIP3    H275734   3.544   4.733  16.597 -0.9379  0.6172  2.1667
18107TIP3   OH275735   3.298   3.850  11.431  0.6389  0.2501  0.4183
18107TIP3    H175736   3.236   3.907  11.475  0.4472  1.3691 -1.1953
18107TIP3    H275737   3.280   3.863  11.337  1.5685 -1.3734 -0.0286
18108TIP3   OH275738   4.451   3.350  14.091 -0.4834  0.4956 -0.0213
18108TIP3    H175739   4.361   3.347  14.060 -0.6668 -0.5923  0.5995
18108TIP3    H275740   4.499   3.295  14.030 -0.6156 -0.5938  0.8322
18109TIP3   OH275741   3.010   0.823  13.416  0.1580 -0.1657  0.3396
18109TIP3    H175742   2.937   0.761  13.413  0.2313 -0.2209 -0.7312
18109TIP3    H275743   3.059   0.805  13.336  0.8954  0.4258  0.6493
18110TIP3   OH275744   3.462   0.102   3.781 -0.4823  0.4446  0.0312
18110TIP3    H175745   3.403   0.170   3.748 -1.9793 -1.3573 -1.1713
18110TIP3    H275746   3.547   0.147   3.789 -1.2869  2.3152 -1.1750
18111TIP3   OH275747   3.568   0.491   0.271 -0.9959  0.0359 -0.3275
18111TIP3    H175748   3.644   0.498   0.213 -1.4267  0.4442 -0.8631
18111TIP3    H275749   3.603   0.500   0.359 -0.4157  0.1779 -0.5698
18112TIP3   OH275750   2.315   2.891   3.908 -0.4449 -0.2926  0.3969
18112TIP3    H175751   2.264   2.958   3.861 -0.8847 -1.9923 -1.7025
18112TIP3    H275752   2.406   2.920   3.898 -0.6241 -0.0016 -0.5181
18113TIP3   OH275753   3.447   2.131   2.307 -0.1465 -0.2593  0.4420
18113TIP3    H175754   3.485   2.130   2.395  0.3286 -1.3730  0.2422
18113TIP3    H275755   3.522   2.120   2.249 -0.0799  3.0605 -0.3102
18114TIP3   OH275756   6.002   3.713   1.753 -0.1412 -0.3451  0.0896
18114TIP3    H175757   6.021   3.651   1.824 -0.0310 -1.1013 -0.5766
18114TIP3    H275758   5.928   3.673   1.706 -1.2127  0.9046  0.6726
18115TIP3   OH275759   2.431   4.197   3.878  0.3796  0.2499  0.3558
18115TIP3    H175760   2.512   4.161   3.841 -1.0111 -0.0096 -2.7274
18115TIP3    H275761   2.449   4.290   3.891  1.4706  0.0001  0.7415
18116TIP3   OH275762   0.192   4.044  16.336 -0.0375  0.0201  0.4337
18116TIP3    H175763   0.268   4.101  16.348  1.4089 -2.2108  2.8754
18116TIP3    H275764   0.129   4.075  16.402 -0.2573  0.3296  0.0807
18117TIP3   OH275765   1.132   4.296  13.187  0.1622 -0.0318  0.0744
18117TIP3    H175766   1.090   4.382  13.182  0.9289  0.3845  0.6288
18117TIP3    H275767   1.060   4.236  13.209 -0.2755  0.5624  0.3099
18118TIP3   OH275768   5.330   4.741  16.594  0.1457 -0.1551 -0.2011
18118TIP3    H175769   5.278   4.663  16.615 -0.9462  0.2853 -1.1484
18118TIP3    H275770   5.265   4.810  16.581  1.0691  0.7767  0.0288
18119TIP3   OH275771   0.096   6.741  12.848  0.0308  0.3022 -0.3369
18119TIP3    H175772   0.137   6.801  12.785 -1.7711  2.5257  0.4395
18119TIP3    H275773   0.154   6.743  12.924  1.5287 -1.3709 -1.3562
18120TIP3   OH275774   0.631   5.715  16.576 -0.1931  0.3843  0.8494
18120TIP3    H175775   0.544   5.730  16.614 -1.4343  2.1948 -2.2470
18120TIP3    H275776   0.692   5.741  16.645 -2.2166  3.0117  1.8525
18121TIP3   OH275777   3.568   4.031  11.305 -1.0886 -0.5918  0.7118
18121TIP3    H175778   3.531   3.991  11.226 -2.2812 -1.0941  1.5091
18121TIP3    H275779   3.654   4.064  11.277 -1.5475 -0.6432 -0.8206
18122TIP3   OH275780   1.480   0.727   2.773 -0.7447 -0.3862 -0.1829
18122TIP3    H175781   1.488   0.822   2.783  1.2509 -0.6820  1.5324
18122TIP3    H275782   1.475   0.714   2.678  1.8241  1.2652 -0.6337
18123TIP3   OH275783   3.192   1.983  16.269  0.2858 -0.6912 -0.7019
18123TIP3    H175784   3.227   2.065  16.236  1.7525 -0.9668  0.1088
18123TIP3    H275785   3.128   2.009  16.335  0.2284 -0.2079 -0.9456
18124TIP3   OH275786   5.859   5.524  11.825 -0.1369  0.2827 -0.8194
18124TIP3    H175787   5.882   5.575  11.902 -0.8114  0.7140 -0.8935
18124TIP3    H275788   5.906   5.565  11.753  1.6345 -0.9873 -0.4426
18125TIP3   OH275789   5.883   0.054  16.713 -0.1058  0.2644 -0.0485
18125TIP3    H175790   5.941  -0.009  16.670 -0.7863 -0.8923  0.6841
18125TIP3    H275791   5.800   0.045  16.666 -0.9793 -1.2989  1.6619
18126TIP3   OH275792   3.752   1.216  11.001  0.4542 -0.4320  0.8004
18126TIP3    H175793   3.698   1.155  10.950  1.0976 -0.3784  0.0402
18126TIP3    H275794   3.798   1.268  10.936  0.2899  0.5498  1.4440
18127TIP3   OH275795   5.480   3.749  13.135 -0.0454  0.3470 -0.0272
18127TIP3    H175796   5.416   3.820  13.131 -0.8712 -0.2003  2.0186
18127TIP3    H275797   5.451   3.695  13.209  2.9360  0.2304  1.1824
18128TIP3   OH275798   4.576   4.929  12.078 -0.3675  0.3588  0.7391
18128TIP3    H175799   4.504   4.990  12.095 -0.8912 -0.0527  0.0288
18128TIP3    H275800   4.655   4.980  12.096 -0.7017  1.9114 -1.6725
18129TIP3   OH275801   2.680   0.570  15.163  0.9617 -0.4662  0.5413
18129TIP3    H175802   2.637   0.542  15.244  0.9040  0.0444  0.6899
18129TIP3    H275803   2.608   0.591  15.104  1.0038  0.0302  0.6641
18130TIP3   OH275804   1.539   4.433   4.887  0.1479  0.3132 -0.2491
18130TIP3    H175805   1.622   4.420   4.842 -1.2219 -0.1420 -2.8413
18130TIP3    H275806   1.523   4.351   4.934  0.6020 -0.0499 -0.7197
18131TIP3   OH275807   3.967   3.608  15.157  0.5251  0.2803 -0.0398
18131TIP3    H175808   4.004   3.571  15.077 -0.2896 -0.1524 -0.2259
18131TIP3    H275809   3.993   3.548  15.226 -0.7543 -0.6605 -0.3337
18132TIP3   OH275810   0.631   3.123  13.358 -0.0133  0.2980 -0.3940
18132TIP3    H175811   0.611   3.060  13.427 -0.2824 -0.3504 -1.0519
18132TIP3    H275812   0.567   3.104  13.289 -0.7852  1.9677 -0.1973
18133TIP3   OH275813   6.111   6.001  13.949  0.2468  1.0341  0.2582
18133TIP3    H175814   6.040   5.977  14.008 -0.9004  1.7461 -0.7695
18133TIP3    H275815   6.122   5.925  13.892  0.8021  0.6539  0.8671
18134TIP3   OH275816   0.654   4.994   1.957 -0.4470  0.2071  0.1538
18134TIP3    H175817   0.664   5.079   1.999 -0.6306  2.1631 -3.3846
18134TIP3    H275818   0.742   4.973   1.925 -0.4168 -0.9547  0.9457
18135TIP3   OH275819   5.329   3.578  17.221 -0.1396 -0.2794 -0.2448
18135TIP3    H175820   5.363   3.620  17.300 -1.9757 -1.3372  1.2009
18135TIP3    H275821   5.270   3.510  17.253 -1.7920 -0.0660 -2.5300
18136TIP3   OH275822   5.671   3.742  12.703 -0.2309  0.0302  0.2584
18136TIP3    H175823   5.748   3.755  12.649  0.1898  0.0689  0.8627
18136TIP3    H275824   5.704   3.740  12.793 -1.0408  1.0089  0.5947
18137TIP3   OH275825   2.113   4.587  11.148 -0.1319 -0.0799 -0.0591
18137TIP3    H175826   2.146   4.508  11.105 -0.3366  0.2283 -0.7909
18137TIP3    H275827   2.066   4.634  11.080  0.0155  0.6939  0.3592
18138TIP3   OH275828   2.710   6.033   0.156  0.1555 -0.5214 -0.2625
18138TIP3    H175829   2.693   5.939   0.160 -3.2471  0.0047  2.7727
18138TIP3    H275830   2.659   6.063   0.081 -1.8181 -0.7370  0.9213
18139TIP3   OH275831   4.582   5.909  16.249  0.0555 -0.0509 -0.1354
18139TIP3    H175832   4.528   5.881  16.175  1.4972 -0.5827 -1.0276
18139TIP3    H275833   4.661   5.945  16.209 -0.3168  2.3644  1.0760
18140TIP3   OH275834   1.755   3.975   0.259 -0.2639 -0.7581  0.6968
18140TIP3    H175835   1.814   3.932   0.321 -0.0733 -0.0126  1.0474
18140TIP3    H275836   1.680   3.917   0.253  0.4158 -1.6335  0.3859
18141TIP3   OH275837   5.651   6.616   4.205 -0.1080 -0.0796 -1.0738
18141TIP3    H175838   5.615   6.697   4.241 -0.5702 -0.7510  0.0334
18141TIP3    H275839   5.745   6.631   4.200 -0.0032  0.0297  0.5414
18142TIP3   OH275840   6.296   5.341  15.802  0.5067 -0.0758  0.2674
18142TIP3    H175841   6.289   5.417  15.859  1.6750 -0.8641  1.5338
18142TIP3    H275842   6.213   5.338  15.754  0.8001  2.5455 -0.5653
18143TIP3   OH275843   3.286   1.992  16.699 -0.4932 -0.0109  0.1322
18143TIP3    H175844   3.260   2.061  16.760 -1.9787  1.0209 -1.5384
18143TIP3    H275845   3.208   1.937  16.692 -1.3430  1.3301 -2.6150
18144TIP3   OH275846   3.735   0.717   3.213  0.3541 -0.5469 -0.2550
18144TIP3    H175847   3.816   0.680   3.178  0.0720 -3.2075  1.5549
18144TIP3    H275848   3.671   0.645   3.207 -1.2752  0.7806  0.3331
18145TIP3   OH275849   6.417   0.651  13.870 -0.3586  0.2644 -0.2490
18145TIP3    H175850   6.507   0.620  13.859 -0.4658 -0.8913  1.6336
18145TIP3    H275851   6.364   0.588  13.822 -0.3377 -0.8174  1.0708
18146TIP3   OH275852   5.479   5.449  14.224 -0.7159  0.0065 -0.2926
18146TIP3    H175853   5.441   5.373  14.180  1.2634 -0.7406 -0.7856
18146TIP3    H275854   5.541   5.413  14.287 -0.9227  1.1830  0.6136
18147TIP3   OH275855   1.136   0.374   3.265 -0.3543  0.2906  0.0074
18147TIP3    H175856   1.154   0.458   3.223  0.4928  1.7238  2.9343
18147TIP3    H275857   1.044   0.380   3.291 -0.5021 -0.0262 -0.4310
18148TIP3   OH275858   1.500   3.004   4.396 -0.2468 -0.0757  0.0069
18148TIP3    H175859   1.456   3.075   4.350 -1.9373 -0.7575  0.5262
18148TIP3    H275860   1.520   2.939   4.328  1.6235  0.9834 -0.5320
18149TIP3   OH275861   2.689   2.431   5.797 -0.4117 -0.0573  0.6096
18149TIP3    H175862   2.742   2.499   5.841  0.6037  0.3019 -1.0643
18149TIP3    H275863   2.750   2.358   5.784 -0.2081  0.4079 -1.4640
18150TIP3   OH275864   5.223   3.690   2.752 -0.4246 -0.1658  0.3069
18150TIP3    H175865   5.185   3.677   2.665 -1.1006 -0.4209  0.6313
18150TIP3    H275866   5.151   3.671   2.813  0.0289  0.0430  0.9217
18151TIP3   OH275867   3.537   3.384   5.714 -0.4928 -0.5812 -0.9694
18151TIP3    H175868   3.619   3.431   5.699 -0.5972 -0.1062 -0.1119
18151TIP3    H275869   3.534   3.370   5.808 -2.0958  0.7639 -0.7578
18152TIP3   OH275870   5.681   2.080   1.602  0.3409 -0.3822 -0.0514
18152TIP3    H175871   5.735   2.067   1.680  0.9490 -3.3846 -0.8610
18152TIP3    H275872   5.740   2.123   1.540  0.5651 -0.0917  0.3501
18153TIP3   OH275873   5.133   5.760   5.853  0.2819 -0.0095 -0.0348
18153TIP3    H175874   5.057   5.753   5.911  0.9032  1.1121  0.9435
18153TIP3    H275875   5.174   5.843   5.876  1.6910 -0.4837 -0.7036
18154TIP3   OH275876   4.254   1.658   1.297  0.4110 -0.5459  0.0108
18154TIP3    H175877   4.211   1.585   1.254  0.0019 -0.4092  0.1827
18154TIP3    H275878   4.247   1.731   1.236  0.2507 -0.4804  0.1053
18155TIP3   OH275879   2.461   4.754   2.641 -0.0850 -0.5100  0.2246
18155TIP3    H175880   2.498   4.794   2.562  1.7304  0.1447  1.3470
18155TIP3    H275881   2.530   4.697   2.674 -0.1439  0.4973  2.2318
18156TIP3   OH275882   0.734   4.814  17.121  0.3152 -0.0289 -0.0729
18156TIP3    H175883   0.797   4.767  17.176  0.0031 -0.2500  0.0983
18156TIP3    H275884   0.745   4.776  17.034 -1.0468 -1.5692  0.3761
18157TIP3   OH275885   2.237   6.068  11.355 -0.0308  0.0070  0.2054
18157TIP3    H175886   2.195   6.115  11.427  0.8408  0.7464  0.2402
18157TIP3    H275887   2.266   6.136  11.295 -0.4607 -0.5851 -0.7080
18158TIP3   OH275888   1.818   6.700  15.857 -0.3977  0.1468  0.1842
18158TIP3    H175889   1.772   6.757  15.795 -0.4852  0.0877  0.1946
18158TIP3    H275890   1.911   6.712  15.836 -0.4402 -0.0822 -0.1435
18159TIP3   OH275891   2.889   0.094  14.474  0.4072 -0.4645 -0.3962
18159TIP3    H175892   2.914   0.172  14.524  0.5242 -0.8977  0.2332
18159TIP3    H275893   2.881   0.025  14.540 -1.2526 -0.6349 -0.7461
18160TIP3   OH275894   4.950   1.225   2.440  0.5064 -0.0295 -0.0644
18160TIP3    H175895   4.985   1.136   2.430 -0.0252 -0.3012  0.4422
18160TIP3    H275896   4.963   1.265   2.354  1.6946 -0.2407 -0.0037
18161TIP3   OH275897   6.474   4.251  14.706  0.3521 -0.2852 -0.3295
18161TIP3    H175898   6.393   4.250  14.655  0.3343 -1.4642 -0.2938
18161TIP3    H275899   6.453   4.201  14.785  0.7395  0.5068  0.2963
18162TIP3   OH275900   5.971   3.634   6.745  0.0846  0.2117 -0.1850
18162TIP3    H175901   5.909   3.569   6.779 -0.0587 -0.8274 -2.2585
18162TIP3    H275902   6.004   3.679   6.822 -1.0787 -1.2092  1.1983
18163TIP3   OH275903   6.284   5.239   1.355  0.5302  0.0312 -0.5720
18163TIP3    H175904   6.227   5.232   1.278  0.1776 -1.2242 -0.2239
18163TIP3    H275905   6.373   5.234   1.320  0.3647 -1.5749 -0.8412
18164TIP3   OH275906   0.567   3.241   1.421 -0.4500  0.4368  0.0205
18164TIP3    H175907   0.538   3.197   1.341  0.2077 -1.4510  0.7588
18164TIP3    H275908   0.615   3.318   1.390  0.9950 -0.9917 -1.4843
18165TIP3   OH275909   3.218   3.466  14.991  0.7784 -0.2724  0.5421
18165TIP3    H175910   3.266   3.386  14.971  0.0863 -0.8920  1.2618
18165TIP3    H275911   3.275   3.537  14.961  1.5123 -1.0236  0.1200
18166TIP3   OH275912   2.463   2.048   4.689 -0.0141  0.2777 -0.4453
18166TIP3    H175913   2.485   2.141   4.683 -1.1147  0.5504 -0.3569
18166TIP3    H275914   2.436   2.023   4.601  2.0524 -0.4488 -0.9325
18167TIP3   OH275915   1.007   2.400   5.719 -0.4482  0.2472  0.1348
18167TIP3    H175916   1.066   2.366   5.651  0.4662 -0.0602  1.0486
18167TIP3    H275917   0.981   2.486   5.687  0.4031  0.3380 -0.3472
18168TIP3   OH275918   0.624   3.733   5.686 -0.2743 -0.2647  0.1292
18168TIP3    H175919   0.549   3.674   5.684  1.0811 -2.1049  0.5106
18168TIP3    H275920   0.639   3.750   5.779 -0.5338  0.5326  0.0295
18169TIP3   OH275921   6.420   1.811   4.153 -0.1235  0.2116  0.2300
18169TIP3    H175922   6.466   1.728   4.157  0.6976  0.5861 -0.8520
18169TIP3    H275923   6.488   1.877   4.163 -0.8419  0.7622  1.6555
18170TIP3   OH275924   3.105   3.454  13.118  0.0691 -0.8490  0.3672
18170TIP3    H175925   3.016   3.478  13.144  0.2538 -0.2807  0.5027
18170TIP3    H275926   3.094   3.379  13.060 -0.5019 -0.7397  0.3283
18171TIP3   OH275927   3.736   2.705   6.600 -0.7085 -0.1819 -0.6683
18171TIP3    H175928   3.793   2.720   6.524  0.6534  3.0117  0.7715
18171TIP3    H275929   3.796   2.676   6.669 -0.7901  2.4403  0.6433
18172TIP3   OH275930   2.305   4.195   0.611  0.1595  0.1696  0.0674
18172TIP3    H175931   2.392   4.196   0.650  0.5925 -3.5336 -0.4057
18172TIP3    H275932   2.315   4.240   0.527  1.3007  0.8138  0.5312
18173TIP3   OH275933   5.502   3.746   2.244 -0.1903  0.0246 -0.0912
18173TIP3    H175934   5.554   3.758   2.323  0.3627  0.6571 -0.5467
18173TIP3    H275935   5.540   3.806   2.180 -2.2185  1.4589 -0.0794
18174TIP3   OH275936   3.866   4.762  11.878 -0.6612  0.2255  0.0393
18174TIP3    H175937   3.778   4.733  11.853 -0.7906  1.3892 -0.9012
18174TIP3    H275938   3.855   4.853  11.903 -0.0625 -0.1866  1.9681
18175TIP3   OH275939   1.837   4.885  13.363  0.5396  0.6168 -0.0738
18175TIP3    H175940   1.876   4.905  13.447  0.7398  1.4588 -0.3621
18175TIP3    H275941   1.748   4.920  13.368  0.6009  0.8042 -0.2612
18176TIP3   OH275942   5.112   3.708  16.576 -0.6206 -0.1715 -0.3939
18176TIP3    H175943   5.062   3.739  16.501 -0.2991 -0.0158 -0.5470
18176TIP3    H275944   5.051   3.712  16.649 -1.2406 -1.2792 -0.8303
18177TIP3   OH275945   0.557   6.471  11.708 -0.2432 -0.1846 -0.0039
18177TIP3    H175946   0.572   6.379  11.686 -3.2101 -0.9316  0.6393
18177TIP3    H275947   0.584   6.519  11.630  1.1021 -1.5822 -0.4585
18178TIP3   OH275948   4.805   1.026   4.646  0.0020 -0.1428 -0.4226
18178TIP3    H175949   4.865   0.996   4.577  1.4024  0.3570  0.5386
18178TIP3    H275950   4.779   1.114   4.618  1.6505  0.6151  0.3172
18179TIP3   OH275951   2.787   0.879  16.114 -1.1143  1.0394  0.0531
18179TIP3    H175952   2.876   0.860  16.086 -0.7972  1.8516  0.4772
18179TIP3    H275953   2.796   0.907  16.205 -1.7452  1.5275 -0.0271
18180TIP3   OH275954   1.205   0.994  11.568  0.0276 -0.0210  0.3349
18180TIP3    H175955   1.242   1.057  11.506  0.4138 -0.3486  0.2279
18180TIP3    H275956   1.151   1.047  11.627  0.3468  0.4107  0.2464
18181TIP3   OH275957   2.846   1.343   4.690  0.6759  0.2770 -0.5586
18181TIP3    H175958   2.865   1.430   4.655  1.2221  0.2009 -0.4540
18181TIP3    H275959   2.929   1.312   4.725 -0.0203  0.7186  1.6522
18182TIP3   OH275960   5.200   3.089  11.202 -0.4294 -0.0419  0.4317
18182TIP3    H175961   5.140   3.163  11.215 -0.2452  0.2945 -0.5979
18182TIP3    H275962   5.252   3.086  11.283 -0.9384  0.4833  0.7853
18183TIP3   OH275963   5.465   3.071   3.829 -0.6318  0.2486 -0.0721
18183TIP3    H175964   5.508   2.991   3.800 -0.4248  0.3130  0.0535
18183TIP3    H275965   5.412   3.098   3.754 -0.2321  0.3200 -0.3327
18184TIP3   OH275966   4.259   5.027  15.414  0.3064 -0.1333  0.1589
18184TIP3    H175967   4.300   5.020  15.328  1.9629  0.9981  0.8034
18184TIP3    H275968   4.313   4.971  15.471  0.2137  0.3866  0.7711
18185TIP3   OH275969   5.358   6.621   1.351 -0.4993 -0.0427  0.1663
18185TIP3    H175970   5.371   6.558   1.279  1.1802  1.0943 -0.5813
18185TIP3    H275971   5.409   6.585   1.423  1.3081  0.9138 -0.5818
18186TIP3   OH275972   1.081   1.258   5.898 -0.1347  0.1021  0.2708
18186TIP3    H175973   1.004   1.220   5.941  0.2718 -1.9978 -0.7389
18186TIP3    H275974   1.054   1.273   5.808  0.1667  0.9342  0.3041
18187TIP3   OH275975   3.141   3.664   3.546  0.5129 -0.3351  0.1039
18187TIP3    H175976   3.116   3.599   3.481  0.6485 -0.0964 -0.1868
18187TIP3    H275977   3.062   3.716   3.559  0.7296  0.1501 -0.4983
18188TIP3   OH275978   1.568   0.218  12.299  0.2512 -0.3865 -0.3932
18188TIP3    H175979   1.497   0.185  12.354 -1.1097  2.3848 -0.3284
18188TIP3    H275980   1.623   0.270  12.358 -0.2175  1.1467 -1.2499
18189TIP3   OH275981   4.318   4.580  17.157  0.0983 -0.1025  0.1274
18189TIP3    H175982   4.343   4.538  17.075 -0.6797 -0.1053 -0.1117
18189TIP3    H275983   4.234   4.540  17.180  0.0278  0.3190  0.6175
18190TIP3   OH275984   6.318   3.984  14.441  0.3768 -0.3136 -0.7271
18190TIP3    H175985   6.373   3.932  14.499  0.7027 -0.6391 -1.3192
18190TIP3    H275986   6.242   3.928  14.424  0.5161 -0.4167 -1.0087
18191TIP3   OH275987   3.080   4.146  11.179 -0.3251 -0.1836  0.0559
18191TIP3    H175988   3.141   4.073  11.188 -1.9775 -1.4639  1.4560
18191TIP3    H275989   3.131   4.222  11.208  0.8754 -1.0574  0.3476
18192TIP3   OH275990   3.466   4.756   5.252  0.0509 -0.2539  0.3770
18192TIP3    H175991   3.372   4.748   5.237  0.0107  1.0993 -0.2660
18192TIP3    H275992   3.472   4.797   5.339  0.0603 -0.5108  0.4994
18193TIP3   OH275993   0.872   4.372  14.149 -0.1942  0.5107  0.3187
18193TIP3    H175994   0.833   4.324  14.076  1.2920  0.0673 -0.2295
18193TIP3    H275995   0.814   4.356  14.223 -0.2298 -1.4118 -0.0709
18194TIP3   OH275996   1.571   5.270  11.942  0.6679 -0.2553 -0.0589
18194TIP3    H175997   1.581   5.330  12.016 -0.4435  0.9589 -0.8338
18194TIP3    H275998   1.508   5.205  11.973  0.8853 -0.2760  0.3531
18195TIP3   OH275999   5.985   5.426  10.665  0.4243  0.1242  0.2750
18195TIP3    H176000   5.907   5.481  10.659 -0.6151 -1.3446 -0.2565
18195TIP3    H276001   5.954   5.343  10.702  0.9030 -1.8887 -3.3579
18196TIP3   OH276002   5.663   2.102   5.713  0.0497 -0.2636  0.1317
18196TIP3    H176003   5.716   2.041   5.765 -1.0765 -0.5776  0.9446
18196TIP3    H276004   5.574   2.066   5.717 -0.3705  0.6509 -0.6022
18197TIP3   OH276005   0.426   3.305  16.512 -0.2205  0.1930  0.1215
18197TIP3    H176006   0.492   3.235  16.519  1.7624  1.8747 -0.5785
18197TIP3    H276007   0.430   3.332  16.420  0.2726  2.2863  0.7106
18198TIP3   OH276008   1.659   1.896   6.655  0.0970  0.3090 -0.0559
18198TIP3    H176009   1.690   1.812   6.690  0.2477  0.4485  0.1494
18198TIP3    H276010   1.569   1.879   6.628  0.8267 -0.5410 -2.1733
18199TIP3   OH276011   3.803   1.759  13.280 -0.3400  0.5596 -0.3322
18199TIP3    H176012   3.880   1.813  13.297  0.4603 -0.8313  0.6890
18199TIP3    H276013   3.819   1.721  13.193  0.3023  0.0349  0.0036
18200TIP3   OH276014   4.503   2.190  13.302  0.3827  0.4239  0.7728
18200TIP3    H176015   4.502   2.253  13.231 -1.1929  0.4574  0.7758
18200TIP3    H276016   4.586   2.204  13.347  1.9046 -0.3024 -1.6507
18201TIP3   OH276017   5.801   5.879   6.568  0.0404  0.5204 -0.0218
18201TIP3    H176018   5.890   5.911   6.581  0.3137 -0.8168  1.8312
18201TIP3    H276019   5.746   5.940   6.618  0.1352  0.3039  0.3512
18202TIP3   OH276020   4.093   6.373   4.572  0.0757 -0.5948  0.4142
18202TIP3    H176021   3.999   6.354   4.569 -0.4241  1.6838 -0.1411
18202TIP3    H276022   4.126   6.319   4.644 -1.9102 -0.4861  1.4752
18203TIP3   OH276023   1.858   2.775   2.963 -0.3400  0.5405  0.2870
18203TIP3    H176024   1.921   2.825   2.911 -0.3445 -0.5168 -0.7824
18203TIP3    H276025   1.846   2.827   3.043  1.5969  0.9590  0.3579
18204TIP3   OH276026   4.869   1.479  11.337  0.9361  0.0447  0.0406
18204TIP3    H176027   4.906   1.393  11.357 -0.8194 -0.5046  1.1421
18204TIP3    H276028   4.826   1.506  11.418  0.0696  1.2305 -0.7769
18205TIP3   OH276029   2.587   2.171   5.936  0.1829 -0.4753  0.1047
18205TIP3    H176030   2.554   2.249   5.981 -0.2192 -0.7037  0.2061
18205TIP3    H276031   2.646   2.206   5.869 -0.7168 -0.0251 -0.4699
18206TIP3   OH276032   0.625   1.103  13.875 -0.0368 -0.3428 -0.2116
18206TIP3    H176033   0.565   1.074  13.944 -0.5978  1.9274  0.3277
18206TIP3    H276034   0.567   1.136  13.806  0.5463 -1.6055 -1.3376
18207TIP3   OH276035   5.856   4.016   3.843 -0.6369  0.3796  0.3811
18207TIP3    H176036   5.856   4.028   3.938 -1.1192  0.5411  0.3657
18207TIP3    H276037   5.793   4.081   3.811  0.7848  1.4988 -0.2163
18208TIP3   OH276038   1.310   3.593  16.866  0.1357  0.1130 -0.1166
18208TIP3    H176039   1.261   3.670  16.894 -0.0524  0.3690 -1.1071
18208TIP3    H276040   1.383   3.587  16.927  1.5629  2.5266 -1.4371
18209TIP3   OH276041   4.321   3.065   6.165  0.3876 -0.2644 -0.0052
18209TIP3    H176042   4.291   3.086   6.253 -0.3380 -0.8668 -0.0936
18209TIP3    H276043   4.343   3.149   6.126  1.8928 -0.0863  1.1473
18210TIP3   OH276044   4.952   3.634   1.878 -0.1891  0.8365 -0.4195
18210TIP3    H176045   4.966   3.617   1.971 -0.0332 -0.5681 -0.6835
18210TIP3    H276046   5.040   3.641   1.841 -0.2285  0.0359 -0.6854
18211TIP3   OH276047   4.910   2.942   4.749  0.1294 -0.2346 -0.2278
18211TIP3    H176048   4.925   2.849   4.768 -0.4525 -0.3064 -0.1248
18211TIP3    H276049   4.865   2.943   4.664 -0.4584 -0.0804  0.0818
18212TIP3   OH276050   1.813   3.215  15.952  0.1991  0.0670  0.3313
18212TIP3    H176051   1.843   3.287  15.896  0.0032  0.7522  1.0907
18212TIP3    H276052   1.731   3.247  15.989  0.2572 -0.4423  0.9001
18213TIP3   OH276053   6.113   5.296   1.132 -0.3854 -0.3087 -0.0679
18213TIP3    H176054   6.034   5.302   1.187 -0.6218 -1.4814 -0.2546
18213TIP3    H276055   6.083   5.253   1.052  0.5875 -1.5000  0.1792
18214TIP3   OH276056   4.300   2.119  15.874 -0.4448  0.2215  0.3961
18214TIP3    H176057   4.333   2.200  15.913  1.4620  0.1031 -0.8418
18214TIP3    H276058   4.372   2.057  15.881 -1.0314 -0.6356 -0.7982
18215TIP3   OH276059   2.049   0.105  16.139 -0.0195 -0.2073  0.2437
18215TIP3    H176060   2.008   0.139  16.218 -1.9237 -2.0303  0.1254
18215TIP3    H276061   2.088   0.022  16.166  0.9680  0.0489 -0.3405
18216TIP3   OH276062   4.460   6.242   1.431 -0.3551 -0.0874  0.3550
18216TIP3    H176063   4.518   6.185   1.379 -1.1663  0.3393 -1.0782
18216TIP3    H276064   4.451   6.197   1.515  1.8236 -0.2911  0.5307
18217TIP3   OH276065   1.071   3.800   3.645  0.7677 -0.1648  0.0255
18217TIP3    H176066   1.007   3.733   3.667  0.1044  0.7552  0.9783
18217TIP3    H276067   1.154   3.753   3.639  0.3975 -1.0022  1.2010
18218TIP3   OH276068   4.523   6.302  15.599 -0.6419 -0.3345  0.2003
18218TIP3    H176069   4.434   6.270  15.612 -0.4778 -0.4743  1.0984
18218TIP3    H276070   4.564   6.294  15.686  0.4958 -1.0832 -0.3731
18219TIP3   OH276071   6.075   1.213  11.482  0.4502 -0.2033 -0.6457
18219TIP3    H176072   6.023   1.276  11.431  1.8185  1.6561  0.1245
18219TIP3    H276073   6.161   1.215  11.441  0.4143 -1.9963 -0.8859
18220TIP3   OH276074   2.788   0.426   3.440 -0.1271 -0.3409  0.0442
18220TIP3    H176075   2.828   0.475   3.368  0.0762  0.9502  0.9967
18220TIP3    H276076   2.696   0.417   3.414  0.1623 -0.8216 -0.8506
18221TIP3   OH276077   2.967   5.397   6.375 -0.5112 -0.1958  0.3109
18221TIP3    H176078   3.005   5.324   6.423 -1.3723 -0.0398  1.2723
18221TIP3    H276079   2.980   5.473   6.431  1.3038  0.6463 -1.1328
18222TIP3   OH276080   5.032   4.873  15.717 -0.4936 -0.0155 -0.5405
18222TIP3    H176081   5.045   4.967  15.730  0.9309 -0.5125  2.5360
18222TIP3    H276082   4.964   4.867  15.650 -1.4108  3.2153 -0.0751
18223TIP3   OH276083   1.746   1.623   2.041  0.2673 -0.4256 -0.1042
18223TIP3    H176084   1.747   1.717   2.023 -0.0717 -0.4925 -0.4920
18223TIP3    H276085   1.838   1.599   2.048  0.4177 -0.3475 -1.5359
18224TIP3   OH276086   6.324   5.779  16.789  0.5329  0.3995 -0.3388
18224TIP3    H176087   6.323   5.872  16.768 -0.6516 -0.1331 -3.1366
18224TIP3    H276088   6.395   5.743  16.736  0.7403 -0.3623  0.4276
18225TIP3   OH276089   6.226   2.303  11.793 -0.1666 -0.3295 -0.3041
18225TIP3    H176090   6.242   2.210  11.809 -1.2754 -0.4248  0.3738
18225TIP3    H276091   6.310   2.337  11.760  0.6623 -1.2743  0.7520
18226TIP3   OH276092   6.599   4.621  15.259  0.5106 -0.3987 -0.3882
18226TIP3    H176093   6.581   4.536  15.301  0.7284  0.1349  0.8293
18226TIP3    H276094   6.693   4.618  15.240  0.5178 -0.4376 -0.3487
18227TIP3   OH276095   2.714   3.658   2.867  0.7391  0.0889  0.8508
18227TIP3    H176096   2.698   3.569   2.835 -0.1796  1.2861 -2.5324
18227TIP3    H276097   2.645   3.711   2.826  2.3155  2.6175  1.2003
18228TIP3   OH276098   3.851   2.431   1.554  0.0780 -0.9974  0.5598
18228TIP3    H176099   3.908   2.460   1.483 -2.0158 -0.6101 -1.0639
18228TIP3    H276100   3.802   2.509   1.580  1.1927 -0.9834  2.9180
18229TIP3   OH276101   5.300   4.872  16.092 -0.3261  0.0432  0.1333
18229TIP3    H176102   5.320   4.906  16.180  1.0914 -1.1050  0.2945
18229TIP3    H276103   5.300   4.777  16.102 -1.9178 -0.0892 -0.7791
18230TIP3   OH276104   2.846   1.627   0.134  0.1811  0.0909  0.3386
18230TIP3    H176105   2.837   1.693   0.203  0.3654  3.7509 -2.7822
18230TIP3    H276106   2.939   1.632   0.109 -0.2584  0.2614 -1.3591
18231TIP3   OH276107   3.898   2.750   3.802  0.1038 -0.0426 -0.6445
18231TIP3    H176108   3.848   2.670   3.787  1.3110 -0.8941 -0.2759
18231TIP3    H276109   3.849   2.818   3.756 -2.0291 -0.5989  0.6804
18232TIP3   OH276110   3.670   2.573  15.597 -0.6174 -0.6309  0.0106
18232TIP3    H176111   3.761   2.601  15.589 -1.5443  2.7194 -0.4329
18232TIP3    H276112   3.627   2.611  15.520 -3.0137  1.0243  2.0167
18233TIP3   OH276113   6.514   3.327  15.149 -0.3700  0.5774  0.3236
18233TIP3    H176114   6.490   3.378  15.226 -0.8819  1.6281 -0.5036
18233TIP3    H276115   6.548   3.245  15.184 -0.1216  1.2324  1.6730
18234TIP3   OH276116   4.232   2.558  12.289 -0.4883  0.3079 -0.1670
18234TIP3    H176117   4.270   2.569  12.376 -0.5860 -1.1347  0.0959
18234TIP3    H276118   4.308   2.548  12.230 -0.4252 -0.1131 -0.0195
18235TIP3   OH276119   3.455   0.479  14.576  0.3358  0.3158 -0.4523
18235TIP3    H176120   3.512   0.402  14.581 -1.2956 -0.8945  0.2742
18235TIP3    H276121   3.411   0.482  14.661 -0.2633  1.5531 -0.7835
18236TIP3   OH276122   4.903   1.494  13.001  0.0315  0.4305  0.0264
18236TIP3    H176123   4.955   1.422  13.038  1.8176  1.7837  0.2839
18236TIP3    H276124   4.933   1.572  13.048  0.5970  1.8551 -2.4925
18237TIP3   OH276125   3.351   1.293   4.496  0.5011  0.2594  0.2599
18237TIP3    H176126   3.379   1.237   4.424  0.8089 -0.9970  1.3272
18237TIP3    H276127   3.374   1.382   4.468  0.3390 -0.1643 -1.2989
18238TIP3   OH276128   2.540   4.665   2.258  0.0103 -0.0419 -0.2202
18238TIP3    H176129   2.524   4.753   2.224 -0.6554 -0.2986 -0.5992
18238TIP3    H276130   2.578   4.617   2.184 -1.7672 -0.7023 -0.7610
18239TIP3   OH276131   1.704   0.839  15.790  0.6449  0.2978  0.2659
18239TIP3    H176132   1.774   0.867  15.731  4.0617 -2.6479  2.4900
18239TIP3    H276133   1.656   0.772  15.741  0.0834  1.4823 -0.8555
18240TIP3   OH276134   2.165   5.736  15.114 -0.6914  0.2129  0.6025
18240TIP3    H176135   2.086   5.786  15.136 -0.5584  0.9362 -0.5018
18240TIP3    H276136   2.202   5.711  15.199 -2.6928 -1.1180  1.1634
18241TIP3   OH276137   5.183   0.189   1.705 -0.6431  0.2926 -0.8247
18241TIP3    H176138   5.223   0.205   1.790 -0.5714 -0.3395 -0.7312
18241TIP3    H276139   5.142   0.272   1.681 -0.0560  0.6871 -0.5021
18242TIP3   OH276140   3.476   4.003  14.146  0.4775 -0.4805  0.2412
18242TIP3    H176141   3.550   4.064  14.151  1.2242 -1.3806  0.3323
18242TIP3    H276142   3.399   4.058  14.164  1.1697  0.3531  0.7506
18243TIP3   OH276143   4.236   1.137  13.985 -0.0014  0.3573  0.8289
18243TIP3    H176144   4.207   1.072  14.049 -1.4664  0.3673  0.2317
18243TIP3    H276145   4.298   1.091  13.930  0.7259  0.1419  1.8064
18244TIP3   OH276146   5.126   3.638  12.495  0.0948  0.0873 -0.1758
18244TIP3    H176147   5.166   3.648  12.582 -0.1494  1.3229 -0.1883
18244TIP3    H276148   5.197   3.605  12.440  0.5860  0.4684  0.2204
18245TIP3   OH276149   3.153   0.609  12.865 -0.2976  0.2175  0.4340
18245TIP3    H176150   3.099   0.578  12.937  0.4491 -1.1987  0.4122
18245TIP3    H276151   3.094   0.665  12.814 -0.8893  1.1037  2.0078
18246TIP3   OH276152   4.155   4.684   1.826  0.2107 -0.1508 -0.6756
18246TIP3    H176153   4.218   4.631   1.777  0.9679 -0.2492  0.3779
18246TIP3    H276154   4.209   4.746   1.875 -0.3617 -1.2064  1.4121
18247TIP3   OH276155   5.353   3.390  17.022 -0.3501  0.3480 -0.1865
18247TIP3    H176156   5.347   3.464  17.082 -1.8302  1.6086 -1.8044
18247TIP3    H276157   5.290   3.327  17.055 -0.2689  0.5041  0.2720
18248TIP3   OH276158   6.005   0.303  13.863  0.4210  0.0136 -0.2094
18248TIP3    H176159   5.915   0.271  13.855 -0.0034  1.0362  0.2589
18248TIP3    H276160   6.057   0.224  13.881 -0.3296 -0.6286 -0.7842
18249TIP3   OH276161   3.409   1.651  16.900 -0.3574 -0.3279 -0.0089
18249TIP3    H176162   3.342   1.594  16.861 -0.6900 -1.6196  2.2559
18249TIP3    H276163   3.360   1.705  16.962  0.1463  1.6861 -1.2725
18250TIP3   OH276164   4.628   1.884  16.858 -0.6954 -0.4231  0.5168
18250TIP3    H176165   4.723   1.870  16.853 -0.5764  0.4922  0.0203
18250TIP3    H276166   4.600   1.883  16.766 -1.3236 -1.6270  0.6968
18251TIP3   OH276167   5.417   5.463   6.484  0.1859  0.5448  0.5991
18251TIP3    H176168   5.484   5.530   6.470 -1.9878  2.9616  0.9952
18251TIP3    H276169   5.459   5.398   6.541  2.7206  0.9402 -0.6536
18252TIP3   OH276170   1.766   4.119  14.775 -0.0957  0.7733  0.6792
18252TIP3    H176171   1.818   4.095  14.852  1.3433  2.3098  0.2491
18252TIP3    H276172   1.788   4.054  14.709 -0.8201 -0.1527  1.3110
18253TIP3   OH276173   4.440   1.184  16.868 -0.2467  0.2716 -0.1209
18253TIP3    H176174   4.443   1.191  16.963 -0.2278  2.2540 -0.2295
18253TIP3    H276175   4.418   1.092  16.851  0.1978 -0.2170  1.7675
18254TIP3   OH276176   0.776   3.313   3.935  0.4903 -0.2828 -0.1041
18254TIP3    H176177   0.788   3.344   4.024  1.1421  1.8896 -0.8819
18254TIP3    H276178   0.847   3.250   3.922  3.0233  2.3860 -0.2887
18255TIP3   OH276179   1.704   1.189   6.286  0.0461 -0.5592  0.3242
18255TIP3    H176180   1.763   1.246   6.335  0.2929  1.0988 -1.7056
18255TIP3    H276181   1.750   1.105   6.280  0.4442 -0.4787  1.9903
18256TIP3   OH276182   4.159   1.609  13.019 -0.0426 -0.2116  0.1051
18256TIP3    H176183   4.086   1.567  13.065 -0.2538  0.3722  0.3045
18256TIP3    H276184   4.193   1.540  12.961 -1.6224 -0.1108 -1.0231
18257TIP3   OH276185   1.177   0.534   4.489 -0.0341  0.1307  0.4714
18257TIP3    H176186   1.208   0.444   4.496 -0.7480 -0.2679 -1.2061
18257TIP3    H276187   1.255   0.584   4.466  0.5313  0.1152  2.1751
18258TIP3   OH276188   3.035   4.474   4.071  0.2382  0.1552  0.4452
18258TIP3    H176189   2.979   4.407   4.111  0.4649 -0.5313 -0.3599
18258TIP3    H276190   3.069   4.523   4.146 -0.1994 -0.4111  1.0354
18259TIP3   OH276191   5.633   0.221   3.384 -0.0873 -0.3318 -0.2630
18259TIP3    H176192   5.717   0.200   3.423 -0.5854  1.2925  1.8986
18259TIP3    H276193   5.642   0.311   3.353 -0.5116 -0.7432 -1.6737
18260TIP3   OH276194   1.938   0.468   1.652 -0.3832  0.0077  0.9555
18260TIP3    H176195   1.845   0.445   1.654 -0.8452  1.5228 -0.5958
18260TIP3    H276196   1.942   0.553   1.696  0.5051 -0.6052  2.1352
18261TIP3   OH276197   6.344   0.997   4.260 -0.2931 -0.1650  0.5603
18261TIP3    H176198   6.319   0.977   4.350 -1.1084 -1.0201  0.1625
18261TIP3    H276199   6.285   1.068   4.234  0.3050  0.4568  0.8603
18262TIP3   OH276200   4.880   1.735  14.037 -0.4024  0.0671 -0.3672
18262TIP3    H176201   4.966   1.706  14.007  0.0993  1.6881 -0.5910
18262TIP3    H276202   4.866   1.819  13.993 -2.3650 -0.4173 -0.7897
18263TIP3   OH276203   1.016   6.210   4.439 -0.2344  0.2470 -0.1475
18263TIP3    H176204   1.107   6.207   4.467 -0.6901 -0.1944  1.4093
18263TIP3    H276205   0.966   6.199   4.520 -1.6501 -1.0723 -1.1356
18264TIP3   OH276206   1.989   2.776  11.207  0.5498 -0.5672 -0.0729
18264TIP3    H176207   2.013   2.761  11.298  0.9690 -0.3089 -0.1402
18264TIP3    H276208   1.983   2.871  11.199 -0.6829 -0.6137 -0.0129
18265TIP3   OH276209   5.574   1.469   2.133 -0.2134  0.0284 -0.1329
18265TIP3    H176210   5.587   1.534   2.064 -1.2723 -1.3253 -1.6907
18265TIP3    H276211   5.489   1.430   2.114 -0.0834 -1.0761  1.3749
18266TIP3   OH276212   4.285   2.667   2.340  0.1393  0.0376 -0.2978
18266TIP3    H176213   4.283   2.749   2.292 -1.4209 -0.5738 -1.3865
18266TIP3    H276214   4.274   2.600   2.273 -1.6858 -0.8817  0.8158
18267TIP3   OH276215   1.116   5.583  12.923 -0.1845 -0.0619  0.2239
18267TIP3    H176216   1.124   5.504  12.977 -0.4329 -0.7862 -0.7589
18267TIP3    H276217   1.054   5.638  12.970  1.9895  0.7787  2.3142
18268TIP3   OH276218   2.577   3.649   3.418 -0.5261 -0.0965 -0.3354
18268TIP3    H176219   2.582   3.656   3.323  2.5514  1.4540 -0.1746
18268TIP3    H276220   2.657   3.603   3.443 -1.0263 -0.0307  1.5336
18269TIP3   OH276221   3.928   3.253   0.938  0.2247  0.8674  0.1260
18269TIP3    H176222   3.869   3.221   0.870  2.0149  0.7976 -1.4934
18269TIP3    H276223   3.890   3.222   1.020 -1.4073 -0.0340 -0.9223
18270TIP3   OH276224   2.154   2.814   1.942 -0.0225 -0.8355 -0.3341
18270TIP3    H176225   2.206   2.856   2.010 -1.6328  0.1927  0.3174
18270TIP3    H276226   2.163   2.720   1.958  2.2506 -0.7359 -0.7511
18271TIP3   OH276227   3.336   3.768   5.516  0.0537 -0.5675  0.0416
18271TIP3    H176228   3.380   3.850   5.538 -0.8110  0.1719 -0.8760
18271TIP3    H276229   3.302   3.735   5.599 -0.6890  0.6775  0.2520
18272TIP3   OH276230   3.151   0.850  13.972  0.3434  0.0695 -0.0136
18272TIP3    H176231   3.170   0.931  13.923 -1.4095  0.1959 -0.5542
18272TIP3    H276232   3.106   0.794  13.909  0.5759 -0.9090  0.6697
18273TIP3   OH276233   1.039   6.220   2.486  0.3783 -0.1314 -0.3604
18273TIP3    H176234   0.960   6.217   2.539  1.0008  0.1449  0.6077
18273TIP3    H276235   1.009   6.200   2.397 -0.6811 -0.5787  0.0830
18274TIP3   OH276236   1.660   0.050   0.213  0.5375 -0.1861  1.1538
18274TIP3    H176237   1.633   0.142   0.201  1.3576 -0.1667 -1.1829
18274TIP3    H276238   1.745   0.055   0.257  0.2674  0.1269  1.6510
18275TIP3   OH276239   3.904   4.628   2.680 -0.1755 -0.3897  0.3130
18275TIP3    H176240   3.832   4.590   2.631  0.6898 -1.9636  0.2067
18275TIP3    H276241   3.872   4.715   2.706 -1.7708 -0.7186 -0.4326
18276TIP3   OH276242   1.735   6.117  15.483  0.7617 -0.2544  0.1901
18276TIP3    H176243   1.717   6.089  15.572  0.3220 -0.6627 -0.0213
18276TIP3    H276244   1.831   6.117  15.476  0.7800 -1.1154  0.3842
18277TIP3   OH276245   6.161   6.603   3.421 -0.3582 -0.1273  0.4650
18277TIP3    H176246   6.184   6.607   3.514  0.8475  2.9998  0.1793
18277TIP3    H276247   6.066   6.594   3.420 -0.3231 -0.9316  1.9751
18278TIP3   OH276248   0.053   1.829  14.081  0.1041  0.1522  0.1407
18278TIP3    H176249   0.049   1.904  14.022 -2.3718  1.6382  2.0040
18278TIP3    H276250   0.138   1.837  14.124  1.3453 -0.1743 -2.0921
18279TIP3   OH276251   3.104   3.038  13.675 -0.6317  0.7577 -0.0043
18279TIP3    H176252   3.117   3.097  13.749 -1.8868  0.5341  0.4143
18279TIP3    H276253   3.192   3.021  13.643  0.0339  0.1557  1.9868
18280TIP3   OH276254   6.603   0.128   4.618 -0.0620 -0.1655  0.0677
18280TIP3    H176255   6.623   0.220   4.605 -1.3487  0.2171  0.6617
18280TIP3    H276256   6.678   0.093   4.666  0.9423  0.2947 -1.1268
18281TIP3   OH276257   1.127   1.783  15.966  0.0758 -0.3288 -0.1118
18281TIP3    H176258   1.100   1.814  16.053 -2.5138 -1.1557 -0.5511
18281TIP3    H276259   1.159   1.694  15.981 -1.9904 -1.1229 -0.1814
18282TIP3   OH276260   3.445   4.670   0.067  0.2510 -0.2750 -0.3706
18282TIP3    H176261   3.358   4.680   0.106 -0.4312 -0.4826 -1.7983
18282TIP3    H276262   3.504   4.706   0.133 -0.9647  0.5176  0.3334
18283TIP3   OH276263   2.762   4.091   1.864 -0.0440 -0.1306 -0.3574
18283TIP3    H176264   2.716   4.010   1.842  0.8852 -0.5995 -0.6267
18283TIP3    H276265   2.822   4.105   1.791  0.9060 -0.0562  0.4094
18284TIP3   OH276266   5.490   6.603  12.726 -0.5176 -0.7104 -0.4522
18284TIP3    H176267   5.407   6.555  12.731  0.3806 -2.3583 -0.7894
18284TIP3    H276268   5.521   6.604  12.817 -0.4041 -0.9950 -0.4888
18285TIP3   OH276269   1.565   2.124   4.486 -0.3022 -0.2366  0.3275
18285TIP3    H176270   1.534   2.068   4.415 -2.5773 -0.0679  1.1312
18285TIP3    H276271   1.661   2.122   4.477 -0.3603 -2.9210 -0.6430
18286TIP3   OH276272   4.876   6.512  15.270 -0.4151  0.1755  0.3634
18286TIP3    H176273   4.901   6.598  15.236 -1.0823 -0.0659 -0.7821
18286TIP3    H276274   4.890   6.453  15.197 -2.1791 -0.3163  0.3890
18287TIP3   OH276275   3.463   2.309   5.587  0.2901 -0.0295  0.5895
18287TIP3    H176276   3.432   2.237   5.533 -0.1215 -0.2092  1.0567
18287TIP3    H276277   3.557   2.292   5.597  0.9063  1.3582 -2.0897
18288TIP3   OH276278   2.681   6.279  11.919  0.9949 -0.1478  0.2593
18288TIP3    H176279   2.606   6.251  11.866  0.8791  0.7152 -0.0509
18288TIP3    H276280   2.658   6.367  11.948  1.9907  0.2166 -0.0322
18289TIP3   OH276281   0.243   4.580   5.172  0.4598  0.3524  0.3011
18289TIP3    H176282   0.275   4.658   5.216  1.0652  0.0312  0.4362
18289TIP3    H276283   0.290   4.578   5.089 -1.4911  1.5725 -0.9034
18290TIP3   OH276284   6.220   2.012   6.087 -0.5482  0.1830  0.1334
18290TIP3    H176285   6.287   1.968   6.138  0.2737 -1.6001 -2.3222
18290TIP3    H276286   6.265   2.087   6.048 -0.9166  0.9355  1.0814
18291TIP3   OH276287   2.065   1.995   2.892  0.2946 -0.1554  0.3803
18291TIP3    H176288   2.057   2.065   2.957 -0.7710 -0.0061  0.1106
18291TIP3    H276289   2.011   1.924   2.927 -0.9866  0.2310 -0.7115
18292TIP3   OH276290   0.678   3.471   3.085  0.0423 -0.3073 -0.0570
18292TIP3    H176291   0.626   3.491   3.007  0.5249 -1.6629 -0.7605
18292TIP3    H276292   0.735   3.547   3.096 -1.1025  0.5790 -0.0980
18293TIP3   OH276293   6.580   5.088   3.848  0.2491  0.1043  0.5897
18293TIP3    H176294   6.626   5.109   3.766  0.4095 -2.8896 -0.2179
18293TIP3    H276295   6.619   5.005   3.876 -0.5007  0.5635  3.2200
18294TIP3   OH276296   6.134   1.732  12.880  0.0250 -0.2342 -0.4191
18294TIP3    H176297   6.085   1.795  12.827  0.4512 -0.4309 -1.0662
18294TIP3    H276298   6.092   1.648  12.861 -0.2071 -0.2199  0.0311
18295TIP3   OH276299   3.165   5.958  13.672 -0.7343  0.0164 -0.2444
18295TIP3    H176300   3.184   6.051  13.661 -2.0876  0.2849 -0.5569
18295TIP3    H276301   3.251   5.916  13.673 -0.1116  1.2209 -0.4807
18296TIP3   OH276302   4.057   0.076   2.258  0.6728 -0.0116 -0.4877
18296TIP3    H176303   4.083  -0.016   2.262  1.6243  0.2637 -0.1296
18296TIP3    H276304   4.121   0.122   2.312 -0.3593  0.7538  0.1287
18297TIP3   OH276305   4.370   1.977   2.535 -0.5749 -0.2566  0.2938
18297TIP3    H176306   4.417   1.906   2.580  1.0936  1.2944  1.1165
18297TIP3    H276307   4.390   2.055   2.586 -3.4836  0.6547  0.2146
18298TIP3   OH276308   6.368   5.206  12.252 -0.1806  0.0037  0.1573
18298TIP3    H176309   6.442   5.247  12.208 -0.4129 -0.6624 -0.8689
18298TIP3    H276310   6.293   5.261  12.229 -0.7627 -1.7386 -2.4515
18299TIP3   OH276311   5.417   1.746  12.338  0.0441 -0.1107 -0.5292
18299TIP3    H176312   5.498   1.774  12.296 -0.9279 -0.9691 -3.1482
18299TIP3    H276313   5.430   1.653  12.358 -0.4117 -0.3499 -1.3103
18300TIP3   OH276314   6.381   1.111   3.939 -0.0241  0.1777  0.1309
18300TIP3    H176315   6.287   1.093   3.942 -0.2410  1.0140 -1.0003
18300TIP3    H276316   6.422   1.025   3.944 -0.8125 -0.1356  1.5910
18301TIP3   OH276317   4.323   1.404   2.385 -0.3737 -0.1328 -0.4270
18301TIP3    H176318   4.282   1.407   2.299  1.2233  1.3637 -1.1902
18301TIP3    H276319   4.363   1.490   2.395  0.6918 -0.7814  1.2140
18302TIP3   OH276320   2.152   4.950  13.873  0.3841 -0.6839 -0.1379
18302TIP3    H176321   2.217   4.991  13.816  0.3537 -0.5507 -0.0767
18302TIP3    H276322   2.107   4.886  13.816 -0.8405  0.6724 -0.7677
18303TIP3   OH276323   2.537   2.474  13.449  0.2797 -0.2426  0.5494
18303TIP3    H176324   2.594   2.542  13.485 -0.2489  0.0199  0.8996
18303TIP3    H276325   2.496   2.434  13.526 -2.6364  1.8565  0.2037
18304TIP3   OH276326   0.370   4.093  15.282 -0.0313  0.0344  0.2043
18304TIP3    H176327   0.290   4.096  15.228  0.9290  0.2587 -1.2616
18304TIP3    H276328   0.437   4.059  15.223  0.3788 -3.0417  2.2344
18305TIP3   OH276329   5.050   3.284   4.342 -0.3364 -0.0725 -0.3308
18305TIP3    H176330   5.037   3.190   4.337  2.1906 -0.4773 -0.4403
18305TIP3    H276331   5.036   3.315   4.253  1.8606 -0.8661 -1.0194
18306TIP3   OH276332   1.553   0.629  12.898 -0.4688  0.5001  0.3229
18306TIP3    H176333   1.477   0.675  12.935  0.4834  2.4574 -0.0274
18306TIP3    H276334   1.606   0.604  12.973 -0.0709  1.7062  0.4663
18307TIP3   OH276335   6.531   1.550   5.751 -0.3828  0.2215  0.0234
18307TIP3    H176336   6.543   1.549   5.846 -1.2728 -0.0693  0.1464
18307TIP3    H276337   6.463   1.616   5.737 -0.5568 -0.0413 -0.3694
18308TIP3   OH276338   1.145   4.557  15.007 -0.0920 -0.5423 -0.3544
18308TIP3    H176339   1.213   4.581  14.944 -0.6628  0.5000 -0.5969
18308TIP3    H276340   1.072   4.525  14.953 -0.2211 -0.5626 -0.1697
18309TIP3   OH276341   1.997   3.444  12.024  1.2463  0.1597  0.1349
18309TIP3    H176342   1.996   3.397  12.108  1.5668 -2.8867 -1.4519
18309TIP3    H276343   1.906   3.474  12.013  1.2722  0.9072  1.6921
18310TIP3   OH276344   5.490   1.919  11.364  0.4705 -0.1176 -0.1823
18310TIP3    H176345   5.404   1.910  11.323  0.4832  1.5910 -0.6777
18310TIP3    H276346   5.539   1.975  11.304  0.8379  1.6548  1.6659
18311TIP3   OH276347   2.592   1.858   3.325  0.1039 -0.4221  0.3730
18311TIP3    H176348   2.534   1.843   3.250  1.3798 -0.9479 -0.5507
18311TIP3    H276349   2.619   1.949   3.316 -2.3191  0.5808  2.1288
18312TIP3   OH276350   4.718   5.992  12.313  0.4357 -0.7025  0.4082
18312TIP3    H176351   4.668   6.074  12.307  0.1534 -0.7193  1.9057
18312TIP3    H276352   4.723   5.960  12.223 -0.2252  0.5054 -0.0890
18313TIP3   OH276353   2.558   4.089  12.775 -0.1764 -0.1682 -0.0153
18313TIP3    H176354   2.530   3.998  12.774 -1.8235  0.3033 -1.0594
18313TIP3    H276355   2.588   4.104  12.864 -0.3457 -1.5959  0.3051
18314TIP3   OH276356   2.213   3.017   3.639  0.4790 -0.0050 -0.3166
18314TIP3    H176357   2.170   3.065   3.568  1.0056 -0.9497 -1.3267
18314TIP3    H276358   2.303   3.051   3.641  1.1571 -1.5579 -1.7204
18315TIP3   OH276359   4.182   3.970   5.699  0.0354  0.2034 -0.3507
18315TIP3    H176360   4.246   3.963   5.629  1.3836  0.9329  0.7420
18315TIP3    H276361   4.120   3.900   5.683  2.0233 -1.6077 -0.5461
18316TIP3   OH276362   4.763   2.927   2.696  0.2372 -0.1625  0.3169
18316TIP3    H176363   4.772   2.856   2.632 -1.4080 -1.4869  1.4714
18316TIP3    H276364   4.759   2.883   2.780 -0.5739  1.3280  1.0912
18317TIP3   OH276365   4.764   6.029   1.584  0.7955  0.3577 -0.2963
18317TIP3    H176366   4.765   6.122   1.559  0.0219  0.6942  0.8433
18317TIP3    H276367   4.810   6.026   1.668  0.7091 -0.2734 -0.2682
18318TIP3   OH276368   6.543   4.516  14.192 -0.2427  0.0420  0.0181
18318TIP3    H176369   6.553   4.604  14.227 -1.2318  0.4450 -0.6349
18318TIP3    H276370   6.632   4.486  14.175  0.1572  0.5190  1.1751
18319TIP3   OH276371   5.068   5.201   3.074  0.8550 -0.5612 -0.3475
18319TIP3    H176372   5.047   5.115   3.038 -1.3321 -0.9777  1.6479
18319TIP3    H276373   5.130   5.182   3.145  0.4282 -0.5323  0.0449
18320TIP3   OH276374   3.973   0.782  12.788  0.1041 -0.1341 -0.1115
18320TIP3    H176375   3.993   0.692  12.812  2.2463 -0.0277 -1.2721
18320TIP3    H276376   3.981   0.785  12.693 -3.3665  0.5589 -0.5346
18321TIP3   OH276377   1.583   6.560   5.869  0.2076  0.1838  0.3509
18321TIP3    H176378   1.487   6.552   5.867  0.1584  0.6803 -1.6463
18321TIP3    H276379   1.608   6.559   5.777  2.0507  1.0414  0.8125
18322TIP3   OH276380   4.145   4.713  17.348  0.2486  0.1544 -0.2641
18322TIP3    H176381   4.218   4.756  17.303  0.4844 -0.1381 -0.1633
18322TIP3    H276382   4.135   4.761  17.429  2.3874 -1.6688  1.2324
18323TIP3   OH276383   1.793   6.008   6.581 -0.1578  0.8384 -0.6297
18323TIP3    H176384   1.807   6.090   6.535  1.4288  0.9821  0.0082
18323TIP3    H276385   1.821   6.026   6.671  0.7280 -0.5022 -0.5932
18324TIP3   OH276386   6.232   4.980  16.811 -0.2998 -0.7886 -0.3930
18324TIP3    H176387   6.258   5.029  16.733  1.0753  0.5169  0.8317
18324TIP3    H276388   6.145   4.945  16.789 -0.3652  0.3471 -2.1413
18325TIP3   OH276389   6.080   0.734   5.978 -0.2968 -0.2596  0.3087
18325TIP3    H176390   6.037   0.780   5.906  1.0847 -0.1965 -0.5093
18325TIP3    H276391   6.009   0.715   6.039 -1.8392 -1.7197 -1.7681
18326TIP3   OH276392   2.502   1.752   6.461  0.0242 -0.1186 -0.3256
18326TIP3    H176393   2.479   1.663   6.437  1.4881 -0.8249  0.7637
18326TIP3    H276394   2.587   1.768   6.420  0.1385  0.4930  0.1207
18327TIP3   OH276395   4.449   2.768   2.535 -0.5395  0.0868 -0.1281
18327TIP3    H176396   4.464   2.842   2.477 -2.6608  1.0922  0.5071
18327TIP3    H276397   4.391   2.710   2.486 -2.8096  1.2129  1.0783
18328TIP3   OH276398   2.714   5.227  12.804 -0.0231  0.5227  0.3931
18328TIP3    H176399   2.788   5.275  12.766  0.7670 -1.0696 -0.1838
18328TIP3    H276400   2.755   5.157  12.854 -1.0969 -1.3147 -1.1534
18329TIP3   OH276401   6.140   4.142   4.547 -0.0463  0.3846  0.4950
18329TIP3    H176402   6.184   4.057   4.547 -2.2525 -0.8597  2.4184
18329TIP3    H276403   6.055   4.125   4.586 -1.6396  3.0040 -1.5149
18330TIP3   OH276404   2.066   0.539  12.095 -0.5516 -0.1647  0.0924
18330TIP3    H176405   2.055   0.567  12.185 -0.0685 -1.4514  0.5725
18330TIP3    H276406   2.029   0.610  12.043  0.0348  1.0337  1.2585
18331TIP3   OH276407   4.663   3.335   5.888 -0.2503 -0.1573 -0.1995
18331TIP3    H176408   4.695   3.330   5.798  0.5284 -0.2037  0.0736
18331TIP3    H276409   4.593   3.270   5.892 -0.1659 -0.2841 -0.7195
18332TIP3   OH276410   5.057   1.321  11.071  0.6220 -0.2599  0.3540
18332TIP3    H176411   5.068   1.402  11.120  1.6994 -1.8028  2.8620
18332TIP3    H276412   5.137   1.313  11.019  0.3921  0.3891 -0.1074
18333TIP3   OH276413   3.510   5.685  17.107  0.1916 -0.2100 -0.3259
18333TIP3    H176414   3.603   5.695  17.128  0.8626  0.0108 -2.9939
18333TIP3    H276415   3.468   5.760  17.147  1.6257  1.1414 -1.2389
18334TIP3   OH276416   6.052   3.326   5.310 -0.5161  0.1270  0.4336
18334TIP3    H176417   6.081   3.402   5.259  0.3640  0.0029  0.7387
18334TIP3    H276418   5.961   3.313   5.284  0.5490 -1.4900 -3.0307
18335TIP3   OH276419   3.754   5.589   1.307  0.4439  0.0559 -0.0977
18335TIP3    H176420   3.796   5.605   1.391  2.6930 -1.5888 -0.8267
18335TIP3    H276421   3.804   5.642   1.244 -0.3532  0.2225 -0.6087
18336TIP3   OH276422   5.424   0.187  12.305  0.2534 -0.5409  0.3423
18336TIP3    H176423   5.385   0.105  12.334  0.4300 -0.0616  2.0452
18336TIP3    H276424   5.382   0.254  12.358  1.9152  0.2002  0.8015
18337TIP3   OH276425   6.733   3.437   1.706 -0.1909  0.2157 -0.1169
18337TIP3    H176426   6.825   3.416   1.690 -0.3566  0.3138 -1.2597
18337TIP3    H276427   6.706   3.374   1.772  0.4481 -0.4322 -0.4526
18338TIP3   OH276428   5.733   0.762  14.916 -0.3369 -0.3614 -0.5184
18338TIP3    H176429   5.760   0.748  15.007  1.4701  2.3655 -0.5324
18338TIP3    H276430   5.813   0.788  14.871 -1.1783 -1.7388 -2.9846
18339TIP3   OH276431   1.030   1.305  13.367 -0.2971  0.0739  0.0475
18339TIP3    H176432   0.995   1.223  13.400 -1.5729  0.1360 -1.0539
18339TIP3    H276433   0.953   1.355  13.341  0.4194  1.8629  1.1925
18340TIP3   OH276434   4.124   6.716  14.584  0.2438  0.4021 -0.0996
18340TIP3    H176435   4.216   6.739  14.579  0.2045  0.7489  0.7174
18340TIP3    H276436   4.123   6.623  14.604  0.4465  0.7765  1.8173
18341TIP3   OH276437   0.751   5.834  15.996 -0.3733  0.0714  0.5455
18341TIP3    H176438   0.716   5.854  16.083 -1.0020 -0.4332  0.4155
18341TIP3    H276439   0.780   5.919  15.962 -0.5006  0.3345  1.0862
18342TIP3   OH276440   5.926   4.722  11.898  0.3464 -0.2563  0.4362
18342TIP3    H176441   5.858   4.698  11.960  0.5817 -0.3987  0.6396
18342TIP3    H276442   5.888   4.703  11.812  0.0843 -0.2186  0.5442
18343TIP3   OH276443   3.322   0.443  14.820 -0.4887  0.3264  0.0283
18343TIP3    H176444   3.389   0.483  14.876 -0.8996 -1.2439  1.7141
18343TIP3    H276445   3.240   0.481  14.851 -0.6294  0.2291 -0.2294
18344TIP3   OH276446   3.933   5.009  13.186  0.2792  0.1202  0.1089
18344TIP3    H176447   3.983   4.968  13.257 -0.3841 -0.2647  0.3653
18344TIP3    H276448   3.979   5.091  13.169  1.5456 -0.6334 -0.2949
18345TIP3   OH276449   4.465   3.503  14.480 -0.6375 -0.1485 -0.5729
18345TIP3    H176450   4.400   3.455  14.532 -0.3756 -1.6125 -1.5237
18345TIP3    H276451   4.418   3.528  14.401 -0.0764 -1.2262 -1.2726
18346TIP3   OH276452   4.044   5.936   4.139  0.3126 -0.5246  0.0067
18346TIP3    H176453   4.028   5.971   4.227  1.6631 -1.1325  0.5221
18346TIP3    H276454   4.091   6.005   4.093 -0.9733  0.0548 -0.4862
18347TIP3   OH276455   6.736   4.736   0.346 -0.1690  0.8017  0.0224
18347TIP3    H176456   6.803   4.718   0.412 -0.1866 -1.2809 -0.4601
18347TIP3    H276457   6.786   4.762   0.268  0.0188  0.4395  0.0203
18348TIP3   OH276458   3.348   0.884  12.217 -0.1973  0.3462 -0.5404
18348TIP3    H176459   3.302   0.870  12.300 -0.3663  0.6641 -0.5787
18348TIP3    H276460   3.360   0.796  12.181 -0.6107  0.2469 -0.4389
18349TIP3   OH276461   3.024   6.684  12.754  0.3316  0.5625 -0.7897
18349TIP3    H176462   2.984   6.742  12.689  0.3945  0.9061 -0.5256
18349TIP3    H276463   3.110   6.722  12.771 -0.5060  1.7810  1.1317
18350TIP3   OH276464   4.378   1.923   5.441 -0.2166  0.4224 -0.0487
18350TIP3    H176465   4.293   1.899   5.478 -0.2330  1.2872  0.5009
18350TIP3    H276466   4.435   1.935   5.517 -0.0402  1.4453 -0.3243
18351TIP3   OH276467   0.785   4.602   0.048  0.0125  0.4179 -0.1337
18351TIP3    H176468   0.692   4.585   0.032 -0.4159  2.4993 -0.0598
18351TIP3    H276469   0.820   4.516   0.072 -1.9668 -0.3484  0.2699
18352TIP3   OH276470   0.050   6.030  15.956  0.5601 -0.5191 -0.4383
18352TIP3    H176471  -0.042   6.029  15.982  1.5612 -1.2208  3.6874
18352TIP3    H276472   0.059   5.954  15.897 -1.3324 -0.8706 -0.3362
18353TIP3   OH276473   2.089   4.783  13.380 -0.2790 -0.0457 -0.1952
18353TIP3    H176474   2.133   4.868  13.381 -0.3108 -0.0352  0.7521
18353TIP3    H276475   2.005   4.800  13.337 -0.3623  0.4414  0.1527
18354TIP3   OH276476   3.584   4.496  16.777 -0.2972 -0.1471 -0.0623
18354TIP3    H176477   3.670   4.532  16.758  0.1039 -1.6174 -1.2636
18354TIP3    H276478   3.601   4.423  16.837 -0.8445  0.2422  0.5840
18355TIP3   OH276479   2.433   0.302   2.023 -0.1318 -0.1472  0.1191
18355TIP3    H176480   2.511   0.342   1.985 -0.6382 -0.6522 -1.5585
18355TIP3    H276481   2.466   0.248   2.094  1.2242 -1.1856 -1.2211
18356TIP3   OH276482   6.716   6.349   4.118 -0.1267  0.0240  0.1068
18356TIP3    H176483   6.800   6.379   4.085  1.0579 -2.4636  0.6025
18356TIP3    H276484   6.732   6.258   4.145 -2.7320 -0.2202  1.1267
18357TIP3   OH276485   1.536   1.377   3.612  0.3920 -0.4914 -0.0156
18357TIP3    H176486   1.473   1.446   3.634 -0.2056 -1.2160  0.5887
18357TIP3    H276487   1.611   1.424   3.576 -0.0141  0.4734  0.3684
18358TIP3   OH276488   0.983   4.302   3.558 -0.0389  0.1715  0.5403
18358TIP3    H176489   0.928   4.346   3.493  1.4961  0.6947 -0.4761
18358TIP3    H276490   1.072   4.311   3.523  0.3913 -4.0402  0.0723
18359TIP3   OH276491   4.509   4.902   3.915  0.5528  0.0906 -0.2268
18359TIP3    H176492   4.452   4.858   3.852 -0.4428 -0.2559  0.8570
18359TIP3    H276493   4.449   4.929   3.986  1.7742 -0.4954  1.0777
18360TIP3   OH276494   1.108   3.277  12.010 -0.2427 -0.0173  0.0712
18360TIP3    H176495   1.192   3.230  12.005  0.3422  0.9770  0.1872
18360TIP3    H276496   1.077   3.259  12.099 -0.1975 -0.4598  0.0013
18361TIP3   OH276497   3.019   0.097   0.800 -0.3079  0.5079  0.2239
18361TIP3    H176498   3.068   0.178   0.812  0.2719  0.0959  0.6616
18361TIP3    H276499   2.979   0.106   0.713 -0.8956  1.5920  0.5849
18362TIP3   OH276500   3.069   1.159  16.316 -0.5124 -0.2564  0.4609
18362TIP3    H176501   3.091   1.088  16.256 -0.8371 -0.7891  0.9587
18362TIP3    H276502   3.000   1.208  16.271 -2.4175 -1.9917  1.2957
18363TIP3   OH276503   0.689   1.217   5.247 -0.4164  0.2079 -0.8150
18363TIP3    H176504   0.729   1.299   5.216  0.0960  0.8014  1.2497
18363TIP3    H276505   0.763   1.158   5.261 -0.5733  0.1111 -0.3611
18364TIP3   OH276506   3.290   3.088   1.154  0.0497  0.3434 -0.3630
18364TIP3    H176507   3.302   3.007   1.203  0.3915  0.5980 -0.0208
18364TIP3    H276508   3.379   3.121   1.140 -0.0886  0.6863 -0.4546
18365TIP3   OH276509   5.379   4.284   1.285  0.8449  0.5286  0.0294
18365TIP3    H176510   5.407   4.198   1.253  1.0588  0.5603  0.1275
18365TIP3    H276511   5.355   4.333   1.206 -0.9528 -0.1877  0.0749
18366TIP3   OH276512   3.197   5.957   1.442  0.3929  0.1722  0.1203
18366TIP3    H176513   3.202   5.883   1.503  0.7774 -0.9426 -1.1997
18366TIP3    H276514   3.184   5.916   1.357 -1.3376  1.7281 -0.4312
18367TIP3   OH276515   0.822   1.158   1.372 -0.6518 -0.0596  0.6908
18367TIP3    H176516   0.852   1.068   1.384  2.2026  0.9790  2.1950
18367TIP3    H276517   0.817   1.195   1.460 -0.7768  1.5666  0.0506
18368TIP3   OH276518   0.723   0.613   0.591 -0.5224  0.0861  0.1540
18368TIP3    H176519   0.654   0.613   0.525 -1.5869 -0.4535  1.2493
18368TIP3    H276520   0.697   0.680   0.653 -1.2584 -1.6212  1.7669
18369TIP3   OH276521   0.538   1.886   6.366 -0.3440  0.5135 -0.4609
18369TIP3    H176522   0.482   1.906   6.291  0.3455  0.4472 -1.0084
18369TIP3    H276523   0.584   1.968   6.385  1.9752 -0.2543 -2.2756
18370TIP3   OH276524   3.763   4.672   1.221 -0.2017  0.6954  0.2793
18370TIP3    H176525   3.839   4.715   1.258  0.6556 -0.5440  0.0375
18370TIP3    H276526   3.771   4.686   1.126 -1.1279  1.8748  0.3560
18371TIP3   OH276527   1.613   5.743   3.275 -0.0729 -0.3715 -0.1267
18371TIP3    H176528   1.521   5.746   3.251  0.3339 -1.0810 -1.9739
18371TIP3    H276529   1.624   5.661   3.323 -0.1173 -1.1228 -1.3626
18372TIP3   OH276530   1.767   1.932   2.949 -0.5145  0.0533  0.0973
18372TIP3    H176531   1.751   1.983   2.870  0.6146 -0.7062 -0.6421
18372TIP3    H276532   1.682   1.893   2.969 -0.3424 -1.7520 -2.2054
18373TIP3   OH276533   2.437   4.059   1.890 -0.3163  0.1772 -0.1056
18373TIP3    H176534   2.462   4.146   1.858  1.5870 -0.6125 -0.9094
18373TIP3    H276535   2.342   4.065   1.904  0.0114  2.9303  1.6782
18374TIP3   OH276536   4.038   0.509  12.829 -0.2839  0.0837 -0.0980
18374TIP3    H176537   4.060   0.428  12.874 -0.9028  0.5148  1.0222
18374TIP3    H276538   3.942   0.514  12.833 -0.3240  0.3667 -1.0588
18375TIP3   OH276539   0.883   0.343   2.118 -0.0420 -0.2992  0.6487
18375TIP3    H176540   0.921   0.325   2.204  1.1121 -3.0236 -0.3108
18375TIP3    H276541   0.838   0.261   2.095  0.5725 -0.0248 -1.7632
18376TIP3   OH276542   5.269   3.887  12.378 -0.1118  0.2361  0.0549
18376TIP3    H176543   5.217   3.872  12.299 -0.1229  0.8735 -0.0667
18376TIP3    H276544   5.229   3.832  12.445  2.0443 -3.1762 -1.2150
18377TIP3   OH276545   0.824   0.917  13.362 -0.2948 -0.0262  0.3105
18377TIP3    H176546   0.735   0.885  13.375 -0.2950  0.5908  2.1049
18377TIP3    H276547   0.838   0.912  13.268 -1.4928 -2.0358  0.1906
18378TIP3   OH276548   6.490   3.202   0.514  0.0381 -0.5396  0.0709
18378TIP3    H176549   6.556   3.242   0.457 -0.5319  0.3614  0.0151
18378TIP3    H276550   6.517   3.227   0.603  0.5916 -1.4400  0.1723
18379TIP3   OH276551   6.363   0.992  10.973  0.2161  0.2138  0.0955
18379TIP3    H176552   6.426   0.926  11.000 -0.6123 -0.2019  1.0611
18379TIP3    H276553   6.281   0.944  10.959 -0.7861  1.1787  2.2225
18380TIP3   OH276554   5.844   0.409   3.580 -0.4180  0.1321  0.0741
18380TIP3    H176555   5.870   0.407   3.672 -0.0690 -1.2170 -0.0270
18380TIP3    H276556   5.926   0.398   3.532 -0.4652  1.8514 -0.4448
18381TIP3   OH276557   0.915   3.985   1.097  0.1690 -0.0902 -0.4348
18381TIP3    H176558   0.991   4.034   1.129  0.0367 -0.0409 -0.1918
18381TIP3    H276559   0.891   4.029   1.016 -1.0953  1.4562  0.7026
18382TIP3   OH276560   5.420   2.220  13.885  0.6249 -0.0984  0.0534
18382TIP3    H176561   5.443   2.128  13.883  0.2705 -0.2300  1.1697
18382TIP3    H276562   5.392   2.236  13.976 -0.8317  0.7226 -0.5006
18383TIP3   OH276563   2.163   3.790   2.956 -0.2575 -0.0853 -0.3812
18383TIP3    H176564   2.130   3.722   3.015  0.9769 -0.6437 -0.3131
18383TIP3    H276565   2.221   3.843   3.010 -2.7348  2.3607  0.1263
18384TIP3   OH276566   3.630   2.280   3.944 -0.0392 -0.0073  0.0956
18384TIP3    H176567   3.696   2.257   3.878  0.2539  2.2863 -0.4918
18384TIP3    H276568   3.679   2.325   4.012 -0.6149 -0.8133  1.0840
18385TIP3   OH276569   0.115   5.667  12.766  0.8358 -0.5541  0.1378
18385TIP3    H176570   0.103   5.592  12.825 -0.6605  0.0089  0.5902
18385TIP3    H276571   0.057   5.649  12.692  1.3776 -0.4024 -0.3373
18386TIP3   OH276572   0.741   4.638  16.146 -0.4938  0.0051 -0.2048
18386TIP3    H176573   0.758   4.554  16.105 -2.3359  0.3866 -1.8953
18386TIP3    H276574   0.740   4.701  16.073 -0.3117  1.3083  0.8701
18387TIP3   OH276575   1.171   3.340  12.509  0.5615  1.0437  0.1761
18387TIP3    H176576   1.195   3.430  12.528  1.3097  0.6623  1.1158
18387TIP3    H276577   1.154   3.300  12.595  2.1383 -0.2126 -0.0521
18388TIP3   OH276578   0.636   4.467  15.669 -0.1006 -0.2432 -0.0853
18388TIP3    H176579   0.579   4.397  15.637 -0.5962 -0.3569  0.9654
18388TIP3    H276580   0.716   4.459  15.619 -0.8822 -0.3024 -1.3736
18389TIP3   OH276581   6.499   2.730   4.871 -0.0562 -0.3855  0.2102
18389TIP3    H176582   6.407   2.747   4.891 -0.3255 -2.8600  1.3457
18389TIP3    H276583   6.497   2.659   4.807  1.0765 -0.9371  0.7694
18390TIP3   OH276584   4.177   0.427   1.941 -0.9759  0.6177  0.7614
18390TIP3    H176585   4.159   0.433   1.847  1.9112  0.3451  0.1038
18390TIP3    H276586   4.107   0.371   1.974 -0.7916 -1.2910 -1.7076
18391TIP3   OH276587   5.561   5.765   5.053 -0.1529 -0.1021 -0.7845
18391TIP3    H176588   5.529   5.842   5.101  0.5345 -0.5162  0.4042
18391TIP3    H276589   5.500   5.696   5.076  1.4445 -0.9083  1.5303
18392TIP3   OH276590   5.029   4.222  13.412  0.6113  0.0787  0.5704
18392TIP3    H176591   5.060   4.295  13.357  0.3821  0.6724  1.2160
18392TIP3    H276592   5.108   4.187  13.452  0.7416 -0.1393  0.1362
18393TIP3   OH276593   3.745   0.416  11.903 -0.0672  0.0604  0.1052
18393TIP3    H176594   3.777   0.490  11.851  1.2004 -1.6191 -1.6459
18393TIP3    H276595   3.763   0.440  11.993  5.4137 -0.1877 -0.5925
18394TIP3   OH276596   2.246   5.216  12.082  0.1121  0.6074  0.2025
18394TIP3    H176597   2.321   5.202  12.023  0.2267  0.4556  0.3821
18394TIP3    H276598   2.274   5.288  12.138  0.6789 -0.3322  1.1665
18395TIP3   OH276599   1.535   1.763  17.237 -0.4252  0.1090 -0.2233
18395TIP3    H176600   1.476   1.687  17.229  0.5804 -0.5981 -1.2977
18395TIP3    H276601   1.528   1.806  17.152  0.8250 -0.1579 -0.4707
18396TIP3   OH276602   1.564   4.753   2.275 -0.1500  0.1752  0.1403
18396TIP3    H176603   1.646   4.800   2.283  0.4001 -0.9219  1.3562
18396TIP3    H276604   1.574   4.700   2.196 -0.5351  1.5735 -0.8859
18397TIP3   OH276605   5.896   2.131  16.794  0.2995  0.0612 -0.0620
18397TIP3    H176606   5.905   2.203  16.732 -0.3283 -0.8625 -1.2668
18397TIP3    H276607   5.868   2.057  16.740  2.0663 -1.4010  0.9521
18398TIP3   OH276608   1.688   2.350  15.201  0.1304  0.3366  0.1090
18398TIP3    H176609   1.616   2.413  15.194 -0.2130 -0.0996 -0.5044
18398TIP3    H276610   1.762   2.400  15.233 -0.4828  0.7723  0.8693
18399TIP3   OH276611   2.129   4.242   1.254 -0.1354  0.1439 -0.5313
18399TIP3    H176612   2.090   4.158   1.275 -1.8477  0.3792 -2.4228
18399TIP3    H276613   2.141   4.285   1.339 -1.9358 -0.8689  0.2952
18400TIP3   OH276614   1.140   1.665   0.243  0.0800 -0.1635 -0.0683
18400TIP3    H176615   1.078   1.598   0.215  2.3032 -2.4545  0.1520
18400TIP3    H276616   1.185   1.691   0.162  0.2544 -0.0327  0.0709
18401TIP3   OH276617   1.211   0.663   3.458 -0.2593  0.1816 -0.0588
18401TIP3    H176618   1.224   0.568   3.461 -0.1689  0.1618 -0.9727
18401TIP3    H276619   1.281   0.699   3.512  1.8359 -0.0965 -2.4405
18402TIP3   OH276620   6.159   3.274   4.080 -0.6960  0.0436 -0.2089
18402TIP3    H176621   6.116   3.271   4.166 -1.9534  2.6058 -0.6708
18402TIP3    H276622   6.252   3.270   4.100 -0.9732  0.2372  1.2619
18403TIP3   OH276623   2.509   2.517   1.631  0.2005 -0.5484 -0.1845
18403TIP3    H176624   2.509   2.562   1.546  1.4872  1.7301  0.9297
18403TIP3    H276625   2.591   2.469   1.634  0.4837 -0.0598  0.0261
18404TIP3   OH276626   5.171   6.139   5.724 -0.2879  0.7216  0.2621
18404TIP3    H176627   5.245   6.084   5.750 -0.2395  0.5334 -0.2672
18404TIP3    H276628   5.204   6.229   5.733  0.6285  0.6337 -1.6917
18405TIP3   OH276629   2.935   0.981   0.987 -0.1618  0.4230  0.2639
18405TIP3    H176630   3.007   0.919   0.995  0.1143  0.8176  0.9337
18405TIP3    H276631   2.956   1.031   0.907 -1.2553 -1.4131 -1.2459
18406TIP3   OH276632   5.231   6.734  15.444  0.1854 -0.3453  0.5508
18406TIP3    H176633   5.259   6.729  15.353 -1.7679 -1.8846 -0.0265
18406TIP3    H276634   5.169   6.663  15.454 -0.1437  0.1973  2.9357
18407TIP3   OH276635   5.340   3.160  12.495  0.1075  0.2721 -0.0449
18407TIP3    H176636   5.416   3.101  12.496 -0.0170  0.1002 -0.5945
18407TIP3    H276637   5.378   3.247  12.481  0.1102  0.0119 -1.9547
18408TIP3   OH276638   3.712   6.562  15.275 -0.0833 -0.1484  0.0400
18408TIP3    H176639   3.786   6.551  15.335 -0.1244 -0.2533  0.0704
18408TIP3    H276640   3.746   6.535  15.190  0.1012  0.4042 -0.0645
18409TIP3   OH276641   6.467   3.225   6.032 -0.6331  0.5321 -0.7091
18409TIP3    H176642   6.466   3.317   6.004 -0.7962  1.8021  2.9248
18409TIP3    H276643   6.447   3.229   6.125 -0.7186 -3.2673 -0.4338
18410TIP3   OH276644   0.886   0.079   0.271 -0.3984 -0.1505  0.0782
18410TIP3    H176645   0.823   0.084   0.198  0.1993  1.4824 -0.3761
18410TIP3    H276646   0.928  -0.006   0.260  0.7536  0.6162 -2.4903
18411TIP3   OH276647   3.081   2.872  12.137  0.2124 -0.6279 -0.1546
18411TIP3    H176648   2.994   2.878  12.177  0.0800  0.6972 -0.5741
18411TIP3    H276649   3.133   2.939  12.181  0.0457  0.9113 -2.1309
18412TIP3   OH276650   4.154   5.428  11.051 -0.6917  0.4689  0.2955
18412TIP3    H176651   4.175   5.518  11.028  0.8718  0.0879  0.1133
18412TIP3    H276652   4.141   5.429  11.146  2.0354  0.4508  0.7373
18413TIP3   OH276653   3.058   5.837   4.539  0.0835 -0.2808  0.3759
18413TIP3    H176654   3.150   5.824   4.565  0.3300  0.9259  0.1774
18413TIP3    H276655   3.021   5.749   4.539  0.9226 -0.6693  1.6306
18414TIP3   OH276656   1.742   2.129   4.922  0.3138  0.1105 -0.4243
18414TIP3    H176657   1.675   2.114   4.856  0.5114  2.3385 -1.1996
18414TIP3    H276658   1.802   2.192   4.882  1.8429 -0.4060  0.9484
18415TIP3   OH276659   2.405   4.256  15.046  0.0305  1.1084 -0.3118
18415TIP3    H176660   2.453   4.173  15.038 -2.2509 -0.6074  2.0331
18415TIP3    H276661   2.364   4.269  14.961  1.9757  0.9502 -1.3361
18416TIP3   OH276662   2.833   1.834  11.652  0.2026  0.1854  0.0202
18416TIP3    H176663   2.866   1.816  11.564  0.3035 -1.8830  0.4194
18416TIP3    H276664   2.762   1.895  11.639  0.0510 -0.2739 -1.5420
18417TIP3   OH276665   1.906   1.464   4.298 -0.5062  0.8998 -0.3168
18417TIP3    H176666   1.832   1.525   4.310 -1.2220  0.5549 -2.5471
18417TIP3    H276667   1.956   1.502   4.226  0.8137  0.4578  0.3547
18418TIP3   OH276668   6.690   2.248  14.425  0.2826 -1.0183  0.2940
18418TIP3    H176669   6.693   2.343  14.421 -0.0714 -1.0487 -1.8404
18418TIP3    H276670   6.713   2.227  14.516  1.4821  1.0354  0.5274
18419TIP3   OH276671   4.929   4.014  15.972 -0.3317  0.0935  0.3225
18419TIP3    H176672   4.972   4.043  16.052  0.9357  0.8873 -0.6092
18419TIP3    H276673   4.924   3.919  15.980  2.0307 -0.0822  0.2801
18420TIP3   OH276674   1.192   1.465   3.506  0.4642 -0.2406  0.0315
18420TIP3    H176675   1.217   1.409   3.579 -0.4676  0.1144  0.6507
18420TIP3    H276676   1.177   1.405   3.433  1.4514 -0.5926  0.1143
18421TIP3   OH276677   5.975   1.355  14.352  0.4419  0.2422 -0.3035
18421TIP3    H176678   6.049   1.401  14.392 -1.3856  1.5074  1.8601
18421TIP3    H276679   5.957   1.282  14.412 -0.7091  0.6085 -0.1744
18422TIP3   OH276680   5.632   5.681   6.468 -0.1514 -0.3463  0.1448
18422TIP3    H176681   5.695   5.741   6.507  1.3681  0.1990 -2.8601
18422TIP3    H276682   5.558   5.737   6.443 -0.9949 -0.6510  1.7646
18423TIP3   OH276683   2.423   4.282  10.499  0.4352  0.1706  0.0641
18423TIP3    H176684   2.489   4.231  10.547  0.2563 -2.0070 -1.8255
18423TIP3    H276685   2.344   4.274  10.551  0.8452 -0.0271  0.6747
18424TIP3   OH276686   1.642   3.633   5.777  0.3098 -0.1165  0.3416
18424TIP3    H176687   1.561   3.583   5.792  0.6698 -0.2999  1.8756
18424TIP3    H276688   1.640   3.655   5.684 -0.9823 -1.0328  0.1246
18425TIP3   OH276689   5.530   2.223  13.273  0.4085  0.3582  0.3167
18425TIP3    H176690   5.460   2.247  13.333  0.3309  1.8567 -0.3411
18425TIP3    H276691   5.514   2.275  13.194  0.6975 -1.3065 -0.8964
18426TIP3   OH276692   5.363   1.537  15.934 -0.1296  0.6808 -0.1182
18426TIP3    H176693   5.355   1.466  15.871 -4.1225  1.3256 -0.5842
18426TIP3    H276694   5.457   1.552  15.941  0.7529 -2.9792 -1.7917
18427TIP3   OH276695   2.368   0.886  15.926  0.2447  0.1928 -0.3364
18427TIP3    H176696   2.459   0.891  15.897  0.3758  3.5202  0.2608
18427TIP3    H276697   2.372   0.901  16.020 -0.9113  0.2745 -0.2848
18428TIP3   OH276698   1.036   0.548  15.221 -0.4607 -0.1183  0.1731
18428TIP3    H176699   1.121   0.522  15.255 -0.5516 -0.5111  0.1084
18428TIP3    H276700   1.050   0.636  15.185  0.0433 -0.3829 -0.3025
18429TIP3   OH276701   3.543   2.409   0.533  0.5586 -0.2199  0.6630
18429TIP3    H176702   3.561   2.494   0.492 -2.1939 -0.6902 -1.8457
18429TIP3    H276703   3.628   2.367   0.541  1.7593  1.9524  0.0836
18430TIP3   OH276704   1.961   0.001   1.773  0.2004 -0.4030 -0.1674
18430TIP3    H176705   1.914   0.084   1.764 -0.3887 -0.5253  1.4438
18430TIP3    H276706   1.910  -0.061   1.722  0.0473 -0.0057 -0.5079
18431TIP3   OH276707   3.610   3.240   0.458  0.4949  0.3916 -0.7061
18431TIP3    H176708   3.528   3.282   0.435  0.6043  0.6943 -0.5482
18431TIP3    H276709   3.666   3.254   0.381  1.0901  2.0017 -0.0130
18432TIP3   OH276710   2.728   1.531  11.747  0.7625 -0.5987  0.0952
18432TIP3    H176711   2.791   1.479  11.798 -0.4785 -3.8634 -1.4233
18432TIP3    H276712   2.646   1.483  11.755 -1.0777  2.3371  0.1884
18433TIP3   OH276713   2.273   0.535  12.839 -0.1337 -0.0701  0.2421
18433TIP3    H176714   2.245   0.519  12.748  0.1561  0.9883 -0.0458
18433TIP3    H276715   2.283   0.447  12.876  3.5109 -0.7705 -1.8636
18434TIP3   OH276716   0.586   0.888  16.317  0.5014  0.0608 -0.0399
18434TIP3    H176717   0.614   0.880  16.226 -0.6582  0.3452 -0.4302
18434TIP3    H276718   0.494   0.862  16.317  0.1226  1.3032  0.8304
18435TIP3   OH276719   6.162   6.014   3.907  0.0158 -0.2736 -0.2083
18435TIP3    H176720   6.246   6.054   3.929 -0.4374 -0.0288  1.1867
18435TIP3    H276721   6.097   6.080   3.932 -0.6998 -1.4519  1.1885
18436TIP3   OH276722   2.693   3.212   2.437 -0.4984 -0.2354  0.0530
18436TIP3    H176723   2.762   3.265   2.478 -1.3473  0.5490  0.4881
18436TIP3    H276724   2.733   3.180   2.355  0.4243  0.0816  0.3702
18437TIP3   OH276725   5.450   3.136  17.379 -0.0075  0.6090 -0.2097
18437TIP3    H176726   5.454   3.050  17.420 -0.5930  1.6787  2.3194
18437TIP3    H276727   5.358   3.146  17.352  0.2880  0.0613 -1.4534
18438TIP3   OH276728   1.171   6.258  14.076 -0.4822 -0.0178  0.4279
18438TIP3    H176729   1.248   6.262  14.019 -0.4019 -1.2437  0.4196
18438TIP3    H276730   1.114   6.328  14.043  0.6568  0.9998  0.5232
18439TIP3   OH276731   6.116   5.852   5.327 -0.6292 -0.1339  0.0039
18439TIP3    H176732   6.027   5.835   5.296 -1.7538  2.4978  1.4945
18439TIP3    H276733   6.170   5.785   5.283 -3.2949 -1.8374 -0.9052
18440TIP3   OH276734   1.428   4.159   5.376 -0.2532  0.1674 -0.1816
18440TIP3    H176735   1.437   4.210   5.457 -0.5569 -0.3340  0.1806
18440TIP3    H276736   1.492   4.089   5.385 -0.5414 -0.1036 -0.1986
18441TIP3   OH276737   4.578   4.728   0.778 -0.2090  0.2445 -0.3629
18441TIP3    H176738   4.651   4.786   0.802 -0.1504 -0.0411  0.1551
18441TIP3    H276739   4.538   4.704   0.862 -1.2261  0.8208 -0.6648
18442TIP3   OH276740   0.328   6.051   6.426 -0.1532 -0.0918 -0.2590
18442TIP3    H176741   0.335   5.967   6.472  0.8557  0.5334  0.7832
18442TIP3    H276742   0.418   6.072   6.401 -0.6367 -0.3311 -2.4653
18443TIP3   OH276743   2.754   0.321   0.510  0.1057  0.7959 -0.0574
18443TIP3    H176744   2.828   0.340   0.567 -1.1201 -0.4551  2.0889
18443TIP3    H276745   2.677   0.335   0.564 -1.2041  0.6488 -1.7733
18444TIP3   OH276746   0.863   6.401   5.094  0.2691  0.4984  0.1384
18444TIP3    H176747   0.926   6.460   5.054  1.9583 -0.2645  1.5203
18444TIP3    H276748   0.852   6.434   5.183  0.4128 -0.6016  0.5904
18445TIP3   OH276749   5.193   1.468   5.675  0.0371 -0.9437 -0.0736
18445TIP3    H176750   5.253   1.480   5.601  1.6905 -1.7088  1.0693
18445TIP3    H276751   5.231   1.521   5.745 -2.2590  0.8984 -0.1018
18446TIP3   OH276752   2.304   3.151  12.013  0.0592 -0.7062  0.3051
18446TIP3    H176753   2.221   3.133  12.056  0.4593 -0.7174  1.0970
18446TIP3    H276754   2.344   3.065  12.000  0.3105 -0.6524  0.6900
18447TIP3   OH276755   6.639   0.043   1.979  0.4927 -0.0608 -0.1459
18447TIP3    H176756   6.556   0.070   2.020 -1.7969 -1.6734 -3.3439
18447TIP3    H276757   6.677  -0.018   2.042 -0.8111  0.5506  1.3308
18448TIP3   OH276758   4.823   2.264  12.122  0.2371 -0.1967 -0.1515
18448TIP3    H176759   4.785   2.251  12.035 -1.3348  0.6611  0.3714
18448TIP3    H276760   4.782   2.197  12.177  0.2447  0.0882  0.2067
18449TIP3   OH276761   1.722   2.372  11.233 -0.3352  0.6384 -0.0513
18449TIP3    H176762   1.660   2.381  11.161 -0.2694 -0.7493 -0.3090
18449TIP3    H276763   1.805   2.348  11.192 -0.7618 -2.2379  0.5192
18450TIP3   OH276764   1.171   5.248  12.203  0.0802  0.2674 -0.7549
18450TIP3    H176765   1.150   5.229  12.295  2.5092 -1.1543 -0.4008
18450TIP3    H276766   1.095   5.216  12.154  0.2967 -2.6118  0.5426
18451TIP3   OH276767   3.783   3.652   5.105 -0.4992  0.1327 -0.2746
18451TIP3    H176768   3.805   3.674   5.015 -0.7420  1.4026 -0.0546
18451TIP3    H276769   3.862   3.611   5.140  0.5556  1.9831 -0.3290
18452TIP3   OH276770   3.581   0.218  14.541  0.2627 -0.7905 -0.1559
18452TIP3    H176771   3.650   0.153  14.534  1.3078  0.1958  0.7217
18452TIP3    H276772   3.532   0.194  14.619 -1.7202 -2.6654 -1.8276
18453TIP3   OH276773   6.006   6.577  11.217 -0.2820  0.2969  0.3745
18453TIP3    H176774   6.053   6.658  11.238 -0.6431  0.2537  1.4247
18453TIP3    H276775   6.054   6.540  11.143  1.2668  0.3242  1.3109
18454TIP3   OH276776   3.586   3.443   0.254 -0.4259  0.0381 -0.3491
18454TIP3    H176777   3.615   3.497   0.181 -0.6905  1.7128  0.7184
18454TIP3    H276778   3.609   3.353   0.229 -0.5973  0.5430 -2.4992
18455TIP3   OH276779   6.532   6.486   5.726  0.4808 -0.1348  0.4576
18455TIP3    H176780   6.437   6.497   5.723  0.4709 -0.3567 -0.5593
18455TIP3    H276781   6.562   6.554   5.786 -0.0010  2.6179 -2.1639
18456TIP3   OH276782   3.999   0.414   0.822 -0.0407  0.4257  0.0227
18456TIP3    H176783   4.021   0.355   0.894  0.1901  0.4376 -0.0370
18456TIP3    H276784   3.910   0.442   0.841 -1.3070 -2.2636 -1.5317
18457TIP3   OH276785   1.992   4.584   1.009 -0.4001 -0.0077  0.0452
18457TIP3    H176786   1.989   4.499   0.966 -0.7120 -0.7607  1.4986
18457TIP3    H276787   1.978   4.565   1.102  2.7650  1.2669  0.9136
18458TIP3   OH276788   4.931   4.069  14.124 -0.0276  0.0477 -0.3193
18458TIP3    H176789   4.861   4.007  14.100  0.7865 -0.2940 -1.9333
18458TIP3    H276790   4.915   4.087  14.216 -1.3633 -1.1849 -0.2598
18459TIP3   OH276791   4.045   2.662  14.102  0.3784 -0.0368 -0.1058
18459TIP3    H176792   4.042   2.743  14.153 -2.4006 -0.2865  0.2784
18459TIP3    H276793   4.025   2.689  14.012 -0.4508 -0.2648  0.0045
18460TIP3   OH276794   4.582   4.642  15.406  0.5654  0.0850 -0.4402
18460TIP3    H176795   4.620   4.578  15.346  1.5618  1.5073 -1.4241
18460TIP3    H276796   4.632   4.722  15.389  0.9755  0.5355  2.4226
18461TIP3   OH276797   6.095   5.709  11.469 -0.0772  0.7290 -0.2357
18461TIP3    H176798   6.101   5.803  11.485  0.3752  0.8085 -0.8675
18461TIP3    H276799   6.098   5.700  11.374 -1.1274  0.1424 -0.2268
18462TIP3   OH276800   0.562   0.442  14.568 -0.0934 -0.5861  1.2198
18462TIP3    H176801   0.532   0.367  14.517  0.7215  1.1391 -2.0652
18462TIP3    H276802   0.489   0.505  14.563 -0.1271 -0.4814  2.5608
18463TIP3   OH276803   3.903   4.666   3.926 -0.0303  0.1444 -0.2264
18463TIP3    H176804   3.998   4.666   3.913  0.4445  3.0439  2.2931
18463TIP3    H276805   3.867   4.675   3.837  2.1472  0.9949 -1.0913
18464TIP3   OH276806   5.379   5.064   3.476  0.8180 -0.1508  0.1041
18464TIP3    H176807   5.355   5.024   3.560 -2.2636  1.2940  0.0651
18464TIP3    H276808   5.423   5.146   3.501  0.3891  0.0174  0.3245
18465TIP3   OH276809   6.363   3.939   6.207 -0.5132 -0.0954  0.0179
18465TIP3    H176810   6.332   3.938   6.298  0.0177  2.2866  0.2858
18465TIP3    H276811   6.449   3.896   6.211 -0.5143 -0.0569  0.6329
18466TIP3   OH276812   5.308   2.512   5.940 -0.1851  0.7720  0.3319
18466TIP3    H176813   5.307   2.534   5.847  0.9243  0.6123  0.2774
18466TIP3    H276814   5.353   2.428   5.944 -2.1256 -0.3072  0.8051
18467TIP3   OH276815   4.049   1.979   2.117  0.3906 -0.1396  0.2416
18467TIP3    H176816   4.123   1.975   2.177  0.3375  0.0819  0.3205
18467TIP3    H276817   3.980   1.930   2.162  0.7696 -1.1587 -0.2367
18468TIP3   OH276818   4.571   2.058   1.947 -0.3177 -0.1044 -0.1099
18468TIP3    H176819   4.659   2.026   1.925 -0.0627  0.7751 -0.3816
18468TIP3    H276820   4.580   2.153   1.953 -0.9998 -0.0952  1.0598
18469TIP3   OH276821   2.340   4.981  13.664 -0.0733  0.2595  0.4730
18469TIP3    H176822   2.369   5.058  13.713  1.3870 -0.5262  0.8960
18469TIP3    H276823   2.280   5.016  13.598  0.6432  1.7802  0.5765
18470TIP3   OH276824   2.630   5.626  16.728  0.1415 -0.1691 -0.3034
18470TIP3    H176825   2.706   5.674  16.761  1.6354 -1.6009 -1.5158
18470TIP3    H276826   2.622   5.652  16.637 -0.7806 -0.1207 -0.2205
18471TIP3   OH276827   5.522   6.035   5.153  0.7679 -0.1163  0.5774
18471TIP3    H176828   5.435   6.077   5.153  0.4756 -0.6022 -1.6917
18471TIP3    H276829   5.567   6.074   5.079  1.1776 -2.4137 -0.4460
18472TIP3   OH276830   1.760   4.480   0.215 -0.4967  0.1061  0.1201
18472TIP3    H176831   1.751   4.406   0.276 -0.2875 -0.8676 -0.9804
18472TIP3    H276832   1.763   4.439   0.129  1.6661  1.2578 -0.4158
18473TIP3   OH276833   0.656   3.553   2.614  0.3674  0.0314  0.3778
18473TIP3    H176834   0.593   3.498   2.568  0.9331 -0.7413  0.5182
18473TIP3    H276835   0.679   3.622   2.550  0.4190 -0.4748 -0.1578
18474TIP3   OH276836   2.919   2.931   1.099 -0.3287 -0.7512 -0.0148
18474TIP3    H176837   2.958   2.876   1.167  0.4474 -3.0673 -2.2051
18474TIP3    H276838   2.838   2.886   1.076 -0.8087  0.2581 -0.3472
18475TIP3   OH276839   5.143   1.628  14.289 -0.7729 -0.3547  0.6830
18475TIP3    H176840   5.196   1.707  14.279  0.0946 -1.1305 -1.4074
18475TIP3    H276841   5.071   1.654  14.347 -1.6499  2.5410 -1.4940
18476TIP3   OH276842   3.734   3.812  15.815 -0.0703 -0.3536  0.3652
18476TIP3    H176843   3.764   3.875  15.880  0.0500 -0.4954  0.4472
18476TIP3    H276844   3.648   3.784  15.846  0.5472 -1.4208  1.1803
18477TIP3   OH276845   4.431   1.144  17.379  0.2022  0.5495  0.1937
18477TIP3    H176846   4.502   1.208  17.375  1.5978 -0.9711 -0.4640
18477TIP3    H276847   4.463   1.077  17.440 -1.0789  0.2820  0.6092
18478TIP3   OH276848   3.459   2.033   6.336  0.2151  0.3583 -0.6772
18478TIP3    H176849   3.533   1.973   6.339  0.0291  0.1480  1.4966
18478TIP3    H276850   3.498   2.120   6.328  0.8791  0.3927  1.9705
18479TIP3   OH276851   1.954   1.135  16.788  0.1215 -0.1446 -0.0589
18479TIP3    H176852   1.997   1.127  16.702 -1.6474  0.1162 -1.0197
18479TIP3    H276853   1.997   1.210  16.829 -0.4781  1.1695 -1.6943
18480TIP3   OH276854   2.716   4.496   2.364 -0.1405 -0.2612 -0.3571
18480TIP3    H176855   2.646   4.559   2.346 -0.3548 -0.7638 -1.3891
18480TIP3    H276856   2.697   4.463   2.452 -0.2783  0.7739  0.0133
18481TIP3   OH276857   5.746   1.358   0.434  0.3495 -0.2084 -0.3718
18481TIP3    H176858   5.829   1.405   0.438 -0.4633  1.3439 -0.8188
18481TIP3    H276859   5.763   1.282   0.378  1.6122 -0.2578  0.0663
18482TIP3   OH276860   2.509   0.768   1.688  0.2248 -0.1833  0.3971
18482TIP3    H176861   2.500   0.785   1.595  1.3710  0.6923  0.4192
18482TIP3    H276862   2.478   0.679   1.700  1.0261 -0.6683 -0.9943
18483TIP3   OH276863   3.000   5.668   5.194  0.2435 -0.3814 -0.2345
18483TIP3    H176864   2.992   5.762   5.209  0.8529 -0.3039 -0.3634
18483TIP3    H276865   2.911   5.635   5.203 -0.4783  0.5945 -2.7727
18484TIP3   OH276866   0.532   5.997  14.041 -0.4893 -0.6686 -0.1684
18484TIP3    H176867   0.539   5.902  14.049  1.6971 -0.6059 -0.6341
18484TIP3    H276868   0.534   6.014  13.947  0.6933 -0.1108 -0.0607
18485TIP3   OH276869   5.830   4.533   1.338 -0.1351  0.2220 -0.0793
18485TIP3    H176870   5.795   4.449   1.307 -0.0368 -0.0381  0.4895
18485TIP3    H276871   5.887   4.563   1.268 -1.7067  0.7929 -1.1498
18486TIP3   OH276872   4.714   1.317  11.168 -0.8031 -0.4882 -0.0721
18486TIP3    H176873   4.738   1.405  11.197 -1.0318 -0.9372  1.5294
18486TIP3    H276874   4.785   1.292  11.108 -1.5504  1.3706 -1.8284
18487TIP3   OH276875   2.478   1.732   1.134  0.0752  0.0775 -0.1778
18487TIP3    H176876   2.528   1.682   1.070 -0.4999 -1.9949  0.8839
18487TIP3    H276877   2.527   1.723   1.216 -1.0835 -0.5259  0.4859
18488TIP3   OH276878   1.646   4.876   4.542  0.3396 -0.3369  0.0477
18488TIP3    H176879   1.595   4.844   4.616  0.9746  3.2123  2.2548
18488TIP3    H276880   1.581   4.889   4.473 -1.0388  0.1362  1.3763
18489TIP3   OH276881   6.589   0.394  11.193 -0.1164  0.2298 -0.0655
18489TIP3    H176882   6.500   0.399  11.228 -0.9248  1.5087 -2.1358
18489TIP3    H276883   6.622   0.483  11.198  0.2694  0.1629 -1.1835
18490TIP3   OH276884   1.825   4.148  16.861  0.3070 -0.0283 -0.2882
18490TIP3    H176885   1.762   4.172  16.929  1.0248  1.3935 -0.0958
18490TIP3    H276886   1.865   4.230  16.834  1.2907 -0.7691 -1.2028
18491TIP3   OH276887   5.464   3.301  12.030 -0.3486  0.5718 -0.7630
18491TIP3    H176888   5.376   3.313  11.994 -0.1374  0.0688 -1.4689
18491TIP3    H276889   5.483   3.209  12.016 -0.5846  0.1401  1.4310
18492TIP3   OH276890   0.598   5.020   1.609  0.5587  0.1254  0.2213
18492TIP3    H176891   0.568   4.943   1.659 -0.3438  0.4645  0.2156
18492TIP3    H276892   0.629   5.081   1.676  1.9568 -0.4999  0.1908
18493TIP3   OH276893   6.058   3.287   4.358  0.1037 -1.1617 -0.3747
18493TIP3    H176894   6.011   3.204   4.362  0.0083 -1.0606  1.3841
18493TIP3    H276895   6.143   3.268   4.397 -0.0665 -0.3633  0.4228
18494TIP3   OH276896   1.474   6.535   1.076 -0.4600 -1.0973  0.1553
18494TIP3    H176897   1.490   6.527   1.169  1.0980 -0.1536  0.0068
18494TIP3    H276898   1.478   6.446   1.042 -1.0900 -1.4472  0.9733
18495TIP3   OH276899   2.742   0.500   1.381  0.2972  0.2343  0.3819
18495TIP3    H176900   2.798   0.492   1.459 -0.2170 -0.7674  0.6690
18495TIP3    H276901   2.733   0.410   1.349  0.9619  0.6971 -1.1943
18496TIP3   OH276902   6.602   2.408  13.386 -0.3540  0.2998  0.2678
18496TIP3    H176903   6.637   2.413  13.297  1.8536 -1.7854  0.9028
18496TIP3    H276904   6.587   2.499  13.411 -0.3222  0.9813 -1.9332
18497TIP3   OH276905   2.048   3.625   4.816 -0.3663 -0.4009 -0.2006
18497TIP3    H176906   2.105   3.614   4.739  0.8979 -1.0501  0.7934
18497TIP3    H276907   2.020   3.536   4.838  0.6448 -0.4338  1.0667
18498TIP3   OH276908   0.316   5.987  12.871  0.0907 -0.3837  0.1562
18498TIP3    H176909   0.221   5.988  12.882 -0.0256  1.7148 -0.5204
18498TIP3    H276910   0.349   6.045  12.940  0.6103  0.8606 -1.0798
18499TIP3   OH276911   4.976   1.355  10.614  0.1259 -0.5103 -0.9190
18499TIP3    H176912   5.016   1.281  10.659 -1.3317 -0.0310  1.3441
18499TIP3    H276913   5.041   1.426  10.623 -0.5499 -0.0985  1.5913
18500TIP3   OH276914   3.973   5.579   5.801  0.0858 -0.1846  0.5000
18500TIP3    H176915   3.969   5.675   5.799  0.3851 -0.1688 -1.7581
18500TIP3    H276916   4.063   5.560   5.828  0.5200  0.2283 -0.5907
18501TIP3   OH276917   3.612   1.067  15.889  0.5148 -0.3929  0.4881
18501TIP3    H176918   3.537   1.090  15.944  0.6573 -2.2981  1.5684
18501TIP3    H276919   3.682   1.047  15.951  0.9708 -1.6338 -0.3906
18502TIP3   OH276920   2.171   0.937  11.793  0.0642 -0.0020  0.1331
18502TIP3    H176921   2.157   0.850  11.829 -0.3656 -0.0450 -0.1301
18502TIP3    H276922   2.237   0.925  11.725 -0.2458 -0.1872 -0.1402
18503TIP3   OH276923   0.607   2.561  15.264  0.0549  0.6921  0.1175
18503TIP3    H176924   0.678   2.622  15.280  0.4772  0.6022 -1.3197
18503TIP3    H276925   0.581   2.531  15.351  0.9360  1.6603  0.7302
18504TIP3   OH276926   5.850   1.938  16.608  0.1870 -0.1900 -0.0679
18504TIP3    H176927   5.804   1.877  16.549  2.2618 -0.6334 -1.3199
18504TIP3    H276928   5.864   2.016  16.554 -1.8730  1.2335  1.3209
18505TIP3   OH276929   6.717   6.156   2.557 -0.6545 -0.1755  0.3566
18505TIP3    H176930   6.790   6.113   2.602  0.4657 -0.1642 -1.3321
18505TIP3    H276931   6.641   6.137   2.611  0.2491 -2.0155  1.0892
18506TIP3   OH276932   1.224   5.069  11.961  0.8886 -0.3167  0.2990
18506TIP3    H176933   1.240   5.097  11.871 -1.4148  2.6436  0.6562
18506TIP3    H276934   1.183   4.983  11.952  1.0946 -0.2774 -1.4165
18507TIP3   OH276935   4.037   0.491   1.713 -0.4291  0.0228 -0.2440
18507TIP3    H176936   4.029   0.512   1.620 -3.0479 -1.0300 -0.3542
18507TIP3    H276937   3.994   0.563   1.758 -0.1684 -0.0189  0.0752
18508TIP3   OH276938   6.004   3.490  12.407  0.9400  0.2569  0.4570
18508TIP3    H176939   6.086   3.522  12.445  1.4902 -0.8411  0.2407
18508TIP3    H276940   6.025   3.403  12.374 -0.9538 -1.2587  2.8572
18509TIP3   OH276941   3.219   0.682  14.224 -0.4910 -0.1004  0.6390
18509TIP3    H176942   3.207   0.741  14.149 -1.7526  0.1825  1.0433
18509TIP3    H276943   3.255   0.602  14.185  2.9049  1.4194  0.2705
18510TIP3   OH276944   5.751   1.017  12.493 -0.6631 -0.4921 -0.4429
18510TIP3    H176945   5.794   1.095  12.529 -0.2381 -0.4664 -0.9984
18510TIP3    H276946   5.804   0.993  12.417 -1.0025 -1.1087 -0.4926
18511TIP3   OH276947   1.937   1.045   0.114  0.6869  0.3189  0.4179
18511TIP3    H176948   1.916   0.965   0.162 -0.0345 -0.1702 -0.6769
18511TIP3    H276949   1.939   1.018   0.022  0.4076  1.5694  0.0289
18512TIP3   OH276950   5.843   4.553   1.980 -0.3252  0.6204  0.0209
18512TIP3    H176951   5.759   4.556   2.026  0.1469 -0.0695  0.9810
18512TIP3    H276952   5.821   4.522   1.892 -1.0785  0.4494  0.2617
18513TIP3   OH276953   0.276   0.202  11.347  0.0633 -0.6322 -0.1097
18513TIP3    H176954   0.261   0.161  11.262  0.6769 -1.2096  0.0550
18513TIP3    H276955   0.287   0.128  11.407  1.5468 -0.2367  0.1289
18514TIP3   OH276956   1.755   5.893  14.035 -0.3608 -0.3752 -0.7052
18514TIP3    H176957   1.736   5.800  14.043 -1.0357 -0.0985  1.6290
18514TIP3    H276958   1.671   5.936  14.049  0.3942  0.6277  1.0027
18515TIP3   OH276959   6.429   4.031   4.564 -0.5836 -0.0210 -0.8691
18515TIP3    H176960   6.425   4.121   4.596  0.8578  0.3515 -1.6495
18515TIP3    H276961   6.458   3.979   4.639 -0.1166  0.3886 -0.7629
18516TIP3   OH276962   2.169   1.966   0.724  0.2093 -0.6611 -0.8323
18516TIP3    H176963   2.179   2.059   0.746  0.8713 -0.8699 -0.2174
18516TIP3    H276964   2.186   1.963   0.630 -1.6331  0.0880 -1.2394
18517TIP3   OH276965   4.072   5.601   3.953  0.0277  0.5859 -0.3568
18517TIP3    H176966   4.157   5.640   3.934  0.5098  0.6526  1.7185
18517TIP3    H276967   4.082   5.563   4.041 -1.5848 -0.8695 -0.7548
18518TIP3   OH276968   5.265   0.770   0.755  0.2969 -0.4619  0.4073
18518TIP3    H176969   5.229   0.829   0.821 -0.4009 -0.0802 -0.3034
18518TIP3    H276970   5.310   0.702   0.805 -1.3096 -0.8875  1.3140
18519TIP3   OH276971   0.823   6.657  17.271  0.2117  0.3437 -0.8616
18519TIP3    H176972   0.887   6.727  17.280 -0.0986  0.4907  0.4810
18519TIP3    H276973   0.741   6.702  17.250 -0.1466  0.5038  0.7002
18520TIP3   OH276974   4.171   6.692  12.134 -0.2577 -0.3827 -0.3286
18520TIP3    H176975   4.228   6.644  12.195  0.5671  0.1576 -0.6525
18520TIP3    H276976   4.083   6.681  12.170 -0.0168 -1.5935 -0.0444
18521TIP3   OH276977   6.275   4.636  16.294 -0.0164 -0.3489  0.1497
18521TIP3    H176978   6.244   4.695  16.226  0.4583  0.2449  0.4408
18521TIP3    H276979   6.360   4.672  16.320 -0.8215  0.2842  2.0686
18522TIP3   OH276980   1.078   6.373  17.313  0.1287  0.3435 -0.9685
18522TIP3    H176981   0.991   6.411  17.329 -1.2303 -1.6853 -2.7957
18522TIP3    H276982   1.080   6.360  17.218  2.5217  0.4351 -0.9782
18523TIP3   OH276983   6.194   4.985   0.395 -0.0550 -0.0811 -0.2770
18523TIP3    H176984   6.272   5.005   0.344  0.6451  1.1033  1.1585
18523TIP3    H276985   6.121   5.002   0.336  0.7437  0.1081 -1.2286
18524TIP3   OH276986   0.094   4.106   2.293  0.2340 -0.3685  0.3205
18524TIP3    H176987   0.054   4.055   2.221  2.9776 -2.8019  0.3195
18524TIP3    H276988   0.163   4.157   2.250 -1.7859  2.7954  0.5043
18525TIP3   OH276989   0.127   2.406  15.985 -0.1222 -0.4508  0.0059
18525TIP3    H176990   0.178   2.484  15.964 -0.0290 -0.5449 -0.1196
18525TIP3    H276991   0.095   2.421  16.074 -0.0702 -0.2882 -0.0034
18526TIP3   OH276992   5.150   2.231   3.560 -0.0685 -0.7677 -0.0374
18526TIP3    H176993   5.058   2.219   3.584 -0.1455  1.8560  1.2660
18526TIP3    H276994   5.198   2.180   3.626 -0.5342 -1.2165 -0.0345
18527TIP3   OH276995   3.473   3.502  15.695 -0.3142 -0.3061  0.8395
18527TIP3    H176996   3.457   3.514  15.601 -2.4499  1.5441  1.3562
18527TIP3    H276997   3.564   3.473  15.700  0.3458  1.0142 -1.7294
18528TIP3   OH276998   0.878   1.176   6.050  0.1385 -0.8620 -0.2962
18528TIP3    H176999   0.917   1.208   6.131 -0.1224 -3.8254  1.1389
18528TIP3    H277000   0.819   1.246   6.022 -0.8430 -0.2825  2.8821
18529TIP3   OH277001   2.254   1.878   3.146  0.3568  0.3118 -0.0551
18529TIP3    H177002   2.308   1.951   3.117 -0.2754  0.9327  0.3010
18529TIP3    H277003   2.176   1.919   3.183  0.1413 -0.5327  0.4571
18530TIP3   OH277004   4.308   1.446   2.087 -0.4822  0.7050  0.2625
18530TIP3    H177005   4.301   1.533   2.128 -0.6060  0.6219  0.4193
18530TIP3    H277006   4.358   1.461   2.007 -3.0656  1.4613 -1.3251
18531TIP3   OH277007   2.011   4.401  15.760 -0.2471 -0.0763  0.1931
18531TIP3    H177008   2.023   4.387  15.666 -1.1807  0.3437 -0.0061
18531TIP3    H277009   1.920   4.374  15.777 -1.1681  2.7799  0.3447
18532TIP3   OH277010   2.790   4.044  13.933  0.2696  0.3914 -0.0355
18532TIP3    H177011   2.851   3.978  13.899 -0.0973  0.1927 -0.3249
18532TIP3    H277012   2.803   4.120  13.876  0.4017  0.4241  0.0387
18533TIP3   OH277013   2.056   3.981  15.473 -0.2715  0.5095  0.6487
18533TIP3    H177014   2.026   3.897  15.508  0.2309 -0.1426 -0.4322
18533TIP3    H277015   2.108   4.018  15.543 -1.9112  0.7427  1.7981
18534TIP3   OH277016   0.359   4.511   5.701 -0.3213  0.4440 -0.3725
18534TIP3    H177017   0.321   4.596   5.677 -0.1574  0.6025 -0.0615
18534TIP3    H277018   0.431   4.498   5.639  0.3824  1.0570  0.3077
18535TIP3   OH277019   2.087   0.607  11.697 -0.1642  0.2868 -0.0215
18535TIP3    H177020   2.173   0.584  11.731 -0.8029 -0.6448  1.0490
18535TIP3    H277021   2.038   0.634  11.775 -0.8333  0.8366 -0.6223
18536TIP3   OH277022   4.984   0.438  13.992  0.0639 -0.3901 -0.5479
18536TIP3    H177023   4.985   0.375  13.920 -2.2753  1.1079 -2.0301
18536TIP3    H277024   4.965   0.385  14.069 -0.1775 -1.6961 -1.4703
18537TIP3   OH277025   3.745   1.122   4.626  0.1004 -0.0582  0.1483
18537TIP3    H177026   3.720   1.111   4.534  2.5864  0.6446 -0.7061
18537TIP3    H277027   3.706   1.206   4.651 -1.2137 -0.6039  0.0078
18538TIP3   OH277028   5.599   2.381  13.688 -0.7231 -0.0547 -0.4900
18538TIP3    H177029   5.675   2.412  13.737 -0.5952  0.6725 -1.1298
18538TIP3    H277030   5.535   2.357  13.756  0.0436 -0.6018  0.0483
18539TIP3   OH277031   2.314   2.133  11.223 -0.2653 -0.3881 -0.1839
18539TIP3    H177032   2.328   2.062  11.160  0.9383  1.5906 -2.2944
18539TIP3    H277033   2.358   2.208  11.184 -1.5079  1.5565  1.9515
18540TIP3   OH277034   1.071   4.195  14.270  0.2876  0.3887  0.1088
18540TIP3    H177035   1.163   4.208  14.292  0.7241  0.8998 -1.8635
18540TIP3    H277036   1.040   4.281  14.243 -0.1830 -0.1723 -1.2244
18541TIP3   OH277037   0.007   1.771   0.289  0.0761 -0.1724  0.0230
18541TIP3    H177038   0.057   1.699   0.326  1.8260  1.6596  1.4678
18541TIP3    H277039   0.066   1.847   0.295 -2.0606  1.6345 -0.3539
18542TIP3   OH277040   0.934   4.840  13.676  0.4415  0.6982 -0.2672
18542TIP3    H177041   0.903   4.837  13.766 -1.1103 -3.5974 -0.7252
18542TIP3    H277042   0.856   4.856  13.624  0.5559 -0.9259 -0.9896
18543TIP3   OH277043   0.800   4.503  15.059 -0.5500 -0.0267 -0.4453
18543TIP3    H177044   0.881   4.513  15.010 -1.2544  0.7883 -1.4759
18543TIP3    H277045   0.753   4.586  15.046 -0.0560  0.9863  2.9763
18544TIP3   OH277046   4.498   0.697   5.484  0.6994  0.0912  0.2025
18544TIP3    H177047   4.534   0.785   5.484 -1.1291  0.8768  0.4045
18544TIP3    H277048   4.450   0.691   5.567  0.0209 -0.7587 -0.2393
18545TIP3   OH277049   5.216   5.729  11.890 -1.0096 -0.6642  0.5558
18545TIP3    H177050   5.289   5.785  11.917 -1.6987  0.3064  0.4723
18545TIP3    H277051   5.257   5.650  11.855 -0.0059 -0.1627  0.5791
18546TIP3   OH277052   3.202   0.168  16.430 -0.1411  0.1043 -0.6985
18546TIP3    H177053   3.107   0.180  16.432  0.0195  1.4689 -0.1866
18546TIP3    H277054   3.218   0.094  16.489 -0.7885  0.6911  0.2422
18547TIP3   OH277055   3.580   2.284   1.169 -0.1286 -0.3027  0.6074
18547TIP3    H177056   3.560   2.257   1.259  0.4421  0.9880  1.1599
18547TIP3    H277057   3.558   2.377   1.167 -0.6711 -0.4325 -0.7732
18548TIP3   OH277058   1.510   3.871  17.002  0.3198 -0.1909 -0.3366
18548TIP3    H177059   1.517   3.829  16.916  1.1822  0.0960 -0.4145
18548TIP3    H277060   1.554   3.810  17.061 -0.5913 -0.5649 -0.0249
18549TIP3   OH277061   3.185   4.649  15.931  0.3586 -0.4578 -0.4360
18549TIP3    H177062   3.221   4.584  15.871 -1.4274 -1.6496 -0.2712
18549TIP3    H277063   3.132   4.706  15.876  1.9539  0.9780 -0.5902
18550TIP3   OH277064   6.166   2.363   3.305  0.7594 -0.4738  0.7531
18550TIP3    H177065   6.107   2.300   3.347 -0.4355 -0.2015 -0.4547
18550TIP3    H277066   6.114   2.443   3.300  0.9299 -0.4453 -1.0477
18551TIP3   OH277067   5.003   6.142   6.591  0.0504  0.1543  0.4049
18551TIP3    H177068   4.972   6.101   6.672  0.2389  0.1517  0.4777
18551TIP3    H277069   5.086   6.097   6.573 -0.5900 -0.7121 -0.4655
18552TIP3   OH277070   3.573   3.369   5.148  0.2605 -0.1403 -0.1670
18552TIP3    H177071   3.594   3.309   5.219  0.9594  1.2629  0.8509
18552TIP3    H277072   3.657   3.410   5.125 -0.1254  0.1633 -1.1155
18553TIP3   OH277073   0.569   0.408  10.727 -0.4208 -0.2000 -0.2162
18553TIP3    H177074   0.507   0.363  10.669 -0.8213  0.8206 -0.6073
18553TIP3    H277075   0.649   0.356  10.721 -1.2354 -1.5875  0.3412
18554TIP3   OH277076   0.193   4.869  12.157  0.0398 -0.3370 -0.2433
18554TIP3    H177077   0.283   4.837  12.143  1.5069  1.6430  3.2229
18554TIP3    H277078   0.185   4.943  12.098  0.3493 -1.0339 -1.1867
18555TIP3   OH277079   0.040   4.781  16.678  1.1131 -0.0409  0.1906
18555TIP3    H177080   0.054   4.744  16.765  0.2840  0.4467  0.5499
18555TIP3    H277081   0.115   4.752  16.627  0.7544 -1.7790  0.5866
18556TIP3   OH277082   1.441   5.648  11.609  0.4662 -0.1087  0.1972
18556TIP3    H177083   1.422   5.673  11.518  0.4252  3.0985  0.9515
18556TIP3    H277084   1.536   5.658  11.617  0.2711  1.3960  0.9102
18557TIP3   OH277085   4.103   5.241   4.978 -0.0982 -0.4188  0.3145
18557TIP3    H177086   4.174   5.243   5.043 -1.3696 -0.7367  1.7721
18557TIP3    H277087   4.141   5.193   4.904  2.6285  3.0095 -0.8311
18558TIP3   OH277088   2.731   4.751  12.894 -0.0846  0.2489  0.2086
18558TIP3    H177089   2.706   4.659  12.900 -2.0265  0.8102  1.8084
18558TIP3    H277090   2.650   4.799  12.910  0.4922  2.2956 -2.3166
18559TIP3   OH277091   2.960   2.191   1.155 -0.2144 -0.0045  0.1683
18559TIP3    H177092   2.965   2.247   1.078 -0.8386 -0.7922 -0.4587
18559TIP3    H277093   2.954   2.102   1.120 -0.5131 -0.3744  1.1282
18560TIP3   OH277094   2.230   3.024   1.485 -0.0757  0.3264  0.3159
18560TIP3    H177095   2.268   3.109   1.507 -1.0412  0.6013  0.9648
18560TIP3    H277096   2.216   2.981   1.569 -1.1292  0.2071  0.0925
18561TIP3   OH277097   4.597   3.081   3.737 -0.0659  0.3635 -0.1629
18561TIP3    H177098   4.641   3.141   3.676  0.3197  0.9159  0.6449
18561TIP3    H277099   4.658   3.007   3.746  0.2443  0.6536  0.1639
18562TIP3   OH277100   4.983   4.534  16.561 -0.1825  0.6202 -0.6406
18562TIP3    H177101   4.960   4.625  16.578  1.1580  0.7299  0.8971
18562TIP3    H277102   5.031   4.506  16.639  0.0057 -1.2125 -1.3419
18563TIP3   OH277103   1.529   4.306  16.717 -0.3889  0.1626  0.2626
18563TIP3    H177104   1.538   4.275  16.807  1.9158  0.0920  0.0793
18563TIP3    H277105   1.495   4.395  16.725 -0.1213  0.1887  1.2033
18564TIP3   OH277106   2.854   0.264   5.781 -0.3432 -0.8610  0.2528
18564TIP3    H177107   2.887   0.186   5.736 -0.1917  0.2814 -1.7712
18564TIP3    H277108   2.903   0.337   5.741 -1.5815  0.4021  0.9453
18565TIP3   OH277109   6.050   3.004   1.221  0.1250  0.1640  0.0162
18565TIP3    H177110   5.968   2.964   1.191 -0.3784  1.1537  0.0453
18565TIP3    H277111   6.108   2.998   1.145  0.0298 -0.5213 -0.0155
18566TIP3   OH277112   6.435   1.662   0.563 -0.7363  0.3499 -0.0830
18566TIP3    H177113   6.422   1.568   0.570 -0.9155  0.1751 -2.1845
18566TIP3    H277114   6.519   1.678   0.607 -0.6747 -0.7978  0.2391
18567TIP3   OH277115   0.053   2.451   1.879 -0.2353  0.5036 -0.3653
18567TIP3    H177116   0.082   2.531   1.835  2.7766 -0.0374  0.3736
18567TIP3    H277117   0.064   2.469   1.972 -1.9013  0.0217 -0.0543
18568TIP3   OH277118   1.911   5.044  13.120  0.1196  0.2630  0.1629
18568TIP3    H177119   1.871   4.962  13.092  1.4746 -0.1716 -0.6029
18568TIP3    H277120   2.005   5.032  13.104  0.4761  1.5579  1.0633
18569TIP3   OH277121   6.071   5.121   2.076  0.2840 -0.6664  0.0940
18569TIP3    H177122   6.164   5.098   2.088  0.6809 -0.2641 -1.8758
18569TIP3    H277123   6.072   5.187   2.007 -1.4476 -0.2486  0.4342
18570TIP3   OH277124   3.929   0.209   0.482 -0.0776 -0.4999 -0.8310
18570TIP3    H177125   3.969   0.125   0.505  0.1921 -0.1321  0.0985
18570TIP3    H277126   3.996   0.254   0.431 -0.7783 -1.4294 -2.6419
18571TIP3   OH277127   2.713   4.046   5.907  0.6508  0.1965 -0.2469
18571TIP3    H177128   2.658   4.082   5.976  0.3608 -3.5174  1.7162
18571TIP3    H277129   2.802   4.072   5.932  0.3751  0.5011  0.4538
18572TIP3   OH277130   2.236   6.054   5.935  0.5551 -0.0282 -0.6584
18572TIP3    H177131   2.228   6.137   5.982  1.3399 -0.2204 -0.1748
18572TIP3    H277132   2.286   5.998   5.994  1.1966 -0.4121 -1.5451
18573TIP3   OH277133   2.278   5.734   0.284 -0.5882 -0.0267 -0.1953
18573TIP3    H177134   2.328   5.816   0.281 -0.1414 -0.2892  0.0166
18573TIP3    H277135   2.229   5.740   0.367 -2.2749  1.0107 -1.2101
18574TIP3   OH277136   5.995   1.519  11.457 -0.1371 -0.0747  0.0194
18574TIP3    H177137   6.085   1.531  11.429  0.0865  0.6161  0.9852
18574TIP3    H277138   5.950   1.486  11.379  1.2319 -1.8274 -0.0894
18575TIP3   OH277139   0.264   1.445  13.347  0.1561  0.2064  0.1106
18575TIP3    H177140   0.176   1.469  13.317  0.7867  1.4103 -0.9011
18575TIP3    H277141   0.297   1.524  13.390  0.7194 -0.2476  0.5214
18576TIP3   OH277142   5.943   5.328  14.206  0.2329 -0.4480  0.5361
18576TIP3    H177143   5.890   5.330  14.126  0.8040  2.8744  0.0927
18576TIP3    H277144   5.917   5.247  14.250 -0.5414 -2.1210 -2.6887
18577TIP3   OH277145   6.166   5.483   5.556  0.1170 -0.4170  0.2617
18577TIP3    H177146   6.185   5.571   5.523  1.7950 -0.6182  0.5866
18577TIP3    H277147   6.167   5.492   5.652 -0.4758 -0.6487  0.2958
18578TIP3   OH277148   0.595   1.480  15.889  0.5163  0.4432 -0.9660
18578TIP3    H177149   0.687   1.502  15.899  0.0981  2.3858 -1.1423
18578TIP3    H277150   0.549   1.539  15.949 -0.7324  0.6092 -2.0509
18579TIP3   OH277151   2.974   3.021   4.931  0.2679 -0.7680  0.1236
18579TIP3    H177152   3.061   2.984   4.939  0.6841 -0.1853 -1.3819
18579TIP3    H277153   2.988   3.112   4.905 -0.7781 -0.2920  1.1116
18580TIP3   OH277154   1.015   4.500  17.056  0.2337  0.0077 -0.4819
18580TIP3    H177155   0.991   4.579  17.104  1.1666  0.0635 -0.0771
18580TIP3    H277156   0.989   4.428  17.113  0.8573  0.0644 -0.1120
18581TIP3   OH277157   6.483   3.687  15.170 -0.4456  0.0409 -0.7892
18581TIP3    H177158   6.406   3.643  15.207  0.0190 -0.9071 -0.9158
18581TIP3    H277159   6.466   3.780  15.183 -1.1448 -0.1988  0.1196
18582TIP3   OH277160   0.885   1.382  13.976 -0.7159  0.1645  0.0894
18582TIP3    H177161   0.930   1.353  14.055  0.9698 -0.3438 -1.0021
18582TIP3    H277162   0.941   1.452  13.941 -0.6911 -0.5476 -1.3546
18583TIP3   OH277163   1.366   3.992  10.813 -0.1359 -0.2421 -0.0321
18583TIP3    H177164   1.358   3.901  10.784 -0.4502 -0.5869  1.1053
18583TIP3    H277165   1.443   4.024  10.766 -1.0584 -0.5290 -1.8253
18584TIP3   OH277166   4.593   2.713   2.021  0.3168  0.1522 -0.2429
18584TIP3    H177167   4.596   2.663   2.103  0.2909 -0.6879 -0.7416
18584TIP3    H277168   4.676   2.692   1.977  0.3634  0.6574 -0.4043
18585TIP3   OH277169   6.618   2.312  11.040  0.0736 -0.2632 -0.2868
18585TIP3    H177170   6.627   2.220  11.067  1.7737 -1.2395 -3.6406
18585TIP3    H277171   6.705   2.349  11.052 -0.7436  1.2211  1.6433
18586TIP3   OH277172   3.817   6.321   1.321  0.0516 -0.8017 -0.0290
18586TIP3    H177173   3.861   6.293   1.240  0.7856  3.7133 -1.4812
18586TIP3    H277174   3.888   6.353   1.377 -0.6246 -2.3163  1.8081
18587TIP3   OH277175   2.958   0.655   0.433 -0.7076 -0.2218 -0.3322
18587TIP3    H177176   2.929   0.718   0.499 -0.0463  1.7358 -1.8097
18587TIP3    H277177   2.979   0.576   0.483  1.8914  1.8278  2.1819
18588TIP3   OH277178   5.872   5.407  16.449  0.1283 -0.6924  0.5769
18588TIP3    H177179   5.802   5.410  16.384  0.4651  0.4454  0.2309
18588TIP3    H277180   5.839   5.350  16.518 -0.5754 -1.2558 -0.2097
18589TIP3   OH277181   4.255   3.953  17.313  0.4640 -0.1751  0.2127
18589TIP3    H177182   4.237   3.997  17.396  0.8172  1.5868 -0.5878
18589TIP3    H277183   4.169   3.931  17.278  0.2761 -0.1008  0.6223
18590TIP3   OH277184   4.218   5.266   1.633 -0.3388 -0.3378  0.0031
18590TIP3    H177185   4.276   5.342   1.624 -1.7818  0.7266 -0.8368
18590TIP3    H277186   4.167   5.265   1.552 -2.8036 -0.0475  1.4444
18591TIP3   OH277187   6.469   4.413  11.757 -0.3936  0.0536  0.1220
18591TIP3    H177188   6.553   4.410  11.710  0.3902  1.1907  1.3734
18591TIP3    H277189   6.429   4.495  11.728 -1.7062 -1.0642 -1.4188
18592TIP3   OH277190   6.464   3.415  13.817  0.8025  0.2184  0.1312
18592TIP3    H177191   6.539   3.450  13.863  1.0332 -0.4300  0.2613
18592TIP3    H277192   6.501   3.357  13.751  0.4801  1.1702 -0.9149
18593TIP3   OH277193   4.668   0.902   4.378  0.1202  1.0979  0.3987
18593TIP3    H177194   4.596   0.855   4.336 -0.4382  1.6678  0.6908
18593TIP3    H277195   4.687   0.975   4.319  2.6436 -0.8002 -1.3058
18594TIP3   OH277196   3.059   6.377   5.735 -0.0656 -0.1685  0.2841
18594TIP3    H177197   3.080   6.470   5.743 -1.2037  0.0653  0.6115
18594TIP3    H277198   3.107   6.335   5.807 -2.1301  0.6059  2.1973
18595TIP3   OH277199   5.980   0.545   4.561  0.1376 -0.2105 -0.3798
18595TIP3    H177200   5.967   0.458   4.523  0.2517 -0.8224  0.9226
18595TIP3    H277201   6.060   0.536   4.613 -0.6899  0.2213  1.0155
18596TIP3   OH277202   5.533   5.810   2.861 -0.3858 -0.5460  0.1028
18596TIP3    H177203   5.477   5.883   2.834  0.0895 -0.1063  0.2917
18596TIP3    H277204   5.523   5.745   2.791 -0.1630  0.0484 -0.4881
18597TIP3   OH277205   3.660   1.317   5.733 -0.5635 -0.1533 -0.3162
18597TIP3    H177206   3.664   1.327   5.638 -0.3347  0.5226 -0.2479
18597TIP3    H277207   3.589   1.375   5.760 -0.6116 -0.3262 -0.0727
18598TIP3   OH277208   0.797   5.611   5.015  0.1560 -0.8883 -0.3739
18598TIP3    H177209   0.783   5.608   5.109  1.8409 -0.1599 -0.0725
18598TIP3    H277210   0.861   5.541   4.998 -0.3060 -1.1651 -1.0185
18599TIP3   OH277211   3.633   3.406   1.605  0.5017  0.1633  0.3027
18599TIP3    H177212   3.607   3.384   1.694  1.0112  0.9028  0.6420
18599TIP3    H277213   3.639   3.502   1.604 -1.3342  0.3210 -1.0385
18600TIP3   OH277214   1.189   1.002  12.427 -0.6065  0.7653  0.5835
18600TIP3    H177215   1.121   0.947  12.465  0.0779 -0.1193  0.5400
18600TIP3    H277216   1.216   0.956  12.348  1.8307 -0.2583  1.9017
18601TIP3   OH277217   1.469   5.054  15.478 -0.1285  0.4195  0.2912
18601TIP3    H177218   1.504   5.109  15.407  0.6782  0.7166  0.9077
18601TIP3    H277219   1.376   5.076  15.480 -0.1757  0.3745 -0.7026
18602TIP3   OH277220   1.479   4.125  14.584 -0.2493  0.5530  0.0751
18602TIP3    H177221   1.420   4.055  14.611  2.2308 -1.5751  0.3325
18602TIP3    H277222   1.527   4.148  14.663 -0.4277  2.0022 -0.2073
18603TIP3   OH277223   2.778   5.198   2.407 -0.6668  0.0905 -0.2657
18603TIP3    H177224   2.730   5.242   2.338 -0.5642  0.6872  0.0289
18603TIP3    H277225   2.722   5.126   2.434  0.3847 -1.7818 -2.7084
18604TIP3   OH277226   4.775   3.746  15.499  0.5978 -0.2263 -0.1366
18604TIP3    H177227   4.705   3.758  15.434  1.3766  1.2484 -0.7410
18604TIP3    H277228   4.816   3.832  15.506  1.3829 -0.6964  1.3486
18605TIP3   OH277229   5.953   1.840  12.677  0.0922  0.3407 -0.2767
18605TIP3    H177230   5.961   1.884  12.593 -2.4102  0.1088 -0.7104
18605TIP3    H277231   5.888   1.890  12.725 -0.3121 -0.9321  0.5592
18606TIP3   OH277232   4.701   5.700  16.681 -0.1622  0.3145  0.6072
18606TIP3    H177233   4.792   5.703  16.709 -0.3401 -1.3277  1.4947
18606TIP3    H277234   4.651   5.727  16.758 -0.4721  0.4017  0.3807
18607TIP3   OH277235   3.731   4.597   3.019 -0.0890 -0.4937  0.0031
18607TIP3    H177236   3.745   4.575   3.111  1.6598  0.4879  0.0078
18607TIP3    H277237   3.714   4.513   2.976  1.3532 -1.2528  0.8539
18608TIP3   OH277238   3.866   4.139  15.660 -0.1462  0.0496  0.0566
18608TIP3    H177239   3.832   4.102  15.579 -0.9827  1.8465 -0.4730
18608TIP3    H277240   3.937   4.197  15.632  0.0930  0.0668  0.6868
18609TIP3   OH277241   1.731   1.368  12.239  0.0685  0.3524 -0.4829
18609TIP3    H177242   1.728   1.348  12.145 -0.1203  0.4965 -0.5083
18609TIP3    H277243   1.753   1.461  12.243  2.2169 -0.1099 -0.3406
18610TIP3   OH277244   5.419   2.852  10.654 -0.1858 -0.4620 -0.3873
18610TIP3    H177245   5.480   2.779  10.650 -0.7154 -1.0769  1.7874
18610TIP3    H277246   5.474   2.929  10.639  0.6492 -1.1655 -1.0781
18611TIP3   OH277247   4.598   4.964   4.890 -0.4235 -0.8468 -0.2945
18611TIP3    H177248   4.525   5.025   4.894 -1.1225 -1.7420  1.6530
18611TIP3    H277249   4.559   4.882   4.861 -0.1773 -1.2706  0.5354
18612TIP3   OH277250   6.267   6.491   0.492  0.1377  0.2130  0.1595
18612TIP3    H177251   6.252   6.489   0.587 -0.5108  0.4891  0.0679
18612TIP3    H277252   6.223   6.571   0.463  0.4760  0.2126 -0.3506
18613TIP3   OH277253   6.731   3.809  14.577  0.6675 -0.1644  0.2006
18613TIP3    H177254   6.703   3.726  14.615 -0.5428 -0.0853 -0.4693
18613TIP3    H277255   6.737   3.870  14.650 -0.3370 -0.3487  0.4396
18614TIP3   OH277256   3.434   4.291  16.622 -0.7499  0.3561  0.4795
18614TIP3    H177257   3.415   4.285  16.716  2.1038 -0.1420  1.1271
18614TIP3    H277258   3.442   4.200  16.594 -1.3698  0.5119 -0.2120
18615TIP3   OH277259   5.636   1.023  14.451 -0.1101  0.4920  0.3160
18615TIP3    H177260   5.693   1.074  14.394 -0.3164 -0.2873 -0.6006
18615TIP3    H277261   5.634   1.073  14.533  2.3060  0.2836  0.5745
18616TIP3   OH277262   6.467   1.670   4.770 -0.1094 -0.0257 -0.0159
18616TIP3    H177263   6.497   1.688   4.860  0.8210 -0.6708 -0.1781
18616TIP3    H277264   6.373   1.686   4.773  0.1427  1.5869  0.6568
18617TIP3   OH277265   2.765   2.123   2.951  0.0145 -0.1990 -0.0808
18617TIP3    H177266   2.782   2.035   2.983  1.6664  0.1980  0.1829
18617TIP3    H277267   2.784   2.180   3.025  0.0150  0.4575 -0.5795
18618TIP3   OH277268   4.922   1.225  11.830  0.7931  0.3991  0.0595
18618TIP3    H177269   4.849   1.246  11.771  0.1336  0.4573  0.8770
18618TIP3    H277270   4.965   1.309  11.846  0.9237  0.3962 -0.2736
18619TIP3   OH277271   2.740   2.467  16.369 -0.5580  0.3318 -0.3469
18619TIP3    H177272   2.657   2.514  16.374 -0.3840  0.4975  1.4620
18619TIP3    H277273   2.787   2.509  16.296 -2.3280 -0.2813 -1.9317
18620TIP3   OH277274   4.500   3.944  13.538 -0.0700 -0.5406  0.0443
18620TIP3    H177275   4.438   3.929  13.609  0.8014 -1.1691  0.7008
18620TIP3    H277276   4.460   4.012  13.485 -0.7041  0.0006  1.1791
18621TIP3   OH277277   1.163   2.119  14.258  0.8206  0.7079 -0.2835
18621TIP3    H177278   1.106   2.196  14.258  0.8529  0.7913  1.8282
18621TIP3    H277279   1.173   2.096  14.350  1.9362 -1.0165 -0.7723
18622TIP3   OH277280   3.304   3.350   5.338  0.0949  0.1384 -0.3941
18622TIP3    H177281   3.230   3.402   5.306 -0.5569  0.7812  1.9305
18622TIP3    H277282   3.278   3.322   5.426  1.9023 -1.1301 -0.1957
18623TIP3   OH277283   3.190   0.896  16.833  0.3141 -0.0567  0.9368
18623TIP3    H177284   3.210   0.805  16.857 -3.1159 -1.1164  0.4559
18623TIP3    H277285   3.134   0.927  16.905 -0.7435  0.7000 -0.1865
18624TIP3   OH277286   2.569   5.080   4.968 -0.2698 -0.0863 -0.0688
18624TIP3    H177287   2.500   5.092   4.903 -1.6445 -0.8435  1.1962
18624TIP3    H277288   2.523   5.059   5.049  1.4782 -1.8011  0.5684
18625TIP3   OH277289   1.124   2.802   1.131  0.2032  0.1768 -0.0423
18625TIP3    H177290   1.118   2.829   1.223  2.3948 -1.0465  0.5367
18625TIP3    H277291   1.092   2.711   1.131  1.6355 -0.3540 -0.1481
18626TIP3   OH277292   5.348   4.935  15.187  0.1592  0.0960  0.2044
18626TIP3    H177293   5.435   4.895  15.183 -0.1628 -0.6689  0.5851
18626TIP3    H277294   5.313   4.924  15.098  0.4512  0.4140  0.0474
18627TIP3   OH277295   6.131   1.213   2.741 -0.0476  0.0883  0.2016
18627TIP3    H177296   6.209   1.181   2.695 -0.3117 -0.4668  0.1336
18627TIP3    H277297   6.074   1.247   2.672  0.5105  1.3383  0.3298
18628TIP3   OH277298   5.708   0.588   1.344  0.1358 -0.3545 -0.0590
18628TIP3    H177299   5.618   0.589   1.376  0.1154 -0.2599 -0.1203
18628TIP3    H277300   5.752   0.525   1.400 -0.0309 -0.5967 -0.2024
18629TIP3   OH277301   1.363   0.124  15.786 -0.3956 -0.1721 -0.6860
18629TIP3    H177302   1.382   0.050  15.729  2.1022 -0.1195 -0.0554
18629TIP3    H277303   1.271   0.112  15.811 -0.0912 -3.1098 -0.5630
18630TIP3   OH277304   0.524   4.203  15.520 -0.2590 -0.2619 -0.0400
18630TIP3    H177305   0.481   4.196  15.435  0.7390  0.1075 -0.5856
18630TIP3    H277306   0.559   4.115  15.537  0.8285  0.0156 -0.7255
18631TIP3   OH277307   1.365   4.410   5.287  0.2635 -0.0577  0.7395
18631TIP3    H177308   1.416   4.405   5.206  0.1452 -1.1271  0.7179
18631TIP3    H277309   1.376   4.324   5.328 -1.7878 -0.4579  0.5675
18632TIP3   OH277310   5.514   4.714   2.870  0.2884  0.3226 -0.4102
18632TIP3    H177311   5.522   4.762   2.953 -0.2462  0.6855 -0.5652
18632TIP3    H277312   5.495   4.781   2.805 -1.7112 -0.1951 -0.4337
18633TIP3   OH277313   5.396   0.773   4.796  0.1536 -0.2123 -0.4194
18633TIP3    H177314   5.479   0.734   4.823  0.5201 -0.2097 -1.4626
18633TIP3    H277315   5.402   0.864   4.824 -0.6394 -0.8089  1.8863
18634TIP3   OH277316   6.656   0.441   0.707 -0.1900 -0.4997  0.3888
18634TIP3    H177317   6.697   0.364   0.667 -0.2655 -1.6749  2.4377
18634TIP3    H277318   6.730   0.495   0.737 -0.1454 -0.2903 -0.0854
18635TIP3   OH277319   5.657   4.973   6.241 -0.1405  0.1132 -0.3648
18635TIP3    H177320   5.668   4.968   6.146 -3.4690 -0.9533 -0.8165
18635TIP3    H277321   5.714   4.905   6.276 -0.1915 -0.6581 -1.7397
18636TIP3   OH277322   4.714   0.872   4.903 -0.4429  0.1421  0.3609
18636TIP3    H177323   4.659   0.902   4.975 -1.3600 -0.4343 -0.0756
18636TIP3    H277324   4.767   0.948   4.878  0.5064  0.1272  2.1769
18637TIP3   OH277325   0.776   4.230  11.976  0.0393  0.8266 -0.2980
18637TIP3    H177326   0.785   4.196  12.065  0.2835 -3.8413 -1.8029
18637TIP3    H277327   0.712   4.172  11.935 -0.0317  2.7690 -3.2179
18638TIP3   OH277328   4.093   3.533  12.136 -0.0310 -0.4692 -0.1254
18638TIP3    H177329   4.059   3.574  12.057  0.9857 -0.0940 -0.3961
18638TIP3    H277330   4.051   3.580  12.208  0.7920  0.8058 -0.4388
18639TIP3   OH277331   1.515   5.247  13.186  0.1780  0.1983 -1.0297
18639TIP3    H177332   1.462   5.315  13.146  0.9375 -0.0783 -2.5999
18639TIP3    H277333   1.568   5.213  13.114  0.3676 -1.5231 -0.1301
18640TIP3   OH277334   0.953   1.404   6.192 -0.2651 -0.1369 -0.1708
18640TIP3    H177335   0.906   1.346   6.251 -0.3177  1.9151  1.9654
18640TIP3    H277336   0.887   1.466   6.162  0.3067  0.4905 -0.1682
18641TIP3   OH277337   4.753   2.710   2.538 -0.4608  0.7365  0.6086
18641TIP3    H177338   4.677   2.653   2.547 -0.4526  0.2657 -1.6115
18641TIP3    H277339   4.732   2.766   2.463  1.1312  0.9439  0.2711
18642TIP3   OH277340   3.310   0.944  11.486 -0.1269 -0.2453 -0.5080
18642TIP3    H177341   3.402   0.930  11.461  0.4920  0.8788  0.9955
18642TIP3    H277342   3.295   0.883  11.558 -1.1995 -1.8066 -1.9632
18643TIP3   OH277343   1.316   0.852   0.497 -0.0839 -0.1152 -0.1325
18643TIP3    H177344   1.291   0.763   0.471  1.9258 -0.6946 -0.3104
18643TIP3    H277345   1.259   0.872   0.571 -0.6974 -1.4851 -0.1979
18644TIP3   OH277346   4.334   6.499   1.406  0.2931 -0.3157  0.2621
18644TIP3    H177347   4.250   6.477   1.445 -0.2120 -0.4958 -0.8754
18644TIP3    H277348   4.376   6.414   1.391 -0.4431 -0.3987 -1.5285
18645TIP3   OH277349   3.434   1.473  11.536  0.3386  0.5564  0.4068
18645TIP3    H177350   3.386   1.511  11.611 -0.2709  2.6386 -0.9388
18645TIP3    H277351   3.452   1.548  11.480 -0.3175 -1.0840 -2.1490
18646TIP3   OH277352   3.881   6.101  17.292 -0.3019 -0.4206 -0.1745
18646TIP3    H177353   3.812   6.067  17.235  1.7877 -0.8268 -2.6330
18646TIP3    H277354   3.955   6.041  17.280  1.0507  0.9125  1.0493
18647TIP3   OH277355   4.994   1.785   3.341 -0.1751 -0.2902  0.2521
18647TIP3    H177356   5.005   1.851   3.273 -0.5427  0.9606  1.3649
18647TIP3    H277357   5.046   1.817   3.414 -1.0724 -0.7749  1.1227
18648TIP3   OH277358   3.995   2.428  12.002 -0.9071 -0.6554  0.3044
18648TIP3    H177359   4.027   2.388  12.083  0.5283 -0.0372  0.0837
18648TIP3    H277360   4.070   2.479  11.969 -2.6107  2.3396  0.6584
18649TIP3   OH277361   1.078   4.796  11.655 -0.7041 -0.5884 -0.9909
18649TIP3    H177362   1.159   4.777  11.608  1.1684 -0.9392  2.0505
18649TIP3    H277363   1.035   4.711  11.665 -1.4219 -0.4236 -2.4849
18650TIP3   OH277364   3.255   0.606  13.719 -0.7930 -0.2718 -0.3218
18650TIP3    H177365   3.306   0.604  13.800 -0.4916  4.2486 -0.1293
18650TIP3    H277366   3.164   0.610  13.748 -0.8305 -0.8532 -0.3438
18651TIP3   OH277367   3.487   4.190  12.744  0.1041 -0.0843  0.0281
18651TIP3    H177368   3.507   4.284  12.737 -0.5677  0.0509 -0.1285
18651TIP3    H277369   3.504   4.170  12.836  1.4616 -0.1023 -0.2100
18652TIP3   OH277370   5.966   5.886   3.733 -0.6010 -0.2846 -0.1857
18652TIP3    H177371   5.934   5.961   3.683  0.9070  0.5258  0.0167
18652TIP3    H277372   6.043   5.919   3.780 -0.2006 -1.8309  0.3055
18653TIP3   OH277373   1.780   3.051  14.109 -0.5759 -0.3360  0.4548
18653TIP3    H177374   1.701   2.997  14.116 -0.7824  0.1402  2.7661
18653TIP3    H277375   1.834   3.006  14.044 -2.3679 -1.1497 -0.5384
18654TIP3   OH277376   0.848   6.083   0.914  0.6153 -0.7621 -0.1762
18654TIP3    H177377   0.858   5.988   0.922 -0.0925 -0.8029  0.3270
18654TIP3    H277378   0.776   6.094   0.852 -0.0260 -0.5835  0.5810
18655TIP3   OH277379   5.383   3.067  14.713  0.1387  0.5192  0.4452
18655TIP3    H177380   5.368   3.108  14.628 -0.2896 -1.2109 -0.3496
18655TIP3    H277381   5.302   3.020  14.732  0.8080 -0.4252  1.0549
18656TIP3   OH277382   4.989   0.606   1.661  0.1937 -0.5979  0.1284
18656TIP3    H177383   4.917   0.568   1.611  0.6333 -0.2071 -0.8113
18656TIP3    H277384   4.964   0.591   1.753 -0.1526 -2.1950 -0.1903
18657TIP3   OH277385   5.092   1.846   6.117  0.4808  0.1056  0.8971
18657TIP3    H177386   5.069   1.920   6.173 -2.0503  1.0026 -1.0982
18657TIP3    H277387   5.010   1.798   6.107  0.8602 -0.1521 -1.7489
18658TIP3   OH277388   0.114   6.123  12.580  0.4828 -0.2327  0.0168
18658TIP3    H177389   0.177   6.051  12.573  1.9881  1.0791 -0.5220
18658TIP3    H277390   0.167   6.202  12.591 -1.0830  0.8857  0.0298
18659TIP3   OH277391   5.145   4.436  14.894 -0.6454  0.4430  0.2737
18659TIP3    H177392   5.195   4.497  14.840 -1.1542  0.5564 -0.0811
18659TIP3    H277393   5.127   4.362  14.836 -1.5885  0.7675  0.1388
18660TIP3   OH277394   0.761   0.153  12.594 -0.3821 -0.0133 -0.5626
18660TIP3    H177395   0.720   0.175  12.511 -0.4699  2.7209  0.0891
18660TIP3    H277396   0.733   0.222  12.654 -1.0375 -2.3442  2.0316
18661TIP3   OH277397   2.978   4.729   3.129 -0.3734 -0.4343 -0.1799
18661TIP3    H177398   3.002   4.755   3.218  2.8537 -1.2057 -0.7088
18661TIP3    H277399   3.048   4.671   3.101 -2.1206 -1.5124 -2.7050
18662TIP3   OH277400   5.946   0.929  17.039  0.3878 -0.0397  0.1676
18662TIP3    H177401   5.995   0.854  17.073  0.1945 -0.0844  0.3442
18662TIP3    H277402   6.011   0.979  16.990  0.3475 -0.7334 -0.6166
18663TIP3   OH277403   6.170   5.767   3.220  0.6612  0.1161 -0.5324
18663TIP3    H177404   6.265   5.758   3.232  0.8758 -1.2501 -2.6717
18663TIP3    H277405   6.137   5.677   3.223 -0.8270  0.6544  1.5350
18664TIP3   OH277406   1.115   3.787   1.899 -0.1739  0.0579  0.0573
18664TIP3    H177407   1.070   3.805   1.982 -1.2092 -0.6205 -0.3449
18664TIP3    H277408   1.177   3.717   1.920 -0.3557 -0.0365  0.2817
18665TIP3   OH277409   1.859   0.816  11.550 -0.8360 -0.1237  0.5941
18665TIP3    H177410   1.847   0.906  11.519 -1.2149  0.0850  1.3072
18665TIP3    H277411   1.819   0.816  11.637 -0.5283 -0.8949  0.7421
18666TIP3   OH277412   2.369   6.676   1.526 -0.5438  0.1534 -0.3553
18666TIP3    H177413   2.293   6.655   1.471 -1.1684  0.2356  0.4608
18666TIP3    H277414   2.340   6.748   1.581 -0.6552 -1.2470  1.5371
18667TIP3   OH277415   4.991   0.918  11.873  0.6505 -0.0485 -0.1525
18667TIP3    H177416   5.017   0.908  11.782 -2.2977 -0.0508 -1.0675
18667TIP3    H277417   4.973   1.012  11.883  0.7420 -0.0809  0.3878
18668TIP3   OH277418   2.908   1.063   6.328 -0.0875 -0.4573 -0.7366
18668TIP3    H177419   2.929   1.057   6.421 -0.7022 -1.7828 -0.6674
18668TIP3    H277420   2.991   1.046   6.283  0.5694  1.7288 -0.4615
18669TIP3   OH277421   1.194   1.857  15.224  0.0704 -0.4888 -0.5424
18669TIP3    H177422   1.225   1.865  15.315 -1.3477 -1.1289  0.0256
18669TIP3    H277423   1.128   1.788  15.227  1.4392 -2.0082 -2.4672
18670TIP3   OH277424   6.722   1.655  14.659  0.3952 -0.1372 -0.2720
18670TIP3    H177425   6.696   1.587  14.720 -0.6338 -0.7220 -1.3236
18670TIP3    H277426   6.799   1.619  14.615 -0.0524 -0.5747 -0.7129
18671TIP3   OH277427   2.731   2.598   5.004  0.4358 -0.1374 -0.5422
18671TIP3    H177428   2.649   2.595   4.954 -0.4509 -1.2976  0.9084
18671TIP3    H277429   2.778   2.674   4.969 -1.7587  1.2428 -0.6604
18672TIP3   OH277430   5.521   5.326  13.735 -0.4640  0.4305  0.1453
18672TIP3    H177431   5.596   5.310  13.793 -0.1207  0.7212 -0.2063
18672TIP3    H277432   5.447   5.284  13.778  0.0193 -0.3969  0.2021
18673TIP3   OH277433   1.372   6.482   5.597 -0.5768  0.0793  0.1775
18673TIP3    H177434   1.374   6.544   5.670 -0.8211 -0.4125  0.6119
18673TIP3    H277435   1.341   6.533   5.523 -2.2792  0.1381  0.8836
18674TIP3   OH277436   2.679   0.760   5.787  0.0286  0.4946  0.7106
18674TIP3    H177437   2.724   0.687   5.744 -1.9890 -0.6744  0.4912
18674TIP3    H277438   2.672   0.827   5.719 -1.5114 -0.6345 -0.3144
18675TIP3   OH277439   1.424   2.071   1.733 -0.1313  0.1074  0.4253
18675TIP3    H177440   1.477   2.084   1.812  2.3957  2.0672 -1.4189
18675TIP3    H277441   1.446   2.145   1.677 -1.7061 -1.2693 -2.2059
18676TIP3   OH277442   5.235   4.194   6.098  0.8254  0.2590 -0.3514
18676TIP3    H177443   5.227   4.150   6.013 -1.7975  1.4962 -0.8364
18676TIP3    H277444   5.239   4.287   6.077  2.3311  0.4917  0.8295
18677TIP3   OH277445   2.193   0.478   6.051 -0.5123 -0.2520  0.2474
18677TIP3    H177446   2.276   0.486   6.004  0.1003 -1.8051  1.0264
18677TIP3    H277447   2.216   0.489   6.143 -1.1872 -0.5887  0.4626
18678TIP3   OH277448   1.436   0.951  13.932 -0.0668 -0.4027 -0.5870
18678TIP3    H177449   1.507   0.890  13.955 -0.8860 -1.0096  0.4501
18678TIP3    H277450   1.394   0.970  14.016 -2.2256 -1.4451 -1.3539
18679TIP3   OH277451   0.108   1.123   1.909 -0.1521 -0.0115  0.0178
18679TIP3    H177452   0.022   1.086   1.888 -0.5401  1.1744 -0.5350
18679TIP3    H277453   0.134   1.170   1.830  0.9046 -0.1339  0.2704
18680TIP3   OH277454   3.727   3.184  11.649  0.2395 -0.3714 -0.3608
18680TIP3    H177455   3.723   3.143  11.736  0.5467 -0.4575 -0.3858
18680TIP3    H277456   3.669   3.260  11.656  0.1747 -0.4406 -0.1147
18681TIP3   OH277457   3.904   1.490   2.859  0.0551 -0.0613  0.0105
18681TIP3    H177458   3.840   1.434   2.902  0.6525  0.2166  1.3269
18681TIP3    H277459   3.854   1.569   2.835  0.0554  0.5363  1.8348
18682TIP3   OH277460   2.802   5.254  13.081  0.3886  0.2026 -0.2151
18682TIP3    H177461   2.768   5.328  13.131  0.8471  1.0077 -1.0714
18682TIP3    H277462   2.860   5.293  13.016  1.0271 -0.9555 -0.3670
18683TIP3   OH277463   5.821   2.074  15.453 -0.0602 -0.8496  0.4681
18683TIP3    H177464   5.762   2.096  15.380 -0.7135 -2.0998  0.5847
18683TIP3    H277465   5.908   2.093  15.420 -0.3601 -1.2305 -0.5972
18684TIP3   OH277466   6.584   0.415  17.211 -0.1904 -0.1794  0.3072
18684TIP3    H177467   6.662   0.433  17.262  0.4833 -0.7128 -0.4997
18684TIP3    H277468   6.615   0.360  17.138 -1.2723 -0.2168 -0.1466
18685TIP3   OH277469   0.273   5.633   2.544  0.1252  0.1911 -0.1280
18685TIP3    H177470   0.354   5.584   2.525 -0.8946 -2.1751  1.1916
18685TIP3    H277471   0.276   5.647   2.638 -2.2832 -2.6717  0.5346
18686TIP3   OH277472   1.547   2.116  12.363 -0.1011  0.0305 -0.5441
18686TIP3    H177473   1.611   2.153  12.302  0.7794  1.4897  1.1806
18686TIP3    H277474   1.476   2.180  12.364  1.3088  1.7362  2.2570
18687TIP3   OH277475   1.912   6.678   3.857  0.0451 -0.3963 -0.5118
18687TIP3    H177476   1.819   6.672   3.838 -0.4371  1.2228  1.0378
18687TIP3    H277477   1.935   6.593   3.895 -0.3402 -1.4497 -2.5248
18688TIP3   OH277478   4.068   5.938  16.031 -0.1944  0.0291  0.3446
18688TIP3    H177479   4.120   5.880  16.087  0.3932  0.8824  0.7051
18688TIP3    H277480   4.055   6.017  16.083  1.4422  1.3590 -1.1119
18689TIP3   OH277481   2.313   0.947   2.826 -0.0625 -0.3008  0.2180
18689TIP3    H177482   2.306   0.947   2.922  1.6776  0.1005  0.3802
18689TIP3    H277483   2.224   0.930   2.796 -0.4993 -1.3187  1.9165
18690TIP3   OH277484   3.345   3.648   0.262 -0.2213  0.0302  0.6247
18690TIP3    H177485   3.369   3.676   0.174  1.4796 -0.8711  0.7685
18690TIP3    H277486   3.412   3.584   0.287 -2.1942 -1.8257  1.5120
18691TIP3   OH277487   1.024   2.148  14.920  0.4132  0.2463  0.4186
18691TIP3    H177488   0.992   2.179  14.836  0.7583 -0.8516 -0.1261
18691TIP3    H277489   0.958   2.177  14.983 -0.2873  0.3271 -0.3380
18692TIP3   OH277490   6.753   1.053   0.985  0.0942  0.2028 -0.2562
18692TIP3    H177491   6.661   1.077   0.988  0.2549  0.7463  1.0471
18692TIP3    H277492   6.793   1.101   1.057  1.7429  1.3683 -1.8241
18693TIP3   OH277493   0.975   5.008   3.317  0.1257 -0.6965 -0.1835
18693TIP3    H177494   1.060   4.980   3.350  0.0583 -1.3954 -0.5692
18693TIP3    H277495   0.912   4.958   3.367 -0.2782  2.1165  2.3917
18694TIP3   OH277496   2.497   2.800  11.645 -0.2107  0.2344  0.1883
18694TIP3    H177497   2.517   2.792  11.738  1.5442  1.8279  0.0024
18694TIP3    H277498   2.423   2.861  11.642  0.1534  0.7009  0.5225
18695TIP3   OH277499   4.960   0.460   3.355  0.5420  0.3139 -0.5110
18695TIP3    H177500   4.947   0.477   3.449  0.5365  1.1786 -0.6624
18695TIP3    H277501   4.937   0.368   3.344 -0.3921  0.4546  0.1731
18696TIP3   OH277502   4.126   6.439   5.952 -0.0720 -0.7022  0.5135
18696TIP3    H177503   4.092   6.352   5.930 -0.2909 -0.6023  0.4518
18696TIP3    H277504   4.129   6.440   6.048  0.1474 -0.8584  0.5095
18697TIP3   OH277505   1.628   5.432   1.468  0.1706 -0.1997 -0.9522
18697TIP3    H177506   1.579   5.511   1.442  0.8282  0.4842 -0.1414
18697TIP3    H277507   1.715   5.464   1.492  0.6408 -1.2555 -1.1809
18698TIP3   OH277508   4.898   0.934   1.949  0.3212 -0.0153  0.0697
18698TIP3    H177509   4.896   1.028   1.967 -1.2608 -0.4131  2.3416
18698TIP3    H277510   4.958   0.898   2.014 -0.2190 -0.7432  0.1765
18699TIP3   OH277511   2.965   4.313  14.541  0.2676  0.1316 -0.1309
18699TIP3    H177512   2.898   4.351  14.598 -0.6511  1.0839 -1.7714
18699TIP3    H277513   2.942   4.220  14.537 -0.1474  0.2044  0.3814
18700TIP3   OH277514   0.063   0.697  16.370  0.1633  0.1576  0.1045
18700TIP3    H177515  -0.025   0.717  16.339  1.3882  1.8260 -2.6706
18700TIP3    H277516   0.059   0.710  16.465 -2.6083 -0.1330  0.1149
18701TIP3   OH277517   0.668   2.671   0.921 -0.1746 -0.1919 -0.2502
18701TIP3    H177518   0.673   2.675   0.825 -0.4944  0.2176 -0.2535
18701TIP3    H277519   0.751   2.632   0.947 -0.4296 -1.0817 -0.7387
18702TIP3   OH277520   0.123   6.514  11.397  0.6055  0.5310  0.2985
18702TIP3    H177521   0.200   6.459  11.383  0.2703  0.3820 -1.1526
18702TIP3    H277522   0.137   6.589  11.339  0.4459  1.3445  1.2979
18703TIP3   OH277523   2.821   1.971   3.527 -0.6655 -0.1678 -0.2344
18703TIP3    H177524   2.822   1.981   3.622  1.7495  2.2038 -0.3782
18703TIP3    H277525   2.761   2.040   3.497 -0.4829 -0.1108 -0.4674
18704TIP3   OH277526   2.062   5.908   0.431  0.4232  0.2789  0.2825
18704TIP3    H177527   2.043   5.892   0.524 -1.0014  1.3463  0.2096
18704TIP3    H277528   2.087   6.000   0.428 -0.8616  0.6172 -0.5596
18705TIP3   OH277529   0.791   4.915   3.497 -0.2988  0.3619 -0.2538
18705TIP3    H177530   0.697   4.911   3.484 -0.6276 -0.4560  1.9700
18705TIP3    H277531   0.802   4.938   3.589  1.6789  0.3496 -0.4404
18706TIP3   OH277532   1.579   4.723   5.128 -0.4856  0.1902 -0.3219
18706TIP3    H177533   1.502   4.711   5.073 -0.1922 -0.8347 -0.5332
18706TIP3    H277534   1.615   4.635   5.138  0.5049  0.6174 -0.0112
18707TIP3   OH277535   1.478   6.521   4.044  0.6843  0.4511 -0.2399
18707TIP3    H177536   1.535   6.445   4.054  0.4102  0.3002  0.2132
18707TIP3    H277537   1.507   6.582   4.111  0.3999  0.4279 -0.0933
18708TIP3   OH277538   3.040   4.842   3.754 -0.5195  0.2897 -0.7387
18708TIP3    H177539   3.050   4.751   3.727 -0.3784  0.0654  0.0616
18708TIP3    H277540   3.110   4.857   3.817 -1.0014  0.7225 -0.2922
18709TIP3   OH277541   2.378   6.003   5.291  0.0552  0.2330 -0.4107
18709TIP3    H177542   2.398   6.005   5.197 -0.5530 -1.5869 -0.6259
18709TIP3    H277543   2.462   5.986   5.333  0.3533  1.1812 -0.5917
18710TIP3   OH277544   3.619   5.080  13.381 -0.4452 -0.0308  0.3120
18710TIP3    H177545   3.536   5.128  13.378  0.2685  1.2352  0.3316
18710TIP3    H277546   3.640   5.063  13.289 -0.4376  0.1725  0.2750
18711TIP3   OH277547   4.010   0.940   0.654  0.2467 -0.0400  0.4380
18711TIP3    H177548   4.068   1.001   0.700 -0.4601 -0.6687  2.2610
18711TIP3    H277549   4.015   0.967   0.562  1.8530  1.1768  0.8309
18712TIP3   OH277550   3.576   2.105   0.919 -0.2375  0.1941 -0.6592
18712TIP3    H177551   3.620   2.162   0.982  0.4150 -2.0957  1.0755
18712TIP3    H277552   3.483   2.128   0.926 -0.1221  0.2709  0.8470
18713TIP3   OH277553   1.965   4.298   1.000  0.0290  0.2741  0.0472
18713TIP3    H177554   2.040   4.285   1.058 -0.4429  0.6983  0.7771
18713TIP3    H277555   2.001   4.290   0.912  0.5277 -1.7446  0.3850
18714TIP3   OH277556   6.560   3.680   4.259  0.2214 -0.0066  0.8933
18714TIP3    H177557   6.573   3.775   4.262 -2.1476  0.4439 -0.0860
18714TIP3    H277558   6.540   3.662   4.167 -2.4730 -0.8889  1.5516
18715TIP3   OH277559   5.063   6.487  12.751 -0.8298 -0.5407 -0.1371
18715TIP3    H177560   4.972   6.513  12.770 -0.6834 -0.2114  0.1394
18715TIP3    H277561   5.104   6.482  12.838 -0.1698  0.8779 -0.3404
18716TIP3   OH277562   2.044   1.538   3.311  0.0275  0.0120  0.3193
18716TIP3    H177563   2.094   1.459   3.291  0.7731  0.3904  0.6220
18716TIP3    H277564   2.111   1.606   3.324 -0.5625  0.5134  0.8242
18717TIP3   OH277565   6.122   1.158   0.535 -0.7071 -0.3567  0.0380
18717TIP3    H177566   6.150   1.179   0.446 -0.3782  2.0137  0.6350
18717TIP3    H277567   6.104   1.243   0.575  2.2504 -1.0296  3.2491
18718TIP3   OH277568   3.037   4.576  12.070  0.4562  0.6233  0.3857
18718TIP3    H177569   3.004   4.506  12.127  0.1419  0.9662  0.6269
18718TIP3    H277570   2.975   4.647  12.081 -0.1300  0.3764 -1.1060
18719TIP3   OH277571   3.974   2.008  16.231  0.2786  0.4349  0.5539
18719TIP3    H177572   3.889   2.050  16.225 -0.3006 -0.8626 -0.9884
18719TIP3    H277573   3.962   1.936  16.293  0.4098  0.5859  0.7570
18720TIP3   OH277574   5.221   4.244  17.217 -0.5845  0.1761  0.0711
18720TIP3    H177575   5.239   4.317  17.275 -0.6178 -0.7527  1.2924
18720TIP3    H277576   5.299   4.235  17.163 -0.2105  0.5274  0.5545
18721TIP3   OH277577   6.629   4.488   0.333  0.5469 -0.2599  0.1912
18721TIP3    H177578   6.677   4.570   0.327  1.6137 -0.8418  0.3519
18721TIP3    H277579   6.551   4.508   0.385  1.8528  0.2125  2.0629
18722TIP3   OH277580   3.384   4.715  16.095 -1.0940 -0.2647 -0.5208
18722TIP3    H177581   3.323   4.695  16.025 -0.6776  0.9285 -1.2542
18722TIP3    H277582   3.457   4.761  16.051 -0.8486  0.5503  0.6810
18723TIP3   OH277583   3.426   6.159   2.104 -0.0321  0.4876  0.5257
18723TIP3    H177584   3.480   6.212   2.162  1.2388  0.0265 -0.1999
18723TIP3    H277585   3.485   6.133   2.033 -1.2550  0.1148 -0.3912
18724TIP3   OH277586   1.673   5.632  12.370 -0.0293  0.8254 -0.6955
18724TIP3    H177587   1.667   5.727  12.359  1.7566  0.7980 -2.5367
18724TIP3    H277588   1.765   5.616  12.391 -0.1028 -0.5356 -1.3154
18725TIP3   OH277589   0.539   6.620  12.154  0.3608 -0.4574 -0.4061
18725TIP3    H177590   0.448   6.615  12.127  0.6779 -1.1482 -1.3912
18725TIP3    H277591   0.573   6.700  12.113 -0.3409  1.0687  1.7737
18726TIP3   OH277592   4.365   1.177   1.047  0.3811 -0.6495 -0.1338
18726TIP3    H177593   4.335   1.097   1.004 -1.7208 -0.7257  1.3393
18726TIP3    H277594   4.430   1.146   1.111  2.2281 -0.7103 -1.9267
18727TIP3   OH277595   6.367   0.642   0.214  0.0962 -0.1515 -0.5420
18727TIP3    H177596   6.436   0.580   0.238  1.7225  1.4979 -0.8080
18727TIP3    H277597   6.364   0.639   0.118 -0.9143 -0.9227 -0.5076
18728TIP3   OH277598   4.433   1.854   2.052 -0.1572 -0.4117 -0.9229
18728TIP3    H177599   4.504   1.907   2.018 -0.3140  0.0617 -0.5289
18728TIP3    H277600   4.367   1.854   1.982 -1.5068  2.5145  0.1566
18729TIP3   OH277601   5.056   1.545  12.510  0.1018  0.2245 -0.1387
18729TIP3    H177602   5.094   1.619  12.463  1.6545 -0.1580  0.4674
18729TIP3    H277603   5.014   1.493  12.442 -3.5489  2.9793 -0.3262
18730TIP3   OH277604   5.801   2.534   2.287  0.4476  0.0348 -0.1153
18730TIP3    H177605   5.750   2.614   2.302 -0.5596 -0.8833  1.6353
18730TIP3    H277606   5.833   2.543   2.197 -1.9465  1.1594 -0.9458
18731TIP3   OH277607   3.977   5.648  14.526 -0.0158 -0.3961  0.2412
18731TIP3    H177608   4.059   5.696  14.515  0.7625 -1.5837  0.7273
18731TIP3    H277609   3.940   5.680  14.608 -1.3849  2.0175 -1.1952
18732TIP3   OH277610   3.975   2.951  15.269 -0.4838  0.0956 -0.2710
18732TIP3    H177611   3.999   2.944  15.176  1.1468  0.4544  0.1049
18732TIP3    H277612   3.945   3.042  15.279 -0.0912  0.2314 -0.3190
18733TIP3   OH277613   1.963   0.026   6.815  0.2735  0.3594  0.1024
18733TIP3    H177614   2.048  -0.014   6.838  0.4292  0.6698  0.0693
18733TIP3    H277615   1.984   0.118   6.799  0.2325  0.1006 -1.6263
18734TIP3   OH277616   1.435   4.616  13.196 -0.0132  0.0789 -0.3166
18734TIP3    H177617   1.506   4.593  13.256 -0.7443 -1.2400  0.0880
18734TIP3    H277618   1.360   4.633  13.254  0.0423  1.8989 -0.7054
18735TIP3   OH277619   0.567   6.185  11.722 -0.3040  0.2640 -0.6655
18735TIP3    H177620   0.631   6.118  11.697 -0.3178 -0.0318  0.0615
18735TIP3    H277621   0.483   6.139  11.724 -0.2631  0.2099  0.1771
18736TIP3   OH277622   1.197   4.575  11.374  0.4617  0.4331 -0.1045
18736TIP3    H177623   1.152   4.659  11.366  1.1580  0.8141 -0.1506
18736TIP3    H277624   1.288   4.594  11.349  0.4912 -0.4740 -0.7449
18737TIP3   OH277625   2.142   5.359   1.892 -0.1536 -0.0270  0.3612
18737TIP3    H177626   2.174   5.273   1.918  2.7484  0.1747 -1.9282
18737TIP3    H277627   2.079   5.341   1.822  0.3948 -0.3398 -0.0667
18738TIP3   OH277628   5.430   1.166   1.562 -0.3339 -0.1639 -0.5993
18738TIP3    H177629   5.430   1.240   1.623 -0.3445  0.0393 -0.8440
18738TIP3    H277630   5.424   1.089   1.618 -0.7405  0.0371 -0.3616
18739TIP3   OH277631   0.010   5.230  11.981 -0.2340  0.8838  0.2832
18739TIP3    H177632  -0.066   5.285  12.001 -0.3789  1.3145 -1.3296
18739TIP3    H277633  -0.023   5.165  11.919  0.4074  0.2125  0.6351
18740TIP3   OH277634   2.845   4.802   4.730 -0.1224  0.3010  0.0114
18740TIP3    H177635   2.843   4.896   4.750  0.1400  0.3552 -0.2158
18740TIP3    H277636   2.931   4.773   4.759 -0.6418 -0.1317  1.2216
18741TIP3   OH277637   0.056   3.529  13.226 -0.1082 -0.1437 -0.0420
18741TIP3    H177638   0.129   3.588  13.244  0.1240 -1.1024  2.5279
18741TIP3    H277639   0.097   3.450  13.192 -0.0616 -0.2340  0.2235
18742TIP3   OH277640   0.104   6.250   1.317  0.5278 -0.5856  0.6575
18742TIP3    H177641   0.035   6.314   1.298 -0.5116 -2.4479 -2.6358
18742TIP3    H277642   0.186   6.295   1.297  0.1107  0.7051  1.6854
18743TIP3   OH277643   2.955   0.785  12.502 -0.2267  0.4992  0.2765
18743TIP3    H177644   2.862   0.805  12.510 -0.5025 -0.8510  0.8733
18743TIP3    H277645   2.957   0.698  12.462  0.7715  0.4232  0.4643
18744TIP3   OH277646   4.423   3.178  15.927  0.0394 -0.3444  0.3552
18744TIP3    H177647   4.358   3.241  15.960 -1.0612 -1.4542  0.4100
18744TIP3    H277648   4.420   3.188  15.832 -0.1935 -0.3470  0.3599
18745TIP3   OH277649   3.253   3.405  13.783 -0.3254  0.2088  0.3873
18745TIP3    H177650   3.267   3.464  13.857  2.1354 -0.6832  0.7419
18745TIP3    H277651   3.324   3.427  13.722  0.2076 -1.8356  0.2021
18746TIP3   OH277652   3.391   1.750   5.888  0.1080 -0.3736  0.2473
18746TIP3    H177653   3.372   1.761   5.981 -2.1468  0.9660 -0.3077
18746TIP3    H277654   3.484   1.772   5.880  0.4470 -0.8834  2.2034
18747TIP3   OH277655   1.638   3.212  14.488  0.6247  0.8714  0.0702
18747TIP3    H177656   1.566   3.153  14.465  2.9116 -2.3245  0.6015
18747TIP3    H277657   1.604   3.262  14.563 -1.1575 -0.2719  0.0970
18748TIP3   OH277658   6.122   6.702   0.417 -0.0646  0.7202 -0.1537
18748TIP3    H177659   6.089   6.651   0.343 -0.0617  2.5111 -1.4662
18748TIP3    H277660   6.044   6.742   0.456  0.0803  1.0086 -0.1555
18749TIP3   OH277661   0.229   2.326  13.654  0.3819  0.1697 -0.2734
18749TIP3    H177662   0.320   2.354  13.642 -0.0626  1.3575 -0.9917
18749TIP3    H277663   0.215   2.260  13.586  0.5614  0.3507 -0.4873
18750TIP3   OH277664   0.378   5.612   6.498  0.3876  0.0253 -0.5129
18750TIP3    H177665   0.393   5.551   6.570 -0.0325  0.3757 -0.1280
18750TIP3    H277666   0.466   5.641   6.473  0.4962  0.4846  0.3611
18751TIP3   OH277667   3.960   6.070   2.963 -0.3956  0.3695 -0.1521
18751TIP3    H177668   3.897   6.142   2.953 -0.2759  0.6937  1.2653
18751TIP3    H277669   3.916   5.995   2.923 -1.0309  0.9499 -0.5699
18752TIP3   OH277670   0.627   5.826   1.812  0.6749 -0.7425 -0.0681
18752TIP3    H177671   0.584   5.831   1.727 -0.0873  2.3566  0.3684
18752TIP3    H277672   0.704   5.883   1.803  1.0111 -0.9903  1.0864
18753TIP3   OH277673   1.611   5.785  16.964 -0.0482  0.0791 -0.0388
18753TIP3    H177674   1.690   5.796  16.912  0.1594 -0.6710  0.1131
18753TIP3    H277675   1.541   5.818  16.908  0.5418  2.3771  0.4734
18754TIP3   OH277676   4.480   1.692   1.448 -0.2993  0.0651  0.3064
18754TIP3    H177677   4.420   1.679   1.374  1.0050 -4.5545 -0.3130
18754TIP3    H277678   4.567   1.697   1.407  0.2784 -0.5647  1.4016
18755TIP3   OH277679   5.026   1.496  16.643 -0.2313 -0.4083  0.4595
18755TIP3    H177680   5.009   1.485  16.550 -1.0358  1.9532  0.2759
18755TIP3    H277681   5.055   1.587  16.652  2.5642 -1.3110  2.1804
18756TIP3   OH277682   4.597   2.681   0.564 -0.1182  0.1148 -0.3178
18756TIP3    H177683   4.553   2.717   0.487  0.5793  0.4095 -0.5871
18756TIP3    H277684   4.672   2.739   0.578 -1.7269  1.7970  2.2697
18757TIP3   OH277685   5.815   5.347   2.197  0.5445  0.0776  0.1521
18757TIP3    H177686   5.909   5.362   2.191  0.5111  0.5588  0.7643
18757TIP3    H277687   5.790   5.317   2.109  1.2897 -0.2049  0.0309
18758TIP3   OH277688   0.392   1.414  11.783 -0.1589  0.0733 -0.1459
18758TIP3    H177689   0.311   1.433  11.830 -1.2744 -1.3014 -1.4087
18758TIP3    H277690   0.419   1.328  11.815  0.7925  0.4921  0.2196
18759TIP3   OH277691   1.949   3.803   4.169  0.0942  0.0397  0.2421
18759TIP3    H177692   2.036   3.765   4.155 -0.0970 -1.2077  2.0763
18759TIP3    H277693   1.889   3.740   4.129 -0.1121 -0.7264  1.6838
18760TIP3   OH277694   0.254   3.421  15.686 -0.1648 -0.0602 -0.2501
18760TIP3    H177695   0.173   3.449  15.643  1.4589  1.5677 -2.4856
18760TIP3    H277696   0.291   3.502  15.721  0.2519 -0.8707  1.2690
18761TIP3   OH277697   4.028   4.939   0.634  0.0906  0.1043 -0.2000
18761TIP3    H177698   3.964   4.869   0.649  3.0516 -2.8998 -0.6500
18761TIP3    H277699   3.978   5.020   0.649 -3.2879 -2.0404  1.3466
18762TIP3   OH277700   0.189   3.165  17.101 -0.1784 -0.4787 -0.1734
18762TIP3    H177701   0.110   3.213  17.075  0.3793  1.3876  1.3475
18762TIP3    H277702   0.162   3.113  17.176 -0.6111 -2.1175 -1.4059
18763TIP3   OH277703   6.369   6.334   2.499  0.3559  0.7989 -0.4560
18763TIP3    H177704   6.375   6.429   2.493  0.6560  0.7188 -1.6406
18763TIP3    H277705   6.443   6.301   2.448  0.3625 -0.0703  0.0912
18764TIP3   OH277706   6.645   3.220  12.035  0.8093 -0.2411 -0.0881
18764TIP3    H177707   6.681   3.157  12.098  2.2811  1.2814  0.6699
18764TIP3    H277708   6.673   3.186  11.949  2.0026 -0.3665  0.3363
18765TIP3   OH277709   2.346   3.558   3.990  0.6256 -0.1544  0.4466
18765TIP3    H177710   2.314   3.490   3.930  1.2526 -0.2421  0.2006
18765TIP3    H277711   2.416   3.602   3.941 -0.4297  1.3431  0.2180
18766TIP3   OH277712   5.811   0.682  16.850  0.2915  0.6939  0.1970
18766TIP3    H177713   5.755   0.718  16.781  2.3296  1.1864 -1.3069
18766TIP3    H277714   5.778   0.720  16.931 -2.9199 -0.7844 -0.2803
18767TIP3   OH277715   5.751   5.572  10.677  0.1333  0.3777  0.4103
18767TIP3    H177716   5.714   5.560  10.589 -2.0785  0.4843  1.2629
18767TIP3    H277717   5.702   5.645  10.714  0.3024 -0.3303  2.1160
18768TIP3   OH277718   3.821   2.242  11.394 -0.0269 -0.0174  0.5286
18768TIP3    H177719   3.899   2.206  11.437  1.0461 -0.2262 -1.4295
18768TIP3    H277720   3.824   2.203  11.306 -1.0056  1.8475 -0.3735
18769TIP3   OH277721   0.878   6.284  15.027 -0.3023 -0.2128  0.8856
18769TIP3    H177722   0.888   6.241  15.112  1.1323  0.6964  1.2118
18769TIP3    H277723   0.792   6.326  15.031 -1.1847 -1.9652  1.0303
18770TIP3   OH277724   0.024   2.207   4.392 -0.0373  0.3712  0.2126
18770TIP3    H177725   0.050   2.251   4.311 -0.3245  0.9234  0.4183
18770TIP3    H277726   0.106   2.188   4.437  0.1764 -0.6552 -0.5754
18771TIP3   OH277727   3.293   2.193   2.580  0.4837 -0.2634 -0.4769
18771TIP3    H177728   3.213   2.162   2.537  0.9316 -0.8855 -0.8759
18771TIP3    H277729   3.271   2.281   2.610 -0.9597 -1.0902  1.0404
18772TIP3   OH277730   2.220   1.782   2.710 -0.2629  0.1336  0.4010
18772TIP3    H177731   2.179   1.840   2.775  0.0639  1.8207 -0.8242
18772TIP3    H277732   2.293   1.833   2.675  2.1906 -2.2968  1.5930
18773TIP3   OH277733   3.206   4.684   5.185  0.2546 -0.2554  0.3071
18773TIP3    H177734   3.126   4.653   5.227  0.9709 -0.0144  1.9083
18773TIP3    H277735   3.179   4.703   5.095 -1.2742 -1.0152  0.5599
18774TIP3   OH277736   2.773   3.316   0.384  0.1935 -0.1891  0.5272
18774TIP3    H177737   2.683   3.287   0.393  0.2293 -0.9482 -1.1890
18774TIP3    H277738   2.825   3.241   0.414  0.2458 -0.4693 -0.2297
18775TIP3   OH277739   5.282   3.676  13.609 -0.3679  0.0862  0.1051
18775TIP3    H177740   5.331   3.696  13.688  1.2513  0.3669 -0.9048
18775TIP3    H277741   5.195   3.713  13.624  0.2549  1.1438  1.2940
18776TIP3   OH277742   2.075   3.992  16.742 -0.3873  0.7615 -0.4040
18776TIP3    H177743   2.043   3.945  16.665 -0.0631  0.9589 -0.6606
18776TIP3    H277744   2.007   3.978  16.808  0.0926 -0.7545 -0.1992
18777TIP3   OH277745   3.036   1.304   0.224  0.5285  0.1601  0.4850
18777TIP3    H177746   3.124   1.332   0.249  1.3797  0.1447 -2.1995
18777TIP3    H277747   3.033   1.313   0.129 -2.2112 -0.3713  0.4207
18778TIP3   OH277748   5.922   1.324   3.555 -0.4345 -0.0171  0.6881
18778TIP3    H177749   5.931   1.418   3.569  0.9918  0.0002 -0.1339
18778TIP3    H277750   5.929   1.313   3.460  0.0727 -1.0114  0.8241
18779TIP3   OH277751   3.616   4.579   0.691  0.4456  0.1635  0.2626
18779TIP3    H177752   3.544   4.591   0.753  2.0037  2.9960  1.7401
18779TIP3    H277753   3.685   4.536   0.743  1.4497  1.7657  0.3246
18780TIP3   OH277754   0.049   6.098   1.052 -0.2636  0.4749 -0.5812
18780TIP3    H177755   0.007   6.168   1.101  0.2225 -0.2180  0.8986
18780TIP3    H277756   0.045   6.022   1.111 -1.0543 -0.8453 -2.2476
18781TIP3   OH277757   4.821   4.308  12.025 -0.0249 -0.0837  0.1390
18781TIP3    H177758   4.853   4.354  12.103 -1.5844  1.9711 -0.3294
18781TIP3    H277759   4.806   4.378  11.961 -0.0657 -1.5670 -1.5663
18782TIP3   OH277760   6.272   2.691   2.456 -0.4172 -0.2190  0.1714
18782TIP3    H177761   6.351   2.662   2.501 -0.4097  0.2960  0.5050
18782TIP3    H277762   6.303   2.750   2.387 -0.5296  0.3943  0.6303
18783TIP3   OH277763   6.714   0.445   4.562  0.2868  0.0615  0.1822
18783TIP3    H177764   6.759   0.503   4.624  0.7689  1.5459 -1.4750
18783TIP3    H277765   6.779   0.428   4.494 -1.2807  1.5265 -1.8198
18784TIP3   OH277766   3.192   4.541   3.072 -0.0381 -0.6310 -0.2517
18784TIP3    H177767   3.256   4.499   3.130  0.0846 -0.2367 -0.1000
18784TIP3    H277768   3.117   4.481   3.072 -0.5640 -0.0054  1.3554
18785TIP3   OH277769   5.389   4.798   1.256 -0.3282  0.3507 -0.2483
18785TIP3    H177770   5.383   4.850   1.336 -0.4598  0.3982 -0.2883
18785TIP3    H277771   5.438   4.720   1.282  0.3592  0.7499 -0.3212
18786TIP3   OH277772   3.936   4.566  15.470 -0.2819  0.2449 -0.1603
18786TIP3    H177773   3.984   4.649  15.477  0.8981 -0.3410 -0.9441
18786TIP3    H277774   3.925   4.553  15.376  0.9262 -1.2221 -0.1384
18787TIP3   OH277775   1.156   1.357   0.585  0.2368 -0.2241  0.3493
18787TIP3    H177776   1.152   1.262   0.587  1.0287 -0.2656  0.3205
18787TIP3    H277777   1.243   1.377   0.548 -1.4633  0.5001 -3.7742
18788TIP3   OH277778   5.817   0.270  10.699 -0.2015 -0.5721  0.5406
18788TIP3    H177779   5.739   0.313  10.733 -1.5343 -1.5465 -1.1034
18788TIP3    H277780   5.793   0.178  10.693  1.4945 -1.0666  1.0779
18789TIP3   OH277781   4.181   1.365   4.771  0.0985  0.4900  0.5530
18789TIP3    H177782   4.144   1.287   4.812  0.5045  0.2160  0.4049
18789TIP3    H277783   4.165   1.353   4.677  0.0628  0.6377  0.5399
18790TIP3   OH277784   5.665   5.797  15.046  0.0637 -0.2195  0.2041
18790TIP3    H177785   5.613   5.877  15.058 -0.5802 -0.4148 -1.0618
18790TIP3    H277786   5.745   5.826  15.003 -0.9276 -0.4187 -1.8967
18791TIP3   OH277787   1.048   3.699  11.869 -0.2485  0.0490  0.6406
18791TIP3    H177788   1.080   3.719  11.781 -0.8317 -1.2347  0.0990
18791TIP3    H277789   1.120   3.651  11.910 -1.2466 -2.6551 -0.5048
18792TIP3   OH277790   5.031   2.458   4.414 -0.6431 -0.0217  0.1109
18792TIP3    H177791   4.973   2.394   4.455 -0.0132  0.2105  1.4078
18792TIP3    H277792   5.007   2.541   4.455  1.0479 -0.0291  1.1681
18793TIP3   OH277793   2.265   5.182  15.622 -0.0669  0.3264 -0.6664
18793TIP3    H177794   2.267   5.131  15.703  0.2213  1.1765 -0.1210
18793TIP3    H277795   2.355   5.178  15.590 -0.4265 -0.9922 -1.5975
18794TIP3   OH277796   1.736   5.068  11.762  0.0520 -0.0093 -0.1966
18794TIP3    H177797   1.794   4.995  11.739  0.1203  0.0370 -0.1736
18794TIP3    H277798   1.787   5.146  11.740  0.2508  0.0411  0.4145
18795TIP3   OH277799   0.828   0.890   6.047 -0.0508 -0.8028  0.3530
18795TIP3    H177800   0.817   0.872   5.954  1.3127 -0.1695  0.0541
18795TIP3    H277801   0.867   0.977   6.050  4.1020 -2.4738  1.2734
18796TIP3   OH277802   4.065   0.821   2.449  0.6023 -0.0442 -0.3064
18796TIP3    H177803   3.974   0.844   2.468  0.1470 -0.9245 -1.3429
18796TIP3    H277804   4.096   0.891   2.392  0.5288  0.1496 -0.1144
18797TIP3   OH277805   6.254   0.791   1.096 -0.4477  0.3085  0.2453
18797TIP3    H177806   6.327   0.748   1.140  0.6496  1.0853 -0.7342
18797TIP3    H277807   6.204   0.719   1.057  1.5318 -0.1597 -1.6430
18798TIP3   OH277808   5.382   0.049  14.946 -0.6928 -0.1135 -0.7410
18798TIP3    H177809   5.382   0.139  14.978  1.8067  0.1925 -1.4042
18798TIP3    H277810   5.306   0.044  14.888 -0.9336  1.5270 -0.6017
18799TIP3   OH277811   1.167   2.103   3.326 -0.6757 -0.1307 -0.4494
18799TIP3    H177812   1.176   2.179   3.384  1.2034 -1.2256  0.7985
18799TIP3    H277813   1.206   2.131   3.243  2.1516 -0.3605  0.6881
18800TIP3   OH277814   2.936   2.184   2.176 -0.0163 -0.0085  0.1023
18800TIP3    H177815   2.842   2.184   2.192 -0.3974 -0.2838 -1.8588
18800TIP3    H277816   2.960   2.276   2.169 -0.0809  0.0697  0.9268
18801TIP3   OH277817   4.606   1.980  17.335 -0.0005  0.2727  0.6640
18801TIP3    H177818   4.581   2.012  17.422 -2.2223 -0.3932  0.3276
18801TIP3    H277819   4.534   1.923  17.308  1.2521 -0.5959 -1.0833
18802TIP3   OH277820   6.026   3.812  16.844  0.3493  0.2046  0.0642
18802TIP3    H177821   5.935   3.822  16.819  0.6996 -1.2130 -2.0360
18802TIP3    H277822   6.027   3.831  16.938 -1.5441  3.0974 -0.3726
18803TIP3   OH277823   4.474   1.551  13.618  0.3177  0.4843  0.0240
18803TIP3    H177824   4.555   1.536  13.667  1.7905 -0.9446 -2.6463
18803TIP3    H277825   4.411   1.490  13.658  0.9847  0.4910  1.1409
18804TIP3   OH277826   0.763   3.671  11.702 -0.7261  0.4364  0.8859
18804TIP3    H177827   0.757   3.728  11.779 -1.7492  0.7819  0.5632
18804TIP3    H277828   0.856   3.668  11.682 -0.6709  2.3396  0.6705
18805TIP3   OH277829   3.506   1.162  11.608 -0.5829  0.1806 -0.1486
18805TIP3    H177830   3.499   1.085  11.552 -0.1147  0.1946 -0.2273
18805TIP3    H277831   3.441   1.148  11.677  0.3511 -0.8774  0.5516
18806TIP3   OH277832   5.259   5.746  11.078 -0.3763 -0.2917  0.2532
18806TIP3    H177833   5.285   5.819  11.022 -0.4011 -0.1210  0.4608
18806TIP3    H277834   5.319   5.751  11.153  0.2396 -1.0519 -0.1695
18807TIP3   OH277835   1.076   4.078  12.903  0.6735 -0.1559  0.4810
18807TIP3    H177836   1.148   4.069  12.965  1.7049 -2.2434 -0.8987
18807TIP3    H277837   1.075   3.995  12.854 -2.4408 -0.0801  0.1652
18808TIP3   OH277838   3.456   3.417   3.011  0.0267 -0.1758  0.0611
18808TIP3    H177839   3.427   3.395   2.923 -0.5760  0.4236  0.1018
18808TIP3    H277840   3.385   3.388   3.069  0.1607 -0.0472  0.2953
18809TIP3   OH277841   4.560   5.489   3.240 -0.9204 -0.0572  0.6046
18809TIP3    H177842   4.518   5.404   3.228 -1.0046  0.0826 -0.1639
18809TIP3    H277843   4.508   5.533   3.307 -0.6326 -0.7616  1.3092
18810TIP3   OH277844   0.565   0.983  14.777 -0.6139  0.3449  0.2991
18810TIP3    H177845   0.657   0.988  14.749 -0.2381  1.0997  1.5701
18810TIP3    H277846   0.561   0.908  14.835 -0.3814  1.2786  1.5775
18811TIP3   OH277847   4.475   6.552   4.144 -0.0686  0.1568  0.3774
18811TIP3    H177848   4.470   6.459   4.120  0.1680  0.3938 -0.6309
18811TIP3    H277849   4.384   6.581   4.144 -0.2068 -0.2482  1.4312
18812TIP3   OH277850   6.562   4.668  14.857 -0.1550 -0.3731  0.8711
18812TIP3    H177851   6.629   4.723  14.896 -0.6626  0.8256  0.1234
18812TIP3    H277852   6.607   4.621  14.787 -0.0653  0.4093  0.3877
18813TIP3   OH277853   1.770   3.670  16.514  0.3754  0.5456 -0.0739
18813TIP3    H177854   1.699   3.731  16.495 -0.3808 -0.3774 -0.3227
18813TIP3    H277855   1.728   3.584  16.512  1.1539  0.0951  1.4949
18814TIP3   OH277856   5.441   0.124   5.058  0.1317  0.5431 -0.1590
18814TIP3    H177857   5.485   0.062   5.117  2.4359  1.0238 -1.2495
18814TIP3    H277858   5.507   0.144   4.992 -1.7086  1.5498 -1.7837
18815TIP3   OH277859   4.489   2.078   3.424  0.0798 -0.0004 -0.0095
18815TIP3    H177860   4.509   2.070   3.331  1.2827  0.4533  0.2002
18815TIP3    H277861   4.445   2.163   3.432  0.1330  0.0393 -0.1421
18816TIP3   OH277862   4.144   3.675  16.041 -0.2725 -0.0020  0.2581
18816TIP3    H177863   4.156   3.737  16.112  0.0381 -0.3398  0.5056
18816TIP3    H277864   4.232   3.655  16.010 -0.4608  1.5611 -1.4825
18817TIP3   OH277865   5.656   6.601  13.232  0.7404 -0.1036 -0.5919
18817TIP3    H177866   5.664   6.519  13.281  0.3845  0.4476  0.4014
18817TIP3    H277867   5.746   6.625  13.210  0.8456 -0.7774 -0.9347
18818TIP3   OH277868   4.107   1.155  14.325 -0.5676  0.6614 -0.0144
18818TIP3    H177869   4.093   1.246  14.299 -1.7250  0.3233 -0.6688
18818TIP3    H277870   4.175   1.123  14.266 -0.5719  0.9380 -0.1686
18819TIP3   OH277871   6.348   5.403   4.460  0.2584 -0.6110 -0.1622
18819TIP3    H177872   6.382   5.441   4.379 -0.4928 -1.8349 -1.0939
18819TIP3    H277873   6.419   5.413   4.523  1.4310 -0.9683 -1.3779
18820TIP3   OH277874   6.497   2.102   0.929 -0.0462 -0.9119  0.6130
18820TIP3    H177875   6.459   2.070   0.847 -3.2269 -0.6234  1.8506
18820TIP3    H277876   6.592   2.102   0.913 -0.4064 -2.8971 -2.2885
18821TIP3   OH277877   3.328   6.218  12.192  0.5657 -0.0824  0.2631
18821TIP3    H177878   3.321   6.123  12.197 -0.4731  0.0259  1.2107
18821TIP3    H277879   3.403   6.239  12.248  1.7360 -0.4275 -1.1172
18822TIP3   OH277880   6.614   2.322  17.068 -0.0862 -0.1152  0.4987
18822TIP3    H177881   6.629   2.229  17.049  0.6323  0.3264 -1.2680
18822TIP3    H277882   6.700   2.357  17.089 -0.5131 -0.0415  2.2910
18823TIP3   OH277883   1.339   5.894  13.457  0.2452  0.1138 -0.7573
18823TIP3    H177884   1.268   5.839  13.425 -0.2173  1.1109 -1.5214
18823TIP3    H277885   1.333   5.889  13.552 -0.5261 -0.2264 -0.8156
18824TIP3   OH277886   0.241   2.823   5.763  0.1888  0.0871 -0.5055
18824TIP3    H177887   0.298   2.879   5.815  0.5243  0.8963 -1.7112
18824TIP3    H277888   0.299   2.753   5.732 -0.5657 -2.0527  2.4243
18825TIP3   OH277889   0.007   5.000   5.667  0.2368  0.1851  0.1862
18825TIP3    H177890  -0.067   4.951   5.704  0.2888  1.3234  1.9236
18825TIP3    H277891  -0.034   5.071   5.618  0.1796 -0.3992 -0.6274
18826TIP3   OH277892   4.648   6.203   4.621  0.0955 -0.1300  0.3990
18826TIP3    H177893   4.600   6.137   4.670  1.3235 -1.3393  0.0214
18826TIP3    H277894   4.724   6.225   4.676  0.8127 -0.5851 -0.3807
18827TIP3   OH277895   1.158   0.079  13.522 -0.1650 -0.2932  0.5878
18827TIP3    H177896   1.138   0.045  13.610 -1.2633 -0.0998  0.4329
18827TIP3    H277897   1.079   0.128  13.498  0.6062  0.6799 -0.0147
18828TIP3   OH277898   1.944   2.098   2.672 -0.4493 -0.2405  0.0788
18828TIP3    H177899   1.895   2.177   2.696 -0.8334 -0.6176  0.5361
18828TIP3    H277900   1.992   2.074   2.751  0.5873  0.1846 -0.3868
18829TIP3   OH277901   4.586   4.712   4.135 -0.1685  0.8830 -0.1465
18829TIP3    H177902   4.556   4.678   4.220  1.8295  1.4304  0.8535
18829TIP3    H277903   4.626   4.637   4.092  0.2005  0.9329  0.0985
18830TIP3   OH277904   6.687   3.208  11.743  0.4773  0.2371 -0.7345
18830TIP3    H177905   6.719   3.163  11.665  1.0337 -0.0931 -0.3269
18830TIP3    H277906   6.592   3.212  11.731  0.6505  1.3186 -2.0095
18831TIP3   OH277907   4.854   2.011  17.216 -0.3014  0.6402  0.3417
18831TIP3    H177908   4.765   2.003  17.249 -0.9245 -0.1868 -1.4120
18831TIP3    H277909   4.856   2.096  17.171 -0.1929  0.6537  0.3706
18832TIP3   OH277910   4.035   6.467  14.859 -0.0176 -0.2211  0.0249
18832TIP3    H177911   4.092   6.437  14.789  0.1839  0.8361 -0.2676
18832TIP3    H277912   4.014   6.558  14.838  0.6687  0.3812  1.7195
18833TIP3   OH277913   1.727   5.254   1.928 -0.2476 -0.0140  0.3519
18833TIP3    H177914   1.718   5.213   2.014 -0.0045 -3.1515 -0.9967
18833TIP3    H277915   1.638   5.255   1.893 -0.5696  2.4492  1.0283
18834TIP3   OH277916   2.925   0.165  16.381 -0.3425  0.3771 -0.3918
18834TIP3    H177917   2.831   0.178  16.391 -0.7447 -3.1354  2.3884
18834TIP3    H277918   2.934   0.119  16.297 -0.9452  1.5663 -1.1266
18835TIP3   OH277919   3.286   1.232  15.719  0.5797  0.8398 -0.1573
18835TIP3    H177920   3.366   1.250  15.769 -0.1190  0.9461  0.9628
18835TIP3    H277921   3.222   1.295  15.753 -0.0626  0.5703 -0.8372
18836TIP3   OH277922   0.570   2.000  11.797  0.2175 -0.1519  0.2649
18836TIP3    H177923   0.541   1.974  11.709  2.1116  0.4571 -0.5865
18836TIP3    H277924   0.509   1.955  11.856 -1.1995 -0.4533 -1.3429
18837TIP3   OH277925   5.078   0.699   6.800  0.4924  0.5121 -0.2891
18837TIP3    H177926   5.134   0.669   6.728  3.0538 -0.5050  1.9451
18837TIP3    H277927   5.076   0.625   6.861 -1.1085  1.5239  0.9713
18838TIP3   OH277928   1.865   4.639  11.391  0.2003  0.3713 -0.8124
18838TIP3    H177929   1.903   4.560  11.430  0.9061  1.3343  0.4917
18838TIP3    H277930   1.924   4.660  11.319  0.6229  0.3254 -0.4810
18839TIP3   OH277931   5.657   3.506   3.327  0.3712 -0.4548  0.3307
18839TIP3    H177932   5.683   3.592   3.362  2.2159 -0.9733  0.3564
18839TIP3    H277933   5.629   3.525   3.237 -1.5267  0.4616  1.0572
18840TIP3   OH277934   2.040   0.713   6.114 -0.6050 -0.0975 -0.0087
18840TIP3    H177935   2.058   0.732   6.022 -4.3028  3.3432 -0.3309
18840TIP3    H277936   2.080   0.628   6.130  0.4021 -0.7677 -4.7050
18841TIP3   OH277937   2.891   4.440  12.260 -0.1299  0.0784 -0.0000
18841TIP3    H177938   2.817   4.500  12.267  0.0578  0.1830  1.2217
18841TIP3    H277939   2.913   4.417  12.350  2.8138  1.8655 -0.1275
18842TIP3   OH277940   1.114   0.485   1.900 -0.4955  0.3457  0.1999
18842TIP3    H177941   1.036   0.472   1.954 -1.0716  1.9141 -0.1902
18842TIP3    H277942   1.079   0.494   1.811  0.2478 -0.0393 -0.1415
18843TIP3   OH277943   4.115   5.724  13.535 -0.0122 -0.5181  0.0897
18843TIP3    H177944   4.163   5.727  13.453  0.5746 -2.7874  0.2997
18843TIP3    H277945   4.125   5.812  13.572  1.3880 -0.0573 -1.3132
18844TIP3   OH277946   4.474   3.690  15.211 -0.1348  0.1172 -0.0467
18844TIP3    H177947   4.522   3.767  15.240  1.2757  0.0414 -1.9940
18844TIP3    H277948   4.399   3.725  15.163  0.7793  0.3395 -1.3699
18845TIP3   OH277949   2.614   3.568  14.285  0.7277  0.3285  0.3226
18845TIP3    H177950   2.572   3.651  14.264 -2.0907 -0.3975  2.4233
18845TIP3    H277951   2.684   3.592  14.347  3.4024  1.5029 -2.8518
18846TIP3   OH277952   1.980   6.439  14.445 -0.7354 -0.4508 -0.2758
18846TIP3    H177953   1.961   6.519  14.396  0.1281 -1.6526 -2.7136
18846TIP3    H277954   2.030   6.384  14.384 -0.7989 -2.6288  1.4986
18847TIP3   OH277955   6.599   1.985   0.406 -0.2112  0.5764 -0.5387
18847TIP3    H177956   6.599   1.892   0.381  1.7954 -0.1396  1.7742
18847TIP3    H277957   6.529   2.023   0.352 -1.0707 -2.2254 -1.6396
18848TIP3   OH277958   5.636   6.609   1.122 -0.2637 -0.3096 -0.4290
18848TIP3    H177959   5.607   6.654   1.042  1.0193  0.6467 -0.3975
18848TIP3    H277960   5.643   6.517   1.097  0.8546  0.0883 -1.6546
18849TIP3   OH277961   4.655   4.969   1.093 -0.2024 -0.2752 -0.1428
18849TIP3    H177962   4.562   4.945   1.094 -0.7816  1.7425  1.5225
18849TIP3    H277963   4.691   4.926   1.170 -0.3965  1.0195  0.7036
18850TIP3   OH277964   0.679   3.042  11.077  0.0715 -0.3788  0.0227
18850TIP3    H177965   0.599   3.028  11.026 -0.6266  0.9518  0.7030
18850TIP3    H277966   0.729   3.105  11.026  0.0749 -0.2045  0.2427
18851TIP3   OH277967   3.535   1.496   2.317  0.0590 -0.7997 -0.2390
18851TIP3    H177968   3.456   1.509   2.369  0.1059  1.5464 -0.6510
18851TIP3    H277969   3.506   1.507   2.227  0.4786 -2.1313 -0.5527
18852TIP3   OH277970   5.026   1.586   0.409  0.1612  0.0682  0.3225
18852TIP3    H177971   5.110   1.610   0.448 -0.2677  2.1989  0.0636
18852TIP3    H277972   5.036   1.606   0.316 -0.4703 -0.1140  0.2112
18853TIP3   OH277973   6.619   2.670  13.079 -0.2402 -0.0516  0.6116
18853TIP3    H177974   6.663   2.603  13.131 -0.1376  0.6125  1.4184
18853TIP3    H277975   6.648   2.753  13.118 -0.8770  0.4441  0.0636
18854TIP3   OH277976   4.066   5.659   2.788 -0.8783 -0.1636  0.1148
18854TIP3    H177977   4.031   5.573   2.813 -0.9908 -0.0630  0.3101
18854TIP3    H277978   4.009   5.688   2.717 -0.3978 -0.5668 -0.4520
18855TIP3   OH277979   0.807   3.287   0.737  0.0202 -0.1421 -0.0405
18855TIP3    H177980   0.874   3.346   0.773  0.2815  0.4965 -1.5308
18855TIP3    H277981   0.793   3.317   0.648 -1.2215 -1.1856 -0.2279
18856TIP3   OH277982   0.924   3.084   3.712  0.1154  0.2581 -0.1046
18856TIP3    H177983   1.019   3.071   3.714  0.2219  0.9449 -0.4241
18856TIP3    H277984   0.888   2.996   3.721  0.7887 -0.1065 -0.8472
18857TIP3   OH277985   5.573   3.996   5.092 -0.2783 -0.2323 -0.2333
18857TIP3    H177986   5.564   4.034   5.179  2.7024 -0.7414  0.4126
18857TIP3    H277987   5.518   3.918   5.094 -1.2725  0.4672  0.7162
18858TIP3   OH277988   4.090   0.177  16.011  0.0884 -0.2418  0.7427
18858TIP3    H177989   4.114   0.085  16.024 -0.6563 -0.6044 -0.2911
18858TIP3    H277990   4.169   0.226  16.033  0.2459 -1.0632  2.1385
18859TIP3   OH277991   6.354   2.955   4.326 -0.0357  0.2271 -0.1349
18859TIP3    H177992   6.407   2.936   4.403  1.0859  1.2212 -0.6410
18859TIP3    H277993   6.358   2.875   4.274 -0.0210 -0.1188  0.3886
18860TIP3   OH277994   0.711   4.604  10.988 -0.5035 -0.1274 -0.4967
18860TIP3    H177995   0.670   4.624  10.904 -0.8831  0.0705 -0.2660
18860TIP3    H277996   0.641   4.617  11.053 -0.1665 -0.1118 -0.1338
18861TIP3   OH277997   0.407   4.818   4.108  0.0032  0.5821 -0.3982
18861TIP3    H177998   0.382   4.729   4.082  1.8776  0.2835 -1.3595
18861TIP3    H277999   0.388   4.822   4.202  1.2829 -1.3946  0.0124
18862TIP3   OH278000   0.047   1.628   5.169 -0.0351  0.8367  0.1438
18862TIP3    H178001  -0.006   1.553   5.144 -0.2429  0.5885  1.2740
18862TIP3    H278002   0.050   1.683   5.091 -2.4129  1.1347  0.2136
18863TIP3   OH278003   2.516   5.737   3.682 -0.2837  0.2600 -0.0672
18863TIP3    H178004   2.607   5.758   3.702  0.8797 -3.5799 -0.4429
18863TIP3    H278005   2.477   5.717   3.767  0.7013 -2.5958 -0.1625
18864TIP3   OH278006   1.877   1.660   1.311  0.5949  0.4574  0.8616
18864TIP3    H178007   1.865   1.569   1.288 -0.9839  0.3520  1.9121
18864TIP3    H278008   1.959   1.662   1.360  0.6818 -0.3754  0.7578
18865TIP3   OH278009   4.201   5.891  16.299 -0.3085  0.2750 -0.1693
18865TIP3    H178010   4.110   5.885  16.328 -0.1811 -0.9410  0.0488
18865TIP3    H278011   4.252   5.865  16.376  0.1738  0.1222 -0.5352
18866TIP3   OH278012   0.290   6.314  15.191  0.6213  0.3189 -0.2862
18866TIP3    H178013   0.312   6.330  15.283  0.8835 -0.2694 -0.2459
18866TIP3    H278014   0.310   6.222  15.177  0.4533  0.3732 -0.9000
18867TIP3   OH278015   3.953   6.416   6.569 -0.4624 -0.0794  0.6347
18867TIP3    H178016   3.861   6.435   6.551 -0.5609 -0.7623  0.3487
18867TIP3    H278017   3.980   6.482   6.633 -1.0330  0.3808  0.4063
18868TIP3   OH278018   1.299   0.266  16.764  0.0951  0.2549  0.4161
18868TIP3    H178019   1.247   0.338  16.727  1.7391  1.3248  0.1152
18868TIP3    H278020   1.344   0.305  16.839  1.8665 -0.1448 -0.4093
18869TIP3   OH278021   3.735   0.368  11.091 -0.2445  0.0035 -0.3322
18869TIP3    H178022   3.661   0.403  11.042  0.1872  0.5982 -0.5721
18869TIP3    H278023   3.806   0.363  11.027 -0.3684 -1.6013 -0.3783
18870TIP3   OH278024   1.964   0.395  16.689 -0.2521  0.6777  0.4856
18870TIP3    H178025   1.934   0.305  16.705 -0.2662  1.0186  2.6626
18870TIP3    H278026   1.896   0.433  16.634 -0.5189 -0.4823 -0.0184
18871TIP3   OH278027   3.986   1.774   0.782  0.6520 -0.4714 -0.7031
18871TIP3    H178028   4.035   1.753   0.862 -2.3104 -1.5958  0.9778
18871TIP3    H278029   3.980   1.869   0.782  0.5303 -0.4610  0.5430
18872TIP3   OH278030   3.547   6.149   5.983 -0.1764  0.0520  0.3134
18872TIP3    H178031   3.570   6.114   6.069 -0.5695 -0.6997  0.1216
18872TIP3    H278032   3.544   6.244   5.996  2.1858  0.1609  0.5345
18873TIP3   OH278033   1.118   2.648  11.731  0.0514  0.3173  0.5515
18873TIP3    H178034   1.063   2.596  11.672  1.5323 -0.3476 -0.3054
18873TIP3    H278035   1.063   2.663  11.808 -0.4585 -2.6556  0.9098
18874TIP3   OH278036   4.994   4.009   0.377 -0.5630  0.0554  0.1631
18874TIP3    H178037   5.014   3.918   0.397  0.5697  0.1902 -0.2452
18874TIP3    H278038   5.051   4.031   0.304  0.5551  1.6127  1.4104
18875TIP3   OH278039   6.607   5.987  13.571 -0.2442  0.9492  0.2366
18875TIP3    H178040   6.626   6.019  13.483  2.7249 -0.6714  0.1515
18875TIP3    H278041   6.598   5.892  13.561 -2.3946  0.9701  1.3782
18876TIP3   OH278042   5.218   5.727   6.739 -0.4961  0.0994 -0.0786
18876TIP3    H178043   5.157   5.774   6.681 -1.4762 -0.7945  0.2040
18876TIP3    H278044   5.164   5.696   6.812  0.5214  0.2753  0.7780
18877TIP3   OH278045   0.809   6.216  13.685 -0.0278  0.3379  0.2505
18877TIP3    H178046   0.753   6.155  13.732  0.8581  0.1442  1.0833
18877TIP3    H278047   0.854   6.266  13.753  1.0228  0.2922 -0.3805
18878TIP3   OH278048   0.143   2.057  12.428 -0.5395  0.2087  0.3139
18878TIP3    H178049   0.105   1.974  12.401 -0.1407  1.0455 -3.4595
18878TIP3    H278050   0.068   2.116  12.439 -0.7099  0.1075 -0.2330
18879TIP3   OH278051   5.881   0.759   0.411 -0.1304  0.6387 -0.4178
18879TIP3    H178052   5.890   0.839   0.462  0.2322  0.5548 -0.3532
18879TIP3    H278053   5.961   0.710   0.427 -0.8905 -0.3416  0.5893
18880TIP3   OH278054   0.141   2.736  11.831 -0.0179  0.2213  0.1062
18880TIP3    H178055   0.191   2.666  11.790  0.7641  0.7283  0.1705
18880TIP3    H278056   0.207   2.797  11.864 -0.6569  0.4127  1.0796
18881TIP3   OH278057   4.798   2.299  15.150 -0.3380 -0.6912  0.5555
18881TIP3    H178058   4.808   2.318  15.056  0.5836 -0.0054  0.7764
18881TIP3    H278059   4.752   2.215  15.152 -1.5946 -0.0716 -0.4909
18882TIP3   OH278060   0.821   6.359   1.606  0.2372  0.4656 -0.0137
18882TIP3    H178061   0.894   6.416   1.581  1.4016 -1.1181 -0.3654
18882TIP3    H278062   0.817   6.294   1.536  0.4567 -1.2552  1.5156
18883TIP3   OH278063   1.316   2.247   6.056 -0.3040 -0.5623 -0.6563
18883TIP3    H178064   1.380   2.265   6.125 -0.2825  1.3305 -1.1046
18883TIP3    H278065   1.367   2.210   5.984 -0.0904 -1.1219 -0.2263
18884TIP3   OH278066   0.298   5.361  15.514 -0.0835 -0.0712 -0.0656
18884TIP3    H178067   0.367   5.296  15.529  0.4026  0.2730 -0.7181
18884TIP3    H278068   0.325   5.437  15.566  0.0480  0.0727 -0.3410
18885TIP3   OH278069   1.220   1.148  13.215  0.1550  0.1090  0.6093
18885TIP3    H178070   1.167   1.197  13.152  1.8157  0.1469 -0.8199
18885TIP3    H278071   1.216   1.201  13.295  1.1334  2.1566 -0.6088
18886TIP3   OH278072   3.861   6.209  16.151  0.5008 -0.1172  0.1992
18886TIP3    H178073   3.898   6.176  16.233  0.3710  0.0024  0.3068
18886TIP3    H278074   3.879   6.303  16.152  0.1919 -0.0571  0.2548
18887TIP3   OH278075   0.002   5.644   1.148  0.3700  0.3165 -0.0268
18887TIP3    H178076   0.001   5.607   1.060  1.0020 -0.7116  0.3849
18887TIP3    H278077  -0.084   5.622   1.184 -0.4057  1.8838 -0.8226
18888TIP3   OH278078   5.520   1.111  16.379 -0.1120 -0.0990  0.3129
18888TIP3    H178079   5.599   1.143  16.422 -0.2450 -0.3412  0.7416
18888TIP3    H278080   5.529   1.140  16.288  0.4868 -0.1601  0.3503
18889TIP3   OH278081   3.446   6.470   4.711 -0.2313  0.3555 -0.2451
18889TIP3    H178082   3.485   6.537   4.655  0.8100  0.4118  0.5347
18889TIP3    H278083   3.520   6.420   4.746 -0.9653 -1.0967 -0.6535
18890TIP3   OH278084   2.699   0.228   4.294 -0.3504 -0.6023 -0.1385
18890TIP3    H178085   2.684   0.148   4.344 -0.4442 -0.5109 -0.0212
18890TIP3    H278086   2.625   0.233   4.233 -0.2307 -0.7189 -0.2967
18891TIP3   OH278087   3.397   1.777  15.979  0.0353 -0.4699 -0.1126
18891TIP3    H178088   3.484   1.753  15.945  0.0393 -2.2740  1.0815
18891TIP3    H278089   3.380   1.863  15.939  2.3304 -0.0777 -0.4296
18892TIP3   OH278090   1.539   3.357  14.695  0.2609 -0.0153  0.4416
18892TIP3    H178091   1.595   3.314  14.760 -1.1072 -1.4446  0.7051
18892TIP3    H278092   1.454   3.366  14.738 -0.6275 -0.8405 -1.0694
18893TIP3   OH278093   3.136   1.880   4.473  0.0437  0.3287 -0.2561
18893TIP3    H178094   3.199   1.817   4.437 -0.8425 -0.8559  0.2081
18893TIP3    H278095   3.052   1.854   4.437 -0.5335  0.4695  0.9223
18894TIP3   OH278096   5.065   3.654   3.992  0.2687 -0.3363  0.7770
18894TIP3    H178097   5.161   3.656   3.984  0.3235 -0.9042  1.2440
18894TIP3    H278098   5.035   3.721   3.931  0.8021 -2.4725 -2.0218
18895TIP3   OH278099   2.406   3.907   4.428 -0.3230  0.2248  0.1113
18895TIP3    H178100   2.502   3.909   4.430 -0.2846  1.3478 -1.5250
18895TIP3    H278101   2.385   3.814   4.418  0.6326  0.0722 -0.6525
18896TIP3   OH278102   2.537   3.112   2.032 -0.0424 -0.0128 -0.1650
18896TIP3    H178103   2.470   3.114   1.964  1.4492 -1.4624 -1.7662
18896TIP3    H278104   2.602   3.177   2.003  0.7074 -0.7952 -0.2678
18897TIP3   OH278105   5.509   5.359  15.163 -0.2104  0.1500  0.0977
18897TIP3    H178106   5.505   5.407  15.080 -0.6650  0.5754  0.3613
18897TIP3    H278107   5.465   5.416  15.226 -0.2193 -0.3446  0.5476
18898TIP3   OH278108   1.773   6.259  14.379  0.2528  0.8232 -0.3248
18898TIP3    H178109   1.839   6.314  14.422  0.1997  1.3816 -0.9481
18898TIP3    H278110   1.820   6.216  14.308  0.0856  0.7492 -0.3912
18899TIP3   OH278111   5.875   4.326  13.758 -0.0066  0.0976  0.2682
18899TIP3    H178112   5.933   4.385  13.710 -0.5472  2.1321  1.9837
18899TIP3    H278113   5.787   4.351  13.731 -0.3012  1.0397  1.9763
18900TIP3   OH278114   5.636   0.331  15.346  0.1176  0.5880  0.3881
18900TIP3    H178115   5.676   0.347  15.432  0.8131  1.0932 -0.0204
18900TIP3    H278116   5.561   0.275  15.365  1.3821 -0.9353  1.0929
18901TIP3   OH278117   1.293   0.280  14.669  0.1299  0.0079  0.4004
18901TIP3    H178118   1.245   0.245  14.744 -0.4554  0.5941  0.3154
18901TIP3    H278119   1.297   0.207  14.607  0.3804 -0.3965  0.8873
18902TIP3   OH278120   1.096   3.869  12.709  1.0228 -0.0233  0.1548
18902TIP3    H178121   1.188   3.873  12.735  0.8795 -0.6601  0.8053
18902TIP3    H278122   1.098   3.841  12.617  1.4911  0.5188 -0.0048
18903TIP3   OH278123   1.537   0.194   5.641 -0.0232  0.1287 -0.7498
18903TIP3    H178124   1.507   0.144   5.716  0.3088  1.0047 -0.0186
18903TIP3    H278125   1.457   0.236   5.608 -0.0122  0.5550 -0.2541
18904TIP3   OH278126   4.212   2.884  12.107 -0.5079  0.1493  0.2361
18904TIP3    H178127   4.198   2.837  12.025  0.9627  0.8801 -0.4728
18904TIP3    H278128   4.126   2.922  12.128 -0.9690 -0.2712 -0.8170
18905TIP3   OH278129   0.206   4.563   3.971 -0.1541  0.1451  0.0464
18905TIP3    H178130   0.214   4.627   3.900  0.9179 -1.0819 -0.9997
18905TIP3    H278131   0.116   4.530   3.965 -0.7046  1.4880  0.5759
18906TIP3   OH278132   4.911   0.282   1.220 -0.0707  0.0206 -0.5175
18906TIP3    H178133   4.864   0.276   1.137 -0.0909  0.2846 -0.5243
18906TIP3    H278134   4.865   0.222   1.278 -0.2922  0.1283 -0.5822
18907TIP3   OH278135   5.321   2.572   0.676  0.1169  0.8194  0.6438
18907TIP3    H178136   5.243   2.521   0.699 -0.0724  1.1115  0.6602
18907TIP3    H278137   5.369   2.582   0.758  1.0727 -0.8436  0.3241
18908TIP3   OH278138   0.235   4.448   1.266  0.0133 -0.1135  0.7820
18908TIP3    H178139   0.280   4.507   1.206 -1.3416  0.6370  0.4553
18908TIP3    H278140   0.305   4.408   1.317  1.1385 -0.1578 -0.7319
18909TIP3   OH278141   0.742   2.930   1.859  0.1870  0.1626 -0.3404
18909TIP3    H178142   0.790   3.001   1.901 -1.1973 -0.5548  2.7054
18909TIP3    H278143   0.810   2.868   1.833  1.1860  1.1372 -0.1602
18910TIP3   OH278144   6.275   4.719   2.218 -0.1012 -0.2573 -0.1864
18910TIP3    H178145   6.331   4.728   2.141 -1.0181 -2.2806 -1.1631
18910TIP3    H278146   6.186   4.708   2.183 -0.5875 -0.9224  1.1638
18911TIP3   OH278147   2.343   1.813   2.392 -0.6736 -0.0575 -0.1224
18911TIP3    H178148   2.415   1.785   2.335 -1.0033 -0.4358 -0.3556
18911TIP3    H278149   2.332   1.742   2.454 -1.7758 -0.6635 -0.9645
18912TIP3   OH278150   6.235   1.633  16.479 -0.3592  0.2036  0.6802
18912TIP3    H178151   6.196   1.547  16.494 -1.1409  0.5257  0.5587
18912TIP3    H278152   6.175   1.676  16.419  0.1643  0.7389  0.5324
18913TIP3   OH278153   3.171   3.927   1.479 -0.0717 -0.2704 -0.1495
18913TIP3    H178154   3.163   3.952   1.387  1.8767 -0.1914 -0.3299
18913TIP3    H278155   3.265   3.922   1.494 -0.3723 -1.3096  1.5726
18914TIP3   OH278156   4.944   1.757   5.232 -0.4665  0.1970 -0.0091
18914TIP3    H178157   4.950   1.740   5.326 -0.3172  0.9322  0.1254
18914TIP3    H278158   4.942   1.671   5.191  1.4990 -0.1514  0.5503
18915TIP3   OH278159   6.485   0.198   2.195 -0.1013  0.8431 -0.5343
18915TIP3    H178160   6.443   0.263   2.139  1.9138  1.8540 -0.9697
18915TIP3    H278161   6.524   0.248   2.266 -2.2624 -0.3791  1.6671
18916TIP3   OH278162   0.465   1.269   5.086 -0.0914 -1.0235  0.8485
18916TIP3    H178163   0.543   1.280   5.141  0.5662  1.0179 -0.3596
18916TIP3    H278164   0.406   1.339   5.115  0.7478  0.8815 -1.6810
18917TIP3   OH278165   6.198   5.191   4.377 -0.3831  0.0320  0.5403
18917TIP3    H178166   6.259   5.157   4.312 -0.5847  0.1578  0.2799
18917TIP3    H278167   6.247   5.258   4.425  0.1962 -1.0096  1.4425
18918TIP3   OH278168   5.562   3.923   5.585  0.1603 -0.0383  0.3908
18918TIP3    H178169   5.596   3.978   5.656 -2.2470  0.7938  0.9991
18918TIP3    H278170   5.540   3.840   5.628  0.6127 -0.2635  0.1872
18919TIP3   OH278171   4.422   4.445   5.247  0.2138 -0.1224 -0.0741
18919TIP3    H178172   4.501   4.468   5.297  2.7112 -3.3127 -2.1614
18919TIP3    H278173   4.390   4.365   5.287 -4.4951  2.8332  3.0610
18920TIP3   OH278174   5.698   0.483   0.414 -0.3565  0.2269  1.1569
18920TIP3    H178175   5.778   0.536   0.418  1.3596 -2.1490  0.8746
18920TIP3    H278176   5.627   0.546   0.423  1.4250  2.8013 -1.0940
18921TIP3   OH278177   5.297   5.185   5.775  0.3796 -0.4468  0.3360
18921TIP3    H178178   5.242   5.140   5.710  0.1726 -0.7748  0.7318
18921TIP3    H278179   5.329   5.262   5.729 -0.3191 -0.3131  0.0531
18922TIP3   OH278180   6.235   3.245   1.222  0.4235 -0.8108  0.1588
18922TIP3    H178181   6.280   3.161   1.222 -0.5633 -1.3594  0.8537
18922TIP3    H278182   6.179   3.242   1.145  1.3029 -0.2722 -0.5104
18923TIP3   OH278183   1.764   1.227   1.710 -0.4486 -0.3993 -0.3637
18923TIP3    H178184   1.793   1.260   1.626  0.1734 -0.1649 -0.0604
18923TIP3    H278185   1.727   1.303   1.755 -0.4713 -0.4525 -0.2916
18924TIP3   OH278186   6.260   1.415   1.259  0.1886 -0.4892  0.2791
18924TIP3    H178187   6.283   1.376   1.343  2.0183 -2.2942 -0.9785
18924TIP3    H278188   6.250   1.341   1.200 -0.0259  0.7823 -1.3428
18925TIP3   OH278189   0.630   3.509  14.467  0.5719 -0.2272  0.1917
18925TIP3    H178190   0.626   3.458  14.386  0.4568 -0.0483  0.0858
18925TIP3    H278191   0.617   3.599  14.440 -1.5329 -0.3449  0.6150
18926TIP3   OH278192   1.847   0.708   4.677  0.3040 -0.5859  0.5258
18926TIP3    H178193   1.858   0.787   4.730 -1.9189 -1.1170  1.9502
18926TIP3    H278194   1.832   0.740   4.588  1.8339  0.4381  0.5985
18927TIP3   OH278195   1.769   5.268   0.111  0.1808  0.4709 -0.3265
18927TIP3    H178196   1.735   5.185   0.143  0.5555 -0.1205 -1.4059
18927TIP3    H278197   1.698   5.331   0.125 -0.3648 -0.1823 -0.1336
18928TIP3   OH278198   1.324   2.778  13.971  0.1212  0.4691 -0.2650
18928TIP3    H178199   1.254   2.815  14.025 -0.4350 -0.6118 -0.2208
18928TIP3    H278200   1.317   2.684  13.983  0.9157  0.2852 -1.0992
18929TIP3   OH278201   2.580   3.745  13.253 -0.4611 -0.0637  0.0705
18929TIP3    H178202   2.614   3.808  13.317 -0.7421  1.3751 -1.1452
18929TIP3    H278203   2.510   3.699  13.299 -0.8896  1.1867  0.7010
18930TIP3   OH278204   2.659   1.578  12.803  0.8750  0.1648 -0.0906
18930TIP3    H178205   2.657   1.534  12.718 -0.4346  1.0730 -0.5675
18930TIP3    H278206   2.669   1.671  12.781  1.2090  0.3408  0.7830
18931TIP3   OH278207   6.442   3.120  10.803 -0.6881  0.5756 -0.5939
18931TIP3    H178208   6.532   3.091  10.790 -0.5921 -0.0413  1.2333
18931TIP3    H278209   6.431   3.191  10.740  1.1761  0.8734 -0.6441
18932TIP3   OH278210   3.214   1.344   5.767 -0.2727 -0.1291  0.8403
18932TIP3    H178211   3.146   1.400   5.730 -0.6868 -1.3177 -0.2683
18932TIP3    H278212   3.247   1.294   5.692  0.1609 -1.2786  1.7701
18933TIP3   OH278213   5.105   4.244  14.704  0.5722 -0.5319  0.4736
18933TIP3    H178214   5.088   4.195  14.784  0.5798  0.2189  0.9463
18933TIP3    H278215   5.068   4.190  14.635 -0.1514 -0.8157  1.0669
18934TIP3   OH278216   6.219   5.360  17.146 -0.2653  0.2031  0.1593
18934TIP3    H178217   6.289   5.376  17.210 -0.5174  2.2532 -0.0032
18934TIP3    H278218   6.231   5.269  17.120 -0.6084 -1.0156  3.6767
18935TIP3   OH278219   3.372   5.016   3.810 -0.4769 -0.5130 -0.0669
18935TIP3    H178220   3.414   5.100   3.830  0.1866 -0.7935 -0.2270
18935TIP3    H278221   3.339   5.026   3.721 -2.0376  0.1994  0.5656
18936TIP3   OH278222   6.600   3.238  13.632  0.2081 -0.4698 -0.1579
18936TIP3    H178223   6.516   3.192  13.628  1.0373 -2.0118 -1.3421
18936TIP3    H278224   6.610   3.278  13.546 -0.2530  1.5601  0.6892
18937TIP3   OH278225   3.836   0.000  12.914 -0.0147 -0.4006 -0.4127
18937TIP3    H178226   3.769  -0.037  12.971  0.1888  1.1144  0.9085
18937TIP3    H278227   3.918  -0.041  12.944  0.1430  0.6577  0.7042
18938TIP3   OH278228   3.942   5.855  15.423 -0.3593  0.3845 -0.5303
18938TIP3    H178229   4.034   5.834  15.432 -0.5784  0.0632  1.4428
18938TIP3    H278230   3.922   5.909  15.500 -2.5215 -2.2538  0.9291
18939TIP3   OH278231   2.218   1.334   2.483  0.1008 -0.1057 -0.8088
18939TIP3    H178232   2.168   1.367   2.558  0.7445 -1.4714  0.2730
18939TIP3    H278233   2.295   1.391   2.479  1.4892 -1.6728  1.3915
18940TIP3   OH278234   0.471   3.976  15.013 -0.0386  1.0327 -0.3514
18940TIP3    H178235   0.433   4.026  14.940  0.5186 -0.7730 -1.9645
18940TIP3    H278236   0.554   3.943  14.978  0.4291  0.4131  1.2529
18941TIP3   OH278237   0.805   5.609   3.605 -0.0389 -0.4448 -0.1394
18941TIP3    H178238   0.830   5.696   3.574  0.8215 -0.9808 -0.9998
18941TIP3    H278239   0.815   5.614   3.700 -0.3048  0.4850 -0.1495
18942TIP3   OH278240   3.426   2.815   3.168  0.1793 -0.7595  0.2706
18942TIP3    H178241   3.447   2.845   3.080 -0.2585  3.1780  1.3330
18942TIP3    H278242   3.333   2.791   3.163 -0.4005  1.3341 -0.0045
18943TIP3   OH278243   0.474   4.941  13.160  0.5096  0.7022  0.3464
18943TIP3    H178244   0.564   4.910  13.170 -0.0093 -1.8365 -1.6608
18943TIP3    H278245   0.425   4.897  13.229  0.4280  0.0990 -0.0868
18944TIP3   OH278246   0.627   0.738  13.974 -0.4314  0.1770  0.5590
18944TIP3    H178247   0.707   0.783  14.003 -0.2409  1.0771 -1.2274
18944TIP3    H278248   0.653   0.647  13.964  0.4571  0.4938 -0.1968
18945TIP3   OH278249   3.806   5.648  12.061  0.1206 -0.0196 -0.4147
18945TIP3    H178250   3.857   5.639  11.981 -1.9619 -1.4520 -1.7017
18945TIP3    H278251   3.745   5.574  12.059 -1.3761  1.0513  1.4413
18946TIP3   OH278252   4.703   6.218  15.860 -0.3383  0.0351 -0.4499
18946TIP3    H178253   4.673   6.127  15.851 -0.3608  0.1362 -1.4561
18946TIP3    H278254   4.766   6.215  15.932  1.2604 -1.1880 -1.8396
18947TIP3   OH278255   0.191   0.796  13.988  0.3521  0.0069  0.8932
18947TIP3    H178256   0.137   0.836  14.056  1.1691 -2.7391  3.3760
18947TIP3    H278257   0.178   0.702  13.999  3.2435 -0.6652 -0.4278
18948TIP3   OH278258   0.182   3.407  11.153  0.1290  0.0862 -0.1710
18948TIP3    H178259   0.257   3.357  11.121  1.0093  0.4714  1.2029
18948TIP3    H278260   0.116   3.340  11.172  0.7248 -0.4242  0.1661
18949TIP3   OH278261   2.774   4.230  16.707 -0.4444 -0.5099  0.4762
18949TIP3    H178262   2.765   4.280  16.626 -2.8576 -0.6548  0.5658
18949TIP3    H278263   2.684   4.220  16.739  0.4615  0.2525  3.6311
18950TIP3   OH278264   2.724   5.569   4.266 -0.6839 -0.1670  0.0967
18950TIP3    H178265   2.754   5.501   4.326  1.4428  0.5288 -0.0834
18950TIP3    H278266   2.676   5.522   4.198 -1.0118 -1.2421  1.0411
18951TIP3   OH278267   0.149   4.427   2.815 -0.3308 -0.6906  0.0166
18951TIP3    H178268   0.115   4.464   2.733  2.8624 -0.0263 -1.1797
18951TIP3    H278269   0.169   4.503   2.869 -1.2383 -1.0831  0.9335
18952TIP3   OH278270   0.037   5.909   1.234 -0.1175  0.5088  0.0286
18952TIP3    H178271   0.120   5.912   1.281  0.5703 -0.9823 -0.9901
18952TIP3    H278272   0.031   5.819   1.202 -0.7237  1.3095 -2.3629
18953TIP3   OH278273   6.344   6.604   2.402 -0.4607  0.3567  0.2130
18953TIP3    H178274   6.302   6.685   2.430 -0.0126  0.8911 -0.6312
18953TIP3    H278275   6.337   6.604   2.306  1.1826  0.3287  0.0534
18954TIP3   OH278276   3.048   1.945   0.723  0.0893 -0.6540  0.3985
18954TIP3    H178277   3.094   2.027   0.741  0.9295 -1.2355  1.0084
18954TIP3    H278278   3.029   1.908   0.809 -2.3733 -0.0072  0.1863
18955TIP3   OH278279   5.386   4.422   4.877  0.1589  0.7551  0.2829
18955TIP3    H178280   5.361   4.488   4.942 -1.2706 -0.4736  1.0553
18955TIP3    H278281   5.387   4.340   4.926  0.6460  0.0254 -0.9215
18956TIP3   OH278282   2.966   4.140   0.398  0.1958 -0.0771 -0.3553
18956TIP3    H178283   3.045   4.140   0.451 -0.5899 -1.6418  0.9173
18956TIP3    H278284   2.975   4.063   0.342 -0.5867 -0.5291  0.1103
18957TIP3   OH278285   6.037   0.827  13.979 -0.1783  0.1728  0.2788
18957TIP3    H178286   5.977   0.835  13.906 -1.7021  0.0242  1.4737
18957TIP3    H278287   5.981   0.818  14.056  1.3674  0.3195  1.4768
18958TIP3   OH278288   2.407   2.408  15.329  0.2360 -0.1020  0.0343
18958TIP3    H178289   2.325   2.438  15.367 -0.1517 -1.9239  0.7582
18958TIP3    H278290   2.472   2.472  15.358 -0.4663 -0.1493  1.8546
18959TIP3   OH278291   5.430   6.384  16.527 -0.2850 -0.1646  0.5697
18959TIP3    H178292   5.489   6.327  16.477 -1.0139  1.5981 -2.5864
18959TIP3    H278293   5.470   6.392  16.613  4.4541  1.3003 -1.4771
18960TIP3   OH278294   1.560   1.230  15.295 -0.0832  0.0973  0.5658
18960TIP3    H178295   1.615   1.198  15.366  0.3322  0.1879  0.2876
18960TIP3    H278296   1.564   1.161  15.229  0.4858  0.5262  0.1368
18961TIP3   OH278297   4.556   0.140   5.641 -0.2270 -0.0273  0.2149
18961TIP3    H178298   4.607   0.163   5.719  0.0636 -0.6109  0.2033
18961TIP3    H278299   4.583   0.203   5.575 -0.3289  0.3508  0.5313
18962TIP3   OH278300   4.541   0.828   4.657 -0.3264 -0.0474  0.0998
18962TIP3    H178301   4.600   0.857   4.726 -1.9341  1.8665  0.7732
18962TIP3    H278302   4.572   0.871   4.578 -1.4916  2.0878  0.7073
18963TIP3   OH278303   4.200   0.573   2.978  0.2303  0.0559  0.1439
18963TIP3    H178304   4.216   0.565   2.884 -3.9358 -0.4449 -0.7609
18963TIP3    H278305   4.169   0.486   3.004  0.6312  0.3911  1.7987
18964TIP3   OH278306   0.929   4.103   0.114  0.6335  0.7399 -0.6224
18964TIP3    H178307   0.946   4.046   0.189  0.4232  2.3226  0.6773
18964TIP3    H278308   0.849   4.068   0.075  0.2897  0.3776  0.3876
18965TIP3   OH278309   3.358   6.013  15.403  0.2004  0.2131  0.2647
18965TIP3    H178310   3.322   5.984  15.319  3.5024  0.7179 -1.4893
18965TIP3    H278311   3.294   6.076  15.436 -1.1995  0.0345 -1.8948
18966TIP3   OH278312   0.362   6.156   3.403 -0.2358 -0.0600 -0.4387
18966TIP3    H178313   0.426   6.094   3.369 -0.1079 -0.1744  0.0123
18966TIP3    H278314   0.381   6.238   3.356  0.4260 -0.0161 -0.1016
18967TIP3   OH278315   4.324   4.452  14.011  0.4171 -0.2083  0.5781
18967TIP3    H178316   4.238   4.424  13.980  0.6411  2.5809 -3.4372
18967TIP3    H278317   4.382   4.438  13.936  2.6530  1.2270  1.9169
18968TIP3   OH278318   1.348   0.424   2.002  0.3747  0.1080  0.4023
18968TIP3    H178319   1.262   0.437   1.963  1.1304  0.1730 -1.3299
18968TIP3    H278320   1.330   0.391   2.090 -1.4255 -3.2307 -1.0413
18969TIP3   OH278321   5.141   3.342  13.855 -0.6642  0.3435 -0.6033
18969TIP3    H178322   5.053   3.361  13.822 -0.4356  1.1522 -0.7642
18969TIP3    H278323   5.197   3.348  13.778 -0.4160  0.1894 -0.4355
18970TIP3   OH278324   3.249   4.288  10.839  0.5481  0.6236  0.2785
18970TIP3    H178325   3.287   4.360  10.788 -0.6257  1.0858  0.0194
18970TIP3    H278326   3.215   4.330  10.918  2.3409 -0.0862  1.4853
18971TIP3   OH278327   3.279   5.964   5.064  0.1094  0.2404 -0.4754
18971TIP3    H178328   3.242   5.995   4.982 -0.8725  0.8130  0.1606
18971TIP3    H278329   3.203   5.955   5.123  0.9225  1.0870  0.7570
18972TIP3   OH278330   2.183   2.591  11.089 -0.1636 -0.0328  0.4680
18972TIP3    H178331   2.139   2.647  11.026 -1.3318 -0.0822  1.2243
18972TIP3    H278332   2.225   2.523  11.036  0.1105  0.7665 -0.3464
18973TIP3   OH278333   5.745   1.784  16.412  0.7416 -0.6075 -0.4855
18973TIP3    H178334   5.771   1.716  16.350  0.1055 -1.5146  0.2142
18973TIP3    H278335   5.684   1.740  16.471  1.1655  0.2982  0.6545
18974TIP3   OH278336   3.670   6.501  17.248 -1.0754  0.4507  0.1480
18974TIP3    H178337   3.720   6.583  17.248  1.2238 -0.7358  3.1916
18974TIP3    H278338   3.609   6.510  17.175 -0.0293  4.2776 -0.4887
18975TIP3   OH278339   1.858   5.597   0.178  0.2909  0.7294  0.1134
18975TIP3    H178340   1.817   5.585   0.092 -2.0055 -0.6797  1.2897
18975TIP3    H278341   1.855   5.691   0.194  1.5408  1.1157 -1.6594
18976TIP3   OH278342   4.295   4.910   0.670  0.5323 -0.0071 -0.0874
18976TIP3    H178343   4.200   4.915   0.669  0.4976 -0.5297 -1.3380
18976TIP3    H278344   4.315   4.819   0.644  1.3659  0.8227 -2.7199
18977TIP3   OH278345   0.784   3.098  12.403  0.3065 -0.5687 -0.1650
18977TIP3    H178346   0.707   3.125  12.453 -0.8787 -0.1094 -2.1152
18977TIP3    H278347   0.815   3.020  12.448 -0.9856 -0.4616  0.9934
18978TIP3   OH278348   1.953   1.789  11.573  0.5726 -0.0658  0.2353
18978TIP3    H178349   1.879   1.728  11.568 -0.8249  1.4872  0.9004
18978TIP3    H278350   2.023   1.746  11.523 -0.0362 -2.5798  1.3691
18979TIP3   OH278351   2.221   0.990   4.650  0.0650 -0.1941 -0.2927
18979TIP3    H178352   2.261   0.945   4.575  4.0208  1.0334  0.8554
18979TIP3    H278353   2.147   1.037   4.612  0.9363 -0.8813 -3.1118
18980TIP3   OH278354   2.089   5.539   3.858 -0.9288 -0.2491  0.3371
18980TIP3    H178355   2.041   5.577   3.932 -1.2748 -1.2912  0.6713
18980TIP3    H278356   2.023   5.525   3.790 -0.2268  2.9946 -1.2089
18981TIP3   OH278357   0.452   4.671  13.540 -0.1402  0.1361  0.1591
18981TIP3    H178358   0.497   4.591  13.513  0.3729  0.7393 -0.8211
18981TIP3    H278359   0.451   4.666  13.636 -1.5879 -1.8136  0.0957
18982TIP3   OH278360   2.401   4.753   0.856  0.8370  0.5012 -0.4170
18982TIP3    H178361   2.379   4.680   0.797  1.7428 -0.7433  0.7042
18982TIP3    H278362   2.348   4.737   0.933  1.1335  0.9686 -0.1145
18983TIP3   OH278363   3.200   0.650  12.475 -0.0929  0.1385  0.0864
18983TIP3    H178364   3.182   0.618  12.387  0.3090 -0.4390  0.2126
18983TIP3    H278365   3.143   0.599  12.532  0.7187 -0.5485  0.3113
18984TIP3   OH278366   4.966   4.846  16.061  0.3578  0.2421  0.4405
18984TIP3    H178367   4.882   4.888  16.077  0.6601  0.3254  1.9300
18984TIP3    H278368   4.975   4.845  15.966 -0.9401  0.9810  0.2956
18985TIP3   OH278369   1.747   1.989  14.879  0.3382 -0.0740 -0.3853
18985TIP3    H178370   1.715   2.079  14.878  0.9649  0.1517 -0.6028
18985TIP3    H278371   1.786   1.978  14.966  1.1741  0.2016 -0.7132
18986TIP3   OH278372   3.376   5.780  13.618  0.0527 -0.4604 -1.0762
18986TIP3    H178373   3.412   5.784  13.707 -0.0598 -1.6052 -0.9634
18986TIP3    H278374   3.450   5.752  13.564  0.4241  1.3179 -1.5535
18987TIP3   OH278375   1.817   5.703  12.700 -0.1064  0.6572  0.0835
18987TIP3    H178376   1.829   5.779  12.643 -0.9396  0.3632 -0.4933
18987TIP3    H278377   1.824   5.627  12.642  0.0909  0.3119  0.5513
18988TIP3   OH278378   4.827   5.084  16.624  0.6626  0.2279 -0.5300
18988TIP3    H178379   4.793   5.087  16.535 -0.2931  0.3845 -0.1669
18988TIP3    H278380   4.859   5.173  16.640  1.9380 -0.1005 -1.1236
18989TIP3   OH278381   6.213   2.114   3.570  0.3034  0.1754  0.0707
18989TIP3    H178382   6.256   2.175   3.511 -0.9890  2.1539  1.0590
18989TIP3    H278383   6.281   2.089   3.633  1.2806 -0.7746 -1.3070
18990TIP3   OH278384   1.479   1.946  16.029  0.1672 -0.2584  0.7603
18990TIP3    H178385   1.527   1.959  15.947 -1.4796  0.6064 -0.1153
18990TIP3    H278386   1.459   1.852  16.030  2.7010 -0.8872  1.6929
18991TIP3   OH278387   1.225   3.009   1.578  0.1132 -0.6789 -0.3844
18991TIP3    H178388   1.186   3.031   1.662 -0.7419 -0.6434 -0.7836
18991TIP3    H278389   1.294   2.946   1.599  4.4769  3.9529  1.1780
18992TIP3   OH278390   4.709   2.168  12.837  0.1497 -0.4416  0.0441
18992TIP3    H178391   4.632   2.112  12.828  1.2804 -2.0614 -0.0043
18992TIP3    H278392   4.756   2.132  12.912  0.1270  1.4896  1.0547
18993TIP3   OH278393   4.992   0.244  11.429 -0.7021  0.0645  0.0609
18993TIP3    H178394   4.984   0.163  11.479  1.7180 -0.0194  0.4493
18993TIP3    H278395   4.907   0.255  11.386 -1.0849 -2.6977 -0.0557
18994TIP3   OH278396   3.958   3.229  13.296  0.2076 -0.2852 -0.3491
18994TIP3    H178397   3.898   3.223  13.370  0.9641 -2.1419  0.1648
18994TIP3    H278398   4.039   3.266  13.333  0.6178 -1.3020 -0.1970
18995TIP3   OH278399   2.300   5.060   5.383 -0.0761  0.0862 -0.1093
18995TIP3    H178400   2.228   5.074   5.445 -0.6475 -1.1722 -0.4551
18995TIP3    H278401   2.339   4.977   5.409 -0.5161 -0.6278 -1.5641
18996TIP3   OH278402   4.368   5.708   6.299  0.2962  0.2045 -0.0157
18996TIP3    H178403   4.433   5.730   6.366 -0.3471  1.2788  0.2827
18996TIP3    H278404   4.381   5.774   6.230 -1.3445  1.3088  0.6676
18997TIP3   OH278405   1.156   3.049   5.765  0.6204 -0.0506 -0.0675
18997TIP3    H178406   1.104   3.094   5.699  0.1089 -1.3929 -0.6332
18997TIP3    H278407   1.106   2.970   5.785  0.3394  0.7083  2.5750
18998TIP3   OH278408   3.973   4.513  14.696 -0.0567 -0.2601 -0.4124
18998TIP3    H178409   3.881   4.487  14.697 -0.3300  0.5180 -2.2556
18998TIP3    H278410   3.972   4.606  14.674  1.1777 -0.2831 -0.6391
18999TIP3   OH278411   5.173   4.064   3.627  0.5331  0.0353 -0.1290
18999TIP3    H178412   5.195   4.142   3.577  0.3739  0.5473  0.5898
18999TIP3    H278413   5.231   3.996   3.591  1.2321  0.6654 -0.2216
19000TIP3   OH278414   4.860   0.691   4.328  0.3054  0.0644  0.2595
19000TIP3    H178415   4.901   0.746   4.261 -1.9191 -0.0016 -1.2746
19000TIP3    H278416   4.783   0.740   4.356 -0.1508 -1.0088  0.9805
19001TIP3   OH278417   4.637   2.156  11.889  0.0053  0.1156 -0.0166
19001TIP3    H178418   4.581   2.219  11.936  0.0221  0.1876 -0.0941
19001TIP3    H278419   4.580   2.120  11.822 -0.9649 -2.1918  1.8992
19002TIP3   OH278420   0.631   2.614  12.864 -0.1080  0.3623  0.4015
19002TIP3    H178421   0.566   2.545  12.884 -2.9806  2.4889 -0.8889
19002TIP3    H278422   0.701   2.568  12.818 -1.7776 -1.7782 -0.1934
19003TIP3   OH278423   5.827   0.999   6.333  0.2920  0.1085  0.4450
19003TIP3    H178424   5.846   0.913   6.370 -0.5000 -0.1413  0.2910
19003TIP3    H278425   5.733   0.997   6.315  0.1742  1.1745  0.8819
19004TIP3   OH278426   4.218   2.531   6.193 -0.1154 -0.0431  0.0168
19004TIP3    H178427   4.290   2.478   6.226  0.4278  1.8188  2.0493
19004TIP3    H278428   4.176   2.476   6.127  1.2940 -2.3760  0.9403
19005TIP3   OH278429   1.278   6.618  13.931 -0.0128  0.2448 -0.3748
19005TIP3    H178430   1.250   6.605  14.021  2.4017  2.2477  0.7619
19005TIP3    H278431   1.324   6.537  13.908 -0.3298 -0.1334  0.3198
19006TIP3   OH278432   5.427   0.299   2.934 -0.3999  0.1393  0.1635
19006TIP3    H178433   5.366   0.263   2.871 -0.3016 -0.0986  0.2031
19006TIP3    H278434   5.502   0.328   2.882 -0.1872 -0.3352  0.1978
19007TIP3   OH278435   2.563   0.696  15.628  0.4142  0.6338  0.0488
19007TIP3    H178436   2.596   0.764  15.687  2.7643  0.2421 -0.7279
19007TIP3    H278437   2.567   0.736  15.541 -1.7754  0.7492 -0.0573
19008TIP3   OH278438   1.699   4.605  15.055  0.1707 -0.4177  0.2940
19008TIP3    H178439   1.613   4.576  15.087 -0.1848  0.9434  0.6139
19008TIP3    H278440   1.747   4.629  15.134  0.6102 -0.5297  0.0650
19009TIP3   OH278441   6.513   3.879  17.073  0.0363 -0.2835  0.2762
19009TIP3    H178442   6.561   3.957  17.045 -0.1376 -0.5089 -0.6667
19009TIP3    H278443   6.434   3.914  17.115 -1.2705  0.0787 -2.3012
19010TIP3   OH278444   5.501   5.378  10.787 -0.3048 -1.0057 -0.5743
19010TIP3    H178445   5.442   5.327  10.732  1.2793 -2.5661 -0.8726
19010TIP3    H278446   5.448   5.400  10.864 -1.7243 -1.0422 -1.5045
19011TIP3   OH278447   0.132   0.278  15.488  0.4253 -0.5460 -0.2691
19011TIP3    H178448   0.085   0.334  15.427 -1.3069  0.3368  1.7440
19011TIP3    H278449   0.206   0.331  15.517  0.0684 -0.1479 -0.0701
19012TIP3   OH278450   1.303   3.161  11.190 -0.2195  0.5744 -0.4559
19012TIP3    H178451   1.269   3.235  11.141  1.0023  0.3816 -1.6510
19012TIP3    H278452   1.326   3.096  11.124 -0.7656 -0.6705  0.5314
19013TIP3   OH278453   6.600   2.343   2.964 -0.0847  0.0052  0.3531
19013TIP3    H178454   6.504   2.343   2.962 -0.0895  0.1724  0.5311
19013TIP3    H278455   6.623   2.424   3.009  0.1642  0.3281 -0.3493
19014TIP3   OH278456   5.261   2.424   5.007  0.0963  0.3726  0.0063
19014TIP3    H178457   5.201   2.468   5.067 -0.2643 -0.6678  0.4333
19014TIP3    H278458   5.280   2.340   5.049 -1.6108 -1.2198 -2.0937
19015TIP3   OH278459   2.155   0.702  11.401 -0.0887  0.2514 -0.5687
19015TIP3    H178460   2.218   0.697  11.474  1.5417 -0.1530 -1.9465
19015TIP3    H278461   2.206   0.678  11.324 -1.5164  1.6732 -2.0217
19016TIP3   OH278462   2.824   6.068  17.257 -0.5626  0.0183  0.2195
19016TIP3    H178463   2.892   6.005  17.281  0.9043  0.5041 -2.3185
19016TIP3    H278464   2.855   6.152  17.289 -1.4925 -0.1565  1.7030
19017TIP3   OH278465   1.038   2.048   2.391 -0.3910  0.4376  0.4292
19017TIP3    H178466   1.127   2.050   2.355  0.2419  0.2886  1.9095
19017TIP3    H278467   0.994   2.123   2.350  0.7505  1.1712  0.4898
19018TIP3   OH278468   3.051   3.913   0.678  0.1426  0.4746  0.0122
19018TIP3    H178469   3.008   3.993   0.708 -0.7944 -0.2933  0.7995
19018TIP3    H278470   3.139   3.917   0.716 -0.9460 -0.3787  2.8825
19019TIP3   OH278471   5.663   1.667  14.664  0.4246  0.7086  0.4720
19019TIP3    H178472   5.646   1.594  14.605  1.2048  0.6431  0.3173
19019TIP3    H278473   5.644   1.745  14.611 -2.5342  0.6507  1.2804
19020TIP3   OH278474   4.643   0.099  11.585 -0.1018  0.0350  0.2429
19020TIP3    H178475   4.638   0.004  11.575  2.2059 -0.0353 -1.2104
19020TIP3    H278476   4.561   0.131  11.547 -1.8954 -1.3852  2.6536
19021TIP3   OH278477   3.328   6.398  14.148 -0.3197  0.2657  0.1583
19021TIP3    H178478   3.312   6.376  14.240 -1.7057 -0.8034 -0.2991
19021TIP3    H278479   3.345   6.492  14.149 -1.7371  0.5512  1.3621
19022TIP3   OH278480   0.280   3.691  17.111 -0.4484  0.4329  0.2058
19022TIP3    H178481   0.299   3.765  17.054  0.7727  0.7829  1.0291
19022TIP3    H278482   0.199   3.715  17.155  0.0957  1.4442  0.6976
19023TIP3   OH278483   3.256   5.545  14.346  0.2801  0.0446 -0.5245
19023TIP3    H178484   3.309   5.546  14.266  0.0889  0.7221 -0.6501
19023TIP3    H278485   3.286   5.468  14.394  0.3663 -0.3987 -1.2694
19024TIP3   OH278486   1.240   1.674  12.175 -0.5358  0.3135 -0.1211
19024TIP3    H178487   1.322   1.634  12.204  0.0259  0.7519 -1.0497
19024TIP3    H278488   1.243   1.763  12.209  0.4800  1.0782 -2.0430
19025TIP3   OH278489   2.688   3.924   4.707  0.2515  0.2632  0.1340
19025TIP3    H178490   2.619   3.858   4.717 -1.6153  2.1371  0.3925
19025TIP3    H278491   2.664   3.993   4.769  2.5400  0.8821  0.4097
19026TIP3   OH278492   4.847   4.925  16.846  0.7082  0.0523  0.4626
19026TIP3    H178493   4.852   4.964  16.759 -0.1337  2.6892  1.5181
19026TIP3    H278494   4.931   4.879  16.856  1.1609  0.3778 -1.3966
19027TIP3   OH278495   0.722   4.086  14.691  0.6020 -0.3966  0.3313
19027TIP3    H178496   0.777   4.125  14.624 -1.6728  0.7625 -0.9772
19027TIP3    H278497   0.669   4.159  14.725 -0.3776 -1.4894  1.2728
19028TIP3   OH278498   0.820   0.566   5.257 -0.3785  0.4444 -0.0489
19028TIP3    H178499   0.726   0.581   5.268 -0.3307  0.6330  0.1017
19028TIP3    H278500   0.860   0.651   5.272 -0.3179  0.7717 -1.8783
19029TIP3   OH278501   0.587   5.792   3.407 -0.9305 -0.0015 -0.3151
19029TIP3    H178502   0.679   5.765   3.410 -1.1752 -0.8744 -0.5810
19029TIP3    H278503   0.586   5.863   3.342 -0.3880  0.2750 -0.0315
19030TIP3   OH278504   2.545   1.860   2.923  0.5143 -0.1380  0.4493
19030TIP3    H178505   2.630   1.849   2.965  1.2002 -0.4346 -0.9329
19030TIP3    H278506   2.556   1.937   2.866 -1.0228  1.5495  2.2791
19031TIP3   OH278507   1.389   1.709   5.726 -0.3177  0.1332 -0.4013
19031TIP3    H178508   1.347   1.622   5.726 -0.2773  0.0902  0.9224
19031TIP3    H278509   1.464   1.699   5.668 -1.2772 -0.2148 -1.6328
19032TIP3   OH278510   2.042   2.802  12.404 -0.6824 -0.7172  0.5560
19032TIP3    H178511   2.027   2.729  12.464  1.8621 -0.3439  1.7720
19032TIP3    H278512   2.011   2.771  12.319 -1.3934 -2.4826  1.4253
19033TIP3   OH278513   0.558   5.312  12.159  0.2744 -0.4135  0.3996
19033TIP3    H178514   0.510   5.395  12.163  1.3189  0.2047  0.3099
19033TIP3    H278515   0.617   5.315  12.234  1.8774 -0.0962 -0.8338
19034TIP3   OH278516   2.549   3.573   5.453  0.2025  0.4956  0.3966
19034TIP3    H178517   2.637   3.589   5.486  0.4569 -1.0838  0.5956
19034TIP3    H278518   2.536   3.639   5.385  1.7992  0.3528 -0.0774
19035TIP3   OH278519   3.418   2.839   1.227  0.2174  0.0653 -0.3890
19035TIP3    H178520   3.506   2.877   1.227 -0.0219  0.6323 -0.5891
19035TIP3    H278521   3.428   2.755   1.184  0.5705  0.3619 -0.8978
19036TIP3   OH278522   1.301   6.503  15.777 -0.9655 -0.3286 -0.8447
19036TIP3    H178523   1.251   6.428  15.745 -0.9285 -0.9011  0.3526
19036TIP3    H278524   1.304   6.564  15.704 -1.5666 -1.2171 -1.6282
19037TIP3   OH278525   3.690   6.019  14.218  0.7937  0.4695  0.0355
19037TIP3    H178526   3.615   6.047  14.271 -0.7039 -0.2321 -1.5996
19037TIP3    H278527   3.722   5.940  14.261  1.8173  1.7572  1.7842
19038TIP3   OH278528   5.396   4.231   5.055 -0.5014 -0.0536 -0.0035
19038TIP3    H178529   5.458   4.159   5.040  1.2887  1.2311  0.8287
19038TIP3    H278530   5.355   4.209   5.139  0.9522  0.4591  0.8756
19039TIP3   OH278531   2.584   3.077   2.641  0.0467  0.4453  0.6731
19039TIP3    H178532   2.595   2.992   2.599  1.3148  0.6078  0.6467
19039TIP3    H278533   2.608   3.141   2.574 -0.6883  0.8323  0.7607
19040TIP3   OH278534   3.471   1.500  13.366 -0.0133 -0.0236  0.3973
19040TIP3    H178535   3.448   1.592  13.356  0.0392  0.0635  1.0350
19040TIP3    H278536   3.450   1.479  13.457 -0.4936 -0.7765  0.1284
19041TIP3   OH278537   2.937   6.472  13.317  0.1011 -0.3048  0.0319
19041TIP3    H178538   2.941   6.409  13.245 -0.8759 -1.0372  0.6069
19041TIP3    H278539   2.913   6.554  13.276 -0.2826 -0.6816 -0.5040
19042TIP3   OH278540   2.896   2.186  13.653  0.0115 -0.2180  0.0719
19042TIP3    H178541   2.880   2.161  13.744  0.7009 -1.4299 -0.1176
19042TIP3    H278542   2.817   2.160  13.606 -0.2350  0.1607  0.2740
19043TIP3   OH278543   2.480   0.399  13.273  0.1783  0.5198 -0.7800
19043TIP3    H178544   2.408   0.403  13.210 -0.1196 -0.3669 -0.5162
19043TIP3    H278545   2.481   0.308  13.303  1.5491  0.4572 -0.9306
19044TIP3   OH278546   5.200   0.701  14.997  0.8066 -0.4201 -0.2755
19044TIP3    H178547   5.165   0.732  14.913  3.4420  0.9711 -0.9743
19044TIP3    H278548   5.291   0.728  14.996  1.4721 -2.2436  2.1899
19045TIP3   OH278549   2.594   1.183   3.604  0.2763  1.1216 -0.7333
19045TIP3    H178550   2.563   1.270   3.629  0.5424  0.9462  0.2584
19045TIP3    H278551   2.671   1.169   3.659  0.2686  0.2766 -0.9293
19046TIP3   OH278552   2.241   1.032   1.266 -0.7274  0.2151  0.5744
19046TIP3    H178553   2.242   0.937   1.251 -0.0483  0.1778  0.8195
19046TIP3    H278554   2.314   1.065   1.214 -0.0541  0.4133  1.6062
19047TIP3   OH278555   5.181   2.472   1.594  0.4073  0.2269  0.0297
19047TIP3    H178556   5.240   2.402   1.566  1.3339  0.4444  1.3721
19047TIP3    H278557   5.128   2.490   1.516  0.3060 -1.7853 -0.4231
19048TIP3   OH278558   6.289   4.496   5.042  0.1590 -0.4716 -0.6157
19048TIP3    H178559   6.364   4.501   5.102 -1.0064  2.8238  0.8281
19048TIP3    H278560   6.309   4.560   4.974 -1.1243  0.2091 -0.3917
19049TIP3   OH278561   3.495   0.196   1.896 -0.0821  0.2673 -0.0928
19049TIP3    H178562   3.443   0.120   1.871 -0.7782  0.7244 -0.0808
19049TIP3    H278563   3.488   0.199   1.992 -1.0418  1.0079 -0.1677
19050TIP3   OH278564   5.097   0.527  16.138  0.1325  0.6279  0.4347
19050TIP3    H178565   5.121   0.575  16.059  1.0628 -2.1689 -1.1182
19050TIP3    H278566   5.004   0.505  16.125  0.8558 -1.8009 -1.0875
19051TIP3   OH278567   2.981   5.039  13.236 -0.0622  0.0387 -0.2795
19051TIP3    H178568   3.071   5.061  13.259  0.2695 -1.6159  0.1294
19051TIP3    H278569   2.930   5.063  13.313  0.3113 -0.6930  0.2160
19052TIP3   OH278570   5.082   3.693  12.024  0.0790  0.6184  0.6858
19052TIP3    H178571   5.003   3.670  12.072 -0.8718  2.8721  0.3236
19052TIP3    H278572   5.057   3.688  11.932  0.3188  1.3881  0.5706
19053TIP3   OH278573   2.876   3.849  14.163  0.1617 -0.1269  0.2765
19053TIP3    H178574   2.787   3.857  14.197  0.0899  0.7165 -0.1108
19053TIP3    H278575   2.867   3.792  14.087  0.2640 -1.7007  1.3731
19054TIP3   OH278576   5.063   0.650   3.062 -0.1895  0.0010 -0.2931
19054TIP3    H178577   5.050   0.584   3.131 -1.0446  1.2645  0.7958
19054TIP3    H278578   5.081   0.731   3.109  0.0292  0.7314 -1.5896
19055TIP3   OH278579   5.182   0.203   2.856  0.0934  0.4317 -0.0692
19055TIP3    H178580   5.144   0.245   2.933  0.7174  2.9483 -1.0490
19055TIP3    H278581   5.186   0.110   2.880 -0.0371  1.0587  2.7989
19056TIP3   OH278582   6.482   4.989  13.299 -0.1950  0.1515  0.0338
19056TIP3    H178583   6.455   4.914  13.353 -0.0036 -0.9850 -1.3707
19056TIP3    H278584   6.414   4.995  13.232 -0.6565  1.8141  0.6061
19057TIP3   OH278585   3.745   1.532   1.473 -0.6768  0.1517 -0.2166
19057TIP3    H178586   3.804   1.560   1.544 -0.0783 -0.1037 -0.6011
19057TIP3    H278587   3.659   1.529   1.513 -0.4511  0.6763  0.3260
19058TIP3   OH278588   1.018   1.453  12.569 -0.4698 -0.1071 -0.2032
19058TIP3    H178589   1.004   1.365  12.534 -1.3283  0.2967 -0.9277
19058TIP3    H278590   0.972   1.510  12.507 -0.7939  0.7588  0.8175
19059TIP3   OH278591   6.129   0.200   3.423 -0.9242  0.0739  0.8039
19059TIP3    H178592   6.219   0.185   3.452 -0.7728 -1.8771 -0.4662
19059TIP3    H278593   6.131   0.288   3.385  0.7224 -0.2625 -0.0159
19060TIP3   OH278594   4.342   0.172  11.833  0.0842  0.3479  0.2876
19060TIP3    H178595   4.361   0.262  11.805  0.6068  0.7383  1.8366
19060TIP3    H278596   4.421   0.145  11.881  0.2387 -1.2201 -0.7738
19061TIP3   OH278597   4.941   2.928  13.702 -0.4974  0.2359  0.8727
19061TIP3    H178598   4.862   2.934  13.648 -0.2787 -0.2021  0.4981
19061TIP3    H278599   4.984   3.013  13.690 -0.3367  0.0619  0.1738
19062TIP3   OH278600   2.979   5.467  16.433 -0.0412 -0.2689  0.5336
19062TIP3    H178601   2.917   5.398  16.458 -0.1668 -0.8050 -1.1594
19062TIP3    H278602   3.010   5.502  16.517 -2.2265 -0.3294  1.4422
19063TIP3   OH278603   2.285   5.144   3.246  0.2253 -0.2899  0.0523
19063TIP3    H178604   2.200   5.186   3.253 -0.7222 -1.9095 -1.1126
19063TIP3    H278605   2.348   5.216   3.253 -1.3042  1.3749 -1.9474
19064TIP3   OH278606   0.587   1.845  17.286 -0.1230 -0.3142 -0.1681
19064TIP3    H178607   0.527   1.889  17.227 -1.1471 -1.0481  0.2997
19064TIP3    H278608   0.554   1.755  17.292 -1.2231  0.1769  2.9845
19065TIP3   OH278609   2.049   5.932  12.194 -0.1161  0.4099 -0.7821
19065TIP3    H178610   2.017   6.021  12.175 -1.3483  0.4119  1.0585
19065TIP3    H278611   1.983   5.874  12.156  0.1117  0.2922 -1.0043
19066TIP3   OH278612   0.416   2.859   3.449  0.0859  0.4193 -0.3633
19066TIP3    H178613   0.340   2.822   3.495  1.0746  1.0101  1.9184
19066TIP3    H278614   0.435   2.940   3.497  0.6521  1.6194 -2.4795
19067TIP3   OH278615   0.982   0.404  12.354  0.1609 -0.3899 -0.0442
19067TIP3    H178616   1.062   0.353  12.368  0.7651  0.6309  0.2647
19067TIP3    H278617   1.013   0.490  12.325 -0.8580 -0.2795 -0.8452
19068TIP3   OH278618   4.976   3.763   0.008 -0.8183 -0.0014  0.1457
19068TIP3    H178619   5.037   3.810   0.065 -0.6749  1.6365 -1.2738
19068TIP3    H278620   5.000   3.789  -0.081 -0.6811 -2.9024 -0.7703
19069TIP3   OH278621   3.140   6.033   4.815 -0.2534  0.7407 -0.3670
19069TIP3    H178622   3.110   6.055   4.727 -0.1179 -1.5244 -1.0389
19069TIP3    H278623   3.064   5.994   4.858 -0.8199  3.2971  1.1832
19070TIP3   OH278624   2.337   6.650  13.460 -0.3514  0.1348 -0.0933
19070TIP3    H178625   2.246   6.680  13.470 -0.0816  0.5976  1.1185
19070TIP3    H278626   2.366   6.633  13.549  1.5324  2.3300 -0.1911
19071TIP3   OH278627   2.166   1.406  15.746 -0.0966  0.0642  0.3206
19071TIP3    H178628   2.213   1.322  15.749  0.8246  0.5660  0.4756
19071TIP3    H278629   2.227   1.465  15.700 -0.3980  0.8449  0.9152
19072TIP3   OH278630   1.293   2.123   0.359 -0.0035 -0.0059 -0.3488
19072TIP3    H178631   1.355   2.092   0.293 -1.2196 -0.9590 -1.0685
19072TIP3    H278632   1.300   2.218   0.355  1.4150 -0.0817 -0.3897
19073TIP3   OH278633   3.939   0.279   1.076  0.0888  0.3957 -0.2688
19073TIP3    H178634   3.935   0.185   1.095  1.9781  0.4717  0.8176
19073TIP3    H278635   3.851   0.312   1.096  0.0033 -0.7996  1.5971
19074TIP3   OH278636   4.647   1.021  12.543  0.3700  0.0765  0.3620
19074TIP3    H178637   4.608   1.099  12.582 -0.4828 -0.3101  0.2911
19074TIP3    H278638   4.574   0.961  12.530  0.4062  0.5515 -2.7402
19075TIP3   OH278639   0.125   3.383  16.072  0.1300 -0.2102 -0.1308
19075TIP3    H178640   0.094   3.471  16.096  0.4099 -0.5407  1.5475
19075TIP3    H278641   0.220   3.389  16.077  0.1980 -0.3796 -0.9773
19076TIP3   OH278642   4.631   4.755  13.673 -0.0067  0.7311  0.1038
19076TIP3    H178643   4.679   4.822  13.722  0.7676  0.1814  0.1276
19076TIP3    H278644   4.662   4.765  13.583  0.6124 -0.0068  0.2235
19077TIP3   OH278645   4.231   0.639   2.689 -0.0860 -0.0568 -0.1119
19077TIP3    H178646   4.284   0.589   2.628 -0.8362  0.6054 -1.3485
19077TIP3    H278647   4.140   0.618   2.666 -0.3853  0.4122  0.5896
19078TIP3   OH278648   1.671   4.954   1.667  0.3343  0.1899  0.6825
19078TIP3    H178649   1.614   5.002   1.606 -0.8297 -1.2145  0.6198
19078TIP3    H278650   1.614   4.929   1.739  0.3025 -2.8847 -0.2573
19079TIP3   OH278651   3.950   1.466   5.186  0.1106  0.1232 -0.1131
19079TIP3    H178652   3.925   1.373   5.184 -2.5009  0.7437 -2.1913
19079TIP3    H278653   3.949   1.490   5.278  0.4404 -1.7878  0.4284
19080TIP3   OH278654   5.345   6.747   0.465  0.7473 -0.1998  0.5896
19080TIP3    H178655   5.278   6.793   0.515  0.9716 -0.4669  1.1406
19080TIP3    H278656   5.397   6.817   0.425  0.3838  0.0100  0.4801
19081TIP3   OH278657   6.244   2.699  13.255 -0.3424 -0.1417 -0.0610
19081TIP3    H178658   6.326   2.712  13.208 -1.0380 -0.9927 -1.5760
19081TIP3    H278659   6.270   2.698  13.348  1.4451 -1.0388 -0.5149
19082TIP3   OH278660   3.152   5.230  16.470 -0.1299 -0.2470  0.1460
19082TIP3    H178661   3.200   5.171  16.528 -1.9213 -2.1530 -0.1966
19082TIP3    H278662   3.123   5.301  16.527  2.0077  0.3585  0.5848
19083TIP3   OH278663   3.957   0.649   2.081  0.4298  0.2329  0.0783
19083TIP3    H178664   3.926   0.730   2.122 -0.7518  0.5110 -1.2819
19083TIP3    H278665   3.997   0.677   1.999  1.0606 -0.4798  0.1266
19084TIP3   OH278666   0.120   4.799  12.431  0.5758 -0.0124 -0.6701
19084TIP3    H178667   0.160   4.817  12.346  0.7687 -1.8331 -1.0039
19084TIP3    H278668   0.026   4.806  12.416  0.6100 -0.3009 -1.0352
19085TIP3   OH278669   3.348   4.141  14.841  0.5634  0.2053  0.0588
19085TIP3    H178670   3.362   4.047  14.849  0.6597  0.0373 -1.6425
19085TIP3    H278671   3.371   4.176  14.927  1.2459 -1.2321  0.4966
19086TIP3   OH278672   4.502   4.114  11.347  0.2257  0.0653  0.2382
19086TIP3    H178673   4.499   4.031  11.300 -0.7273 -0.7147  1.6194
19086TIP3    H278674   4.498   4.090  11.439 -0.4130  1.6561  0.6635
19087TIP3   OH278675   2.010   3.222   2.205  0.0513  0.5534 -0.6851
19087TIP3    H178676   1.963   3.151   2.161  1.6619 -1.1133  0.1444
19087TIP3    H278677   1.961   3.236   2.286 -0.8725  1.1408 -1.3329
19088TIP3   OH278678   5.424   4.055   1.719  0.4919  0.3547  0.0307
19088TIP3    H178679   5.380   4.138   1.700 -1.1122 -0.6246 -0.8322
19088TIP3    H278680   5.374   3.990   1.670  2.4221 -0.9862 -0.2726
19089TIP3   OH278681   5.994   1.202  12.871 -0.4083 -0.2096 -0.8255
19089TIP3    H178682   5.968   1.136  12.935  0.3435 -1.1240 -1.4340
19089TIP3    H278683   6.061   1.159  12.819  1.9713  1.8543  0.3422
19090TIP3   OH278684   1.534   5.348  10.523 -0.1648  0.8409 -0.1194
19090TIP3    H178685   1.471   5.342  10.595  0.8375  0.7759  0.7821
19090TIP3    H278686   1.600   5.281  10.543 -0.7264 -0.3482 -2.0024
19091TIP3   OH278687   4.137   3.201  11.871 -0.0655 -0.2883 -0.3869
19091TIP3    H178688   4.096   3.232  11.790  0.1765  2.3437  0.3918
19091TIP3    H278689   4.205   3.141  11.842  0.6971  1.3574 -2.2651
19092TIP3   OH278690   4.380   5.864   2.356  0.1985  0.7275  0.3389
19092TIP3    H178691   4.370   5.862   2.452  2.0971  1.8737  0.6175
19092TIP3    H278692   4.402   5.774   2.333  1.5975  0.7808  1.2792
19093TIP3   OH278693   5.882   6.707   6.077 -0.1789  0.4038  0.0319
19093TIP3    H178694   5.853   6.657   6.152  0.6418  0.6911  0.5636
19093TIP3    H278695   5.817   6.691   6.009  1.4960 -3.7812 -0.8680
19094TIP3   OH278696   4.602   4.891   2.536 -0.6583  0.1158 -0.0527
19094TIP3    H178697   4.526   4.864   2.587 -1.4077  0.8866 -0.7264
19094TIP3    H278698   4.640   4.809   2.505 -1.4018 -0.2769  0.0408
19095TIP3   OH278699   6.434   1.444  13.870 -0.2179  0.7574  0.4676
19095TIP3    H178700   6.487   1.522  13.851  0.0186  0.4228 -0.2851
19095TIP3    H278701   6.496   1.371  13.867 -0.7088  0.3649 -0.3959
19096TIP3   OH278702   0.590   1.868   3.319  0.3930  0.6207 -0.0119
19096TIP3    H178703   0.590   1.959   3.289  2.0237  0.3338 -0.9957
19096TIP3    H278704   0.635   1.820   3.249 -2.9849 -1.4889 -0.9752
19097TIP3   OH278705   0.484   0.084   5.928 -0.3936  0.2349 -0.3996
19097TIP3    H178706   0.572   0.081   5.890  0.1226 -0.3413  0.8023
19097TIP3    H278707   0.490   0.150   5.997 -0.5762 -0.6103  0.4495
19098TIP3   OH278708   0.679   2.080  16.442 -0.6788  0.1047  0.0771
19098TIP3    H178709   0.725   1.997  16.456 -0.0331  0.3859 -0.3601
19098TIP3    H278710   0.733   2.146  16.485 -0.6028  0.4547 -0.5354
19099TIP3   OH278711   3.681   3.826  16.322  0.8649 -0.6608 -0.8333
19099TIP3    H178712   3.720   3.910  16.348 -2.8072  0.1960  3.2089
19099TIP3    H278713   3.637   3.844  16.239  3.0866  0.2496 -1.8853
19100TIP3   OH278714   3.005   0.197   1.748 -0.4938  0.0907  0.1006
19100TIP3    H178715   3.097   0.193   1.720 -0.3121 -2.0012  0.8063
19100TIP3    H278716   3.009   0.223   1.840 -0.3312 -2.6931  0.9672
19101TIP3   OH278717   1.133   2.158   3.935  0.3016  0.8399 -0.6357
19101TIP3    H178718   1.101   2.085   3.882 -0.2306  0.5024  0.1339
19101TIP3    H278719   1.227   2.163   3.914  0.6783 -0.9987  0.3382
19102TIP3   OH278720   3.967   6.078   5.667 -0.2777 -0.0552 -0.1884
19102TIP3    H178721   3.966   6.007   5.731 -1.9824  0.4658  0.4281
19102TIP3    H278722   4.034   6.053   5.604 -0.0935 -1.6733  0.5983
19103TIP3   OH278723   5.564   1.337   0.983  0.4169 -0.5155 -0.3114
19103TIP3    H178724   5.569   1.261   1.041  1.2643 -1.6130 -1.7529
19103TIP3    H278725   5.481   1.378   1.005 -0.6706 -2.5600 -0.3038
19104TIP3   OH278726   1.714   3.873  12.661  0.5010 -0.7998  0.4462
19104TIP3    H178727   1.738   3.872  12.568 -3.6922 -3.7118 -0.8997
19104TIP3    H278728   1.669   3.956  12.674  0.0063 -0.9217 -0.4724
19105TIP3   OH278729   4.599   3.694  14.880  0.0594 -0.1140  0.0329
19105TIP3    H178730   4.675   3.711  14.825  1.9292 -1.5352  1.9731
19105TIP3    H278731   4.581   3.601  14.868 -1.6475  0.2694 -0.6428
19106TIP3   OH278732   3.032   1.501   1.849  0.0210 -0.1842 -0.1556
19106TIP3    H178733   3.011   1.542   1.933 -0.4282  0.0156 -0.3642
19106TIP3    H278734   3.070   1.416   1.872  1.4799  0.5510  0.3032
19107TIP3   OH278735   2.276   4.718   2.869  0.1296 -0.2156  0.5195
19107TIP3    H178736   2.358   4.669   2.865  0.8981  0.9856  0.8726
19107TIP3    H278737   2.283   4.769   2.950 -0.0580  1.4516 -0.4814
19108TIP3   OH278738   2.802   6.672   4.677  0.1785 -0.0067  0.3244
19108TIP3    H178739   2.774   6.581   4.682 -0.1986  0.0429 -0.6048
19108TIP3    H278740   2.871   6.672   4.610 -0.6046  0.5553 -0.5077
19109TIP3   OH278741   0.803   1.880   2.917 -0.3515 -0.3963 -0.3730
19109TIP3    H178742   0.881   1.850   2.871 -0.2039 -1.7115  0.6602
19109TIP3    H278743   0.793   1.818   2.990 -1.6093  0.5243  0.2785
19110TIP3   OH278744   6.301   2.007  14.100 -0.6760  0.0907 -0.0645
19110TIP3    H178745   6.278   2.032  14.189 -0.7011  2.6662 -0.7215
19110TIP3    H278746   6.244   1.933  14.080 -0.4932 -0.6965  2.1107
19111TIP3   OH278747   2.488   1.722  11.633  0.3100  0.9903 -0.1348
19111TIP3    H178748   2.548   1.656  11.668 -0.2607  0.1973 -0.6214
19111TIP3    H278749   2.543   1.799  11.619  1.2669  0.2111 -0.7913
19112TIP3   OH278750   3.180   2.877  13.293 -0.0879 -0.8550  0.2701
19112TIP3    H178751   3.173   2.841  13.381 -1.9323  0.6895  0.8231
19112TIP3    H278752   3.208   2.803  13.239 -1.3194 -2.4705  1.7332
19113TIP3   OH278753   1.067   1.679  11.567  0.1699 -0.0372  0.1552
19113TIP3    H178754   1.077   1.586  11.587  0.9072  0.0966  0.4432
19113TIP3    H278755   1.072   1.684  11.471 -1.2496 -0.4382  0.0402
19114TIP3   OH278756   0.864   5.625  16.682  0.0475  0.0048  0.7373
19114TIP3    H178757   0.855   5.630  16.587 -2.4653 -1.2527  0.8314
19114TIP3    H278758   0.958   5.619  16.697  0.5003  0.2020 -1.6656
19115TIP3   OH278759   2.880   1.540  11.518 -0.3731  0.7244 -0.0391
19115TIP3    H178760   2.843   1.600  11.452 -0.4357  1.3225  0.5296
19115TIP3    H278761   2.813   1.536  11.586 -1.6570 -2.2281 -1.3226
19116TIP3   OH278762   0.199   6.223   1.728 -0.1933 -0.4025 -0.1766
19116TIP3    H178763   0.201   6.295   1.664 -0.6305  1.0864  1.3927
19116TIP3    H278764   0.122   6.172   1.705 -0.4595  0.2271 -0.7337
19117TIP3   OH278765   5.177   3.377   2.068 -0.2969 -0.5737 -1.1776
19117TIP3    H178766   5.203   3.295   2.111  0.6260 -0.2302 -1.0488
19117TIP3    H278767   5.220   3.373   1.983  0.0878 -0.0573 -1.0167
19118TIP3   OH278768   4.880   6.328  15.044 -0.2100 -0.5425 -1.4146
19118TIP3    H178769   4.797   6.371  15.026 -1.1599 -0.9182  1.5803
19118TIP3    H278770   4.864   6.235  15.025 -1.3427 -1.0076  1.4272
19119TIP3   OH278771   0.946   4.953   4.415 -0.2525 -0.3907 -0.0471
19119TIP3    H178772   0.881   4.896   4.375  0.2215 -0.4198 -0.8066
19119TIP3    H278773   0.944   5.032   4.361  0.5359 -0.5053 -0.2613
19120TIP3   OH278774   5.342   0.535   3.491  0.0970  0.3393  0.1469
19120TIP3    H178775   5.433   0.559   3.473  0.5656 -0.4903  1.2852
19120TIP3    H278776   5.319   0.474   3.420  0.0348  1.3719 -0.7618
19121TIP3   OH278777   4.198   5.763  12.180 -0.0011 -0.9184 -0.0125
19121TIP3    H178778   4.137   5.782  12.252  1.5566 -0.4893  1.2584
19121TIP3    H278779   4.213   5.847  12.138 -1.1465 -1.2214 -1.0726
19122TIP3   OH278780   5.630   1.712   3.118  1.1177 -0.4089 -0.5698
19122TIP3    H178781   5.664   1.798   3.145  0.7659 -0.3245 -0.3988
19122TIP3    H278782   5.707   1.655   3.120  0.9593 -0.6139  1.4749
19123TIP3   OH278783   4.056   1.825  12.600 -0.4121  0.2424 -0.0420
19123TIP3    H178784   4.098   1.836  12.684 -0.2415 -2.2503  0.2866
19123TIP3    H278785   4.055   1.912  12.561 -0.6899  1.5045  2.5934
19124TIP3   OH278786   5.800   3.754  11.333  0.5074 -0.1433 -0.2063
19124TIP3    H178787   5.710   3.741  11.305  0.4530  0.2517 -0.2116
19124TIP3    H278788   5.851   3.751  11.253  0.6451 -1.5860 -0.0986
19125TIP3   OH278789   5.427   6.385  12.445 -0.1811  0.7604 -0.7818
19125TIP3    H178790   5.360   6.369  12.511  0.3619  0.2917 -0.3394
19125TIP3    H278791   5.378   6.421  12.370 -0.5662  3.2238  0.5471
19126TIP3   OH278792   3.115   5.714  13.839 -0.3724  0.1438  0.2526
19126TIP3    H178793   3.127   5.786  13.778  0.3569  0.5028  0.7946
19126TIP3    H278794   3.089   5.756  13.921 -2.5373 -0.4178 -0.0999
19127TIP3   OH278795   4.149   5.774   3.060 -0.2615 -1.2139 -0.4701
19127TIP3    H178796   4.229   5.757   3.011  0.2332  0.3813 -0.2594
19127TIP3    H278797   4.113   5.687   3.079  1.8285 -2.0000  0.1141
19128TIP3   OH278798   2.489   4.902  12.878 -0.1768  0.4239 -0.6309
19128TIP3    H178799   2.449   4.989  12.875 -0.1852  0.4577  0.3339
19128TIP3    H278800   2.436   4.849  12.819 -0.3802  0.9875 -0.9603
19129TIP3   OH278801   4.299   1.871   3.221 -0.7427 -0.4132  0.1910
19129TIP3    H178802   4.329   1.837   3.305 -0.4809  0.3729  0.4224
19129TIP3    H278803   4.375   1.866   3.164 -0.7742 -0.4514  0.1525
19130TIP3   OH278804   4.014   4.036  12.046 -0.5820 -1.0707 -0.1551
19130TIP3    H178805   4.029   4.107  11.982 -1.9265 -0.5594  0.0490
19130TIP3    H278806   3.993   4.082  12.127 -2.8449 -1.6354 -0.3489
19131TIP3   OH278807   5.731   2.461   5.349 -0.3274 -0.4827 -0.1498
19131TIP3    H178808   5.714   2.448   5.255  0.1706 -0.3195 -0.2655
19131TIP3    H278809   5.738   2.373   5.384  2.3923 -0.6245 -0.8152
19132TIP3   OH278810   1.923   0.117  13.622 -0.1307 -0.1100 -0.3893
19132TIP3    H178811   1.922   0.173  13.700  1.0397 -0.9561  0.2717
19132TIP3    H278812   1.893   0.032  13.654  0.0746 -0.3903 -0.9267
19133TIP3   OH278813   3.262   3.828  11.791 -0.4516 -0.2625 -0.1776
19133TIP3    H178814   3.301   3.819  11.878 -1.7852  2.0625  0.7592
19133TIP3    H278815   3.187   3.886  11.804 -0.1812  0.9123 -3.0380
19134TIP3   OH278816   6.184   5.580   2.584  1.0332 -0.6495 -0.1881
19134TIP3    H178817   6.098   5.600   2.621 -0.6591 -1.2324 -3.4468
19134TIP3    H278818   6.235   5.660   2.597 -0.3092  0.0669  0.9541
19135TIP3   OH278819   5.827   3.544  16.899 -0.2828 -0.0256  0.1707
19135TIP3    H178820   5.766   3.492  16.846 -0.3106 -0.4904  0.6421
19135TIP3    H278821   5.911   3.499  16.890 -0.4591 -0.6059  1.1555
19136TIP3   OH278822   5.364   5.418   2.173  0.1456  0.5805 -0.1910
19136TIP3    H178823   5.408   5.476   2.111  0.3845  0.0063 -0.5695
19136TIP3    H278824   5.382   5.330   2.140 -2.2929  0.3443 -1.0536
19137TIP3   OH278825   2.130   4.289   1.530  0.6672 -0.1929 -0.0554
19137TIP3    H178826   2.093   4.329   1.609  2.3260 -0.8585  1.1394
19137TIP3    H278827   2.224   4.304   1.538  0.8531 -0.1435 -2.0175
19138TIP3   OH278828   2.546   2.147  12.766 -0.0198  0.0872  0.2218
19138TIP3    H178829   2.491   2.085  12.717 -1.3117  1.3647 -0.0288
19138TIP3    H278830   2.535   2.230  12.720 -0.2492  1.0437  1.9159
19139TIP3   OH278831   4.906   1.688  13.246 -0.0852  0.6584 -0.2280
19139TIP3    H178832   4.989   1.696  13.293 -1.6764  1.9129  2.6139
19139TIP3    H278833   4.855   1.764  13.275 -3.5548 -1.9224  1.1134
19140TIP3   OH278834   4.779   3.431   2.996 -0.3471  0.3697  0.2872
19140TIP3    H178835   4.865   3.406   3.031  0.0398  1.4314  0.1318
19140TIP3    H278836   4.798   3.502   2.935 -1.1681 -0.4509 -0.9864
19141TIP3   OH278837   1.007   6.650   0.755 -0.0931  0.2257 -0.1101
19141TIP3    H178838   1.085   6.610   0.715 -0.7200 -0.4074 -0.7340
19141TIP3    H278839   0.954   6.677   0.680 -0.8991 -0.2087  0.2996
19142TIP3   OH278840   4.766   5.063  16.369 -0.2444  0.0503 -0.4213
19142TIP3    H178841   4.679   5.085  16.336  0.4752  0.9558 -1.7555
19142TIP3    H278842   4.778   4.970  16.346 -1.0733 -0.2577  0.3147
19143TIP3   OH278843   1.675   0.513   0.755  0.4283 -0.3102 -0.1417
19143TIP3    H178844   1.668   0.490   0.848 -2.0727  1.2957  0.1765
19143TIP3    H278845   1.681   0.429   0.710 -1.5608 -1.3361  1.3297
19144TIP3   OH278846   1.211   2.333   4.548  0.0946  0.6247 -0.2141
19144TIP3    H178847   1.152   2.265   4.582  0.7902  0.8481  1.5609
19144TIP3    H278848   1.177   2.353   4.461 -2.1859  0.4528  0.5777
19145TIP3   OH278849   4.384   2.502   1.294 -0.3096 -0.4758  0.3469
19145TIP3    H178850   4.378   2.413   1.327  0.3429 -0.0753  1.5928
19145TIP3    H278851   4.478   2.519   1.286 -0.4315 -0.0266 -0.2394
19146TIP3   OH278852   6.018   4.969  17.169  0.3329  0.4809 -0.3590
19146TIP3    H178853   6.025   4.889  17.220  1.9474  0.3233 -0.7750
19146TIP3    H278854   6.001   5.038  17.234  2.5927  0.3266  0.4628
19147TIP3   OH278855   3.954   1.969   0.100  0.0684  0.2118 -0.0534
19147TIP3    H178856   3.927   2.038   0.160 -0.7797 -0.8033  0.7679
19147TIP3    H278857   3.922   1.997   0.015 -4.4229 -1.2348  0.9236
19148TIP3   OH278858   6.601   5.500   3.097  0.1329 -0.5409 -0.2244
19148TIP3    H178859   6.610   5.561   3.024 -0.9196  1.8034  1.4732
19148TIP3    H278860   6.608   5.555   3.175 -0.6277 -2.6544  1.4306
19149TIP3   OH278861   0.686   0.643  16.808 -0.0663 -0.2089  0.1648
19149TIP3    H178862   0.721   0.732  16.810 -1.3716  0.3226  0.2851
19149TIP3    H278863   0.685   0.616  16.900  0.4160 -0.3939  0.1197
19150TIP3   OH278864   5.051   0.227  15.157 -0.1947 -0.0830  0.0258
19150TIP3    H178865   5.106   0.212  15.233  0.9217 -0.6041 -0.8541
19150TIP3    H278866   5.083   0.309  15.119 -0.2442 -0.2130 -0.3019
19151TIP3   OH278867   5.439   4.783  12.369 -0.6957  0.7555  0.1293
19151TIP3    H178868   5.345   4.774  12.350 -1.3277  2.6014  1.9140
19151TIP3    H278869   5.441   4.836  12.449  1.8660 -0.1990  0.7743
19152TIP3   OH278870   6.413   2.758  11.445  0.1636 -0.3855  0.0937
19152TIP3    H178871   6.453   2.677  11.414  1.2451  0.4547 -0.8258
19152TIP3    H278872   6.465   2.827  11.404 -2.2097  0.8045 -1.0941
19153TIP3   OH278873   3.707   3.817   3.185 -0.3270  0.2333  0.2886
19153TIP3    H178874   3.641   3.882   3.160  0.0343 -0.0494 -1.5323
19153TIP3    H278875   3.711   3.758   3.110  2.3189  0.5047  0.1275
19154TIP3   OH278876   2.904   3.700  11.963 -0.1214  0.4085 -0.0892
19154TIP3    H178877   2.973   3.697  12.029  0.0871  1.6280 -0.2218
19154TIP3    H278878   2.928   3.775  11.907 -1.1975  0.4443 -0.5246
19155TIP3   OH278879   6.291   0.754   2.826  0.0104  0.1729 -0.0273
19155TIP3    H178880   6.244   0.719   2.751  1.1070 -1.3286 -0.0560
19155TIP3    H278881   6.384   0.743   2.803  0.3634  0.0380  1.3705
19156TIP3   OH278882   0.401   6.753   3.865 -0.0876 -0.2834 -0.0709
19156TIP3    H178883   0.341   6.680   3.877 -1.4856  0.9335  0.7089
19156TIP3    H278884   0.410   6.761   3.770 -0.0243 -1.3699 -0.1624
19157TIP3   OH278885   2.476   2.392   1.058  0.4128  0.2400 -0.4560
19157TIP3    H178886   2.427   2.461   1.012 -0.2810 -0.6230 -1.0637
19157TIP3    H278887   2.566   2.401   1.026  0.6471  1.7332  0.5295
19158TIP3   OH278888   0.254   0.344   0.435 -0.2621 -0.1363  0.4157
19158TIP3    H178889   0.191   0.357   0.364  0.6312 -0.4629 -0.4716
19158TIP3    H278890   0.264   0.430   0.475 -0.7296  0.0674  0.1006
19159TIP3   OH278891   0.544   5.316   5.384 -0.3041 -0.1633  0.2085
19159TIP3    H178892   0.523   5.342   5.294 -1.5934  1.5906  0.9444
19159TIP3    H278893   0.502   5.384   5.439  0.1318 -1.3709  2.1417
19160TIP3   OH278894   1.600   1.015   1.795 -0.0445 -0.7856  0.5745
19160TIP3    H178895   1.518   1.039   1.837 -0.3787  0.5952 -0.7720
19160TIP3    H278896   1.648   1.098   1.787  0.2828 -1.1019 -1.1089
19161TIP3   OH278897   3.572   4.777  11.486 -0.2846 -0.1190 -0.4669
19161TIP3    H178898   3.490   4.731  11.469  0.5618 -2.3029  0.9670
19161TIP3    H278899   3.634   4.739  11.424  0.0882  0.1687 -0.2773
19162TIP3   OH278900   5.918   0.615  16.203  0.3295 -0.0126 -0.2760
19162TIP3    H178901   5.941   0.570  16.122  0.4166  0.0829 -0.3051
19162TIP3    H278902   5.982   0.685  16.211 -0.2093  0.5287 -0.5798
19163TIP3   OH278903   0.306   3.725  15.027  0.0800  0.2158  0.7118
19163TIP3    H178904   0.349   3.800  14.986 -1.3736  1.2583  1.0128
19163TIP3    H278905   0.238   3.700  14.964  0.6900 -1.0253  0.5107
19164TIP3   OH278906   2.744   0.052  14.051 -0.5713  0.1756 -0.5343
19164TIP3    H178907   2.653   0.027  14.064 -0.4309  0.9285  2.5041
19164TIP3    H278908   2.747   0.146  14.068  1.0042 -0.1266  1.1922
19165TIP3   OH278909   2.538   3.555  12.401  0.6533 -0.0667 -0.3603
19165TIP3    H178910   2.472   3.487  12.388  1.1628 -0.4990 -0.6797
19165TIP3    H278911   2.515   3.593  12.486 -0.0214 -0.1957 -0.4775
19166TIP3   OH278912   4.087   1.587   0.979  0.3350  0.3576 -0.0558
19166TIP3    H178913   4.165   1.548   1.018 -0.8611 -1.8270  0.3354
19166TIP3    H278914   4.036   1.512   0.947 -1.8172  1.6576  0.1274
19167TIP3   OH278915   1.010   3.840  11.279  0.6261  0.3036 -0.2129
19167TIP3    H178916   0.934   3.875  11.232  0.4401 -1.3102 -1.1789
19167TIP3    H278917   1.085   3.889  11.244  0.2145  0.7861 -0.4286
19168TIP3   OH278918   3.838   5.026  12.006  0.1914  0.3961  0.2159
19168TIP3    H178919   3.773   4.975  12.054 -0.1105 -0.0199 -0.6056
19168TIP3    H278920   3.916   5.024  12.061 -0.0876 -0.2149  0.6005
19169TIP3   OH278921   2.394   5.928  12.485 -0.9617 -0.3435  0.1445
19169TIP3    H178922   2.329   5.859  12.479  0.2863 -1.4269 -2.6352
19169TIP3    H278923   2.369   5.991  12.416  1.5349 -1.4879 -1.9924
19170TIP3   OH278924   1.081   0.047   5.107  0.5536 -0.7074 -0.0224
19170TIP3    H178925   1.134   0.097   5.046 -2.7480  2.6918 -0.4908
19170TIP3    H278926   1.051  -0.028   5.057 -1.6681  1.7104 -2.7191
19171TIP3   OH278927   3.820   2.147   1.120  0.6605  0.0353  0.1598
19171TIP3    H178928   3.889   2.182   1.176 -0.5609 -0.6215  2.1628
19171TIP3    H278929   3.738   2.173   1.163 -0.3273 -3.0902  0.4056
19172TIP3   OH278930   1.914   2.310  13.221  0.1111  0.1202 -0.2054
19172TIP3    H178931   1.901   2.279  13.311 -0.4958 -1.5698 -0.8415
19172TIP3    H278932   1.938   2.402  13.231  0.4360 -0.1283  1.7064
19173TIP3   OH278933   5.866   2.939   3.957  0.1981  0.4048  0.2863
19173TIP3    H178934   5.953   2.899   3.966 -0.6812 -2.1427 -1.2659
19173TIP3    H278935   5.866   2.976   3.869 -0.1089  0.8879  0.4866
19174TIP3   OH278936   5.446   2.137   1.451  0.0124  0.2546  0.2143
19174TIP3    H178937   5.446   2.086   1.370 -1.6205  0.5303  0.0133
19174TIP3    H278938   5.539   2.140   1.477  0.7011  0.8711 -2.0723
19175TIP3   OH278939   2.483   3.299   6.442  1.1343  0.2189  0.2713
19175TIP3    H178940   2.422   3.237   6.482  0.4261  0.0568 -1.0262
19175TIP3    H278941   2.472   3.380   6.493 -2.1237  1.0383 -1.4835
19176TIP3   OH278942   1.179   5.149   2.026  0.6773  0.1341 -0.5783
19176TIP3    H178943   1.186   5.057   2.050 -0.9674  0.1125 -0.0673
19176TIP3    H278944   1.258   5.166   1.974  1.8123 -1.1282  0.6333
19177TIP3   OH278945   1.226   1.152   6.123  0.4684  0.0394 -0.0333
19177TIP3    H178946   1.295   1.214   6.149  0.1486 -0.0432  1.0539
19177TIP3    H278947   1.164   1.206   6.074  1.3872  0.0735 -1.2196
19178TIP3   OH278948   4.887   4.378  12.360  0.0721 -0.6107 -0.0841
19178TIP3    H178949   4.828   4.355  12.432  0.0673  1.4595  0.6413
19178TIP3    H278950   4.971   4.339  12.385  0.4582  1.2509  1.8667
19179TIP3   OH278951   1.130   3.323   5.023 -0.1071  0.2596  0.2928
19179TIP3    H178952   1.048   3.290   4.986 -0.8705  3.3126 -1.0325
19179TIP3    H278953   1.105   3.363   5.106  0.2456  0.2002  0.4293
19180TIP3   OH278954   4.524   1.912  16.352 -0.5331  0.4432 -0.3980
19180TIP3    H178955   4.443   1.922  16.302 -0.9970  1.4787  0.5360
19180TIP3    H278956   4.591   1.896  16.285 -1.6850 -1.8897 -1.1057
19181TIP3   OH278957   0.699   5.085  15.398  0.2283  0.0732  0.1394
19181TIP3    H178958   0.696   5.133  15.480  2.9398  0.0658  0.3255
19181TIP3    H278959   0.697   4.993  15.424 -1.6437  0.0182 -0.0310
19182TIP3   OH278960   0.446   5.632  10.756 -0.8355  0.0097  0.0062
19182TIP3    H178961   0.370   5.653  10.701  0.6870 -0.3008 -2.3839
19182TIP3    H278962   0.500   5.576  10.700  1.0897  0.0901  1.6854
19183TIP3   OH278963   2.687   1.109   5.035  1.0149  0.3867  0.1990
19183TIP3    H178964   2.632   1.127   5.111  1.7485  1.5750  0.4673
19183TIP3    H278965   2.685   1.013   5.026 -0.7143  0.3639  0.4599
19184TIP3   OH278966   4.395   3.029  15.611  0.1731 -0.1129 -0.4297
19184TIP3    H178967   4.402   3.122  15.632 -0.5550 -0.2256  0.3849
19184TIP3    H278968   4.353   3.027  15.525  2.0238  0.3356 -1.4017
19185TIP3   OH278969   3.148   4.280  15.714 -0.1490  0.4625 -0.0966
19185TIP3    H178970   3.116   4.361  15.675 -0.5526  0.5052  0.2991
19185TIP3    H278971   3.199   4.308  15.790  0.0565  0.3635 -0.2004
19186TIP3   OH278972   6.451   1.168   6.023  0.4222 -0.0052 -0.7865
19186TIP3    H178973   6.498   1.247   6.048  0.8766 -0.5469  0.1328
19186TIP3    H278974   6.510   1.097   6.047 -0.4492 -0.6676 -0.5696
19187TIP3   OH278975   4.156   6.171  17.038  0.1624  0.1100 -0.2252
19187TIP3    H178976   4.096   6.209  16.974  2.2056  0.0580 -2.3156
19187TIP3    H278977   4.239   6.164  16.992  1.0879 -2.5333  1.5719
19188TIP3   OH278978   4.922   1.176   0.108  0.3442 -0.9405 -0.3571
19188TIP3    H178979   5.000   1.169   0.053  1.4109 -0.7417  1.0705
19188TIP3    H278980   4.892   1.266   0.096  1.1692 -0.5856  0.1290
19189TIP3   OH278981   0.599   4.016   1.623 -0.3279  0.1093 -0.1956
19189TIP3    H178982   0.560   4.001   1.710  1.4005 -0.1639  0.5789
19189TIP3    H278983   0.690   4.040   1.642  0.2542 -0.5708 -1.9571
19190TIP3   OH278984   3.089   4.011   3.566  0.1875 -0.0684 -0.3732
19190TIP3    H178985   3.029   3.937   3.552  0.6711 -0.2430 -1.7017
19190TIP3    H278986   3.167   3.987   3.516  0.6136  1.0459 -0.2588
19191TIP3   OH278987   4.435   3.200  13.146  0.3463 -0.6815  0.2262
19191TIP3    H178988   4.387   3.186  13.064  0.8109 -0.0068 -0.1591
19191TIP3    H278989   4.527   3.191  13.122  0.4583 -1.1356  0.8064
19192TIP3   OH278990   4.559   0.686   2.793  0.0103  0.0543 -0.2445
19192TIP3    H178991   4.576   0.616   2.730 -0.1991  1.0160 -1.4101
19192TIP3    H278992   4.625   0.674   2.861  1.1127 -0.2165 -1.3344
19193TIP3   OH278993   6.274   5.862  16.236 -0.4769 -0.3888 -0.1797
19193TIP3    H178994   6.264   5.937  16.177  1.4287 -1.0218 -1.4130
19193TIP3    H278995   6.258   5.786  16.180  0.6178 -0.9847  0.2995
19194TIP3   OH278996   1.648   1.489   1.366  0.5458 -1.0800  0.5888
19194TIP3    H178997   1.732   1.456   1.397  2.3902  1.8722 -0.7894
19194TIP3    H278998   1.634   1.444   1.283  0.6440 -1.7186  0.9108
19195TIP3   OH278999   5.460   5.115   3.879 -0.2453  0.7133 -0.2682
19195TIP3    H179000   5.552   5.101   3.901 -0.1188  0.2965 -1.0129
19195TIP3    H279001   5.460   5.196   3.827 -0.5129  1.5727  1.0251
19196TIP3   OH279002   5.667   3.770   4.450 -0.4270  0.4255 -0.1403
19196TIP3    H179003   5.607   3.780   4.376 -1.8548 -1.0264  0.7827
19196TIP3    H279004   5.656   3.679   4.479  0.2336  0.8996  1.7496
19197TIP3   OH279005   0.569   1.023  12.505  0.1350 -0.4534 -0.1614
19197TIP3    H179006   0.573   0.945  12.559 -0.7386  0.0769  0.7089
19197TIP3    H279007   0.476   1.046  12.502  0.4776  1.1744  0.5440
19198TIP3   OH279008   2.802   5.968   1.700  0.2949 -0.1774 -0.6980
19198TIP3    H179009   2.850   5.966   1.783 -1.8207  0.3398  0.6148
19198TIP3    H279010   2.870   5.984   1.634  1.8503  1.0408  1.0837
19199TIP3   OH279011   5.099   4.532  16.810  0.0775 -0.0839  0.6024
19199TIP3    H179012   5.125   4.615  16.849 -1.9223  0.2142  1.4550
19199TIP3    H279013   5.073   4.477  16.885  1.3671 -1.4987  0.0610
19200TIP3   OH279014   4.448   3.258   3.956 -0.1979 -0.4237  0.2284
19200TIP3    H179015   4.481   3.234   3.869 -0.3119 -1.3326  0.4326
19200TIP3    H279016   4.509   3.216   4.017  0.7590  1.4026  0.6172
19201TIP3   OH279017   4.791   3.916  11.626 -0.0763  0.4947  0.2624
19201TIP3    H179018   4.748   3.998  11.650 -1.0236 -0.0956  0.6294
19201TIP3    H279019   4.884   3.940  11.618 -0.2491  1.4821  0.9380
19202TIP3   OH279020   6.210   3.320  16.037  0.1722 -0.0935  0.3978
19202TIP3    H179021   6.230   3.292  15.948  0.1664  0.6499  0.1541
19202TIP3    H279022   6.295   3.344  16.074  0.0957  0.2199  0.3718
19203TIP3   OH279023   2.804   3.707  16.813  0.5468 -0.7530 -0.1426
19203TIP3    H179024   2.864   3.773  16.778 -1.5806  2.3899  1.5407
19203TIP3    H279025   2.721   3.725  16.770 -1.2873  1.0479  3.5952
19204TIP3   OH279026   6.506   4.819  12.061 -0.2240 -0.2264 -0.0215
19204TIP3    H179027   6.443   4.878  12.021 -0.0096  0.2623  0.3529
19204TIP3    H279028   6.570   4.801  11.992 -0.7812 -0.7537 -0.4149
19205TIP3   OH279029   2.345   6.007  13.943  0.2602 -0.6545  0.5695
19205TIP3    H179030   2.320   5.915  13.952  0.1941 -0.5644  1.3602
19205TIP3    H279031   2.394   6.011  13.861 -1.5521 -1.0036 -0.5972
19206TIP3   OH279032   4.397   5.351   2.937 -0.0979  0.5402  0.0916
19206TIP3    H179033   4.359   5.390   3.017 -0.6753  1.0296 -0.4078
19206TIP3    H279034   4.405   5.258   2.957 -0.9145  0.5426  0.4686
19207TIP3   OH279035   2.398   4.347   1.142  0.4441  0.4847 -0.0340
19207TIP3    H179036   2.460   4.321   1.210  0.0630  1.5922  0.7656
19207TIP3    H279037   2.313   4.349   1.186 -0.2137 -1.1583 -1.1533
19208TIP3   OH279038   1.420   4.289  15.342 -0.0497  0.2218 -0.3128
19208TIP3    H179039   1.405   4.374  15.300 -0.9795 -0.2277 -0.9052
19208TIP3    H279040   1.335   4.263  15.376 -0.1314 -1.1995 -1.5124
19209TIP3   OH279041   2.489   2.159  15.880  0.5579  0.5795 -0.1131
19209TIP3    H179042   2.419   2.099  15.908 -0.6601  1.9105 -0.1669
19209TIP3    H279043   2.514   2.127  15.793  1.1533 -0.8568  0.5545
19210TIP3   OH279044   5.828   0.029  14.713 -0.2582 -0.2866 -0.3134
19210TIP3    H179045   5.755   0.037  14.652 -0.0995  0.4953 -0.4026
19210TIP3    H279046   5.900  -0.006  14.660 -0.7577 -1.8077 -0.0632
19211TIP3   OH279047   2.878   3.975  12.100 -0.2320  0.1245 -0.4435
19211TIP3    H179048   2.856   4.033  12.027  0.9454  0.7711 -0.3155
19211TIP3    H279049   2.927   4.030  12.161 -0.0944 -0.7246  0.2364
19212TIP3   OH279050   1.145   2.392  14.371  0.1703  0.1462 -0.0308
19212TIP3    H179051   1.125   2.378  14.278  1.5312  0.8705 -0.4600
19212TIP3    H279052   1.210   2.324  14.391 -0.5299 -0.3676  0.5654
19213TIP3   OH279053   4.014   4.826   0.357  0.1869  0.1750 -0.3237
19213TIP3    H179054   3.948   4.887   0.322  0.1207  0.5069  0.3662
19213TIP3    H279055   4.020   4.848   0.450  2.3471  1.1684 -0.6209
19214TIP3   OH279056   3.682   6.386   4.864 -0.2772  0.4224 -0.4657
19214TIP3    H179057   3.654   6.318   4.927  3.8096 -0.3149  0.8246
19214TIP3    H279058   3.723   6.453   4.918 -1.1094  2.2946 -2.0516
19215TIP3   OH279059   5.199   4.199   2.636 -0.9152  0.0387  0.2678
19215TIP3    H179060   5.210   4.180   2.543  0.4642  1.2328  0.1520
19215TIP3    H279061   5.237   4.124   2.681  2.0388  1.1655 -0.1738
19216TIP3   OH279062   0.508   5.340   4.790 -0.5943 -0.4353  0.5998
19216TIP3    H179063   0.539   5.357   4.879  0.2669 -0.7387  0.3651
19216TIP3    H279064   0.415   5.363   4.792 -0.2151  1.2087  1.1443
19217TIP3   OH279065   1.099   2.526  10.918  0.0898 -0.0403 -0.3890
19217TIP3    H179066   1.053   2.526  11.002  0.8430  0.0831  0.0337
19217TIP3    H279067   1.075   2.443  10.878 -0.5698  0.0602 -0.2226
19218TIP3   OH279068   5.781   6.421  14.702 -0.8431  0.5436  0.2652
19218TIP3    H179069   5.770   6.503  14.654 -0.8164  0.1747 -0.3715
19218TIP3    H279070   5.704   6.369  14.681  0.8868 -1.1670 -2.4942
19219TIP3   OH279071   1.199   3.414  14.607  0.2630 -0.4619  0.7704
19219TIP3    H179072   1.115   3.386  14.643 -1.0084  0.4555 -1.2994
19219TIP3    H279073   1.255   3.336  14.611 -1.0615 -1.4169  1.1120
19220TIP3   OH279074   3.032   4.568  13.324  0.6509  0.0890  0.1018
19220TIP3    H179075   2.997   4.655  13.338  0.1484 -0.2611  1.1050
19220TIP3    H279076   3.025   4.554  13.230  2.2364  1.7409 -0.3064
19221TIP3   OH279077   3.614   1.936  11.906 -0.5162  0.2977  0.1120
19221TIP3    H179078   3.602   1.950  11.812  1.9013  0.2549 -0.2656
19221TIP3    H279079   3.605   2.023  11.945 -0.0699  0.5688 -0.3707
19222TIP3   OH279080   2.367   0.790   3.879  0.6488  0.0628  0.1203
19222TIP3    H179081   2.304   0.861   3.889 -2.1473 -2.3870  1.5783
19222TIP3    H279082   2.384   0.760   3.969  1.8680 -1.0564 -0.4476
19223TIP3   OH279083   5.378   1.736   3.036  0.1853  0.5132 -0.1468
19223TIP3    H179084   5.472   1.737   3.051  0.1215 -0.8372  0.4632
19223TIP3    H279085   5.365   1.797   2.963  1.4120  1.3663  0.3170
19224TIP3   OH279086   6.369   0.480   5.128  0.5420 -0.7191 -0.4177
19224TIP3    H179087   6.401   0.394   5.156  3.6985  0.0375 -1.2451
19224TIP3    H279088   6.375   0.478   5.032  0.2057  0.2734 -0.4769
19225TIP3   OH279089   4.855   1.626  10.717  0.1102  0.0845  0.2053
19225TIP3    H179090   4.939   1.584  10.737  0.9434  1.0440 -1.1344
19225TIP3    H279091   4.879   1.706  10.671 -1.5894 -0.7489 -2.2883
19226TIP3   OH279092   2.269   3.263  15.492  0.7178  0.1696  0.4080
19226TIP3    H179093   2.214   3.277  15.415 -0.0871 -0.7325  0.7942
19226TIP3    H279094   2.218   3.203  15.548  1.8783 -0.3104  0.9997
19227TIP3   OH279095   1.059   2.798   0.108  0.3987  0.8421 -0.2074
19227TIP3    H179096   1.010   2.828   0.184  0.9459 -1.0332  0.9358
19227TIP3    H279097   0.992   2.785   0.040 -0.5882 -0.6271  0.9862
19228TIP3   OH279098   3.042   6.106  17.035 -0.0532  0.2084  0.0859
19228TIP3    H179099   3.013   6.185  16.989 -0.2631 -0.7011 -1.3995
19228TIP3    H279100   3.092   6.139  17.110 -1.3835  1.7544  0.3428
19229TIP3   OH279101   6.540   2.350   0.250 -0.2423  0.2209  0.2358
19229TIP3    H179102   6.578   2.334   0.164 -1.5103 -1.6422 -0.0388
19229TIP3    H279103   6.482   2.275   0.265  0.1038  0.3879  2.8202
19230TIP3   OH279104   0.654   4.131  12.655  0.1017  0.3586 -0.2494
19230TIP3    H179105   0.702   4.051  12.636 -0.2987  0.2853 -0.9783
19230TIP3    H279106   0.722   4.195  12.679  0.4345 -0.1364  0.1416
19231TIP3   OH279107   2.529   1.155  12.504  0.5032  0.1847 -0.0908
19231TIP3    H179108   2.501   1.178  12.416  0.1448  1.7094  0.3897
19231TIP3    H279109   2.623   1.175  12.505  0.5818 -0.1643 -0.2170
19232TIP3   OH279110   3.531   3.918  17.015  0.1511  0.5326 -0.1206
19232TIP3    H179111   3.578   3.836  17.005  0.4586  0.5035  1.3582
19232TIP3    H279112   3.440   3.897  16.995 -0.0175 -0.5144  1.6059
19233TIP3   OH279113   3.049   1.698  13.462 -0.1834  0.1475 -0.1281
19233TIP3    H179114   3.111   1.729  13.529 -0.5232 -1.3729  0.9379
19233TIP3    H279115   3.099   1.700  13.381  1.2559 -0.9154  0.6875
19234TIP3   OH279116   4.990   5.905  12.262 -0.5874  0.3328  0.3682
19234TIP3    H179117   5.014   5.820  12.226 -1.9875 -0.2599  0.7660
19234TIP3    H279118   4.898   5.916  12.238 -0.2684  2.0060 -0.1805
19235TIP3   OH279119   6.673   5.044   0.202  0.4059 -0.3466 -0.6161
19235TIP3    H179120   6.710   4.983   0.138  1.5974 -1.3108  0.9231
19235TIP3    H279121   6.592   5.002   0.231  0.4192 -0.4330 -0.7023
19236TIP3   OH279122   2.307   6.044   0.760  0.1297  0.3314  0.3261
19236TIP3    H179123   2.380   6.060   0.699  0.4747 -1.0783  0.3450
19236TIP3    H279124   2.307   5.949   0.773 -2.0508  0.2302 -0.0664
19237TIP3   OH279125   2.674   5.765   4.050 -0.5050  0.4480 -0.6555
19237TIP3    H179126   2.704   5.753   3.960 -1.1417  0.5231 -0.8830
19237TIP3    H279127   2.658   5.675   4.081 -1.5741  0.4727 -1.0765
19238TIP3   OH279128   2.161   5.662  14.517  0.3736  0.3422  0.1585
19238TIP3    H179129   2.188   5.673  14.426  1.8718 -1.1153  0.3870
19238TIP3    H279130   2.193   5.741  14.561  0.5129  0.5962 -0.3926
19239TIP3   OH279131   6.296   3.409  11.776  0.1700  0.2598 -0.3666
19239TIP3    H179132   6.379   3.437  11.815  0.4460  1.3543 -1.6654
19239TIP3    H279133   6.302   3.313  11.774  2.4639  0.3171 -2.4747
19240TIP3   OH279134   4.406   4.384   1.797 -0.5101  0.1303 -0.0066
19240TIP3    H179135   4.501   4.377   1.808 -0.4405 -1.0280 -1.0555
19240TIP3    H279136   4.394   4.458   1.737 -0.1003 -0.9578 -1.4946
19241TIP3   OH279137   3.881   2.954   2.012  0.3743  0.2795 -0.5300
19241TIP3    H179138   3.821   2.981   2.081 -0.5703  0.6426 -1.4580
19241TIP3    H279139   3.878   2.859   2.012 -1.2651  0.2971 -1.4292
19242TIP3   OH279140   2.511   6.340  12.565 -0.2449 -0.0538 -0.4515
19242TIP3    H179141   2.516   6.276  12.635  1.0779  1.3149  0.7883
19242TIP3    H279142   2.480   6.291  12.489  1.2072 -2.2770  0.2864
19243TIP3   OH279143   1.931   3.046  13.035 -0.2780 -0.0343  0.1265
19243TIP3    H179144   2.008   3.092  13.068 -1.5993  1.0816  1.7875
19243TIP3    H279145   1.918   3.081  12.947 -0.7061  2.1245  1.0001
19244TIP3   OH279146   3.485   4.727   3.233 -0.4569 -0.6950  0.3241
19244TIP3    H179147   3.472   4.813   3.273 -0.0613 -0.5479  0.1380
19244TIP3    H279148   3.580   4.718   3.225 -0.4860 -1.2543  0.5689
19245TIP3   OH279149   2.925   1.478   1.585  0.4752 -0.2710  0.6673
19245TIP3    H179150   2.971   1.477   1.669  0.4485 -0.4652  0.6797
19245TIP3    H279151   2.883   1.564   1.581  1.0682  0.0255  0.5347
19246TIP3   OH279152   6.671   6.714  17.355  0.3659  0.7129 -0.8188
19246TIP3    H179153   6.752   6.750  17.391  0.5584 -1.3391  1.0198
19246TIP3    H279154   6.697   6.632  17.313 -0.5566  0.7846 -1.5712
19247TIP3   OH279155   0.749   5.553  16.235 -0.1502 -0.1017 -0.1970
19247TIP3    H179156   0.683   5.517  16.295 -1.8891 -0.8858 -2.4540
19247TIP3    H279157   0.826   5.567  16.291 -0.9812 -2.6662  1.8463
19248TIP3   OH279158   4.522   6.678   4.509 -0.2278  0.1247  0.4279
19248TIP3    H179159   4.502   6.736   4.583 -2.2244  0.7043 -0.4872
19248TIP3    H279160   4.444   6.624   4.499  0.8534 -1.4345  0.0429
19249TIP3   OH279161   6.537   1.518   2.731 -0.3996 -0.7608  0.7347
19249TIP3    H179162   6.463   1.470   2.768 -0.7938 -0.2401  0.6468
19249TIP3    H279163   6.587   1.548   2.806 -1.7837  1.2209  0.9608
19250TIP3   OH279164   5.928   5.541  14.632 -0.1006  0.2376  0.0321
19250TIP3    H179165   6.002   5.481  14.638 -0.5892 -0.2486  1.7617
19250TIP3    H279166   5.906   5.561  14.723 -0.5066  2.3756 -0.4892
19251TIP3   OH279167   5.737   0.608  13.627  0.3049 -0.1302 -0.4478
19251TIP3    H179168   5.714   0.575  13.714  1.7720  2.7501  1.1953
19251TIP3    H279169   5.786   0.537  13.586  0.7141 -1.1089  1.6191
19252TIP3   OH279170   0.677   4.927   2.749  0.0822 -0.2424  0.2020
19252TIP3    H179171   0.754   4.904   2.696 -0.2606 -1.3005  0.1422
19252TIP3    H279172   0.685   5.022   2.762 -0.1998  0.1998 -2.3342
19253TIP3   OH279173   3.183   5.076   1.364 -0.7131  0.2925 -0.1816
19253TIP3    H179174   3.182   5.143   1.296  0.8043  3.7288  2.7909
19253TIP3    H279175   3.254   5.017   1.341  0.0593  1.6401 -1.3475
19254TIP3   OH279176   2.946   0.573  15.154 -0.2320 -0.1159 -0.2583
19254TIP3    H179177   2.853   0.586  15.174  0.1179 -1.0548  2.4625
19254TIP3    H279178   2.964   0.484  15.183  1.9836  0.8359  1.5550
19255TIP3   OH279179   5.153   0.470  15.140  0.0039  0.0600  0.3801
19255TIP3    H179180   5.115   0.479  15.228 -0.8430  2.9351 -0.1820
19255TIP3    H279181   5.172   0.560  15.113  0.3547 -0.7586 -2.3596
19256TIP3   OH279182   6.258   3.984  15.809 -0.2195  0.0419  0.1993
19256TIP3    H179183   6.307   4.065  15.795  0.1171 -0.0148  0.9787
19256TIP3    H279184   6.318   3.927  15.856 -0.5708 -0.5392 -0.0382
19257TIP3   OH279185   1.614   2.577  14.953 -0.2443  0.2416 -0.1201
19257TIP3    H179186   1.626   2.672  14.963  1.9090  0.0850 -0.6737
19257TIP3    H279187   1.625   2.561  14.859  0.7252 -0.6751  0.1265
19258TIP3   OH279188   3.575   0.897   0.234 -0.6248 -0.4084 -0.0383
19258TIP3    H179189   3.522   0.878   0.311 -1.2128 -0.7535 -0.5196
19258TIP3    H279190   3.617   0.814   0.212 -0.3503 -0.2789 -0.0158
19259TIP3   OH279191   2.721   1.158   3.320  0.2773 -0.0571  0.7293
19259TIP3    H179192   2.645   1.170   3.377 -0.2014 -0.1107  0.1157
19259TIP3    H279193   2.684   1.126   3.237  0.7699  1.5030 -0.1410
19260TIP3   OH279194   3.407   2.613  16.539  0.0271  0.4503  0.0445
19260TIP3    H179195   3.332   2.611  16.599  3.4941 -1.3870  5.0319
19260TIP3    H279196   3.417   2.523  16.510  0.5159  0.5948 -0.2510
19261TIP3   OH279197   3.560   5.420  13.371 -0.0438  0.2967 -0.3761
19261TIP3    H179198   3.532   5.414  13.279  0.3984 -4.5088 -0.4485
19261TIP3    H279199   3.502   5.360  13.417  0.8007  1.3742  2.2406
19262TIP3   OH279200   4.634   1.504   6.639  0.0581  0.1158 -0.3377
19262TIP3    H179201   4.561   1.562   6.617 -0.8673 -1.0272 -0.3716
19262TIP3    H279202   4.604   1.417   6.614  1.4435 -0.3873 -0.3535
19263TIP3   OH279203   1.397   4.965   4.382 -0.6060 -0.3163  0.1333
19263TIP3    H179204   1.367   5.049   4.416  1.5152 -0.3602  2.3950
19263TIP3    H279205   1.321   4.908   4.386 -1.7098  1.0861 -0.0923
19264TIP3   OH279206   5.621   1.085  11.255  0.2386  0.4544 -0.3978
19264TIP3    H179207   5.693   1.025  11.239  0.0996  0.5086 -1.2786
19264TIP3    H279208   5.662   1.171  11.264  0.3722  0.3359  0.1030
19265TIP3   OH279209   1.701   3.541   3.341  0.2024  0.7069  0.0918
19265TIP3    H179210   1.633   3.605   3.362  1.5928  2.1896  0.3001
19265TIP3    H279211   1.772   3.561   3.402  0.4880 -1.4147  0.5190
19266TIP3   OH279212   6.737   5.139   4.317  0.0739 -0.2062  0.6217
19266TIP3    H179213   6.706   5.211   4.373  3.4829  2.0454 -0.1038
19266TIP3    H279214   6.826   5.121   4.348  0.3204 -2.2064 -1.0564
19267TIP3   OH279215   3.733   0.765   4.940 -0.4103  0.4207  0.2544
19267TIP3    H179216   3.683   0.772   4.858  0.2517  0.8937 -0.1220
19267TIP3    H279217   3.764   0.854   4.957  2.0398 -0.1739 -0.6551
19268TIP3   OH279218   0.678   6.101  14.261  0.4193  0.0524  0.3827
19268TIP3    H179219   0.668   6.189  14.298  0.1237  0.2705 -0.1923
19268TIP3    H279220   0.608   6.095  14.196  1.5696  0.1011 -0.9122
19269TIP3   OH279221   6.708   5.001  16.104  0.1763 -0.2064 -0.4524
19269TIP3    H179222   6.748   5.074  16.152  1.5374 -0.2352 -1.4785
19269TIP3    H279223   6.752   4.923  16.137 -1.4087 -0.6361  0.7759
19270TIP3   OH279224   1.372   0.424   5.279 -0.1656 -0.0804 -0.6833
19270TIP3    H179225   1.392   0.513   5.310  0.0006  0.3703 -2.0146
19270TIP3    H279226   1.278   0.425   5.263 -0.6140 -0.9096  1.5687
19271TIP3   OH279227   1.854   1.630   1.666 -0.2324 -0.0980 -0.1117
19271TIP3    H179228   1.790   1.562   1.646  0.1310 -0.1249 -1.2369
19271TIP3    H279229   1.816   1.677   1.740  0.1698 -2.4094  1.6950
19272TIP3   OH279230   1.490   6.373   4.433  0.1693  0.0300 -0.3388
19272TIP3    H179231   1.431   6.308   4.471  1.9601 -1.8085 -0.5493
19272TIP3    H279232   1.562   6.322   4.396  1.6449  2.1389 -0.5661
19273TIP3   OH279233   2.356   5.261  13.772  0.7463  0.3305 -0.5927
19273TIP3    H179234   2.271   5.280  13.812  1.3852  0.4426  0.7924
19273TIP3    H279235   2.382   5.344  13.731  0.9029  0.7858  0.3914
19274TIP3   OH279236   5.572   2.131  11.178  0.0025  0.1061 -0.0598
19274TIP3    H179237   5.624   2.178  11.113  0.2264  1.3292  0.9690
19274TIP3    H279238   5.481   2.150  11.155  0.0915  1.1971  0.4269
19275TIP3   OH279239   3.572   2.162   5.268 -0.1925 -0.2815  0.5554
19275TIP3    H179240   3.560   2.230   5.202  1.7365  1.2765  1.6871
19275TIP3    H279241   3.496   2.170   5.326 -1.2884 -0.8699 -0.7629
19276TIP3   OH279242   3.483   0.345   0.686  0.0229 -0.3843  0.2477
19276TIP3    H179243   3.401   0.321   0.730 -0.4845 -2.6545 -1.7105
19276TIP3    H279244   3.457   0.407   0.618  0.1749  0.0351  0.5692
19277TIP3   OH279245   4.484   1.531   1.893 -0.4564 -0.1496  0.3375
19277TIP3    H179246   4.570   1.501   1.864  0.8410  1.4898  2.2175
19277TIP3    H279247   4.479   1.622   1.862 -1.9655 -0.5138 -0.5816
19278TIP3   OH279248   0.497   4.175   2.494 -0.4751  0.3209 -0.3497
19278TIP3    H179249   0.481   4.121   2.416 -1.2838  0.3167 -0.1878
19278TIP3    H279250   0.457   4.126   2.566  0.7949  0.0270  0.1860
19279TIP3   OH279251   6.498   1.510   0.067 -1.0810  0.5319 -0.1970
19279TIP3    H179252   6.543   1.447   0.123  0.4848  1.4257 -0.3794
19279TIP3    H279253   6.524   1.487  -0.022 -1.0594  1.0030 -0.3179
19280TIP3   OH279254   3.101   0.667   5.543 -0.0109  0.1946  0.3366
19280TIP3    H179255   3.191   0.637   5.528  0.4175  2.3845 -2.3236
19280TIP3    H279256   3.101   0.701   5.632  1.9402  0.4968  0.2652
19281TIP3   OH279257   2.704   5.581  11.045  0.2489 -0.2991 -1.1747
19281TIP3    H179258   2.615   5.613  11.031 -0.5247 -1.0481  1.4474
19281TIP3    H279259   2.759   5.660  11.038 -1.0989  0.9172  0.8519
19282TIP3   OH279260   0.609   0.653   0.956  0.1024  0.1801  0.2023
19282TIP3    H179261   0.522   0.660   0.996  0.1283 -0.5642  0.4000
19282TIP3    H279262   0.645   0.741   0.964 -0.6800  0.5339  0.0040
19283TIP3   OH279263   5.942   3.689  13.312 -0.6684 -0.1407  0.1576
19283TIP3    H179264   5.984   3.647  13.388  0.7161  0.9719  0.0512
19283TIP3    H279265   6.015   3.731  13.266 -1.8374  1.3761 -0.3725
19284TIP3   OH279266   2.753   0.666   0.037  0.3474  0.5447  0.3545
19284TIP3    H179267   2.752   0.656   0.132  3.0021  0.5797  0.4590
19284TIP3    H279268   2.687   0.604   0.006  0.7877 -0.9137  2.1370
19285TIP3   OH279269   4.154   6.622  15.999  0.0430 -0.0821 -0.1458
19285TIP3    H179270   4.077   6.586  15.957 -0.5033  1.3549 -0.4280
19285TIP3    H279271   4.204   6.663  15.928  0.9500 -0.7810  0.0684
19286TIP3   OH279272   4.834   3.634  12.113 -0.0270 -0.0149 -0.3797
19286TIP3    H179273   4.790   3.553  12.139 -1.3847  0.7826 -0.1077
19286TIP3    H279274   4.772   3.703  12.134  2.0529  1.3793  1.7432
19287TIP3   OH279275   1.951   4.686   3.954 -0.5295  0.5536 -0.0484
19287TIP3    H179276   1.937   4.599   3.917 -1.3965  1.1726 -1.2353
19287TIP3    H279277   1.895   4.689   4.032  0.0046 -0.1656  0.3746
19288TIP3   OH279278   3.993   2.202   4.007  0.6914 -0.2594 -0.3765
19288TIP3    H179279   4.022   2.202   4.099 -0.7817  0.1983  0.1067
19288TIP3    H279280   3.959   2.290   3.992 -2.0817 -1.2309 -0.3492
19289TIP3   OH279281   1.892   2.996   1.868 -0.6095 -0.0374  0.0550
19289TIP3    H179282   1.972   2.944   1.863 -0.8058 -0.2195 -1.9236
19289TIP3    H279283   1.827   2.945   1.821 -0.6390  2.2034 -2.6010
19290TIP3   OH279284   1.059   4.335   2.628  0.8834 -0.0813 -0.2098
19290TIP3    H179285   1.022   4.423   2.627  0.1373 -0.3742 -1.3755
19290TIP3    H279286   0.990   4.282   2.669  2.5262  0.2908  3.3764
19291TIP3   OH279287   1.150   4.394   4.834 -0.1496  0.1559 -0.0866
19291TIP3    H179288   1.070   4.378   4.884 -0.5900 -0.0963 -0.8508
19291TIP3    H279289   1.139   4.482   4.798 -0.2956 -0.0499 -0.5609
19292TIP3   OH279290   3.154   0.873   0.350 -0.3951 -0.1403  0.8100
19292TIP3    H179291   3.197   0.905   0.271 -0.5562 -0.0962  0.7395
19292TIP3    H279292   3.110   0.793   0.322 -1.2767  0.4032  0.6174
19293TIP3   OH279293   0.867   3.193  13.180  0.4650  0.4278 -0.0461
19293TIP3    H179294   0.786   3.143  13.172 -0.4501  2.0178 -1.3738
19293TIP3    H279295   0.869   3.222  13.271 -0.7714  0.8607 -0.1472
19294TIP3   OH279296   2.386   3.720   0.858  0.1291  0.7176  0.1457
19294TIP3    H179297   2.453   3.780   0.824 -0.4258  0.2977 -1.8526
19294TIP3    H279298   2.336   3.695   0.780 -1.7698  0.2969  1.4471
19295TIP3   OH279299   4.653   3.039   1.980  0.2853 -0.4951 -0.6670
19295TIP3    H179300   4.567   3.001   1.995  0.6270 -1.1573 -0.3582
19295TIP3    H279301   4.637   3.133   1.974 -0.5897 -0.6907 -1.6266
19296TIP3   OH279302   3.762   5.265  13.511  0.0209 -0.1029  0.3458
19296TIP3    H179303   3.709   5.326  13.459  1.0374  0.8844  0.4128
19296TIP3    H279304   3.743   5.179  13.474 -0.4795  0.4000 -0.6156
19297TIP3   OH279305   3.263   3.076  16.998  0.4918  0.6195  0.4075
19297TIP3    H179306   3.311   3.080  16.915  0.8057  0.8422  0.5997
19297TIP3    H279307   3.276   3.162  17.038  0.1225  0.6033  0.5669
19298TIP3   OH279308   4.701   5.959  17.322 -0.1633  0.3490 -0.1683
19298TIP3    H179309   4.793   5.974  17.302 -0.3546 -0.1695 -1.5662
19298TIP3    H279310   4.676   5.885  17.266 -1.5015  0.6679 -0.0364
19299TIP3   OH279311   3.167   5.506  15.027  0.3072  0.1105 -0.1511
19299TIP3    H179312   3.118   5.426  15.048  0.8466 -0.3444 -0.6198
19299TIP3    H279313   3.254   5.492  15.065  0.3942  0.4964 -0.2025
19300TIP3   OH279314   1.091   3.737   0.311  0.3955 -0.8841 -0.0397
19300TIP3    H179315   1.086   3.775   0.223 -1.3633  2.1885  1.2290
19300TIP3    H279316   1.185   3.728   0.328  0.8527  0.9295 -1.3088
19301TIP3   OH279317   1.657   0.051   1.874 -0.8784 -0.1678  0.1088
19301TIP3    H179318   1.666  -0.031   1.923  1.3247  0.4512  0.8741
19301TIP3    H279319   1.723   0.109   1.913 -2.6147  2.1329 -0.1206
19302TIP3   OH279320   1.102   4.978   6.190 -0.2682  0.2613 -0.1256
19302TIP3    H179321   1.160   5.020   6.254  0.3221  0.3553 -0.7115
19302TIP3    H279322   1.113   4.884   6.205  0.7088  0.2593 -0.8133
19303TIP3   OH279323   5.025   0.768  17.131  0.2070  0.0872 -0.5058
19303TIP3    H179324   5.106   0.741  17.175 -0.0388  3.1268  2.1529
19303TIP3    H279325   5.053   0.832  17.066 -0.0097  1.5025  0.7441
19304TIP3   OH279326   5.334   1.941   2.199  0.0429 -0.1038  0.4618
19304TIP3    H179327   5.297   1.930   2.286  2.5337 -1.4418  1.4498
19304TIP3    H279328   5.406   2.003   2.211 -0.0847  0.3460 -0.8428
19305TIP3   OH279329   1.640   1.684   3.169  0.5992 -0.3721  0.6009
19305TIP3    H179330   1.623   1.625   3.095  1.0706  1.1598 -0.7958
19305TIP3    H279331   1.589   1.762   3.149  1.2084  0.3026  1.6129
19306TIP3   OH279332   0.635   3.166  14.775  0.3830  0.1234 -0.0353
19306TIP3    H179333   0.591   3.147  14.857  0.8836  1.1980  0.5027
19306TIP3    H279334   0.569   3.211  14.722 -0.3249 -1.6469 -0.7243
19307TIP3   OH279335   4.379   3.780   5.221 -0.1342 -0.2813  0.1340
19307TIP3    H179336   4.471   3.758   5.235  0.1759  0.5867 -0.4467
19307TIP3    H279337   4.330   3.715   5.272  0.8039 -0.5744  0.6763
19308TIP3   OH279338   0.691   0.737  16.524  0.2569 -0.4351 -0.4922
19308TIP3    H179339   0.608   0.693  16.541  0.4100 -0.4197  0.3515
19308TIP3    H279340   0.686   0.765  16.432 -1.3842  1.0883  0.0138
19309TIP3   OH279341   2.775   4.584   3.008 -0.1649 -0.3880  0.1207
19309TIP3    H179342   2.841   4.650   3.028 -0.6529  0.5679 -1.2705
19309TIP3    H279343   2.775   4.526   3.084  2.3047 -0.4544  0.1518
19310TIP3   OH279344   5.557   2.417   5.109 -0.0715 -0.2171 -0.0804
19310TIP3    H179345   5.504   2.495   5.126 -0.2504  0.2024 -2.2163
19310TIP3    H279346   5.502   2.344   5.136 -1.6577  0.2362 -1.8409
19311TIP3   OH279347   1.913   5.252  11.650  0.5263  0.6693  0.4381
19311TIP3    H179348   1.952   5.175  11.609  1.1680  0.6097  1.1486
19311TIP3    H279349   1.972   5.275  11.721  0.5492  2.0487  0.0104
19312TIP3   OH279350   3.463   0.824  11.202  0.0677  0.2558  0.1392
19312TIP3    H179351   3.551   0.796  11.178 -0.3509 -0.1571 -1.0022
19312TIP3    H279352   3.407   0.786  11.134 -0.9082  1.1003  0.4534
19313TIP3   OH279353   3.800   0.864   2.484  0.3804  0.0219 -0.3636
19313TIP3    H179354   3.759   0.882   2.399  0.0296  0.8676 -0.0276
19313TIP3    H279355   3.752   0.787   2.518 -1.7883  1.6562  0.5325
19314TIP3   OH279356   2.468   3.249  14.361 -0.0879  0.7481  0.1150
19314TIP3    H179357   2.561   3.248  14.381 -0.3239  0.5768  1.2698
19314TIP3    H279358   2.435   3.165  14.394 -0.4156  0.1592 -1.5622
19315TIP3   OH279359   5.959   4.922   2.227 -0.3126 -0.4882  0.0512
19315TIP3    H179360   6.003   4.859   2.171  1.2171  0.2035  0.4367
19315TIP3    H279361   5.984   5.008   2.191  0.2575 -0.0472  1.4430
19316TIP3   OH279362   2.355   0.008  15.012 -0.3378 -0.5595 -0.3564
19316TIP3    H179363   2.333   0.076  14.948 -0.5079  0.5548  0.8600
19316TIP3    H279364   2.273  -0.040  15.025 -0.3159 -0.7591 -0.9061
19317TIP3   OH279365   3.284   1.761  12.803  0.3066 -0.0247 -0.0356
19317TIP3    H179366   3.335   1.717  12.735 -0.2061 -0.3021 -0.2439
19317TIP3    H279367   3.195   1.764  12.768  0.7789  3.6670 -1.2660
19318TIP3   OH279368   1.237   1.690   1.433  0.9314 -0.9116 -0.7019
19318TIP3    H179369   1.326   1.724   1.446  1.2257 -1.4758 -1.1801
19318TIP3    H279370   1.250   1.598   1.409  0.1627 -1.3097  0.3468
19319TIP3   OH279371   6.655   0.769  13.510 -0.2572 -0.4112 -0.5203
19319TIP3    H179372   6.599   0.749  13.585  0.7408 -0.6058  0.1996
19319TIP3    H279373   6.600   0.820  13.451 -0.6348  1.1232  1.0794
19320TIP3   OH279374   0.528   0.802   0.693  0.4973 -0.0024  0.1693
19320TIP3    H179375   0.569   0.887   0.711 -0.4305  0.3884  0.5090
19320TIP3    H279376   0.439   0.811   0.727 -0.3201 -0.3431 -1.7709
19321TIP3   OH279377   4.521   0.284  15.560 -0.2468  0.2831 -0.0377
19321TIP3    H179378   4.556   0.351  15.618 -0.5358  0.2689  0.1522
19321TIP3    H279379   4.584   0.212  15.565 -0.0537  0.4505 -0.0686
19322TIP3   OH279380   0.245   5.892   4.438 -0.2105 -0.6970 -0.3985
19322TIP3    H179381   0.227   5.815   4.492 -1.8928 -1.6415 -2.1616
19322TIP3    H279382   0.329   5.873   4.396  0.8131 -0.2215  1.3661
19323TIP3   OH279383   4.976   0.050   3.513 -0.2899  0.6890  0.2025
19323TIP3    H179384   4.930  -0.029   3.542 -2.4104  1.7962  0.0421
19323TIP3    H279385   5.023   0.023   3.434  1.0155 -0.9625  1.4627
19324TIP3   OH279386   3.652   2.887  17.344  0.1443  0.3273  0.3039
19324TIP3    H179387   3.738   2.862  17.380 -0.5408 -0.6561  1.3333
19324TIP3    H279388   3.661   2.873  17.249  1.2210  0.5751  0.3540
19325TIP3   OH279389   1.000   1.856   0.016 -0.0106  0.1013 -0.0211
19325TIP3    H179390   1.062   1.808  -0.039 -1.0527 -0.5567 -0.6627
19325TIP3    H279391   1.044   1.864   0.100  0.4017 -1.5698 -0.0387
19326TIP3   OH279392   2.854   3.025   2.975  0.8429 -0.2419  0.4617
19326TIP3    H179393   2.758   3.026   2.969  0.8941  0.6855 -0.4187
19326TIP3    H279394   2.883   2.993   2.890  1.3408  1.6413 -0.1252
19327TIP3   OH279395   2.147   4.693  15.681  0.2141 -0.1091 -0.1765
19327TIP3    H179396   2.181   4.642  15.607  0.1568 -0.5475  0.0979
19327TIP3    H279397   2.211   4.763  15.693 -0.3643  0.6517 -1.3826
19328TIP3   OH279398   4.585   4.243   3.896  0.2094 -0.0158 -0.5643
19328TIP3    H179399   4.509   4.264   3.949 -0.1430 -0.1543 -1.0108
19328TIP3    H279400   4.598   4.149   3.908  1.7407  0.3599  1.3737
19329TIP3   OH279401   0.597   5.829  12.692 -0.4153 -0.4138 -0.3199
19329TIP3    H179402   0.551   5.806  12.772  0.1908 -0.3428  0.0583
19329TIP3    H279403   0.536   5.885  12.644 -0.7893 -0.4770  0.0811
19330TIP3   OH279404   4.384   5.928   4.062 -0.1592  0.6233  0.2231
19330TIP3    H179405   4.455   5.904   4.002  0.6741  2.0246  0.6042
19330TIP3    H279406   4.428   5.972   4.135 -1.4043  1.3263  0.5726
19331TIP3   OH279407   1.003   3.231  12.279  0.2076 -0.3860 -0.2441
19331TIP3    H179408   1.027   3.285  12.354  2.1879 -0.7321 -0.5497
19331TIP3    H279409   0.922   3.187  12.305 -0.1238  0.8759  0.9430
19332TIP3   OH279410   6.118   6.611   4.935  0.1086 -0.3959  0.1889
19332TIP3    H179411   6.171   6.544   4.978  1.1015  0.2157 -0.0309
19332TIP3    H279412   6.040   6.620   4.990  0.0390 -1.5932  0.3154
19333TIP3   OH279413   5.265   5.418   3.496 -0.2833 -0.0542  0.0477
19333TIP3    H179414   5.296   5.508   3.504 -0.0058 -0.2274  1.0135
19333TIP3    H279415   5.182   5.425   3.449 -0.3883  0.7299  0.3402
19334TIP3   OH279416   2.909   6.348  15.674  0.4409  0.5493 -0.4145
19334TIP3    H179417   2.843   6.417  15.687 -0.9712 -0.4078 -2.0624
19334TIP3    H279418   2.866   6.268  15.705  0.9689 -0.0312 -1.1674
19335TIP3   OH279419   6.252   1.376  16.635  0.1265 -0.1152 -0.1229
19335TIP3    H179420   6.235   1.283  16.619 -2.2460 -0.0213  1.3629
19335TIP3    H279421   6.336   1.377  16.682  0.6890 -1.3758 -1.0420
19336TIP3   OH279422   2.811   5.041   4.860  0.0398  0.1898  0.1120
19336TIP3    H179423   2.725   5.061   4.896  0.1605  0.4625  0.2503
19336TIP3    H279424   2.849   5.126   4.838  0.3419  0.0839  0.2091
19337TIP3   OH279425   3.458   2.267  14.598  0.4988 -0.1964 -0.7579
19337TIP3    H179426   3.491   2.342  14.647  0.0287 -0.7817  0.4781
19337TIP3    H279427   3.434   2.303  14.512  0.5388  1.0065 -0.2782
19338TIP3   OH279428   3.710   4.977   1.432  0.0849 -0.2778 -0.3180
19338TIP3    H179429   3.716   4.927   1.513  1.6873  1.9705  1.0935
19338TIP3    H279430   3.647   5.047   1.451  0.0066 -0.0853 -1.2365
19339TIP3   OH279431   0.754   0.001  16.881 -0.1949 -0.2784 -0.0453
19339TIP3    H179432   0.737   0.049  16.962 -0.1683 -1.4665  0.6877
19339TIP3    H279433   0.709   0.051  16.814 -1.5787 -0.1232  0.9518
19340TIP3   OH279434   6.542   3.160   2.654  0.1410  0.3734 -0.1039
19340TIP3    H179435   6.466   3.108   2.628 -0.1138  0.5936  0.2042
19340TIP3    H279436   6.600   3.097   2.697  0.5160  0.0290 -1.0712
19341TIP3   OH279437   6.001   1.606   3.908  0.2969  0.0147  0.6168
19341TIP3    H179438   6.071   1.671   3.897  1.9238 -1.6514  0.6076
19341TIP3    H279439   6.046   1.530   3.945 -1.6993 -0.8284  1.4082
19342TIP3   OH279440   1.276   3.288   6.433 -0.1739 -0.3393  0.0104
19342TIP3    H179441   1.344   3.323   6.491  0.8432  0.9916 -1.8578
19342TIP3    H279442   1.217   3.362   6.417 -0.2496 -0.5731 -0.8652
19343TIP3   OH279443   1.364   1.152  10.949 -0.1707  0.0420 -0.0870
19343TIP3    H179444   1.304   1.215  10.990  1.5660  1.0517  1.0144
19343TIP3    H279445   1.438   1.147  11.010  0.5618 -1.6954 -1.0721
19344TIP3   OH279446   5.585   6.191  16.366 -0.0725  0.0813 -0.4993
19344TIP3    H179447   5.621   6.109  16.402  1.1301  1.1354  0.8139
19344TIP3    H279448   5.612   6.189  16.274  0.5162 -0.7000 -0.3307
19345TIP3   OH279449   3.507   0.215  13.317 -0.1054  0.2460  0.2603
19345TIP3    H179450   3.545   0.227  13.404  2.2929 -0.6137 -0.5704
19345TIP3    H279451   3.513   0.121  13.301 -1.0815  0.3151 -0.6136
19346TIP3   OH279452   4.856   2.823   1.163 -0.5581  0.0065  0.0773
19346TIP3    H179453   4.776   2.831   1.214 -0.2948  0.5202  0.4245
19346TIP3    H279454   4.830   2.845   1.073 -0.6992  0.7409  0.2874
19347TIP3   OH279455   4.576   5.059  11.646  0.0546 -0.3287  0.2577
19347TIP3    H179456   4.644   5.091  11.706 -0.3273  0.6630  0.1798
19347TIP3    H279457   4.497   5.105  11.674 -0.2090 -0.1475 -0.7650
19348TIP3   OH279458   6.695   5.427  16.384 -0.2096 -0.1100 -0.3328
19348TIP3    H179459   6.710   5.358  16.320 -0.2948 -2.1148  1.7026
19348TIP3    H279460   6.757   5.496  16.360 -1.0214 -0.2851 -3.2036
19349TIP3   OH279461   2.960   6.544   2.839 -0.2457 -0.2074 -0.0046
19349TIP3    H179462   2.919   6.620   2.879  0.6394  0.4811 -0.3710
19349TIP3    H279463   2.917   6.534   2.754 -0.5879 -0.3145  0.1821
19350TIP3   OH279464   5.535   5.296   2.905  0.3842 -0.5895  0.1647
19350TIP3    H179465   5.472   5.367   2.915 -0.0712 -0.8856 -0.5363
19350TIP3    H279466   5.546   5.287   2.811  0.7875 -1.1543  0.2623
19351TIP3   OH279467   2.684   4.615  14.892  0.5892 -0.5330  0.0263
19351TIP3    H179468   2.625   4.604  14.966  0.7145 -0.9646  0.0598
19351TIP3    H279469   2.746   4.682  14.921  0.2046 -0.1782  0.0433
19352TIP3   OH279470   2.514   1.968  15.560  0.6104 -0.1268 -0.4360
19352TIP3    H179471   2.429   1.931  15.534  0.8268 -0.9335 -0.0330
19352TIP3    H279472   2.516   2.055  15.520 -0.5126 -0.0030 -0.2404
19353TIP3   OH279473   2.553   5.872  15.909  0.0922 -0.2031 -0.1772
19353TIP3    H179474   2.641   5.900  15.886  0.9340 -0.9192  1.9215
19353TIP3    H279475   2.534   5.917  15.992 -1.0566 -0.9177 -0.0314
19354TIP3   OH279476   1.127   3.636   4.361 -0.3903 -0.0281  0.1534
19354TIP3    H179477   1.187   3.567   4.388 -0.7603 -0.0284  1.0061
19354TIP3    H279478   1.040   3.604   4.385 -0.4981  1.0829  1.4030
19355TIP3   OH279479   3.198   1.549   4.639  0.2963  0.4461  0.3358
19355TIP3    H179480   3.258   1.514   4.573 -0.2108  1.0797 -0.4809
19355TIP3    H279481   3.180   1.475   4.697  3.7057  0.7500  2.0628
19356TIP3   OH279482   6.521   3.459  11.949  0.1807  0.5967  0.3791
19356TIP3    H179483   6.481   3.496  12.027 -1.5265  1.3981 -0.8054
19356TIP3    H279484   6.533   3.366  11.970 -1.8446  0.4288  1.0412
19357TIP3   OH279485   4.077   0.214  10.866 -0.7329  0.1774 -0.0438
19357TIP3    H179486   4.021   0.285  10.897 -0.5074 -0.3091  1.5756
19357TIP3    H279487   4.051   0.139  10.919  0.3128 -0.4687 -0.4247
19358TIP3   OH279488   2.896   5.302  14.791 -0.1092 -0.0291  0.5150
19358TIP3    H179489   2.974   5.343  14.830  0.3882 -0.5086  0.0578
19358TIP3    H279490   2.928   5.217  14.759 -1.0908 -0.7434  1.3681
19359TIP3   OH279491   6.141   4.932  13.661 -0.4588  0.1305  0.1700
19359TIP3    H179492   6.101   4.957  13.578 -1.0822  0.0163  0.4294
19359TIP3    H279493   6.151   5.015  13.708  1.7853  0.4713 -0.8139
19360TIP3   OH279494   2.074   3.087  11.755  0.2798 -0.0859  0.2373
19360TIP3    H179495   2.094   2.996  11.776  0.2658 -0.4314 -1.1215
19360TIP3    H279496   2.022   3.081  11.674 -0.8677  1.0587  0.8547
19361TIP3   OH279497   0.708   2.822  13.845  0.5115  0.2873  0.6252
19361TIP3    H179498   0.802   2.830  13.858  0.7237 -1.8315  0.6849
19361TIP3    H279499   0.670   2.892  13.899  1.9417 -0.4300  2.6637
19362TIP3   OH279500   3.831   4.492   0.829  0.2497 -0.4429  0.1862
19362TIP3    H179501   3.842   4.483   0.924  1.8136 -0.8429 -0.0161
19362TIP3    H279502   3.882   4.420   0.792  0.3916  0.2457 -0.9922
19363TIP3   OH279503   1.809   1.439   3.214 -0.4997  0.1063 -0.0571
19363TIP3    H179504   1.871   1.503   3.249 -1.2805  0.5600  0.5222
19363TIP3    H279505   1.770   1.483   3.138 -0.4204 -0.0184 -0.1717
19364TIP3   OH279506   3.607   3.424   6.369  0.0450  0.0110  0.3867
19364TIP3    H179507   3.574   3.367   6.439  0.9817 -1.0773 -0.0159
19364TIP3    H279508   3.535   3.430   6.307  0.3954 -1.9911 -0.2857
19365TIP3   OH279509   4.737   5.024  16.051 -0.7313 -0.1832 -0.0062
19365TIP3    H179510   4.713   5.059  15.966 -0.3119  0.2281  0.0411
19365TIP3    H279511   4.726   5.097  16.112  1.3050  0.2653 -0.0933
19366TIP3   OH279512   4.760   5.230  13.567  0.1303 -0.6720  0.0474
19366TIP3    H179513   4.681   5.209  13.617 -0.9863 -1.7314 -2.0209
19366TIP3    H279514   4.770   5.325  13.575 -0.9617 -0.6205  0.9060
19367TIP3   OH279515   5.057   0.202  15.521  0.2477 -0.3073  0.9141
19367TIP3    H179516   5.106   0.123  15.499 -0.3574 -0.4703  0.0802
19367TIP3    H279517   4.994   0.174  15.587 -1.1492 -0.9639 -0.6318
19368TIP3   OH279518   2.158   5.852   3.224 -0.4838 -0.0747  0.3734
19368TIP3    H179519   2.213   5.902   3.284 -0.7178  0.2264  0.3393
19368TIP3    H279520   2.073   5.896   3.227 -0.3607  0.2597 -0.5627
19369TIP3   OH279521   0.287   4.073  13.269  0.1268  0.0642 -0.0957
19369TIP3    H179522   0.363   4.079  13.211 -0.8439 -1.9758 -1.6830
19369TIP3    H279523   0.324   4.045  13.353  1.1655 -0.7419 -0.7887
19370TIP3   OH279524   5.623   2.254  16.797 -0.4747  0.6313  0.5358
19370TIP3    H179525   5.705   2.205  16.806 -0.2896  1.2105  2.3116
19370TIP3    H279526   5.560   2.206  16.851 -1.7266 -0.5462 -1.7932
19371TIP3   OH279527   4.462   2.913   4.006  0.2575  0.0427 -0.0102
19371TIP3    H179528   4.541   2.955   4.039  0.8383 -1.5405  0.7219
19371TIP3    H279529   4.391   2.955   4.055  0.9315 -0.7139  1.7185
19372TIP3   OH279530   0.292   4.751   4.951  0.5997  0.0118  0.2010
19372TIP3    H179531   0.281   4.770   4.858  2.0035 -0.8874 -0.1726
19372TIP3    H279532   0.222   4.800   4.994  0.3342  0.9624 -1.2631
19373TIP3   OH279533   4.425   1.327  16.347  0.5363 -0.4386 -0.3980
19373TIP3    H179534   4.351   1.267  16.335 -0.8468  0.9488  0.6653
19373TIP3    H279535   4.472   1.324  16.264 -1.2889 -0.6684 -1.4917
19374TIP3   OH279536   2.875   0.443   5.021  0.1678  0.2159  0.7514
19374TIP3    H179537   2.921   0.527   5.029 -0.5007  0.4712  2.1275
19374TIP3    H279538   2.814   0.441   5.094  0.6834 -1.8176  1.1976
19375TIP3   OH279539   5.282   2.578  11.670 -0.2482  1.1661 -0.3479
19375TIP3    H179540   5.297   2.516  11.741 -1.0221  0.2980 -0.9229
19375TIP3    H279541   5.369   2.609  11.646  0.1255  0.4942  0.1243
19376TIP3   OH279542   5.378   5.702  12.244  0.4079 -0.3976  0.3229
19376TIP3    H179543   5.460   5.720  12.199 -0.0777  1.2435  0.0283
19376TIP3    H279544   5.381   5.755  12.324 -0.6499  0.2222 -0.0313
19377TIP3   OH279545   4.634   3.570   3.243 -0.1974  0.0506 -0.5503
19377TIP3    H179546   4.669   3.658   3.231 -1.6517  0.7119 -0.1417
19377TIP3    H279547   4.672   3.519   3.171  2.5031  0.3944  0.5253
19378TIP3   OH279548   3.485   5.834   0.215  0.3319  0.5525  0.1636
19378TIP3    H179549   3.487   5.912   0.271 -0.7869  0.1737  0.7629
19378TIP3    H279550   3.474   5.761   0.276  0.8201 -0.0323 -0.4344
19379TIP3   OH279551   1.011   0.507  16.864 -0.2437 -0.0781 -0.1644
19379TIP3    H179552   1.017   0.602  16.863  2.6360 -0.1402  1.1970
19379TIP3    H279553   1.072   0.478  16.796 -0.9115 -0.9898 -0.4071
19380TIP3   OH279554   4.957   6.487  16.087  0.1974  0.1100  0.4266
19380TIP3    H179555   5.041   6.479  16.041 -0.0281 -0.2102  0.0587
19380TIP3    H279556   4.979   6.522  16.173  0.6347  0.6629  0.0902
19381TIP3   OH279557   1.622   0.632   5.551 -0.1294  0.1286  0.3412
19381TIP3    H179558   1.653   0.671   5.469  2.0189 -0.2988  0.8774
19381TIP3    H279559   1.632   0.702   5.616 -0.8123  0.1438  0.4303
19382TIP3   OH279560   6.506   6.178  11.508  0.0068 -0.5680 -0.3513
19382TIP3    H179561   6.418   6.156  11.478  0.5434 -2.2105 -0.8324
19382TIP3    H279562   6.507   6.274  11.513 -1.1813 -0.4161 -2.2413
19383TIP3   OH279563   6.063   1.464   4.568 -0.1011  0.4422  0.1993
19383TIP3    H179564   6.149   1.494   4.538 -0.2066 -0.4866 -1.0848
19383TIP3    H279565   6.009   1.463   4.489 -1.0061  0.0163  0.8093
19384TIP3   OH279566   4.939   3.724   5.525  0.0524 -0.1642  0.0162
19384TIP3    H179567   5.004   3.667   5.484 -0.9803  0.0505 -2.0779
19384TIP3    H279568   4.958   3.811   5.488 -0.2046  0.2806  0.9133
19385TIP3   OH279569   1.615   3.755  12.964 -0.0363  0.2364 -0.4239
19385TIP3    H179570   1.608   3.847  12.941 -2.1572 -0.0340 -1.0506
19385TIP3    H279571   1.611   3.709  12.880 -0.5400 -0.4839 -0.0165
19386TIP3   OH279572   6.032   3.561   2.767  0.2120  0.0909 -0.5492
19386TIP3    H179573   6.109   3.572   2.712  0.2704 -1.6396 -0.8810
19386TIP3    H279574   5.958   3.564   2.707  0.1043  0.6222 -0.3893
19387TIP3   OH279575   4.301   6.295   0.660  0.7557 -0.2484 -0.0159
19387TIP3    H179576   4.371   6.239   0.626  0.0261 -0.2393 -1.6483
19387TIP3    H279577   4.222   6.264   0.616 -1.1421 -2.7257  4.4246
19388TIP3   OH279578   0.623   0.554  12.304  0.4459  0.1768  0.2151
19388TIP3    H179579   0.677   0.633  12.300  0.9475 -0.1614  0.1562
19388TIP3    H279580   0.552   0.570  12.242 -0.4521  1.3087  1.4800
19389TIP3   OH279581   4.687   5.996  14.271  0.4524 -0.0454 -0.0957
19389TIP3    H179582   4.650   6.010  14.184  0.6477  2.0311  0.1177
19389TIP3    H279583   4.780   6.016  14.262  0.2465  1.4683  0.8340
19390TIP3   OH279584   4.295   6.607  16.840 -0.2599  0.1840  0.5081
19390TIP3    H179585   4.306   6.668  16.767 -0.8523  0.4416  0.6346
19390TIP3    H279586   4.261   6.527  16.798  0.4960 -0.0678  0.3468
19391TIP3   OH279587   5.741   2.378  16.283 -0.6350 -0.0403  0.5807
19391TIP3    H179588   5.757   2.307  16.221  0.7217  0.6253  0.1413
19391TIP3    H279589   5.677   2.434  16.239  0.8227  0.7982 -0.5772
19392TIP3   OH279590   4.574   6.606   6.383  0.0147 -0.3854  0.6470
19392TIP3    H179591   4.500   6.654   6.347  1.8148  1.2996 -1.0330
19392TIP3    H279592   4.568   6.519   6.343  0.4274  0.5950 -1.7124
19393TIP3   OH279593   5.868   6.355  11.880  0.7764 -0.1020 -0.3684
19393TIP3    H179594   5.803   6.289  11.856  1.3943 -0.9486  0.2750
19393TIP3    H279595   5.861   6.363  11.975  1.3297  0.1060 -0.3427
19394TIP3   OH279596   4.591   6.496  11.592  0.3211 -0.0817  0.2137
19394TIP3    H179597   4.495   6.503  11.597  0.2450 -1.2010  0.4771
19394TIP3    H279598   4.611   6.414  11.635  1.4819  0.5122  0.8398
19395TIP3   OH279599   6.101   4.438   0.520 -0.1811  0.1220 -0.4413
19395TIP3    H179600   6.112   4.393   0.604 -2.3766  0.4640  0.0853
19395TIP3    H279601   6.024   4.493   0.532 -1.3896 -0.8194 -3.0938
19396TIP3   OH279602   3.402   2.647   1.764  0.0630 -0.3251 -0.5225
19396TIP3    H179603   3.449   2.714   1.715  2.0358 -1.8926 -0.8975
19396TIP3    H279604   3.387   2.577   1.701  0.5580 -1.3924  0.4993
19397TIP3   OH279605   0.020   0.560  16.069  0.4802  0.2774 -0.2179
19397TIP3    H179606   0.107   0.569  16.107  0.4641  0.9587 -0.3459
19397TIP3    H279607   0.006   0.465  16.064  0.9960  0.1726  0.2903
19398TIP3   OH279608   2.579   5.550   2.401 -0.3757  0.0232  0.5051
19398TIP3    H179609   2.534   5.624   2.361  1.0575 -0.3930 -2.1285
19398TIP3    H279610   2.671   5.564   2.380 -0.1630 -3.0894 -1.3322
19399TIP3   OH279611   1.849   1.858  12.588 -0.5418  0.1040 -0.3975
19399TIP3    H179612   1.886   1.918  12.652  0.5851 -1.4243  0.4560
19399TIP3    H279613   1.874   1.895  12.503  1.6498 -0.0375  0.1271
19400TIP3   OH279614   6.140   5.156   0.616 -1.1243 -0.3972  0.2124
19400TIP3    H179615   6.146   5.091   0.547 -0.3430 -1.0955  0.9225
19400TIP3    H279616   6.046   5.169   0.628 -1.2936  0.8549 -1.9752
19401TIP3   OH279617   1.896   3.735   2.564 -0.3979 -0.4380 -0.7522
19401TIP3    H179618   1.941   3.819   2.558  0.3192 -0.9320 -3.8799
19401TIP3    H279619   1.946   3.686   2.630 -0.3883  1.2513  0.5789
19402TIP3   OH279620   0.051   3.243  11.499 -0.4343  0.1590  0.4941
19402TIP3    H179621   0.057   3.213  11.408  2.2045 -0.5297  0.8075
19402TIP3    H279622   0.020   3.333  11.493  2.1437  1.0129 -1.3161
19403TIP3   OH279623   1.984   6.433   3.975  0.2421  0.2128 -0.1956
19403TIP3    H179624   2.062   6.428   4.030  1.5828 -0.1137 -2.0233
19403TIP3    H279625   2.000   6.370   3.904 -1.5825  0.3119 -0.7460
19404TIP3   OH279626   0.399   2.979   2.294  0.5026 -0.8871 -0.2881
19404TIP3    H179627   0.342   2.962   2.370  0.4166  0.3564 -0.0415
19404TIP3    H279628   0.445   2.897   2.279  0.5293 -1.1494  1.1247
19405TIP3   OH279629   2.102   5.860   2.370  0.1655 -0.5719 -0.9713
19405TIP3    H179630   2.051   5.905   2.303  0.2259 -0.7225 -1.1212
19405TIP3    H279631   2.162   5.927   2.404 -1.2653  0.0610  0.4003
19406TIP3   OH279632   5.843   1.183   5.122 -0.0916 -0.0907  0.1836
19406TIP3    H179633   5.778   1.114   5.115  0.0006 -0.0664 -1.1549
19406TIP3    H279634   5.807   1.256   5.072  1.2363 -0.3217 -1.1892
19407TIP3   OH279635   4.093   0.956  13.385 -0.2001 -0.3943  0.6112
19407TIP3    H179636   4.110   0.880  13.328 -0.0631 -0.4965  0.7861
19407TIP3    H279637   4.108   0.922  13.473 -0.7177 -0.3187  0.7279
19408TIP3   OH279638   2.383   6.556  12.471 -0.5872  0.2585 -0.9986
19408TIP3    H179639   2.406   6.483  12.528 -2.6252 -0.2790 -0.7882
19408TIP3    H279640   2.439   6.547  12.394  0.6833 -0.2530 -0.0427
19409TIP3   OH279641   4.479   3.727   1.480 -0.5853  0.2172  0.3942
19409TIP3    H179642   4.407   3.664   1.472 -0.5417  0.4090 -2.1317
19409TIP3    H279643   4.554   3.674   1.507 -1.2050 -0.3069  1.1295
19410TIP3   OH279644   0.548   5.479   1.573 -0.1262 -0.5315  0.1775
19410TIP3    H179645   0.636   5.517   1.578 -0.8887  1.3328  0.4301
19410TIP3    H279646   0.547   5.411   1.640  0.3463  1.1964  2.0586
19411TIP3   OH279647   2.888   3.073  12.263  0.2438  0.2390  0.5023
19411TIP3    H179648   2.940   3.116  12.331  0.6891 -1.4773  1.3042
19411TIP3    H279649   2.828   3.017  12.311  1.2591 -1.8063 -0.4804
19412TIP3   OH279650   5.322   1.257  13.782  0.0340  0.2166  0.3843
19412TIP3    H179651   5.323   1.241  13.877 -0.0875  1.2140  0.5628
19412TIP3    H279652   5.262   1.191  13.748 -0.3964  0.2340  1.0770
19413TIP3   OH279653   0.838   5.923   5.429 -0.0432  0.2430  0.4424
19413TIP3    H179654   0.889   6.004   5.428  0.3565  0.1094 -2.9117
19413TIP3    H279655   0.886   5.866   5.489  2.1832  1.0959 -0.3879
19414TIP3   OH279656   6.723   2.612  15.741  0.4228  0.1275 -0.4593
19414TIP3    H179657   6.713   2.643  15.831  1.7008  0.7486 -0.4984
19414TIP3    H279658   6.640   2.632  15.699  0.5939  2.0019 -0.0181
19415TIP3   OH279659   4.328   6.191  16.299  0.0403  0.3787  0.2180
19415TIP3    H179660   4.301   6.254  16.231 -0.7742 -0.6355 -0.4275
19415TIP3    H279661   4.331   6.107  16.253  1.1781 -0.0580  1.0550
19416TIP3   OH279662   0.899   5.785   5.740  0.0735 -0.1874 -0.0521
19416TIP3    H179663   0.982   5.828   5.761  0.1722 -1.2748  2.0458
19416TIP3    H279664   0.836   5.823   5.801 -0.8508  0.0721 -1.1149
19417TIP3   OH279665   1.811   6.593  11.527 -0.3314  0.2393 -0.1490
19417TIP3    H179666   1.725   6.562  11.556 -0.0316 -0.5095 -0.0340
19417TIP3    H279667   1.871   6.522  11.549  0.3089  0.7176 -0.3082
19418TIP3   OH279668   4.740   0.277   1.844 -0.3253 -0.2443  0.5028
19418TIP3    H179669   4.702   0.257   1.758  1.6846 -0.9447 -0.2923
19418TIP3    H279670   4.749   0.192   1.887  0.3402 -0.1118  0.6445
19419TIP3   OH279671   4.476   5.649  13.660 -0.5843 -0.4148  0.2729
19419TIP3    H179672   4.567   5.677  13.673  0.6046 -3.2793 -1.1629
19419TIP3    H279673   4.425   5.724  13.691  2.2181  1.4528  0.8701
19420TIP3   OH279674   1.788   1.997   0.186  0.1510 -0.7949  0.2448
19420TIP3    H179675   1.844   1.953   0.250  1.1735 -0.7064 -0.5441
19420TIP3    H279676   1.704   1.952   0.192 -1.3398  1.9631  4.6912
19421TIP3   OH279677   2.395   5.988   3.347  0.1295 -0.1530  0.1008
19421TIP3    H179678   2.353   6.056   3.295 -1.8573 -1.3543  0.0023
19421TIP3    H279679   2.450   5.940   3.286 -1.6202 -1.1008 -0.8115
19422TIP3   OH279680   1.705   0.012   2.207 -0.3121  0.1427  0.7335
19422TIP3    H179681   1.690   0.092   2.258  2.6459 -0.3908  2.6892
19422TIP3    H279682   1.701  -0.058   2.272 -0.5369 -1.0726 -0.5497
19423TIP3   OH279683   3.616   6.742  17.090  0.0798 -0.1867  0.4446
19423TIP3    H179684   3.684   6.807  17.075  1.5133 -1.8074 -0.4363
19423TIP3    H279685   3.545   6.768  17.031 -0.0564  1.4337  1.2610
19424TIP3   OH279686   3.020   4.182   0.832  0.5833  0.3920 -0.1458
19424TIP3    H179687   3.017   4.245   0.904 -0.9169  1.1751 -0.8428
19424TIP3    H279688   2.929   4.153   0.822  0.8313  0.0007 -1.4440
19425TIP3   OH279689   2.011   1.788   1.055  0.4767 -0.4045  0.2196
19425TIP3    H179690   2.101   1.815   1.078 -0.3258  1.9123  0.9951
19425TIP3    H279691   1.973   1.761   1.139 -0.2484  1.0146  0.3852
19426TIP3   OH279692   3.406   4.439  16.246  0.0146 -0.1477 -0.0332
19426TIP3    H179693   3.388   4.512  16.186  1.3830  0.3410  0.1309
19426TIP3    H279694   3.439   4.480  16.325 -0.5412 -0.8817  0.5972
19427TIP3   OH279695   2.062   1.049   6.562  0.8205  0.2121  0.1398
19427TIP3    H179696   2.074   1.119   6.625  1.2031  0.7364 -0.4966
19427TIP3    H279697   2.028   0.976   6.613  1.1818  0.5996  0.9539
19428TIP3   OH279698   1.913   2.316  10.342 -0.2042  0.0926  0.7057
19428TIP3    H179699   1.882   2.254  10.408  1.3890 -2.1195 -0.5025
19428TIP3    H279700   1.995   2.279  10.310 -1.7300  0.0065 -3.7887
19429TIP3   OH279701   4.755   5.711  13.395  0.3981 -0.1040 -0.7178
19429TIP3    H179702   4.780   5.636  13.448 -0.3801 -0.9855 -1.5463
19429TIP3    H279703   4.834   5.735  13.348  0.2826 -1.5063 -1.7136
19430TIP3   OH279704   0.456   3.953   2.338  0.7911  0.4526  0.1408
19430TIP3    H179705   0.435   3.923   2.427 -2.0896  2.2020  0.1917
19430TIP3    H279706   0.409   3.892   2.281 -0.1838  1.2758  0.0212
19431TIP3   OH279707   5.184   2.956  12.199  0.3387 -0.6752 -0.6815
19431TIP3    H179708   5.229   2.884  12.244  1.8554  0.4876 -0.2744
19431TIP3    H279709   5.101   2.917  12.170  0.9345 -2.4723 -0.1315
19432TIP3   OH279710   6.059   0.253  15.430 -0.9051  0.4826 -0.2711
19432TIP3    H179711   6.011   0.259  15.347  1.0374  0.2303 -1.4656
19432TIP3    H279712   6.092   0.164  15.432  1.8365  1.3955 -0.8872
19433TIP3   OH279713   3.056   0.882   6.031 -0.2774 -0.7643 -0.1342
19433TIP3    H179714   3.097   0.951   6.082  1.0022 -0.2474 -1.7703
19433TIP3    H279715   3.035   0.814   6.095  0.7551  0.0694  1.1479
19434TIP3   OH279716   5.346   0.800  12.040  0.0382  0.0410  0.0037
19434TIP3    H179717   5.263   0.830  12.077  0.7702  2.1587  0.0591
19434TIP3    H279718   5.348   0.838  11.952  0.4143 -1.0187 -0.4601
19435TIP3   OH279719   4.385   4.376  11.328  0.4063 -0.1001  0.4274
19435TIP3    H179720   4.427   4.295  11.355 -0.2646 -0.8728 -0.7571
19435TIP3    H279721   4.316   4.390  11.394  1.2945  0.1854  1.3225
19436TIP3   OH279722   0.681   5.313  12.394 -0.2446  0.6181 -0.2966
19436TIP3    H179723   0.637   5.271  12.468 -0.5335  0.5385 -0.5127
19436TIP3    H279724   0.762   5.263  12.383  0.4207  1.4180  0.7724
19437TIP3   OH279725   6.355   1.154  13.106 -0.2347  0.2328 -0.0826
19437TIP3    H179726   6.318   1.066  13.114  0.0323  0.2513  1.9790
19437TIP3    H279727   6.383   1.161  13.015 -1.6475 -1.2475 -0.6568
19438TIP3   OH279728   3.993   3.888   4.844 -0.0923  0.1215  0.2513
19438TIP3    H179729   3.984   3.904   4.750  0.5733  0.1277  0.1847
19438TIP3    H279730   3.974   3.972   4.885 -2.7583 -0.4189  0.2897
19439TIP3   OH279731   4.913   1.490   0.022 -0.7603  0.4974 -0.1303
19439TIP3    H179732   4.854   1.562   0.044  0.2423  1.0430  0.8681
19439TIP3    H279733   5.000   1.527   0.033 -0.2050 -1.1321  1.3851
19440TIP3   OH279734   3.747   3.908  11.507 -0.0416 -0.0521 -0.0534
19440TIP3    H179735   3.663   3.921  11.462 -0.2134  1.3005  0.5891
19440TIP3    H279736   3.810   3.958  11.454 -0.3247  1.9190  1.3730
19441TIP3   OH279737   3.132   2.135  16.931  0.1406  0.4743 -0.2612
19441TIP3    H179738   3.079   2.212  16.954 -1.4809 -0.1331 -1.7131
19441TIP3    H279739   3.070   2.062  16.932  1.6743 -0.9000  1.2375
19442TIP3   OH279740   4.019   1.977  13.169 -0.2912 -0.2587 -0.3741
19442TIP3    H179741   4.087   2.024  13.120 -0.3426 -0.3441 -0.5311
19442TIP3    H279742   4.015   2.021  13.253  1.0861 -1.2363  0.2396
19443TIP3   OH279743   2.832   5.137  15.656 -0.1757 -0.4787  0.2553
19443TIP3    H179744   2.845   5.042  15.661 -0.8240 -0.5954 -0.1258
19443TIP3    H279745   2.821   5.154  15.562  2.3783  0.3301  0.0127
19444TIP3   OH279746   3.186   6.701  15.630  0.8737 -0.3378  0.0994
19444TIP3    H179747   3.131   6.644  15.684  0.6579 -0.3062 -0.0840
19444TIP3    H279748   3.144   6.700  15.543  0.9423 -0.0111  0.0582
19445TIP3   OH279749   5.005   3.422   3.363  0.2641 -0.5572 -0.1191
19445TIP3    H179750   5.062   3.375   3.425 -0.8578 -0.9175  0.6788
19445TIP3    H279751   4.941   3.466   3.419  0.6839  1.1350 -0.9099
19446TIP3   OH279752   2.729   6.677   0.573 -0.0315 -0.4426 -0.1431
19446TIP3    H179753   2.781   6.651   0.497  0.1142  2.1552 -1.0584
19446TIP3    H279754   2.765   6.627   0.646  2.5518 -0.1091 -1.0772
19447TIP3   OH279755   0.384   1.909   4.519 -0.2281 -0.0565  0.0807
19447TIP3    H179756   0.353   1.994   4.549 -1.0534 -0.3132 -0.0201
19447TIP3    H279757   0.450   1.883   4.583  0.2953  0.8174 -0.0918
19448TIP3   OH279758   0.215   3.050  13.862 -0.0191 -0.5575 -0.2955
19448TIP3    H179759   0.163   3.115  13.816 -1.9984 -0.4396  1.9122
19448TIP3    H279760   0.235   3.090  13.947  0.7401 -1.9371  0.2165
19449TIP3   OH279761   3.708   2.754  12.056  0.4509  0.0206  0.6935
19449TIP3    H179762   3.658   2.714  11.985 -2.7213  0.6572  2.3327
19449TIP3    H279763   3.738   2.681  12.109 -0.3092 -0.3865  0.5822
19450TIP3   OH279764   2.985   4.355   3.099 -0.3259  0.0922  0.4232
19450TIP3    H179765   2.968   4.261   3.089  0.4068  0.0215 -0.3084
19450TIP3    H279766   2.920   4.385   3.162 -1.3655 -0.6653 -0.2566
19451TIP3   OH279767   0.328   2.416  14.398  0.0046 -0.7925 -0.0303
19451TIP3    H179768   0.395   2.348  14.388  1.7902  1.1777 -2.6865
19451TIP3    H279769   0.378   2.498  14.400 -2.2712  0.7054 -1.2855
19452TIP3   OH279770   2.450   0.314  14.096 -0.0005  0.1147 -0.1700
19452TIP3    H179771   2.543   0.334  14.100 -0.1874  0.7518  1.4658
19452TIP3    H279772   2.406   0.392  14.130 -1.2264  0.3300 -2.0807
19453TIP3   OH279773   5.103   3.133  15.764 -0.1614  0.1099  0.2596
19453TIP3    H179774   5.091   3.039  15.750  0.9553  0.2272 -1.9255
19453TIP3    H279775   5.015   3.170  15.754 -0.4039 -0.5673 -0.1737
19454TIP3   OH279776   5.550   4.365   5.877 -0.6265 -0.8469  0.4286
19454TIP3    H179777   5.562   4.358   5.972  0.7544 -0.8047  0.2813
19454TIP3    H279778   5.455   4.372   5.865 -0.7510  1.1586  1.9558
19455TIP3   OH279779   0.259   0.460  15.897  0.1133  0.7624  0.2663
19455TIP3    H179780   0.173   0.451  15.856 -0.3670 -1.2860  1.5512
19455TIP3    H279781   0.321   0.424  15.833 -0.1201  1.2574 -0.2363
19456TIP3   OH279782   6.468   6.401  11.081 -0.2868  0.4403 -0.2604
19456TIP3    H179783   6.539   6.439  11.030 -0.1695  1.0597  0.3589
19456TIP3    H279784   6.487   6.307  11.082 -0.3214  0.4084 -1.3986
19457TIP3   OH279785   5.190   4.405   0.053 -0.2717 -0.1832 -0.0226
19457TIP3    H179786   5.227   4.488   0.084 -1.0658  0.5603 -1.0109
19457TIP3    H279787   5.187   4.350   0.131  0.6033  0.5854  0.5812
19458TIP3   OH279788   1.748   3.066   4.855 -0.1170  0.2828  0.0088
19458TIP3    H179789   1.770   3.042   4.946 -0.8739  0.8505  0.3466
19458TIP3    H279790   1.682   3.134   4.864 -1.4470 -0.8247 -0.9857
19459TIP3   OH279791   5.101   2.543   2.278 -0.5132  0.4744 -0.3071
19459TIP3    H179792   5.092   2.482   2.205 -0.3267 -0.6745  0.5868
19459TIP3    H279793   5.087   2.630   2.240  1.0220  0.0459 -1.9894
19460TIP3   OH279794   3.320   2.298  12.803 -0.0933 -0.4087 -0.1147
19460TIP3    H179795   3.379   2.232  12.769  1.4335  0.6392  0.3975
19460TIP3    H279796   3.264   2.251  12.865  0.9153 -1.2294  0.1944
19461TIP3   OH279797   4.777   2.180   1.317 -0.1055 -0.3125  0.1998
19461TIP3    H179798   4.836   2.106   1.306 -1.5706 -1.5539  0.4188
19461TIP3    H279799   4.815   2.249   1.262  1.0359 -1.3623 -0.3835
19462TIP3   OH279800   2.819   0.202   1.013 -0.4092 -0.1137 -0.2258
19462TIP3    H179801   2.727   0.184   1.028 -0.3478 -1.2956 -1.1644
19462TIP3    H279802   2.836   0.173   0.924  1.1902 -1.2992  0.4014
19463TIP3   OH279803   2.641   1.963   1.763 -0.5904  0.4532 -0.1042
19463TIP3    H179804   2.659   2.029   1.696 -0.6568  0.4350 -0.1396
19463TIP3    H279805   2.728   1.936   1.793 -0.5683  0.7263  0.0783
19464TIP3   OH279806   1.139   0.664   5.201  0.2120  0.1286  0.2834
19464TIP3    H179807   1.132   0.725   5.275 -3.0628  1.1657 -0.6908
19464TIP3    H279808   1.132   0.720   5.124  0.3387 -1.2180 -0.7275
19465TIP3   OH279809   0.141   5.242  11.680 -0.0794 -0.0304  0.1291
19465TIP3    H179810   0.108   5.319  11.635  2.4221  1.6247  0.9218
19465TIP3    H279811   0.117   5.255  11.771  2.3453  1.1377  0.6991
19466TIP3   OH279812   1.704   1.334  16.235 -0.1624  0.4409 -0.0484
19466TIP3    H179813   1.684   1.371  16.321 -2.0231  0.0340 -0.2736
19466TIP3    H279814   1.641   1.376  16.176  1.2625  0.9266 -1.2913
19467TIP3   OH279815   3.855   1.659  15.565 -0.1598  0.1412  0.1130
19467TIP3    H179816   3.840   1.730  15.628 -0.8689 -0.7369  0.9616
19467TIP3    H279817   3.951   1.655  15.556 -0.0439  0.2619  1.1601
19468TIP3   OH279818   2.872   1.374  12.137 -0.2789  0.0533 -0.9234
19468TIP3    H179819   2.922   1.395  12.216 -0.7072 -0.5171 -0.4905
19468TIP3    H279820   2.818   1.452  12.122  0.3333  0.4512 -1.0741
19469TIP3   OH279821   5.300   2.675   4.207  0.3597  0.2592 -0.4652
19469TIP3    H179822   5.283   2.704   4.296  0.2992 -0.3979 -0.2584
19469TIP3    H279823   5.354   2.745   4.169  1.2615  0.0612  0.4138
19470TIP3   OH279824   4.217   2.925  16.732 -0.1527  0.1477 -0.5414
19470TIP3    H179825   4.146   2.974  16.773 -1.5093 -2.3336  0.2751
19470TIP3    H279826   4.182   2.897  16.647 -0.6228 -1.9144  0.2662
19471TIP3   OH279827   0.155   2.762  16.264  0.0139 -0.0907 -0.2229
19471TIP3    H179828   0.229   2.819  16.286 -0.2552  0.3832 -0.5406
19471TIP3    H279829   0.104   2.757  16.345  0.0021  0.1674 -0.2147
19472TIP3   OH279830   1.649   5.639   5.865 -0.3135  0.0580 -0.0014
19472TIP3    H179831   1.576   5.669   5.920 -0.4385 -0.2252 -0.0154
19472TIP3    H279832   1.693   5.572   5.917  0.2329  0.5602  0.2130
19473TIP3   OH279833   6.014   0.359  12.974 -0.0351 -0.5208 -0.2675
19473TIP3    H179834   5.933   0.340  12.927 -1.3299  1.4733  1.0034
19473TIP3    H279835   6.054   0.430  12.925  1.1415 -1.6737 -1.0422
19474TIP3   OH279836   2.808   4.896  16.855  0.2195  0.0317 -0.1672
19474TIP3    H179837   2.844   4.968  16.804  1.2503  1.0949  1.9204
19474TIP3    H279838   2.878   4.832  16.860  0.9825  0.9394  1.7102
19475TIP3   OH279839   6.335   5.330  16.888 -0.8814  0.0332  0.7315
19475TIP3    H179840   6.264   5.272  16.860 -1.4170  0.3651  1.3897
19475TIP3    H279841   6.345   5.312  16.981 -1.5529  1.5237  1.1164
19476TIP3   OH279842   0.727   5.575   4.720  0.4103  0.7761  0.2714
19476TIP3    H179843   0.737   5.553   4.813  1.4184  1.0706  0.2477
19476TIP3    H279844   0.816   5.594   4.691 -0.0569  1.9874 -0.4226
19477TIP3   OH279845   0.274   3.250   6.329  0.1415 -0.2956 -0.3315
19477TIP3    H179846   0.238   3.161   6.321 -1.4132  0.3561 -1.0655
19477TIP3    H279847   0.310   3.269   6.243 -0.7187  0.2427 -0.5916
19478TIP3   OH279848   2.889   4.334  16.196 -0.1542  0.2082 -0.5442
19478TIP3    H179849   2.959   4.392  16.166 -0.0420  0.1638 -0.3672
19478TIP3    H279850   2.815   4.356  16.140 -0.5254  1.4809  0.4208
19479TIP3   OH279851   5.867   4.850   3.191 -0.0715  0.4894  0.3461
19479TIP3    H179852   5.821   4.906   3.253  0.9310  0.0023  1.5763
19479TIP3    H279853   5.914   4.786   3.245 -0.7738 -1.2487 -0.9798
19480TIP3   OH279854   0.400   4.402  11.381 -0.0302  0.2135  0.2351
19480TIP3    H179855   0.357   4.367  11.459  1.8081 -1.3050  0.6346
19480TIP3    H279856   0.493   4.387  11.396  0.3265 -1.7832 -2.9623
19481TIP3   OH279857   2.311   1.872  14.597  0.5677 -0.3848 -0.4494
19481TIP3    H179858   2.304   1.915  14.682 -0.6816  1.8685 -1.6104
19481TIP3    H279859   2.342   1.784  14.617 -0.6133 -0.2441  2.4205
19482TIP3   OH279860   2.358   0.696  14.751 -0.3490  0.2413 -0.2054
19482TIP3    H179861   2.274   0.742  14.753  0.0437  0.9636 -0.1008
19482TIP3    H279862   2.409   0.743  14.684  0.2131  0.2347  0.2137
19483TIP3   OH279863   3.827   4.798   2.134 -0.5635 -0.3740  0.2542
19483TIP3    H179864   3.739   4.830   2.153  0.1946  0.7969  1.9921
19483TIP3    H279865   3.853   4.846   2.056 -1.3993 -0.6388 -0.2036
19484TIP3   OH279866   6.526   1.224  15.673  0.6980 -0.2664  0.3264
19484TIP3    H179867   6.534   1.201  15.580  0.0838 -1.3911  0.5342
19484TIP3    H279868   6.601   1.183  15.715 -1.1623 -3.3776  0.9304
19485TIP3   OH279869   2.050   1.137   4.487  0.0466 -0.5174 -0.4294
19485TIP3    H179870   2.027   1.125   4.395  2.2345 -1.4153 -0.9299
19485TIP3    H279871   2.081   1.228   4.493 -0.8315 -0.2071 -0.3635
19486TIP3   OH279872   4.463   4.811  17.261 -0.2203  0.8548 -0.1748
19486TIP3    H179873   4.557   4.809  17.244 -0.0172  0.6552  0.8896
19486TIP3    H279874   4.429   4.733  17.218  0.5408 -0.5831  1.6667
19487TIP3   OH279875   1.776   0.723  13.186 -0.0536  0.2682  0.2028
19487TIP3    H179876   1.754   0.728  13.279 -1.5756  0.9836 -0.1788
19487TIP3    H279877   1.753   0.634  13.161 -2.2907  0.8700 -0.0919
19488TIP3   OH279878   2.677   0.008  14.950  0.0838  0.1802 -0.3580
19488TIP3    H179879   2.667  -0.062  15.015  1.5414 -0.2506 -0.5703
19488TIP3    H279880   2.625  -0.022  14.875  1.6381 -1.3062 -0.9113
19489TIP3   OH279881   0.109   6.361  12.837  0.3205 -0.0408  0.0342
19489TIP3    H179882   0.063   6.299  12.894  0.4491 -1.9180 -1.7537
19489TIP3    H279883   0.040   6.398  12.782  0.6278 -1.4979 -1.4219
19490TIP3   OH279884   5.653   5.152  12.852  0.0818 -0.6845 -0.5382
19490TIP3    H179885   5.738   5.125  12.888 -0.3741 -2.1303 -0.4813
19490TIP3    H279886   5.647   5.108  12.767 -0.6611 -0.7019 -0.4850
19491TIP3   OH279887   0.426   5.762  16.308 -0.2032  0.1634 -0.2187
19491TIP3    H179888   0.356   5.760  16.242  0.3745  1.5296 -0.9139
19491TIP3    H279889   0.472   5.844  16.291  1.7623 -0.8405  0.0322
19492TIP3   OH279890   3.767   3.798  15.007 -0.3523 -0.0672 -0.0335
19492TIP3    H179891   3.847   3.824  14.960  0.5225  0.5253  1.7058
19492TIP3    H279892   3.795   3.725  15.062 -1.9031 -2.2963 -2.0312
19493TIP3   OH279893   0.669   5.009  10.725 -0.0084  0.2103 -0.0731
19493TIP3    H179894   0.685   4.942  10.659 -0.1318  0.8463 -0.7513
19493TIP3    H279895   0.729   4.986  10.797 -0.9374 -1.3597  0.2601
19494TIP3   OH279896   5.331   1.086  10.891 -0.2641  0.7008  0.4980
19494TIP3    H179897   5.346   1.174  10.925  1.2080  0.6578  0.0098
19494TIP3    H279898   5.330   1.097  10.796 -0.5435  0.2561  0.4465
19495TIP3   OH279899   4.263   2.557   0.407 -0.2086 -0.2926  0.3355
19495TIP3    H179900   4.234   2.555   0.316 -1.8905 -2.8634  0.8167
19495TIP3    H279901   4.344   2.506   0.408 -0.4985 -0.7701  0.3139
19496TIP3   OH279902   6.622   3.928  12.480  0.1222 -0.0560 -0.4841
19496TIP3    H179903   6.678   3.877  12.421  0.3669 -0.8127  0.3680
19496TIP3    H279904   6.579   3.992  12.424  0.5000 -0.6234 -1.4421
19497TIP3   OH279905   4.958   3.523  15.503  0.0968  0.5697  0.5084
19497TIP3    H179906   5.037   3.523  15.450  1.6177  0.4532  2.6664
19497TIP3    H279907   4.924   3.612  15.497  1.7158  1.2899  1.3604
19498TIP3   OH279908   3.436   6.270   0.962 -0.1842  0.4125 -0.9281
19498TIP3    H179909   3.497   6.325   0.913 -0.1626 -0.3882 -1.8355
19498TIP3    H279910   3.490   6.224   1.026  0.1140 -0.0430 -1.5039
19499TIP3   OH279911   3.122   5.486   1.895 -0.4412 -0.0615  0.3944
19499TIP3    H179912   3.172   5.549   1.947  1.1525  1.3432 -2.5908
19499TIP3    H279913   3.050   5.537   1.859 -0.2919 -0.4148 -0.4341
19500TIP3   OH279914   6.704   3.949  16.171  0.0980  0.0678  0.1485
19500TIP3    H179915   6.735   4.037  16.195  2.4289 -1.0042  1.3703
19500TIP3    H279916   6.783   3.894  16.173 -1.4434 -2.2656  0.4052
19501TIP3   OH279917   5.820   5.660  11.535  0.2101  0.0964  0.3913
19501TIP3    H179918   5.893   5.705  11.577  0.0377  0.2879  0.4852
19501TIP3    H279919   5.851   5.644  11.446  0.5742 -0.3036  0.5838
19502TIP3   OH279920   2.052   4.894  12.164  0.5529  0.4481  0.3892
19502TIP3    H179921   2.009   4.825  12.114 -0.6302  0.8631  0.8048
19502TIP3    H279922   2.098   4.848  12.234  0.4312  0.0274  0.1969
19503TIP3   OH279923   0.596   4.858  12.751 -0.0521  0.3812  0.6731
19503TIP3    H179924   0.516   4.900  12.721 -0.3430  0.3667  1.4059
19503TIP3    H279925   0.667   4.907  12.710 -0.4416 -0.5637 -1.2507
19504TIP3   OH279926   2.920   3.602   4.712 -0.6819 -0.6628 -0.0086
19504TIP3    H179927   2.951   3.546   4.783 -0.2497 -1.3714 -0.7271
19504TIP3    H279928   2.969   3.571   4.635 -0.0878  1.0149 -0.3487
19505TIP3   OH279929   6.352   2.825  16.129 -0.4992 -0.1420 -0.1314
19505TIP3    H179930   6.328   2.817  16.037 -2.9382  0.7245  0.3647
19505TIP3    H279931   6.310   2.751  16.172  0.9550 -0.7776  0.2914
19506TIP3   OH279932   3.715   3.285   2.975  0.2423  0.1586  0.4105
19506TIP3    H179933   3.736   3.309   2.885  1.3059 -1.8257  0.0878
19506TIP3    H279934   3.622   3.307   2.985 -0.5620 -1.8091 -1.9807
19507TIP3   OH279935   5.573   3.225   1.755 -0.2277  0.1065  0.4102
19507TIP3    H179936   5.620   3.148   1.785  0.9452  1.1780  1.4384
19507TIP3    H279937   5.638   3.295   1.755 -1.1265  1.0105 -0.9979
19508TIP3   OH279938   0.871   4.650   3.780 -0.3522  0.2761 -0.0488
19508TIP3    H179939   0.836   4.707   3.848  0.0289 -0.0332  0.4126
19508TIP3    H279940   0.966   4.658   3.787 -0.3096  0.7352 -0.9722
19509TIP3   OH279941   0.796   6.559  12.299  0.8662  0.0899 -0.2126
19509TIP3    H179942   0.712   6.600  12.279 -0.4345 -2.1573  0.2321
19509TIP3    H279943   0.862   6.624  12.273 -0.9821  1.8846 -0.6683
19510TIP3   OH279944   5.871   4.914   5.700 -0.2619 -0.2766 -0.1972
19510TIP3    H179945   5.885   4.984   5.764 -1.5663  0.3431 -0.5596
19510TIP3    H279946   5.954   4.908   5.653 -0.0563  0.8823 -0.0150
19511TIP3   OH279947   6.528   6.630   0.226  0.3723 -0.1834  0.2037
19511TIP3    H179948   6.569   6.653   0.143  0.6105 -1.3811 -0.0344
19511TIP3    H279949   6.570   6.548   0.251  1.2722  0.8268  2.2040
19512TIP3   OH279950   3.551   2.326   4.279  0.6903  0.1674  0.1539
19512TIP3    H179951   3.575   2.311   4.187  0.8423 -1.9522  0.4843
19512TIP3    H279952   3.595   2.256   4.327 -1.7340 -0.5902  1.4725
19513TIP3   OH279953   6.064   3.416  16.771  0.1720  0.2289  0.0632
19513TIP3    H179954   6.102   3.357  16.836  1.1890  0.4094 -0.3453
19513TIP3    H279955   6.036   3.358  16.700 -2.7108 -0.1844  1.4148
19514TIP3   OH279956   2.576   3.021   2.914 -0.2385 -0.7533 -0.4391
19514TIP3    H179957   2.560   3.045   2.823 -0.7722 -1.4640 -0.5400
19514TIP3    H279958   2.565   2.926   2.916  0.4193 -0.8269  0.2363
19515TIP3   OH279959   4.250   1.619   5.621 -1.0745  0.5095  0.0335
19515TIP3    H179960   4.303   1.586   5.693 -0.5021 -0.1379 -0.6664
19515TIP3    H279961   4.308   1.680   5.575 -1.2028  0.3923 -0.2816
19516TIP3   OH279962   4.910   4.123  16.919  0.8052 -0.1387 -0.5055
19516TIP3    H179963   4.885   4.108  17.010 -0.1895  0.2840 -0.7070
19516TIP3    H279964   4.965   4.201  16.922 -1.5372  1.6043 -0.5830
19517TIP3   OH279965   1.101   3.509  15.196 -0.4225 -0.1212 -0.0663
19517TIP3    H179966   1.083   3.422  15.161 -0.7947 -0.7248  1.5217
19517TIP3    H279967   1.015   3.550  15.207 -0.2376  0.5884 -1.0701
19518TIP3   OH279968   2.420   3.533  17.012  0.0999 -0.0978 -0.7913
19518TIP3    H179969   2.335   3.573  16.997  0.0897  0.4446  0.6042
19518TIP3    H279970   2.455   3.578  17.089  1.8412 -0.0014 -1.5877
19519TIP3   OH279971   0.390   3.414  12.965 -0.4270  0.0795  0.0206
19519TIP3    H179972   0.483   3.433  12.958 -0.4211 -0.4005 -1.8227
19519TIP3    H279973   0.347   3.499  12.958 -0.1357  0.3038  0.8922
19520TIP3   OH279974   6.346   1.130  13.627 -0.5050 -0.1206 -0.3640
19520TIP3    H179975   6.364   1.071  13.700  0.1814  0.9566  0.3704
19520TIP3    H279976   6.432   1.148  13.588 -0.7898 -0.1735 -1.0413
19521TIP3   OH279977   4.614   4.259  17.134 -0.3844  0.2106  0.7452
19521TIP3    H179978   4.650   4.335  17.088 -1.2086  1.1784  1.6472
19521TIP3    H279979   4.548   4.295  17.193 -1.4707 -1.2928  0.5362
19522TIP3   OH279980   3.427   0.709   0.890 -0.2078  0.7966  0.2929
19522TIP3    H179981   3.483   0.745   0.959  2.8030 -1.7504 -0.6006
19522TIP3    H279982   3.477   0.723   0.809 -1.0447 -1.1728 -0.6210
19523TIP3   OH279983   1.114   1.772   2.256  0.5360 -0.2954  0.3568
19523TIP3    H179984   1.029   1.814   2.240  1.2178  1.0123  0.0426
19523TIP3    H279985   1.095   1.704   2.321 -0.6643  0.3122  0.6750
19524TIP3   OH279986   4.916   6.571   0.274 -0.0132 -0.3174  0.4442
19524TIP3    H179987   4.894   6.538   0.187  0.2734  0.7765 -0.0628
19524TIP3    H279988   5.001   6.532   0.294  0.1701 -0.1518 -0.0017
19525TIP3   OH279989   6.392   6.340   3.740 -0.2238  0.5478 -0.2520
19525TIP3    H179990   6.388   6.349   3.835  0.4269 -1.2423 -0.0082
19525TIP3    H279991   6.456   6.404   3.712  0.7921 -0.0016  0.7245
19526TIP3   OH279992   3.219   3.159   4.778 -0.6139 -0.1123  0.2251
19526TIP3    H179993   3.240   3.072   4.814  2.5248 -0.5508 -2.2386
19526TIP3    H279994   3.302   3.206   4.779 -1.0480  0.9861 -3.0906
19527TIP3   OH279995   4.304   4.062  12.621  0.7553  0.1334 -0.9585
19527TIP3    H179996   4.306   4.147  12.665 -3.6943 -0.3715  0.7557
19527TIP3    H279997   4.372   4.011  12.665  1.6654  1.9845 -0.1241
19528TIP3   OH279998   5.361   2.814  13.211  0.3863 -0.3277 -0.4133
19528TIP3    H179999   5.300   2.868  13.161 -0.3757 -0.0213  0.8278
19528TIP3    H280000   5.447   2.839  13.178 -0.1254 -0.7423 -2.1654
19529TIP3   OH280001   6.400   0.173  16.278  0.0644 -0.4518  0.1719
19529TIP3    H180002   6.419   0.231  16.204 -0.1154 -0.4137  0.1566
19529TIP3    H280003   6.476   0.183  16.336  1.0453 -1.7685 -0.7964
19530TIP3   OH280004   5.076   1.319  13.627 -0.1534 -0.4539 -0.1325
19530TIP3    H180005   5.073   1.389  13.692 -0.9946 -1.6951  1.2033
19530TIP3    H280006   5.002   1.336  13.569 -0.6213 -0.4674  0.4529
19531TIP3   OH280007   0.308   3.655   2.665  0.4397  0.2416  0.8018
19531TIP3    H180008   0.257   3.594   2.611  0.3431  0.9436  0.0768
19531TIP3    H280009   0.280   3.636   2.754  0.1922 -0.5727  0.5653
19532TIP3   OH280010   0.801   2.221  15.064 -0.6675  0.2487  0.0818
19532TIP3    H180011   0.742   2.224  15.139  0.0051  0.8809  0.5953
19532TIP3    H280012   0.769   2.290  15.006 -0.4515  0.5698  0.3453
19533TIP3   OH280013   0.160   1.325   2.343 -0.2924  0.1736 -0.0803
19533TIP3    H180014   0.098   1.266   2.301 -2.4700  1.6132  0.9562
19533TIP3    H280015   0.159   1.404   2.289  2.2828 -0.4631 -1.2240
19534TIP3   OH280016   5.839   1.596  13.280  0.0155 -0.5403 -0.5475
19534TIP3    H180017   5.815   1.524  13.221  0.2876 -3.0912  2.2574
19534TIP3    H280018   5.914   1.564  13.329 -0.3580  1.3451  1.4282
19535TIP3   OH280019   2.225   1.034   4.182  0.0012  0.3728 -0.9113
19535TIP3    H180020   2.310   1.018   4.141  0.9596 -0.0686  1.1159
19535TIP3    H280021   2.223   1.129   4.196  0.1253  0.3916 -1.0119
19536TIP3   OH280022   5.173   2.769   3.611 -0.2841 -0.1856 -0.5297
19536TIP3    H180023   5.263   2.744   3.632 -0.1398  0.1388 -0.7414
19536TIP3    H280024   5.119   2.702   3.651  0.0200  0.0092  0.2286
19537TIP3   OH280025   1.895   2.445  14.790  0.4311 -0.2440 -0.3056
19537TIP3    H180026   1.882   2.423  14.698 -1.0839 -2.4806  0.3754
19537TIP3    H280027   1.983   2.414  14.809  0.0806 -1.4461 -0.5707
19538TIP3   OH280028   6.701   4.108   3.221  0.5001  0.0791 -0.3772
19538TIP3    H180029   6.792   4.091   3.245  0.5213 -1.0134 -1.1175
19538TIP3    H280030   6.706   4.171   3.150  0.5976  1.0031  0.4351
19539TIP3   OH280031   3.817   4.953  15.476 -0.5129 -0.2748 -0.6556
19539TIP3    H180032   3.730   4.913  15.468 -0.7702  0.2477 -0.5280
19539TIP3    H280033   3.801   5.046  15.465  0.1197 -0.2266 -1.2487
19540TIP3   OH280034   0.456   1.225   2.268 -0.7122  0.6578  0.1296
19540TIP3    H180035   0.438   1.294   2.205 -0.5401  1.5630  1.0374
19540TIP3    H280036   0.398   1.244   2.342  0.9569  1.2298  1.3754
19541TIP3   OH280037   1.040   3.664   0.604 -0.4278 -0.6779 -0.6117
19541TIP3    H180038   1.053   3.726   0.532  1.3188  0.6514  0.7597
19541TIP3    H280039   0.973   3.705   0.659  1.3675  0.5908  0.7803
19542TIP3   OH280040   5.630   1.704   4.607 -0.1252  0.0487 -0.1921
19542TIP3    H180041   5.588   1.707   4.693 -0.1425 -0.9669 -0.1541
19542TIP3    H280042   5.583   1.635   4.560  1.4219 -1.0472 -0.1910
19543TIP3   OH280043   6.478   0.662  12.552  0.3047  0.8768  0.1180
19543TIP3    H180044   6.560   0.628  12.588 -1.5877 -2.2029  1.9503
19543TIP3    H280045   6.452   0.731  12.612 -0.1737 -0.6068  1.6771
19544TIP3   OH280046   3.495   2.462   2.504 -0.0996 -0.3597  0.0105
19544TIP3    H180047   3.524   2.440   2.593  0.8870 -0.6700 -0.3722
19544TIP3    H280048   3.445   2.386   2.476 -0.0650 -0.4349  0.1477
19545TIP3   OH280049   3.066   5.652  13.532  0.2302  0.5212 -0.6245
19545TIP3    H180050   3.133   5.718  13.514 -0.5232  1.3792 -0.3059
19545TIP3    H280051   3.100   5.603  13.607 -0.1789  1.9282  0.5017
19546TIP3   OH280052   5.932   1.461  11.723  0.2548 -0.3673 -0.2411
19546TIP3    H180053   5.992   1.465  11.649  0.0805  0.3509 -0.3464
19546TIP3    H280054   5.845   1.468  11.685  0.1455 -0.3991 -0.0031
19547TIP3   OH280055   1.765   3.179  11.993  0.1215 -0.1361  0.1002
19547TIP3    H180056   1.795   3.112  12.054 -0.9942  1.1972  2.2080
19547TIP3    H280057   1.780   3.140  11.906  3.3359 -1.4215  1.0716
19548TIP3   OH280058   2.174   3.111  16.898  0.1752 -0.2528 -0.5142
19548TIP3    H180059   2.099   3.067  16.858  1.4426 -2.0860 -0.9934
19548TIP3    H280060   2.200   3.177  16.833 -1.4649  0.9772  0.0075
19549TIP3   OH280061   3.862   4.379   2.394  0.2150 -0.2875 -0.0444
19549TIP3    H180062   3.903   4.315   2.452 -1.3517 -2.1901 -0.9223
19549TIP3    H280063   3.768   4.370   2.410 -0.1252  0.6468 -1.3372
19550TIP3   OH280064   6.032   3.386  14.022 -0.0920 -0.0886  0.1882
19550TIP3    H180065   6.116   3.344  14.001  0.3603  0.9136 -0.1065
19550TIP3    H280066   6.046   3.424  14.109  0.3342  1.4196 -0.4940
19551TIP3   OH280067   5.750   4.122  17.045  0.1738 -0.1383 -0.2438
19551TIP3    H180068   5.841   4.108  17.073  0.3859  0.5588 -0.5673
19551TIP3    H280069   5.699   4.065  17.102  0.6026  1.0972  1.4797
19552TIP3   OH280070   1.036   2.633   6.546 -0.1114  0.1365  0.2749
19552TIP3    H180071   1.056   2.710   6.599  1.5575 -0.5469  0.6908
19552TIP3    H280072   0.953   2.601   6.582  0.0348  0.7634  1.2112
19553TIP3   OH280073   0.118   2.230   1.707 -0.2745  0.0797 -0.1420
19553TIP3    H180074   0.114   2.297   1.775  1.0639 -1.5467  1.6482
19553TIP3    H280075   0.059   2.161   1.738 -0.7722 -0.0849 -1.3930
19554TIP3   OH280076   3.216   2.175  15.697 -0.0053 -0.1916 -0.1600
19554TIP3    H180077   3.126   2.180  15.666  0.0255 -2.1213 -0.7199
19554TIP3    H280078   3.269   2.182  15.617  0.2141 -1.3890 -0.1461
19555TIP3   OH280079   4.534   4.548  16.626  0.8646 -0.0679  0.3474
19555TIP3    H180080   4.597   4.618  16.640  0.0412  0.5284  1.2613
19555TIP3    H280081   4.460   4.570  16.683  0.1903 -1.1923 -0.0387
19556TIP3   OH280082   2.569   2.389   5.075  0.2488 -0.5399  0.2728
19556TIP3    H180083   2.498   2.411   5.014 -0.0685  0.2452  0.9108
19556TIP3    H280084   2.624   2.467   5.078  0.2628 -0.5658  0.9861
19557TIP3   OH280085   5.052   0.003   0.845  0.2639 -0.3274  0.2401
19557TIP3    H180086   5.056   0.020   0.939 -2.1824 -2.1599  0.7886
19557TIP3    H280087   4.991   0.069   0.812  0.6877 -0.0400  0.0222
19558TIP3   OH280088   6.717   3.941   1.451 -0.0121  0.0791 -0.0118
19558TIP3    H180089   6.666   4.020   1.469 -0.1170 -0.0460  0.2377
19558TIP3    H280090   6.786   3.941   1.517 -1.1000 -1.0035  1.1722
19559TIP3   OH280091   0.084   4.225   4.101  0.4311  0.4574 -0.9006
19559TIP3    H180092   0.160   4.174   4.076  0.7163  0.1051  0.5611
19559TIP3    H280093   0.014   4.195   4.043  0.1509 -2.8656  0.8933
19560TIP3   OH280094   5.104   1.173  10.781  0.6599 -0.7371  0.2591
19560TIP3    H180095   5.159   1.223  10.841  0.7795 -0.3008 -0.2163
19560TIP3    H280096   5.125   1.081  10.800 -0.6247 -0.6994  2.1685
19561TIP3   OH280097   1.061   2.930  12.289 -0.1380  0.0240  0.2002
19561TIP3    H180098   1.005   2.911  12.365 -1.7312  0.0032 -0.9340
19561TIP3    H280099   1.049   3.024  12.274 -0.6080 -0.1590 -0.6042
19562TIP3   OH280100   1.653   3.549   4.748  0.0890  0.6141  0.0403
19562TIP3    H180101   1.741   3.518   4.769  0.4509  0.8310 -1.0603
19562TIP3    H280102   1.653   3.641   4.775  0.3788  0.7536 -0.4171
19563TIP3   OH280103   3.599   3.833   6.513  0.0521  0.0029  0.2181
19563TIP3    H180104   3.585   3.911   6.566  0.0520  0.3039 -0.2208
19563TIP3    H280105   3.541   3.767   6.551  1.1742 -0.2501  1.5598
19564TIP3   OH280106   6.352   5.262  15.354 -0.3510  0.4155  0.2648
19564TIP3    H180107   6.389   5.313  15.426  0.3538  1.4125 -0.7694
19564TIP3    H280108   6.306   5.190  15.397 -1.7798  2.1493  1.8330
19565TIP3   OH280109   0.325   1.939  14.684 -0.8338  0.2023 -0.0019
19565TIP3    H180110   0.350   1.903  14.599 -1.7241  0.8427 -0.5458
19565TIP3    H280111   0.278   1.869  14.728  0.4504 -0.4583  0.3706
19566TIP3   OH280112   3.414   0.855   4.605  0.1274 -0.1231 -0.1307
19566TIP3    H180113   3.348   0.837   4.537 -0.2131 -2.5659  0.7388
19566TIP3    H280114   3.498   0.846   4.560 -0.0543 -2.8682 -0.1278
19567TIP3   OH280115   4.408   4.376   4.529  0.2413 -0.3510 -0.4373
19567TIP3    H180116   4.359   4.393   4.610 -0.4396 -0.5981 -0.7858
19567TIP3    H280117   4.481   4.320   4.556 -1.1236 -2.1649 -0.2843
19568TIP3   OH280118   0.409   3.686  11.962  0.2162 -0.0960 -0.1765
19568TIP3    H180119   0.368   3.749  11.903 -1.9320 -0.9491  0.2746
19568TIP3    H280120   0.411   3.604  11.912  0.7135 -0.2300  0.0616
19569TIP3   OH280121   4.815   0.723   4.681 -0.0716 -0.0010  0.3053
19569TIP3    H180122   4.813   0.792   4.615 -1.6360 -0.2230  0.0791
19569TIP3    H280123   4.806   0.769   4.764  0.1662  0.1529  0.2477
19570TIP3   OH280124   3.345   6.750  13.791  0.1908 -0.4314 -0.0585
19570TIP3    H180125   3.412   6.686  13.771 -0.0134 -0.6759  0.0340
19570TIP3    H280126   3.318   6.731  13.881 -0.3035 -0.6118 -0.2390
19571TIP3   OH280127   4.352   4.126  13.391 -0.8164  0.0071  0.2279
19571TIP3    H180128   4.304   4.204  13.421 -1.2275  0.2074 -0.9309
19571TIP3    H280129   4.304   4.096  13.315  0.0486 -0.6748 -0.0543
19572TIP3   OH280130   5.840   2.539   2.619 -0.3317  0.1061 -0.3688
19572TIP3    H180131   5.931   2.556   2.643  0.1170 -2.6261  0.1456
19572TIP3    H280132   5.789   2.575   2.692  0.4468  0.0733  0.2053
19573TIP3   OH280133   4.514   6.229   3.078 -0.2343  0.4352  0.2267
19573TIP3    H180134   4.483   6.243   2.988  2.4684 -0.1736 -0.9097
19573TIP3    H280135   4.475   6.145   3.104 -1.4155  0.8387 -0.1729
19574TIP3   OH280136   2.297   0.094   0.713 -0.4672  0.1452 -0.7909
19574TIP3    H180137   2.285   0.111   0.806 -0.7244  0.7727 -0.9322
19574TIP3    H280138   2.325   0.003   0.708 -1.6544 -0.2628 -0.1906
19575TIP3   OH280139   2.960   2.409   0.475 -0.0296  0.7541  0.3599
19575TIP3    H180140   2.981   2.432   0.566  1.2157  2.2226 -0.2643
19575TIP3    H280141   2.987   2.484   0.424  0.4627 -0.5429 -1.3868
19576TIP3   OH280142   2.613   4.121  10.646 -0.4681 -0.7438 -0.3015
19576TIP3    H180143   2.626   4.142  10.739  0.7152  1.8465 -0.9617
19576TIP3    H280144   2.700   4.097  10.615  0.3305  3.2799 -1.7323
19577TIP3   OH280145   2.311   4.038  15.585 -0.8741 -0.4604 -0.0914
19577TIP3    H180146   2.344   4.107  15.528 -1.3816  0.6588  0.9227
19577TIP3    H280147   2.379   3.970  15.583 -1.0239 -0.6085 -2.2374
19578TIP3   OH280148   0.406   2.518  13.973 -0.2595  0.3000  0.2810
19578TIP3    H180149   0.483   2.542  13.922 -0.2590 -0.6121 -0.1672
19578TIP3    H280150   0.432   2.437  14.018 -1.1741 -0.3880 -0.4018
19579TIP3   OH280151   2.256   1.898  15.861 -0.2056  0.4033  0.7315
19579TIP3    H180152   2.210   1.916  15.943 -1.4081  1.5518 -0.1497
19579TIP3    H280153   2.194   1.845  15.811 -0.1099  0.9893 -0.0163
19580TIP3   OH280154   0.769   0.800  12.215  0.6389 -0.1914  0.1483
19580TIP3    H180155   0.703   0.869  12.216 -1.0974 -1.7638  0.6149
19580TIP3    H280156   0.825   0.819  12.290  1.9196  2.1859 -1.2927
19581TIP3   OH280157   3.439   6.060  14.380 -0.7201  0.2227 -0.3598
19581TIP3    H180158   3.399   5.994  14.437  0.6043  0.0632  0.4296
19581TIP3    H280159   3.408   6.144  14.414 -1.5132  0.0657 -0.6651
19582TIP3   OH280160   3.676   6.382  11.977 -0.2650 -0.2565  0.3461
19582TIP3    H180161   3.691   6.327  12.054 -0.4748 -2.0566 -0.8413
19582TIP3    H280162   3.759   6.382  11.931 -0.7084 -0.9288 -0.4812
19583TIP3   OH280163   1.762   0.201   2.833  0.8912  0.2088 -0.4476
19583TIP3    H180164   1.820   0.274   2.815 -0.7888  2.4907  2.4822
19583TIP3    H280165   1.675   0.239   2.837  0.0269 -1.6799  2.1324
19584TIP3   OH280166   5.368   6.454   4.918  0.0323 -0.6407  0.2775
19584TIP3    H180167   5.279   6.463   4.884  0.3838 -0.3257 -0.5790
19584TIP3    H280168   5.368   6.369   4.963 -0.7810 -0.4992  0.5689
19585TIP3   OH280169   0.724   1.422   2.402  0.0356 -0.1089  0.0839
19585TIP3    H180170   0.701   1.436   2.310 -0.6700  0.8453  0.3886
19585TIP3    H280171   0.645   1.447   2.451  1.0184  1.2887  1.0443
19586TIP3   OH280172   1.227   1.410   1.371 -0.3851  0.0441 -0.5761
19586TIP3    H180173   1.183   1.363   1.300 -1.1335 -1.3337  0.7332
19586TIP3    H280174   1.304   1.357   1.391  0.2313  0.8256 -0.8308
19587TIP3   OH280175   5.694   6.587   0.215  0.0251  0.9448 -0.0104
19587TIP3    H180176   5.621   6.531   0.242  1.1810 -0.2454  0.7754
19587TIP3    H280177   5.711   6.643   0.291 -0.4095  1.6088 -0.3928
19588TIP3   OH280178   0.251   5.953  14.340  0.1881  0.1439 -0.3716
19588TIP3    H180179   0.271   6.045  14.356 -1.1792 -0.0057  3.1133
19588TIP3    H280180   0.179   5.955  14.276  0.1434  1.5055 -0.3056
19589TIP3   OH280181   3.046   4.508  16.456  1.1276  0.0961 -0.0746
19589TIP3    H180182   3.095   4.426  16.459  1.2245  0.1317 -0.6493
19589TIP3    H280183   3.074   4.550  16.375 -1.8241 -1.0835 -1.8562
19590TIP3   OH280184   1.895   0.943  14.026  0.2898  0.0787  0.0047
19590TIP3    H180185   1.905   1.013  13.961 -1.5422  0.3110 -0.0771
19590TIP3    H280186   1.931   0.980  14.107  0.8611  0.4824 -0.4286
19591TIP3   OH280187   3.730   5.824  15.715 -0.1768  0.0421  0.1800
19591TIP3    H180188   3.708   5.915  15.695 -0.4451 -0.2384 -0.8590
19591TIP3    H280189   3.754   5.825  15.808  2.8607  1.7463 -0.4860
19592TIP3   OH280190   6.552   3.420   5.787 -0.0478 -0.1425  0.2818
19592TIP3    H180191   6.603   3.452   5.712  0.4823 -0.6643  0.4121
19592TIP3    H280192   6.461   3.438   5.763  0.2043  1.0257  0.1556
19593TIP3   OH280193   2.144   1.874   5.756 -0.3106  0.3735  0.1244
19593TIP3    H180194   2.076   1.869   5.823 -1.0432 -0.8386 -0.6801
19593TIP3    H280195   2.214   1.817   5.788 -1.6225 -2.1109 -1.1489
19594TIP3   OH280196   5.715   6.185   1.703 -0.0967  0.2697  0.4248
19594TIP3    H180197   5.786   6.246   1.722 -0.5754  0.8796  0.3382
19594TIP3    H280198   5.636   6.233   1.729 -0.5369 -0.0188 -0.3508
19595TIP3   OH280199   0.042   1.619  13.655  0.0373  0.1149 -0.3913
19595TIP3    H180200   0.128   1.647  13.686 -0.2554  0.4824  0.0976
19595TIP3    H280201  -0.020   1.657  13.717 -0.3634 -1.9674  0.5683
19596TIP3   OH280202   6.271   1.854  16.657 -0.2086  0.1044 -0.1005
19596TIP3    H180203   6.227   1.929  16.617  0.3394 -0.1639 -1.2847
19596TIP3    H280204   6.252   1.781  16.597 -0.2842 -0.5797  0.7434
19597TIP3   OH280205   5.606   2.485  16.080 -0.7161  0.1047  0.3755
19597TIP3    H180206   5.561   2.559  16.039 -1.0142 -0.4213 -0.2542
19597TIP3    H280207   5.555   2.408  16.054  0.3412 -0.4616 -0.0654
19598TIP3   OH280208   0.677   0.419   5.535  0.4328 -0.4224 -0.2500
19598TIP3    H180209   0.656   0.512   5.528 -0.3128 -0.5009  0.6903
19598TIP3    H280210   0.639   0.392   5.619 -2.8891 -2.4305 -2.1370
19599TIP3   OH280211   4.018   5.802  15.774  0.0360 -0.6467  0.5661
19599TIP3    H180212   3.978   5.870  15.720  1.2592 -0.7640 -0.5530
19599TIP3    H280213   4.051   5.848  15.851 -0.1736 -0.1722  0.3726
19600TIP3   OH280214   0.494   3.317  13.514  0.2061 -0.0138 -1.0832
19600TIP3    H180215   0.546   3.253  13.466  0.4750 -1.6117  1.1476
19600TIP3    H280216   0.462   3.269  13.591 -2.0650  1.7525 -0.7986
19601TIP3   OH280217   2.816   1.052  13.698 -0.0903 -0.0462  0.0546
19601TIP3    H180218   2.733   1.011  13.721 -0.3098  0.4358  0.1455
19601TIP3    H280219   2.801   1.146  13.711 -0.3154  0.3067 -2.2376
19602TIP3   OH280220   5.505   1.073  12.230  0.9330 -0.4044  0.0109
19602TIP3    H180221   5.420   1.113  12.252  0.0474 -0.8440 -2.3192
19602TIP3    H280222   5.557   1.082  12.310 -0.9611  0.7844  1.1945
19603TIP3   OH280223   0.217   2.271  12.842  0.3930 -0.3086  0.4066
19603TIP3    H180224   0.122   2.275  12.855 -0.2779 -0.2452 -3.4726
19603TIP3    H280225   0.242   2.362  12.822  0.6334 -0.7782 -1.6610
19604TIP3   OH280226   6.574   5.865  10.990  0.2155 -0.5913  0.2415
19604TIP3    H180227   6.535   5.951  10.981  0.2135 -0.4643  1.3075
19604TIP3    H280228   6.523   5.809  10.932  1.1233  0.3778 -1.5749
19605TIP3   OH280229   2.985   3.327  17.364 -0.9302 -0.9748 -0.3948
19605TIP3    H180230   3.050   3.287  17.421  0.8314  0.5414 -1.2523
19605TIP3    H280231   2.934   3.385  17.422  0.3383 -0.0386 -0.1799
19606TIP3   OH280232   1.169   1.729   1.948  0.7795 -0.0712 -0.3402
19606TIP3    H180233   1.196   1.722   2.040 -0.4320  1.2849  0.1599
19606TIP3    H280234   1.074   1.714   1.950  0.4925  1.4163 -1.1439
19607TIP3   OH280235   1.573   4.064  16.543 -0.0331 -0.3040  0.2788
19607TIP3    H180236   1.598   4.122  16.472 -1.3022 -0.9486 -0.7349
19607TIP3    H280237   1.525   4.120  16.604  0.3495  0.0842  0.2272
19608TIP3   OH280238   5.210   5.161   6.038 -0.4728  0.0706 -1.1067
19608TIP3    H180239   5.246   5.072   6.033  3.5045  1.2708  1.3224
19608TIP3    H280240   5.242   5.204   5.958 -0.6407 -0.1263 -1.2814
19609TIP3   OH280241   0.218   0.090   3.605  0.2528 -0.1671  0.2615
19609TIP3    H180242   0.178   0.135   3.530  0.7667  1.0468  0.6802
19609TIP3    H280243   0.209  -0.003   3.585 -3.2426 -0.0226  0.5673
19610TIP3   OH280244   2.883   6.220  12.932 -0.1834  0.1205  0.3177
19610TIP3    H180245   2.926   6.260  12.856 -1.8571 -0.2695 -0.8860
19610TIP3    H280246   2.917   6.130  12.935 -1.1231 -0.2909 -0.8311
19611TIP3   OH280247   6.546   5.321  14.361  0.5708  0.0212 -0.0402
19611TIP3    H180248   6.552   5.257  14.432  2.5937  0.3497  0.1494
19611TIP3    H280249   6.492   5.391  14.396 -2.4634 -1.8691 -0.5589
19612TIP3   OH280250   4.720   1.493  13.283  0.8920  0.0151 -0.0963
19612TIP3    H180251   4.789   1.556  13.264  1.1560 -0.6977 -1.6882
19612TIP3    H280252   4.758   1.434  13.349  1.8353 -0.3940 -0.9791
19613TIP3   OH280253   3.578   5.764   1.120  0.5490  0.0174 -0.7083
19613TIP3    H180254   3.592   5.676   1.155  2.2645 -0.0256 -1.3896
19613TIP3    H280255   3.610   5.823   1.188  0.0410  0.0877 -0.5300
19614TIP3   OH280256   3.558   0.137   5.222  0.0803 -0.0706 -0.3253
19614TIP3    H180257   3.609   0.168   5.148 -0.5651 -1.1328 -1.2458
19614TIP3    H280258   3.501   0.069   5.186  0.1586 -1.0388  1.2395
19615TIP3   OH280259   3.040   3.049   5.391  0.4487  0.3291 -0.5608
19615TIP3    H180260   3.060   2.987   5.461 -0.3278 -1.4250 -1.8271
19615TIP3    H280261   3.035   3.134   5.435  1.4756 -0.4873  1.2452
19616TIP3   OH280262   1.564   5.425  12.870  0.1204  0.1149  0.5023
19616TIP3    H180263   1.510   5.454  12.942  0.1309  0.0357  0.5417
19616TIP3    H280264   1.599   5.506  12.831 -1.7393  0.3323 -0.8774
19617TIP3   OH280265   3.147   2.589  13.956  0.3245 -0.2777 -0.2158
19617TIP3    H180266   3.066   2.605  14.004  0.4583  0.2804 -0.1578
19617TIP3    H280267   3.194   2.673  13.961  1.4858 -0.9486  0.8628
19618TIP3   OH280268   3.895   2.357   0.923  0.9058 -0.0373 -0.0708
19618TIP3    H180269   3.903   2.269   0.958 -0.6511  0.2961  1.2288
19618TIP3    H280270   3.941   2.412   0.986  0.6526  0.2319 -0.1175
19619TIP3   OH280271   2.468   1.377  13.876  0.0792 -0.0156  0.3174
19619TIP3    H180272   2.497   1.313  13.941 -1.0560  1.3355  2.2457
19619TIP3    H280273   2.399   1.332  13.826  0.3451 -0.7771  0.6317
19620TIP3   OH280274   4.286   5.468   1.031 -0.3305  0.1196 -0.4586
19620TIP3    H180275   4.375   5.473   1.066 -0.7643 -0.0457  0.7190
19620TIP3    H280276   4.295   5.490   0.938  0.8219  0.8754 -0.1814
19621TIP3   OH280277   3.145   0.542  16.194 -0.2129 -0.4455  0.0196
19621TIP3    H180278   3.168   0.458  16.152 -0.7143 -0.2804 -0.6037
19621TIP3    H280279   3.121   0.518  16.283  0.4739 -0.8570  0.1081
19622TIP3   OH280280   4.228   5.533   3.344  0.2034 -0.4011  0.3933
19622TIP3    H180281   4.277   5.616   3.339  0.6763 -0.7216 -1.0060
19622TIP3    H280282   4.197   5.529   3.434  2.5683 -0.0471  1.3076
19623TIP3   OH280283   5.677   2.717   2.450 -0.3239  0.3032 -0.2061
19623TIP3    H180284   5.598   2.710   2.503 -0.2323  2.8146  0.4268
19623TIP3    H280285   5.749   2.696   2.509 -0.3293  1.6181  0.3164
19624TIP3   OH280286   5.574   5.056   4.932 -0.0233 -0.0643  0.2547
19624TIP3    H180287   5.626   5.006   4.995 -0.3004  0.6929  1.0938
19624TIP3    H280288   5.488   5.063   4.972 -0.2845  0.1977 -0.3405
19625TIP3   OH280289   0.750   2.008   0.069  0.2608  0.2260 -0.2291
19625TIP3    H180290   0.842   1.995   0.044 -0.2275 -0.7314 -1.6070
19625TIP3    H280291   0.701   1.945   0.016 -1.1621  0.3929  0.8327
19626TIP3   OH280292   6.348   0.443  13.074  0.2630 -0.1305 -0.2872
19626TIP3    H180293   6.413   0.462  13.006  1.3070 -0.9923  0.4614
19626TIP3    H280294   6.327   0.351  13.062 -1.0792  0.1991 -0.7090
19627TIP3   OH280295   0.119   2.459  17.026  0.1117 -0.1462 -0.2056
19627TIP3    H180296   0.159   2.381  17.065 -0.6057 -0.0426  0.7947
19627TIP3    H280297   0.100   2.434  16.936 -0.4931 -1.2907  0.2197
19628TIP3   OH280298   5.773   4.274  14.178  0.0468  0.7661 -0.9500
19628TIP3    H180299   5.727   4.349  14.216 -1.0169  1.1295 -2.8069
19628TIP3    H280300   5.807   4.226  14.253 -1.8881  1.4476  0.4602
19629TIP3   OH280301   1.166   3.912  13.257 -0.2256  0.5053 -0.7209
19629TIP3    H180302   1.218   3.960  13.193  1.5352 -1.5718 -0.9849
19629TIP3    H280303   1.177   3.820  13.232 -1.3179 -0.2198  1.2486
19630TIP3   OH280304   3.564   0.918   3.590  0.0572 -0.1775  0.2222
19630TIP3    H180305   3.549   0.906   3.684  0.5015  0.3220  0.3561
19630TIP3    H280306   3.554   1.012   3.575 -0.4320 -0.3078 -0.3095
19631TIP3   OH280307   5.541   1.868  17.034  0.0012  0.3297 -0.0528
19631TIP3    H180308   5.498   1.793  17.075 -1.9830  1.2359 -0.3384
19631TIP3    H280309   5.608   1.831  16.977 -1.5558 -1.2777 -0.9040
19632TIP3   OH280310   4.386   0.912  10.882  0.6167  0.5910  0.3318
19632TIP3    H180311   4.310   0.968  10.869 -0.6071 -1.1849 -0.6280
19632TIP3    H280312   4.418   0.895  10.793  0.6672 -0.5710  0.5525
19633TIP3   OH280313   0.246   0.586   2.182 -0.3489 -0.6048 -0.2144
19633TIP3    H180314   0.171   0.540   2.144 -0.3032  0.2421 -1.3906
19633TIP3    H280315   0.318   0.568   2.121 -0.1182  0.3035 -0.2179
19634TIP3   OH280316   1.552   1.168   2.056  0.2875  0.2869  0.5199
19634TIP3    H180317   1.476   1.219   2.081  0.2089 -0.0683  1.0212
19634TIP3    H280318   1.621   1.233   2.042 -0.2652  0.6595 -0.5653
19635TIP3   OH280319   1.905   4.277   5.518 -0.2242  0.0233  0.0851
19635TIP3    H180320   1.822   4.269   5.564 -0.5885 -1.5658 -0.7783
19635TIP3    H280321   1.908   4.201   5.459  1.2939  0.6905 -0.7728
19636TIP3   OH280322   0.288   5.324  10.746 -0.0480  0.0280  0.1857
19636TIP3    H180323   0.269   5.230  10.744  1.1965 -0.2677 -2.5370
19636TIP3    H280324   0.382   5.329  10.728 -0.0610  1.8171  0.4677
19637TIP3   OH280325   6.333   6.489  13.412 -0.2887 -0.2299  0.1849
19637TIP3    H180326   6.383   6.560  13.371  1.1497 -0.5433  1.3097
19637TIP3    H280327   6.308   6.432  13.339  4.5406 -2.2523 -0.2490
19638TIP3   OH280328   3.388   1.427   1.020 -0.0366 -0.1632  0.1017
19638TIP3    H180329   3.415   1.481   0.945 -0.2053  0.2107  0.3073
19638TIP3    H280330   3.365   1.343   0.981 -1.4786  0.4575 -0.4629
19639TIP3   OH280331   5.892   4.834   4.632 -0.1229  0.0304  0.0012
19639TIP3    H180332   5.829   4.901   4.657 -0.3142 -0.1165 -0.0807
19639TIP3    H280333   5.841   4.772   4.579  0.4210  0.7129 -1.3776
19640TIP3   OH280334   1.759   0.437   5.355  0.3521 -0.9935 -0.2175
19640TIP3    H180335   1.678   0.444   5.304  1.2722  0.9918 -1.5068
19640TIP3    H280336   1.742   0.490   5.434  0.6461  0.1176 -0.8792
19641TIP3   OH280337   6.007   1.998   0.196  0.0586  0.4058  0.0653
19641TIP3    H180338   5.935   1.971   0.139  0.1262  0.8648 -0.2407
19641TIP3    H280339   6.013   2.092   0.185  0.0555  0.5096  0.8613
19642TIP3   OH280340   0.067   0.306  11.703 -0.1903 -0.2438 -0.0287
19642TIP3    H180341   0.043   0.221  11.666 -0.7105 -0.1398  0.0543
19642TIP3    H280342   0.056   0.368  11.631 -0.3649 -0.1651  0.0652
19643TIP3   OH280343   5.626   0.689   5.019 -0.2204 -0.0940 -0.0155
19643TIP3    H180344   5.712   0.668   4.982  0.5862  1.3269  0.9282
19643TIP3    H280345   5.639   0.684   5.114 -1.1172  0.3624  0.1455
19644TIP3   OH280346   3.407   6.699  12.723  0.2496 -0.3925  1.0403
19644TIP3    H180347   3.436   6.624  12.774  0.1533 -0.8365  0.4414
19644TIP3    H280348   3.462   6.771  12.755  2.2015 -1.2483 -0.1888
19645TIP3   OH280349   1.912   3.324  14.881 -0.2450 -0.9152  0.4131
19645TIP3    H180350   1.825   3.325  14.840  0.3127 -1.8661 -0.8807
19645TIP3    H280351   1.926   3.414  14.910 -1.1768 -0.4765 -0.4201
19646TIP3   OH280352   2.118   4.483   4.165  0.1740  0.4280 -0.2263
19646TIP3    H180353   2.146   4.439   4.245  2.2899  1.6622 -0.2331
19646TIP3    H280354   2.155   4.571   4.171 -1.2073  1.1729 -1.7212
19647TIP3   OH280355   5.465   5.565   3.006 -0.1112 -0.5682  0.0443
19647TIP3    H180356   5.516   5.544   3.084 -1.9876  1.4178  1.9351
19647TIP3    H280357   5.476   5.659   2.993 -4.2669  0.3297  1.5053
19648TIP3   OH280358   4.629   2.683   5.771  0.3645 -0.0737  0.6448
19648TIP3    H180359   4.617   2.739   5.694 -0.2208 -1.3632 -0.2472
19648TIP3    H280360   4.613   2.595   5.739  1.7619 -0.8277  1.8967
19649TIP3   OH280361   6.002   3.838  15.839  0.1864  0.0518  0.2902
19649TIP3    H180362   5.994   3.787  15.758 -2.2268 -0.0487  0.5124
19649TIP3    H280363   6.085   3.884  15.831  1.7722 -2.6939 -0.6243
19650TIP3   OH280364   0.412   0.764  12.221 -0.0711 -0.0775 -0.5038
19650TIP3    H180365   0.321   0.792  12.208 -0.2895  0.6269  1.9708
19650TIP3    H280366   0.464   0.844  12.210 -0.0493  0.0733  0.5879
19651TIP3   OH280367   1.532   3.903  14.115 -0.2987 -0.8818  0.3363
19651TIP3    H180368   1.543   3.879  14.023 -0.8751 -1.7942  0.4952
19651TIP3    H280369   1.594   3.847  14.162  0.1357 -0.2815  0.4999
19652TIP3   OH280370   0.135   4.129   2.577 -0.2940  0.0645 -0.3811
19652TIP3    H180371   0.120   4.107   2.485  0.6337  1.9973 -1.0513
19652TIP3    H280372   0.145   4.224   2.577  1.3207 -0.0491  1.4862
19653TIP3   OH280373   3.411   3.623  11.990  0.0441  0.1905  0.1486
19653TIP3    H180374   3.335   3.567  11.976  0.2965  0.1955 -1.4183
19653TIP3    H280375   3.471   3.601  11.919 -0.5543  3.6131 -1.6506
19654TIP3   OH280376   4.562   4.552  11.659 -0.3281  0.2826  0.1000
19654TIP3    H180377   4.536   4.644  11.647 -1.0467  0.0524 -0.2058
19654TIP3    H280378   4.597   4.548  11.748  1.8344  1.3192 -0.6188
19655TIP3   OH280379   6.357   0.103   3.543 -0.3147  0.2613 -0.0271
19655TIP3    H180380   6.443   0.071   3.566 -0.3089  0.5830  0.4062
19655TIP3    H280381   6.296   0.040   3.581 -0.3931  1.9200  2.8590
19656TIP3   OH280382   3.739   5.365   2.919 -0.2914 -0.2765 -0.1665
19656TIP3    H180383   3.745   5.460   2.931  1.4181 -0.5156  1.4299
19656TIP3    H280384   3.723   5.331   3.007  0.0702 -1.5019 -0.5529
19657TIP3   OH280385   3.789   1.285   1.948  0.3637 -0.0069 -0.3404
19657TIP3    H180386   3.830   1.198   1.946  2.2839  0.8786 -1.2794
19657TIP3    H280387   3.846   1.337   2.005 -1.6650  0.2786  1.5610
19658TIP3   OH280388   2.458   5.885  16.189  0.0275 -0.2298  0.0665
19658TIP3    H180389   2.550   5.860  16.204 -0.5109 -1.6132  1.2741
19658TIP3    H280390   2.438   5.947  16.259 -0.4753 -1.3279  0.9060
19659TIP3   OH280391   4.724   6.032   0.600 -0.2869 -0.0095 -0.6901
19659TIP3    H180392   4.666   6.091   0.552 -1.4014 -0.2177  0.3545
19659TIP3    H280393   4.712   5.946   0.558  0.0864  0.1602 -1.1534
19660TIP3   OH280394   2.365   0.552  14.200  0.5410  1.4081  0.8867
19660TIP3    H180395   2.381   0.595  14.115  1.2760 -1.3629 -0.5014
19660TIP3    H280396   2.274   0.573  14.220 -0.3192  0.5387 -1.6514
19661TIP3   OH280397   1.274   1.852  15.468  0.0148 -0.4691 -0.1459
19661TIP3    H180398   1.274   1.807  15.552  0.5552 -0.1175  0.0440
19661TIP3    H280399   1.287   1.944  15.490  1.3950 -0.5093 -0.6729
19662TIP3   OH280400   4.287   2.402  15.332  0.6385 -0.4346  0.2820
19662TIP3    H180401   4.353   2.385  15.265 -0.1692  0.1368 -0.7031
19662TIP3    H280402   4.323   2.473  15.384 -0.0379  1.3319 -1.5429
19663TIP3   OH280403   5.528   4.473   3.358 -0.2078 -0.2759  0.4228
19663TIP3    H180404   5.598   4.448   3.297 -0.8914 -1.5825  0.1274
19663TIP3    H280405   5.451   4.425   3.326 -0.9165  0.1195  1.4982
19664TIP3   OH280406   2.407   1.315  11.457 -0.1363  0.4657 -0.7210
19664TIP3    H180407   2.466   1.362  11.516 -0.9626  0.0881  0.4451
19664TIP3    H280408   2.368   1.246  11.512 -0.1852 -0.5327 -1.9653
19665TIP3   OH280409   1.543   5.888   6.654  0.2785  0.3553  0.1301
19665TIP3    H180410   1.468   5.945   6.638  0.6777  0.6782 -0.5803
19665TIP3    H280411   1.620   5.942   6.635  0.7032  0.0545  0.9369
19666TIP3   OH280412   4.750   0.439   5.987 -0.5231 -0.2668  0.3269
19666TIP3    H180413   4.834   0.409   6.022  0.0257  0.3824 -0.4070
19666TIP3    H280414   4.695   0.360   5.984 -0.0537 -0.6369  1.1002
19667TIP3   OH280415   3.874   3.944  11.840 -0.3496  0.3851 -0.1795
19667TIP3    H180416   3.942   3.955  11.906  0.0346 -0.0175 -0.4984
19667TIP3    H280417   3.891   4.012  11.775 -1.5143  1.6294  0.7676
19668TIP3   OH280418   1.623   2.253  14.665  0.0228  0.0882 -0.1960
19668TIP3    H180419   1.614   2.250  14.760 -0.7770 -2.0100 -0.2855
19668TIP3    H280420   1.582   2.172  14.634 -1.5273  1.5942 -2.4885
19669TIP3   OH280421   1.414   0.518  15.484  0.7683  0.5934  0.2228
19669TIP3    H180422   1.329   0.479  15.467  0.3276  1.7789 -0.3803
19669TIP3    H280423   1.475   0.445  15.480  0.0125  0.0029 -1.2153
19670TIP3   OH280424   0.648   6.089  12.849  0.0293 -0.6925  0.1867
19670TIP3    H180425   0.600   6.162  12.888 -0.2317 -1.0234  0.4848
19670TIP3    H280426   0.633   6.098  12.754 -0.3111 -0.5787  0.2513
19671TIP3   OH280427   6.402   5.759  12.804 -0.4559  0.2800  0.3829
19671TIP3    H180428   6.401   5.730  12.896  1.2244 -0.4254  0.2267
19671TIP3    H280429   6.317   5.800  12.790 -1.2152 -0.6982  1.9123
19672TIP3   OH280430   5.712   0.560   4.606 -0.0536  0.9266 -0.3455
19672TIP3    H180431   5.801   0.540   4.576  0.7643  1.3738  1.6190
19672TIP3    H280432   5.719   0.647   4.645 -1.5472  1.2755 -0.7817
19673TIP3   OH280433   1.345   3.197   4.712  0.3063  0.8657 -0.5802
19673TIP3    H180434   1.345   3.193   4.807  1.0148 -0.1707 -0.6007
19673TIP3    H280435   1.402   3.271   4.690 -0.3409  1.4870 -0.2094
19674TIP3   OH280436   4.157   6.713   1.613 -0.3188  1.0291  0.0758
19674TIP3    H180437   4.192   6.633   1.652  0.6789  1.7988  0.8064
19674TIP3    H280438   4.062   6.707   1.627 -0.3401 -0.3351 -0.5100
19675TIP3   OH280439   4.845   0.158  17.271  0.5324 -0.7637 -0.1649
19675TIP3    H180440   4.809   0.176  17.358  0.4167 -0.8822 -0.1876
19675TIP3    H280441   4.775   0.113  17.225  0.2852  0.0639 -0.6071
19676TIP3   OH280442   4.839   2.609   1.913  0.2025  0.6006  0.3280
19676TIP3    H180443   4.885   2.684   1.875 -1.3182  0.5954 -1.6548
19676TIP3    H280444   4.905   2.566   1.968  1.5351  2.5010  0.3204
19677TIP3   OH280445   6.376   5.077  14.644  0.0151  0.0611 -0.0289
19677TIP3    H180446   6.386   5.147  14.708 -0.8255  0.6745 -0.5460
19677TIP3    H280447   6.317   5.113  14.578  1.1932 -0.4019 -1.3730
19678TIP3   OH280448   1.437   4.672  11.309  0.2674  0.0055  0.3544
19678TIP3    H180449   1.531   4.669  11.289 -0.1733  1.4475 -2.5471
19678TIP3    H280450   1.431   4.727  11.387  1.7558  1.9347 -0.7739
19679TIP3   OH280451   0.166   2.405  14.161 -1.2616  0.2206 -0.4596
19679TIP3    H180452   0.198   2.435  14.246 -1.2395 -0.7836 -0.0959
19679TIP3    H280453   0.245   2.398  14.107 -1.3098  1.1215 -0.6499
19680TIP3   OH280454   3.977   2.690  12.272 -0.8504  0.5301  0.5131
19680TIP3    H180455   3.951   2.703  12.363 -1.5288 -0.3190  0.4555
19680TIP3    H280456   4.061   2.645  12.277 -0.0920  1.9476  0.7084
19681TIP3   OH280457   2.463   2.334   4.668  0.0682  0.2273  0.4341
19681TIP3    H180458   2.497   2.394   4.602  0.0797 -0.7254 -0.4504
19681TIP3    H280459   2.533   2.329   4.734  0.6738  0.0934 -0.2031
19682TIP3   OH280460   1.189   4.942  14.749  0.5208 -0.3257 -0.1154
19682TIP3    H180461   1.219   4.871  14.806 -1.9792 -0.4438  1.1710
19682TIP3    H280462   1.237   4.929  14.667  2.3811 -1.6365  1.1017
19683TIP3   OH280463   0.776   3.574   2.147  0.1000 -0.4888  0.9609
19683TIP3    H180464   0.810   3.491   2.115  0.7212  0.0597  0.1565
19683TIP3    H280465   0.841   3.603   2.211  1.4248  0.7446 -0.8537
19684TIP3   OH280466   5.716   4.954   4.340  0.0997  0.4385 -0.8931
19684TIP3    H180467   5.745   4.863   4.332  0.1996  0.1200  2.0015
19684TIP3    H280468   5.789   5.005   4.304  1.2475 -0.5654 -0.0991
19685TIP3   OH280469   4.037   2.932  14.988  0.1886  0.1547  0.1519
19685TIP3    H180470   4.097   2.858  15.000 -1.5168 -1.4107 -0.4273
19685TIP3    H280471   4.014   2.929  14.895  1.1096  2.2874 -0.1859
19686TIP3   OH280472   2.946   0.456   1.042  0.0225  0.6287 -0.1930
19686TIP3    H180473   2.971   0.373   1.082  1.8643  0.4300 -1.6198
19686TIP3    H280474   2.881   0.433   0.976 -0.3791  0.4830  0.2541
19687TIP3   OH280475   0.342   6.187  16.749  0.7306  0.0050 -0.0710
19687TIP3    H180476   0.358   6.214  16.659 -1.5120 -0.4032 -0.6583
19687TIP3    H280477   0.252   6.154  16.749  0.5878  0.1583  2.3611
19688TIP3   OH280478   3.018   1.633   3.934 -0.5004 -0.4167  0.4414
19688TIP3    H180479   3.073   1.639   4.012  0.9612 -0.8310 -0.5061
19688TIP3    H280480   3.080   1.638   3.861 -1.9339  1.1757 -0.7349
19689TIP3   OH280481   5.986   2.888  15.754  0.4745 -0.1428  0.2075
19689TIP3    H180482   5.962   2.948  15.824 -0.6138 -0.6433  0.2867
19689TIP3    H280483   5.979   2.801  15.793  2.3368 -0.3462  0.1847
19690TIP3   OH280484   1.514   4.541   2.924 -0.0223 -0.6448 -0.4206
19690TIP3    H180485   1.576   4.468   2.926 -1.0166 -1.5011  1.0493
19690TIP3    H280486   1.429   4.500   2.906 -0.6286  0.1060  0.6179
19691TIP3   OH280487   1.570   3.364   1.049  0.0329  0.0214  0.5389
19691TIP3    H180488   1.495   3.336   1.102  0.5862 -0.1182  1.2515
19691TIP3    H280489   1.577   3.297   0.981 -1.1637  0.6099 -0.2207
19692TIP3   OH280490   4.594   5.258   1.165 -0.4159 -0.4145  0.2273
19692TIP3    H180491   4.582   5.297   1.079  0.1840 -0.0215  0.3121
19692TIP3    H280492   4.619   5.168   1.148 -1.0063 -0.5410  0.0106
19693TIP3   OH280493   0.527   0.457   1.766  0.3853 -0.0146 -0.7118
19693TIP3    H180494   0.622   0.464   1.761  0.2634  0.9813 -2.9460
19693TIP3    H280495   0.507   0.371   1.729  0.3654  0.2332 -1.2802
19694TIP3   OH280496   6.478   1.972   3.454  0.1495 -0.3160  0.0036
19694TIP3    H180497   6.465   2.066   3.446 -0.2974 -0.4355 -0.7411
19694TIP3    H280498   6.556   1.954   3.403  1.2691 -0.1150  1.5713
19695TIP3   OH280499   5.506   2.911  12.762  0.4138 -0.6445  0.8342
19695TIP3    H180500   5.528   2.937  12.672  1.0053 -2.3396  0.4529
19695TIP3    H280501   5.580   2.942  12.815  0.7720 -0.9143  0.5006
19696TIP3   OH280502   0.942   0.065  10.518 -0.5798 -0.0508  0.3963
19696TIP3    H180503   0.857   0.049  10.560 -1.1946 -0.1962 -0.8529
19696TIP3    H280504   1.000  -0.001  10.555 -1.0232  0.0093  1.2197
19697TIP3   OH280505   2.947   5.906   3.051  0.0290  0.6855 -0.3236
19697TIP3    H180506   2.928   5.813   3.062 -0.8221  0.7008 -1.5028
19697TIP3    H280507   2.881   5.938   2.990  2.4818  1.2210 -2.9497
19698TIP3   OH280508   6.739   2.126  16.095 -0.1441 -0.3288  0.0505
19698TIP3    H180509   6.801   2.090  16.158 -0.4346 -0.1816  0.4188
19698TIP3    H280510   6.776   2.210  16.069 -0.8053  0.3308  1.2006
19699TIP3   OH280511   6.595   0.187   3.293 -0.3131  0.1268  0.0166
19699TIP3    H180512   6.515   0.134   3.293  0.7971 -1.7131  1.7690
19699TIP3    H280513   6.565   0.276   3.312 -2.0192 -0.3545 -0.2325
19700TIP3   OH280514   4.780   5.811   2.580 -0.2545  0.0991  0.1549
19700TIP3    H180515   4.853   5.860   2.545 -0.2783 -0.0395 -0.0941
19700TIP3    H280516   4.732   5.780   2.503  0.7740 -1.8546  0.2292
19701TIP3   OH280517   0.897   3.496   3.455  0.5908 -0.2104  0.4705
19701TIP3    H180518   0.926   3.567   3.398  1.3181 -0.7435  0.1553
19701TIP3    H280519   0.972   3.479   3.513 -0.3874  0.8338  2.1467
19702TIP3   OH280520   2.943   1.843   0.961  0.7038  0.2799 -0.5040
19702TIP3    H180521   2.988   1.760   0.976 -2.2917 -1.2292  0.8021
19702TIP3    H280522   2.942   1.885   1.047 -0.9347 -0.0637 -0.3285
19703TIP3   OH280523   3.688   1.072   4.359 -0.2165 -0.1159 -0.1894
19703TIP3    H180524   3.761   1.011   4.352 -1.9973 -2.7312  1.9572
19703TIP3    H280525   3.631   1.049   4.286 -0.0047  0.2813 -0.4796
19704TIP3   OH280526   6.489   2.845   5.820 -0.2603  0.5451 -0.2417
19704TIP3    H180527   6.463   2.842   5.912 -1.2218 -1.7197 -0.5200
19704TIP3    H280528   6.408   2.824   5.772  0.6298 -0.1290 -1.5014
19705TIP3   OH280529   2.262   6.640  14.131  0.0932  0.2562 -0.1882
19705TIP3    H180530   2.213   6.696  14.070 -2.4370 -1.8888 -0.2992
19705TIP3    H280531   2.247   6.551  14.100  3.5898 -0.6355  0.2613
19706TIP3   OH280532   6.079   0.687  17.112 -0.1007  0.4043  0.2189
19706TIP3    H180533   6.156   0.642  17.078  1.0915  2.3425  0.1691
19706TIP3    H280534   6.091   0.689  17.207  0.2575  1.2489  0.1667
19707TIP3   OH280535   6.200   3.660  12.517  0.1427 -0.3025 -0.2001
19707TIP3    H180536   6.268   3.600  12.547  1.4538  0.7290 -0.9838
19707TIP3    H280537   6.242   3.710  12.447 -2.4681 -2.0639 -3.3258
19708TIP3   OH280538   3.845   2.315   3.727 -0.4345 -0.2610 -0.0161
19708TIP3    H180539   3.926   2.322   3.778 -1.0781 -1.9580  1.3518
19708TIP3    H280540   3.866   2.251   3.658  0.1044  1.2059 -1.2635
19709TIP3   OH280541   0.085   3.270   4.124 -0.2963  0.5175 -0.0815
19709TIP3    H180542   0.178   3.247   4.132 -0.5252 -0.7821 -0.8172
19709TIP3    H280543   0.056   3.281   4.215  0.0230 -1.5876  0.3419
19710TIP3   OH280544   1.689   6.594   0.570  0.2948 -0.4103 -0.2197
19710TIP3    H180545   1.691   6.668   0.630  1.8997 -0.0537 -0.6743
19710TIP3    H280546   1.669   6.519   0.625 -4.5989  0.6323 -0.1387
19711TIP3   OH280547   4.608   5.205   6.215  0.0449  0.3944 -0.5501
19711TIP3    H180548   4.666   5.239   6.284 -0.3274  1.0463 -0.5433
19711TIP3    H280549   4.613   5.110   6.224 -1.1543  0.4463  1.3925
19712TIP3   OH280550   0.160   3.850  13.366  0.1430 -0.6972 -0.0037
19712TIP3    H180551   0.169   3.899  13.447 -0.0065 -0.1105 -0.3339
19712TIP3    H280552   0.192   3.909  13.298 -2.2768 -0.0874 -0.7269
19713TIP3   OH280553   5.860   6.755   5.215  0.1906 -0.3020 -0.0165
19713TIP3    H180554   5.898   6.668   5.228 -2.0654 -1.4535 -0.6033
19713TIP3    H280555   5.887   6.805   5.292  1.7354 -1.4260  0.2181
19714TIP3   OH280556   3.240   5.186  15.001  0.5699 -0.7251  0.4648
19714TIP3    H180557   3.281   5.114  15.050  0.5150 -0.8371  0.3473
19714TIP3    H280558   3.238   5.154  14.910  1.5008 -0.1599  0.2340
19715TIP3   OH280559   1.590   1.267  14.852  0.0817 -0.9469 -0.2301
19715TIP3    H180560   1.653   1.255  14.923  1.6892 -1.0242 -1.6094
19715TIP3    H280561   1.516   1.311  14.893  2.4152  2.3971  0.8488
19716TIP3   OH280562   2.734   4.869   3.172  0.2418 -0.0033 -0.6969
19716TIP3    H180563   2.691   4.786   3.192  0.1832  0.1120 -0.3499
19716TIP3    H280564   2.822   4.843   3.144  0.5448 -0.1250  0.3442
19717TIP3   OH280565   0.522   4.249   6.037  0.4723 -0.2350  0.3723
19717TIP3    H180566   0.435   4.269   6.001  0.1690 -0.6167  0.8767
19717TIP3    H280567   0.508   4.169   6.089  1.0974 -0.2173  0.5699
19718TIP3   OH280568   3.588   0.883  11.497  0.3843 -0.1267 -0.6119
19718TIP3    H180569   3.599   0.797  11.538 -1.0122 -0.0935 -0.1112
19718TIP3    H280570   3.611   0.869  11.405  0.7971 -0.8827 -0.4035
19719TIP3   OH280571   2.383   5.147  12.929  0.0023 -0.7389 -0.4754
19719TIP3    H180572   2.431   5.230  12.925  0.3880 -0.9906 -1.5748
19719TIP3    H280573   2.294   5.172  12.951  0.0318  0.0206 -1.1519
19720TIP3   OH280574   6.092   5.572  17.045  0.0209  0.1625  0.1370
19720TIP3    H180575   6.127   5.484  17.057  0.0682 -0.0582 -1.4586
19720TIP3    H280576   6.161   5.630  17.078  1.0102 -0.3400 -0.9880
19721TIP3   OH280577   2.771   3.595  17.083  0.1125  0.2020 -0.6790
19721TIP3    H180578   2.798   3.567  16.995  1.0480 -0.3619 -0.2263
19721TIP3    H280579   2.845   3.649  17.114  1.0839 -1.8834  0.8359
19722TIP3   OH280580   6.418   3.763   0.650 -0.2042  0.2940  0.1704
19722TIP3    H180581   6.395   3.795   0.563 -1.7816  0.7424  0.6994
19722TIP3    H280582   6.356   3.692   0.666  0.2549  0.0304  0.8152
19723TIP3   OH280583   1.323   4.912   1.652  0.2776  0.5655 -0.1219
19723TIP3    H180584   1.309   4.842   1.715 -0.6514  1.7653  1.0485
19723TIP3    H280585   1.266   4.890   1.578  0.9851 -0.5745 -0.3597
19724TIP3   OH280586   4.157   5.903  16.599  0.7221  0.7407 -0.0762
19724TIP3    H180587   4.212   5.833  16.565  0.9478 -0.0684  1.8487
19724TIP3    H280588   4.068   5.868  16.596  0.6125  1.0521 -0.7207
19725TIP3   OH280589   2.135   1.583  12.388 -0.4199  0.6991  0.0041
19725TIP3    H180590   2.101   1.500  12.353 -0.2647  0.4791  0.3692
19725TIP3    H280591   2.089   1.595  12.471  0.5658  0.2665  0.6312
19726TIP3   OH280592   3.638   4.362  11.523 -0.2058 -0.4632  0.3067
19726TIP3    H180593   3.619   4.369  11.429 -1.6776  0.2978  0.6342
19726TIP3    H280594   3.584   4.429  11.563 -0.1258 -1.2486  1.7839
19727TIP3   OH280595   0.499   3.538   4.497 -0.2489 -0.0170  0.0488
19727TIP3    H180596   0.532   3.625   4.521  0.4368 -0.4273  0.6320
19727TIP3    H280597   0.435   3.517   4.565 -0.5250  0.0809 -0.1742
19728TIP3   OH280598   2.587   5.897  15.017 -0.0650  0.2722  0.0701
19728TIP3    H180599   2.599   5.945  14.935  2.6739  1.0941  0.8135
19728TIP3    H280600   2.587   5.805  14.992 -0.1397  0.5349 -0.9262
19729TIP3   OH280601   5.673   4.590  12.847  0.3873 -0.1420  0.2423
19729TIP3    H180602   5.583   4.610  12.823  0.2085  0.1033  1.1030
19729TIP3    H280603   5.726   4.650  12.794 -0.0632  1.4591  1.5449
19730TIP3   OH280604   6.750   6.229  13.052 -0.0386 -0.1032  0.3938
19730TIP3    H180605   6.776   6.137  13.041  0.8412  0.2704 -0.9327
19730TIP3    H280606   6.682   6.227  13.119 -0.7145 -1.8394 -0.2798
19731TIP3   OH280607   1.967   5.142  13.363  0.5371  0.2136  0.1186
19731TIP3    H180608   1.885   5.122  13.410  1.1483 -1.9191  0.3964
19731TIP3    H280609   1.948   5.121  13.272  0.2798  1.3813 -0.1084
19732TIP3   OH280610   4.522   0.582  17.258  0.4123  0.0156  0.0088
19732TIP3    H180611   4.456   0.575  17.189 -1.3604  0.0286  1.6105
19732TIP3    H280612   4.533   0.677  17.271 -0.2450  0.0205  0.6021
19733TIP3   OH280613   5.832   5.656  11.247  0.1696  0.9519 -0.2602
19733TIP3    H180614   5.907   5.605  11.217  0.9297 -0.1662  3.0789
19733TIP3    H280615   5.757   5.599  11.233  0.4143  0.7099 -0.5799
19734TIP3   OH280616   3.943   0.417  13.105 -0.0018  0.2864 -0.1986
19734TIP3    H180617   3.914   0.471  13.179  0.8204  1.7012 -0.8646
19734TIP3    H280618   3.874   0.430  13.039  0.2866  0.6868 -0.4255
19735TIP3   OH280619   4.804   5.095  13.336 -0.5854  0.3099  0.2279
19735TIP3    H180620   4.798   5.159  13.406 -0.7173  1.5861 -0.8996
19735TIP3    H280621   4.720   5.049  13.338 -0.5952  0.3508  0.8830
19736TIP3   OH280622   4.349   2.883   4.986 -0.8122  0.0233  0.3849
19736TIP3    H180623   4.323   2.898   5.077  1.3753 -1.2826  1.2977
19736TIP3    H280624   4.319   2.961   4.939 -0.5698  1.4914  2.5182
19737TIP3   OH280625   0.010   3.330  12.480 -0.0417  0.3845 -0.0401
19737TIP3    H180626   0.102   3.304  12.470  0.3055 -0.1652  3.4306
19737TIP3    H280627  -0.038   3.247  12.477  0.1164  0.1432  2.3297
19738TIP3   OH280628   4.574   1.803  16.606  0.3838 -0.2744 -0.4610
19738TIP3    H180629   4.551   1.853  16.527  0.7118 -1.1885 -1.1576
19738TIP3    H280630   4.579   1.712  16.576  1.1001 -0.5669  0.4940
19739TIP3   OH280631   6.397   0.229  11.661 -0.0450 -0.4937  0.3113
19739TIP3    H180632   6.442   0.265  11.737 -0.3644 -0.9084  0.7057
19739TIP3    H280633   6.450   0.153  11.635 -1.4288 -2.0984  1.8946
19740TIP3   OH280634   1.830   6.517   4.195 -0.1577  0.4464  0.4898
19740TIP3    H180635   1.853   6.540   4.105 -0.6222  1.3984  0.6105
19740TIP3    H280636   1.898   6.455   4.221  2.9440  3.7511  1.1225
19741TIP3   OH280637   4.877   4.090  12.798  0.5009  0.0504 -0.0069
19741TIP3    H180638   4.843   4.006  12.766  1.2208  0.1121 -0.9779
19741TIP3    H280639   4.956   4.068  12.846  0.8222  0.1828 -0.4651
19742TIP3   OH280640   1.230   3.144   0.749  0.5681  0.0249  0.0770
19742TIP3    H180641   1.137   3.122   0.757  0.0027  1.1276 -2.3452
19742TIP3    H280642   1.275   3.060   0.757 -0.6724 -0.5852  0.8829
19743TIP3   OH280643   2.621   4.249  12.321  0.6418  0.0268  0.1394
19743TIP3    H180644   2.662   4.328  12.287  3.0242 -1.1016  0.1610
19743TIP3    H280645   2.631   4.255  12.416  0.4674 -0.1036  0.1668
19744TIP3   OH280646   5.081   4.811   4.691  0.6094 -0.9453  0.2616
19744TIP3    H180647   5.034   4.891   4.665 -1.2917 -1.4653  1.8613
19744TIP3    H280648   5.157   4.843   4.739 -0.0896 -0.0699  0.8259
19745TIP3   OH280649   6.405   0.079   5.628 -0.1804  0.4533 -0.3236
19745TIP3    H180650   6.446   0.157   5.664  0.5731 -0.3631  0.6728
19745TIP3    H280651   6.400   0.095   5.534 -0.3419  1.8235 -0.0950
19746TIP3   OH280652   1.216   4.617  13.366 -0.1294 -0.5075 -0.8089
19746TIP3    H180653   1.156   4.655  13.430  0.9388 -1.8442  1.0690
19746TIP3    H280654   1.163   4.553  13.318 -0.8274  0.2054 -1.0084
19747TIP3   OH280655   6.021   2.719   1.712 -0.0059  0.3322 -0.2992
19747TIP3    H180656   5.940   2.676   1.686 -0.5544  0.6529  0.8350
19747TIP3    H280657   5.994   2.806   1.742  0.4764 -0.2921  2.1132
19748TIP3   OH280658   5.025   2.241  15.278 -0.1243  0.0639 -0.4950
19748TIP3    H180659   4.946   2.258  15.226  0.0679  0.5493 -0.6283
19748TIP3    H280660   4.994   2.186  15.350 -0.4645 -0.2976 -0.9069
19749TIP3   OH280661   0.664   1.055   0.854 -0.3167  0.2731  0.3552
19749TIP3    H180662   0.617   1.034   0.935 -0.6968  2.3346  0.7467
19749TIP3    H280663   0.644   1.148   0.839  0.0041  0.0288 -1.9480
19750TIP3   OH280664   4.939   0.207  13.829  0.6001 -0.1954 -0.7796
19750TIP3    H180665   4.877   0.135  13.841  0.1296  0.1201 -1.2481
19750TIP3    H280666   4.931   0.231  13.737  0.9436  0.2807 -0.6910
19751TIP3   OH280667   3.304   1.849   0.934 -0.1157  0.4686 -0.0780
19751TIP3    H180668   3.238   1.799   0.982  1.3782 -1.3779  0.1520
19751TIP3    H280669   3.333   1.917   0.996 -0.7515  0.3808  0.3243
19752TIP3   OH280670   6.313   3.418  13.359 -0.0115  0.1061 -0.3519
19752TIP3    H180671   6.303   3.461  13.274  0.3792  1.0882  0.0805
19752TIP3    H280672   6.297   3.488  13.423  0.0384 -0.5373  0.3766
19753TIP3   OH280673   3.752   1.111  13.340  0.0115  0.0182  0.2854
19753TIP3    H180674   3.670   1.109  13.390  0.1166  1.6961  0.6002
19753TIP3    H280675   3.818   1.139  13.403  0.3927  0.8536 -0.4550
19754TIP3   OH280676   5.588   2.461   3.092 -0.0937 -0.2143  0.1728
19754TIP3    H180677   5.557   2.445   3.182 -0.3647 -1.3796 -0.1058
19754TIP3    H280678   5.625   2.549   3.095  1.0381 -0.6910  1.7373
19755TIP3   OH280679   5.292   5.184   1.978 -0.0265 -0.2628 -0.0397
19755TIP3    H180680   5.315   5.124   2.049 -0.2315 -0.5018 -0.1737
19755TIP3    H280681   5.199   5.205   1.993 -0.0163 -0.1567 -0.1211
19756TIP3   OH280682   6.092   4.231   0.726  0.4361  0.1890 -0.3902
19756TIP3    H180683   6.073   4.173   0.652 -1.0080  0.5994 -0.3710
19756TIP3    H280684   6.180   4.205   0.755 -0.1617 -2.0259 -0.3518
19757TIP3   OH280685   1.014   0.282   1.359 -0.4971 -0.0568 -0.1580
19757TIP3    H180686   0.937   0.225   1.359 -0.3212 -0.3104 -1.0372
19757TIP3    H280687   1.020   0.316   1.269 -0.0109  0.5427  0.0899
19758TIP3   OH280688   0.456   2.920  14.877  0.5927  0.4531  0.6359
19758TIP3    H180689   0.403   2.973  14.936  0.7292 -0.1467  1.3054
19758TIP3    H280690   0.516   2.873  14.934  2.0698  1.3461 -0.1374
19759TIP3   OH280691   4.343   3.991   1.541 -0.7562  0.0041  0.2964
19759TIP3    H180692   4.432   4.027   1.535 -1.2394  0.9992 -1.7108
19759TIP3    H280693   4.352   3.900   1.516 -0.4650  0.4489 -1.3258
19760TIP3   OH280694   3.919   1.059  11.948 -0.2124  0.4679  0.4407
19760TIP3    H180695   3.919   1.028  11.858  1.4210  0.1742  0.5247
19760TIP3    H280696   3.953   1.149  11.943 -0.7100  0.6747  0.7003
19761TIP3   OH280697   4.569   4.730  12.314  0.0517 -0.0480 -0.4259
19761TIP3    H180698   4.554   4.782  12.234 -1.4215  0.4244  0.1388
19761TIP3    H280699   4.583   4.795  12.382  0.4871 -0.4409 -0.1396
19762TIP3   OH280700   4.252   2.704   3.549 -0.5338 -0.3874 -0.0493
19762TIP3    H180701   4.193   2.775   3.522 -0.8546 -0.6265  0.0115
19762TIP3    H280702   4.255   2.712   3.645  0.8872  0.6839 -0.1542
19763TIP3   OH280703   0.408   2.773  15.124 -0.3107 -0.2525  0.1166
19763TIP3    H180704   0.409   2.683  15.155 -2.2002 -0.6030 -0.7672
19763TIP3    H280705   0.331   2.813  15.165  1.1979  1.3876  1.5439
19764TIP3   OH280706   6.630   2.858  13.414  0.1541  0.1014  0.2349
19764TIP3    H180707   6.559   2.801  13.444 -0.0864  0.3206  0.0841
19764TIP3    H280708   6.602   2.946  13.438  1.1026  0.0596  1.6208
19765TIP3   OH280709   1.331   0.413   3.456 -0.1245  0.4437 -0.5024
19765TIP3    H180710   1.295   0.345   3.399  0.6675 -0.9210  0.5703
19765TIP3    H280711   1.422   0.422   3.430 -0.1791  1.0070 -0.5292
19766TIP3   OH280712   5.632   2.151  13.509 -0.5451 -0.0446  0.1835
19766TIP3    H180713   5.606   2.174  13.420 -1.5306 -1.4239  0.0875
19766TIP3    H280714   5.664   2.233  13.547  1.4953  0.2351 -1.9547
19767TIP3   OH280715   0.999   3.265   3.094  0.1921  0.0538 -0.1640
19767TIP3    H180716   1.086   3.304   3.096  0.4621 -0.5521  0.4936
19767TIP3    H280717   0.946   3.322   3.151  0.7599 -0.8888  1.3796
19768TIP3   OH280718   5.600   1.833  11.595 -0.3042 -0.1902  0.1938
19768TIP3    H180719   5.694   1.824  11.575 -0.2379 -1.6560  1.0440
19768TIP3    H280720   5.559   1.845  11.510  0.6176  0.0570 -0.2310
19769TIP3   OH280721   5.479   4.259  11.754 -0.0785 -0.2823  0.3657
19769TIP3    H180722   5.544   4.322  11.784 -0.3854  0.1158  0.2014
19769TIP3    H280723   5.508   4.175  11.791 -0.5090  0.1976  1.8871
19770TIP3   OH280724   1.491   4.234  11.332  0.2175 -0.2603 -0.0371
19770TIP3    H180725   1.570   4.208  11.381  0.3261 -0.7613 -0.4673
19770TIP3    H280726   1.502   4.193  11.246 -1.1609 -1.4931  0.3324
19771TIP3   OH280727   4.114   2.760  11.891 -0.0633 -0.2860  0.0920
19771TIP3    H180728   4.021   2.782  11.894  0.1246  0.6311 -0.3664
19771TIP3    H280729   4.150   2.817  11.822  1.1065  0.4282  1.2529
19772TIP3   OH280730   6.542   1.149  15.412  0.1331  0.0128  0.3489
19772TIP3    H180731   6.582   1.197  15.339  0.4949 -0.6371  0.1144
19772TIP3    H280732   6.448   1.165  15.401  0.2100  0.2259 -0.0402
19773TIP3   OH280733   2.423   2.934   1.170 -0.2532 -0.1653 -0.3923
19773TIP3    H180734   2.371   3.008   1.140 -0.8072 -0.1267  0.6265
19773TIP3    H280735   2.364   2.859   1.166 -0.1870 -0.2493  0.1157
19774TIP3   OH280736   2.036   3.886  14.744  0.1222  0.3519 -0.0569
19774TIP3    H180737   2.097   3.959  14.742  0.1424  0.3641  0.7111
19774TIP3    H280738   2.068   3.829  14.813 -0.0579 -0.2454 -0.4555
19775TIP3   OH280739   0.892   5.360   5.179  0.2888  0.2376 -0.0493
19775TIP3    H180740   0.945   5.382   5.103  0.8385  0.0673  0.2825
19775TIP3    H280741   0.954   5.359   5.252 -0.3802  1.3675  0.5773
19776TIP3   OH280742   3.576   6.185   5.642  0.2985  0.7536  0.1376
19776TIP3    H180743   3.493   6.178   5.689  0.8469  0.6775  1.1373
19776TIP3    H280744   3.624   6.106   5.666  1.2795  1.5361  0.8803
19777TIP3   OH280745   1.166   3.044   6.398 -0.1523 -0.1514  0.2036
19777TIP3    H180746   1.235   2.988   6.364  1.1445  0.9542  0.9510
19777TIP3    H280747   1.208   3.128   6.416 -1.4517  0.2490  1.6433
19778TIP3   OH280748   5.753   1.221  16.488  0.1946  1.0003 -0.2539
19778TIP3    H180749   5.794   1.300  16.525  2.5424 -0.3856  0.3242
19778TIP3    H280750   5.807   1.149  16.519 -0.9535 -0.7383 -2.0235
19779TIP3   OH280751   4.007   0.441  16.787  0.5983 -0.1084 -0.3387
19779TIP3    H180752   3.945   0.389  16.839 -0.6065  1.1097 -0.5011
19779TIP3    H280753   4.085   0.447  16.842 -0.0676 -0.1821  0.6538
19780TIP3   OH280754   2.433   1.803   1.853  0.6138 -0.2116 -0.0742
19780TIP3    H180755   2.489   1.750   1.910  0.8415 -0.4454 -0.5067
19780TIP3    H280756   2.480   1.886   1.843  0.4539 -0.0796  0.2775
19781TIP3   OH280757   1.878   3.597  14.973 -0.2122  0.2583 -0.5619
19781TIP3    H180758   1.820   3.647  14.916  0.1225  2.8071  1.1585
19781TIP3    H280759   1.820   3.551  15.033 -0.5352  0.8893 -0.3736
19782TIP3   OH280760   5.890   3.410   3.254 -0.4246  0.6448  0.2206
19782TIP3    H180761   5.799   3.432   3.276 -1.8842 -2.1242 -2.1945
19782TIP3    H280762   5.922   3.486   3.206 -1.9395  1.1875  0.0171
19783TIP3   OH280763   5.936   1.624  15.126 -0.4070  0.0522 -0.2685
19783TIP3    H180764   5.953   1.645  15.034 -0.8062 -0.0873 -0.3783
19783TIP3    H280765   5.960   1.703  15.174 -1.0168  0.4430 -0.5812
19784TIP3   OH280766   4.939   0.531   3.641 -0.0562 -0.3813 -0.4642
19784TIP3    H180767   4.942   0.605   3.702 -2.0635 -1.6223  1.2777
19784TIP3    H280768   5.007   0.471   3.674 -2.1331 -1.7525  1.7224
19785TIP3   OH280769   6.177   4.638   5.730  0.2541  0.4872 -0.4892
19785TIP3    H180770   6.183   4.575   5.801 -1.5544  0.7865 -0.0200
19785TIP3    H280771   6.092   4.621   5.690  0.3339  1.7063 -1.2410
19786TIP3   OH280772   2.642   6.046  15.553 -0.0089  0.5794 -0.2209
19786TIP3    H180773   2.593   6.012  15.628  0.1026  0.2016 -0.3144
19786TIP3    H280774   2.613   5.993  15.479  0.7090  0.1917 -0.2307
19787TIP3   OH280775   5.424   4.932   2.760  0.0844  0.0922 -0.2455
19787TIP3    H180776   5.430   5.008   2.819 -0.6425 -0.0097 -0.0300
19787TIP3    H280777   5.407   4.970   2.674  0.9582  0.2305 -0.3733
19788TIP3   OH280778   6.590   5.995  17.233 -0.6012  0.0185  0.0367
19788TIP3    H180779   6.548   5.963  17.312  0.4577  0.5068  0.8128
19788TIP3    H280780   6.548   6.079  17.214 -1.7250 -0.6712 -0.6563
19789TIP3   OH280781   1.893   0.419   4.712  0.5622  0.1462  0.1063
19789TIP3    H180782   1.894   0.513   4.729 -0.4826 -0.1828  2.3728
19789TIP3    H280783   1.812   0.388   4.752  2.4263 -2.1846  2.4315
19790TIP3   OH280784   0.275   3.121   0.738 -0.5330 -0.3684  0.7391
19790TIP3    H180785   0.250   3.136   0.829 -1.5612  0.0678  0.4025
19790TIP3    H280786   0.366   3.152   0.732 -1.2702  2.0478  1.0421
19791TIP3   OH280787   3.391   6.062  17.076  0.1646 -0.2649 -0.2403
19791TIP3    H180788   3.410   6.115  17.153 -2.5025  0.9088 -0.2926
19791TIP3    H280789   3.296   6.065  17.067  0.2567 -1.7699 -2.6079
19792TIP3   OH280790   1.722   0.793  13.460 -0.2752 -0.5050 -0.4502
19792TIP3    H180791   1.641   0.826  13.498  0.5180 -0.0494  0.8982
19792TIP3    H280792   1.786   0.864  13.471  0.6391 -1.3183 -0.3394
19793TIP3   OH280793   1.327   2.360   2.390  0.1587  0.0191  0.2176
19793TIP3    H180794   1.304   2.280   2.343  1.4287 -1.2281  1.5953
19793TIP3    H280795   1.422   2.357   2.399 -0.0238 -0.1764  3.3254
19794TIP3   OH280796   0.470   5.902  13.771  0.2195  0.0788  1.0998
19794TIP3    H180797   0.484   5.808  13.782 -0.1494 -0.0993  0.2110
19794TIP3    H280798   0.376   5.910  13.753  0.5638  0.3702 -0.8749
19795TIP3   OH280799   6.457   5.429   5.366 -0.3789 -0.5021 -0.0368
19795TIP3    H180800   6.404   5.351   5.351 -0.6152 -0.0146 -2.0133
19795TIP3    H280801   6.477   5.427   5.459 -0.3968 -2.8946 -0.0276
19796TIP3   OH280802   1.429   6.654   6.233  0.0320 -0.0666 -0.3319
19796TIP3    H180803   1.341   6.665   6.197  0.4484  0.1082 -1.3165
19796TIP3    H280804   1.444   6.560   6.233  0.1396 -0.0538 -0.9111
19797TIP3   OH280805   1.043   2.352   2.568 -0.3138  0.1968  0.2325
19797TIP3    H180806   1.134   2.382   2.557 -1.2188  2.9568 -0.3334
19797TIP3    H280807   1.017   2.323   2.481 -1.0956  2.9550 -0.5218
19798TIP3   OH280808   2.365   1.125   5.136 -0.3970  0.2240  0.2664
19798TIP3    H180809   2.369   1.030   5.124 -2.5001  0.1326 -0.1461
19798TIP3    H280810   2.381   1.161   5.049 -1.6473  0.1210 -0.0356
19799TIP3   OH280811   5.810   2.467  16.528 -0.2023  0.1494 -0.1314
19799TIP3    H180812   5.856   2.551  16.520 -0.8682  0.5332  0.0116
19799TIP3    H280813   5.792   2.440  16.437  2.6181 -1.3388 -0.3761
19800TIP3   OH280814   5.614   5.687   2.585 -0.2187 -0.3201 -0.1849
19800TIP3    H180815   5.595   5.676   2.491 -1.0421 -0.3186 -0.0247
19800TIP3    H280816   5.630   5.598   2.617  0.6016 -0.2723 -0.4259
19801TIP3   OH280817   1.214   6.637   0.439 -0.3213 -0.2616  0.2489
19801TIP3    H180818   1.160   6.628   0.361 -0.2197  1.4710 -0.0490
19801TIP3    H280819   1.298   6.597   0.416 -0.7156 -0.8983 -0.0799
19802TIP3   OH280820   6.713   5.826  17.012  0.2321  0.2617  0.0238
19802TIP3    H180821   6.798   5.865  16.995 -0.1708  1.1266 -0.0274
19802TIP3    H280822   6.670   5.887  17.072 -1.4127  1.2430 -2.0515
19803TIP3   OH280823   3.701   5.615   2.991 -0.4006 -0.3787 -0.9101
19803TIP3    H180824   3.679   5.617   3.085 -0.2417 -0.4548 -0.8713
19803TIP3    H280825   3.768   5.683   2.981  1.0936 -1.7503 -0.5854
19804TIP3   OH280826   6.618   2.523  12.443 -0.0352  0.0583  0.4287
19804TIP3    H180827   6.569   2.457  12.397 -0.2364  0.8056 -0.4534
19804TIP3    H280828   6.590   2.516  12.534  1.0678 -2.0650  0.6585
19805TIP3   OH280829   6.283   3.685  14.053 -0.2395 -0.0553 -0.2204
19805TIP3    H180830   6.302   3.764  14.002 -0.9032  0.2143 -0.0582
19805TIP3    H280831   6.196   3.657  14.022  0.4854 -1.4125 -1.1466
19806TIP3   OH280832   1.163   6.709  16.558  0.0868 -0.2895 -0.2660
19806TIP3    H180833   1.127   6.794  16.581  0.9666 -0.4892  2.0735
19806TIP3    H280834   1.160   6.707  16.462 -1.7311  1.5566 -0.3143
19807TIP3   OH280835   1.955   2.342  11.112  0.1745 -0.3516  0.0853
19807TIP3    H180836   2.011   2.305  11.044  1.7458 -1.4878  1.8909
19807TIP3    H280837   2.012   2.404  11.158 -1.2950  1.5113 -0.4749
19808TIP3   OH280838   2.807   1.964  11.140  0.0570 -0.1474  0.5727
19808TIP3    H180839   2.823   1.926  11.053  0.6343 -0.4310  0.7917
19808TIP3    H280840   2.723   1.927  11.167 -1.5888  2.1838 -1.0457
19809TIP3   OH280841   4.075   4.660  16.916 -0.0528  0.4033 -0.1932
19809TIP3    H180842   3.995   4.646  16.966 -0.4129 -1.7715 -1.2566
19809TIP3    H280843   4.070   4.751  16.887 -1.5427  0.6635  0.7783
19810TIP3   OH280844   6.193   4.263   5.894  0.0151  0.2556 -0.0367
19810TIP3    H180845   6.248   4.340   5.910 -0.8191  1.1011 -1.0672
19810TIP3    H280846   6.181   4.224   5.981  1.3608  0.6447  0.3467
19811TIP3   OH280847   1.608   0.880   3.851 -0.1613  0.2670 -0.4058
19811TIP3    H180848   1.659   0.827   3.789  0.6837  0.3730  0.1788
19811TIP3    H280849   1.610   0.969   3.814 -2.1181 -0.1862 -1.7203
19812TIP3   OH280850   4.346   4.061  16.505 -0.1535  0.1430 -0.2438
19812TIP3    H180851   4.267   4.114  16.491  0.3809  0.3343 -3.0355
19812TIP3    H280852   4.400   4.114  16.563 -2.0681 -0.0673  1.8822
19813TIP3   OH280853   6.410   2.817  14.573 -0.0267 -0.7608  0.5620
19813TIP3    H180854   6.445   2.840  14.659  0.2380 -1.2865  0.5956
19813TIP3    H280855   6.449   2.882  14.514  1.1616 -1.4492  0.5694
19814TIP3   OH280856   0.056   4.692  16.985  0.4166  0.2257 -0.3889
19814TIP3    H180857   0.063   4.596  16.979 -0.1774  0.2724 -2.4026
19814TIP3    H280858   0.125   4.717  17.047  1.1703 -1.4358 -0.4986
19815TIP3   OH280859   0.316   4.076  14.822 -0.0312 -0.0410 -0.2531
19815TIP3    H180860   0.335   4.018  14.749 -1.6868 -0.7482 -0.1715
19815TIP3    H280861   0.305   4.162  14.782  1.6548  0.1137 -0.4717
19816TIP3   OH280862   5.429   4.353   3.836  0.2448 -0.2805  0.1121
19816TIP3    H180863   5.442   4.429   3.892 -0.3601 -0.4658  0.5031
19816TIP3    H280864   5.354   4.376   3.781  1.6682  0.4699 -1.6043
19817TIP3   OH280865   5.329   5.119   0.101  0.3430 -0.2055  0.2263
19817TIP3    H180866   5.405   5.163   0.064 -1.4475  0.3203 -3.1818
19817TIP3    H280867   5.265   5.188   0.114 -1.7665 -1.2607 -3.2501
19818TIP3   OH280868   4.214   1.552  11.340  0.2326 -0.4962  0.7257
19818TIP3    H180869   4.301   1.590  11.326 -0.1654 -0.0915 -0.8278
19818TIP3    H280870   4.160   1.588  11.269 -0.7779 -2.0780  0.6367
19819TIP3   OH280871   2.469   0.477  16.736 -0.5271  0.0392 -0.0717
19819TIP3    H180872   2.376   0.502  16.734 -0.3149  0.8174 -0.3739
19819TIP3    H280873   2.472   0.401  16.794 -1.5215 -0.6736 -0.9201
19820TIP3   OH280874   2.293   5.534  15.705 -0.3830  0.1254  0.5523
19820TIP3    H180875   2.342   5.540  15.623  1.7165 -0.3920  1.6904
19820TIP3    H280876   2.215   5.483  15.683 -1.5424  2.6557 -1.7597
19821TIP3   OH280877   6.051   1.321   2.513  0.4347  0.4115 -0.7340
19821TIP3    H180878   5.966   1.346   2.549  0.4059 -0.1645 -0.3696
19821TIP3    H280879   6.030   1.255   2.447  0.5417  0.9244 -1.2842
19822TIP3   OH280880   5.957   4.205  14.436 -0.2779  0.2925  0.1847
19822TIP3    H180881   5.926   4.292  14.460  1.6826  1.1897 -0.3405
19822TIP3    H280882   5.950   4.154  14.516 -0.1688  1.3279  0.8775
19823TIP3   OH280883   0.417   3.235  11.071  0.1940  0.2156 -0.4171
19823TIP3    H180884   0.457   3.227  11.158  1.1223  0.6041 -0.8105
19823TIP3    H280885   0.477   3.189  11.012  0.4693  1.4709 -1.1359
19824TIP3   OH280886   2.153   3.958   2.733 -0.8809  0.0667 -0.1685
19824TIP3    H180887   2.153   3.923   2.823 -0.8207  0.2004 -0.1154
19824TIP3    H280888   2.206   3.896   2.683 -0.1250  0.4895  0.0888
19825TIP3   OH280889   6.458   3.793   5.634 -0.6928 -0.2088  0.1420
19825TIP3    H180890   6.465   3.820   5.726  1.0925  1.7848 -0.4977
19825TIP3    H280891   6.504   3.709   5.630  0.9239  0.6082  0.7587
19826TIP3   OH280892   6.614   6.745   5.199  0.1040 -0.0309 -0.2376
19826TIP3    H180893   6.635   6.653   5.216 -0.5895 -0.1088  0.2789
19826TIP3    H280894   6.613   6.753   5.104  0.9763 -0.3597 -0.2782
19827TIP3   OH280895   1.567   0.575  15.752 -0.1477 -0.3871 -0.3569
19827TIP3    H180896   1.650   0.530  15.737 -0.5503 -0.8955 -1.1470
19827TIP3    H280897   1.516   0.558  15.673 -0.6848  0.6435 -0.2569
19828TIP3   OH280898   2.076   4.231  13.278 -0.3420  0.4437  0.0430
19828TIP3    H180899   2.092   4.307  13.334 -0.5869 -0.9740  2.1575
19828TIP3    H280900   2.150   4.230  13.217  1.1288  0.8865  1.7212
19829TIP3   OH280901   4.028   3.699  12.363  0.2456 -0.3042 -0.3071
19829TIP3    H180902   3.964   3.651  12.416 -2.5230  1.9883 -1.2929
19829TIP3    H280903   4.113   3.676  12.401 -1.2802 -1.8309  2.5230
19830TIP3   OH280904   5.242   4.709  15.767  0.0494 -0.0588  0.0558
19830TIP3    H180905   5.212   4.692  15.678 -0.5014 -0.5273  0.3269
19830TIP3    H280906   5.204   4.794  15.788  0.6400  0.3150 -0.3507
19831TIP3   OH280907   3.249   4.083   5.952 -0.0339  0.0870  0.5678
19831TIP3    H180908   3.192   4.036   6.012 -0.5034  1.6871  1.4362
19831TIP3    H280909   3.337   4.050   5.971 -0.3678 -0.5835  0.9870
19832TIP3   OH280910   0.907   0.389  13.743  0.0261 -0.0327  0.4065
19832TIP3    H180911   0.949   0.366  13.660  3.7311  2.2511  1.3970
19832TIP3    H280912   0.854   0.466  13.723  0.8443  0.4642  0.1208
19833TIP3   OH280913   2.053   6.135   3.386  0.2596  0.1314  0.0526
19833TIP3    H180914   2.033   6.046   3.415 -0.4967 -0.1447 -1.2204
19833TIP3    H280915   2.079   6.181   3.465  2.2572 -1.6470  0.5177
19834TIP3   OH280916   6.629   4.859  12.336 -0.1659  0.1306  0.1750
19834TIP3    H180917   6.583   4.942  12.343 -1.2677 -0.5058  0.7692
19834TIP3    H280918   6.601   4.823  12.252 -1.6900 -0.7703  1.0298
19835TIP3   OH280919   2.380   0.668   2.115 -0.0072  0.0892 -0.4124
19835TIP3    H180920   2.322   0.626   2.052  1.3594 -1.2665 -0.8407
19835TIP3    H280921   2.430   0.732   2.064  2.1140 -1.9891 -1.1494
19836TIP3   OH280922   4.935   6.719   0.508 -0.5775 -0.5172 -0.2573
19836TIP3    H180923   4.901   6.660   0.576 -1.7968  0.2329 -0.1946
19836TIP3    H280924   4.929   6.668   0.427 -0.2202 -0.9913  0.0018
19837TIP3   OH280925   4.368   5.730   0.226 -0.2999  0.6517  0.0745
19837TIP3    H180926   4.350   5.638   0.206 -0.7217  0.8542 -0.5136
19837TIP3    H280927   4.361   5.775   0.141  1.3649  1.0091  0.1010
19838TIP3   OH280928   6.732   0.735   6.437 -0.0505 -0.1414 -0.6967
19838TIP3    H180929   6.824   0.713   6.421  0.2496 -0.5791  1.3510
19838TIP3    H280930   6.730   0.766   6.527 -2.1089 -1.2822 -0.2804
19839TIP3   OH280931   6.327   1.510  11.514  0.6717  0.2078 -0.0190
19839TIP3    H180932   6.319   1.496  11.609  0.3285  0.6009  0.0078
19839TIP3    H280933   6.318   1.422  11.477 -0.1556  0.1729  0.2480
19840TIP3   OH280934   6.439   5.674   5.961  0.3394  0.6608 -0.2276
19840TIP3    H180935   6.467   5.724   6.038  0.2462  1.7582 -0.8963
19840TIP3    H280936   6.520   5.659   5.911  0.0864  1.9390 -1.0560
19841TIP3   OH280937   4.333   0.874   6.595  0.5076  0.4874  0.1776
19841TIP3    H180938   4.239   0.880   6.607  0.4465  0.5044 -0.3050
19841TIP3    H280939   4.360   0.962   6.571  0.9511  0.9963  2.3453
19842TIP3   OH280940   0.045   3.787   1.222 -0.5126  0.1990 -0.1905
19842TIP3    H180941   0.116   3.837   1.183 -0.5710 -0.2406 -0.8706
19842TIP3    H280942   0.032   3.827   1.308  0.4949  0.3401 -0.0892
19843TIP3   OH280943   4.317   5.042  16.916 -0.1981 -0.5521  0.2236
19843TIP3    H180944   4.285   5.113  16.859 -0.6867 -1.0525 -0.1365
19843TIP3    H280945   4.321   4.965  16.859  0.6424 -0.7503  0.5275
19844TIP3   OH280946   2.493   3.595  15.070  0.2734 -0.4291  0.4086
19844TIP3    H180947   2.463   3.616  15.159  1.1226  4.1174 -0.1351
19844TIP3    H280948   2.428   3.635  15.012  1.7879  0.2903 -0.8824
19845TIP3   OH280949   2.979   6.121   1.520 -0.1750  0.5193 -0.7558
19845TIP3    H180950   2.945   6.169   1.445  0.9455  2.9654  0.1935
19845TIP3    H280951   3.056   6.075   1.486 -0.2861  0.7496 -1.3355
19846TIP3   OH280952   4.494   6.275  13.388  0.0114  0.4414 -0.2794
19846TIP3    H180953   4.440   6.261  13.310 -0.6728  0.0498  0.2577
19846TIP3    H280954   4.477   6.199  13.443  1.5423  0.0225 -0.3291
19847TIP3   OH280955   5.773   2.969  12.881  0.0380 -0.4873  0.0503
19847TIP3    H180956   5.832   2.925  12.819  3.1060 -0.0243  2.3660
19847TIP3    H280957   5.817   3.052  12.901  0.0881 -1.2643  3.8993
19848TIP3   OH280958   1.374   5.525  15.146 -0.0002 -0.1660  0.6542
19848TIP3    H180959   1.367   5.541  15.240 -1.0267 -1.6494  0.8796
19848TIP3    H280960   1.461   5.555  15.122  0.9572 -1.3407  2.4465
19849TIP3   OH280961   5.043   4.893   3.244  0.2262  0.0429  0.1242
19849TIP3    H180962   5.111   4.861   3.185 -0.6675 -0.5355 -0.6302
19849TIP3    H280963   5.090   4.923   3.322  1.3779  0.2280 -0.6246
19850TIP3   OH280964   6.207   2.186  15.971 -0.3970  0.4495 -0.3941
19850TIP3    H180965   6.235   2.265  16.017  1.0206 -0.3130  0.1201
19850TIP3    H280966   6.280   2.166  15.912 -0.1385 -1.1880  0.4267
19851TIP3   OH280967   6.136   4.936   4.223  0.6618  0.1388  0.1672
19851TIP3    H180968   6.135   5.031   4.231  2.0496  0.2793 -0.9836
19851TIP3    H280969   6.117   4.904   4.311 -0.1318  1.4726  0.4972
19852TIP3   OH280970   4.427   6.352   3.963  0.0642 -0.5047  0.3068
19852TIP3    H180971   4.496   6.339   3.898  0.2607 -1.2400  0.6561
19852TIP3    H280972   4.350   6.309   3.925  0.1806 -0.9388  0.5621
19853TIP3   OH280973   0.311   1.897   0.300  0.2531 -0.0087  0.7964
19853TIP3    H180974   0.250   1.957   0.344  0.5996  0.1220  1.1112
19853TIP3    H280975   0.369   1.955   0.251  0.2496 -0.1209  0.6616
19854TIP3   OH280976   2.479   3.133   3.664  0.1849 -0.5840  0.9813
19854TIP3    H180977   2.551   3.072   3.647  2.2262  1.2231  2.5430
19854TIP3    H280978   2.479   3.190   3.587  1.5707  0.4027  1.6725
19855TIP3   OH280979   4.867   2.910   4.097  0.0065 -0.3382  0.4424
19855TIP3    H180980   4.934   2.952   4.044  0.2221 -1.8448 -0.5534
19855TIP3    H280981   4.872   2.817   4.073 -1.8410 -0.6226  0.9861
19856TIP3   OH280982   1.332   5.025   5.323  0.2018  0.2414  0.1817
19856TIP3    H180983   1.258   4.986   5.371 -0.1753 -0.0005 -0.5713
19856TIP3    H280984   1.400   4.958   5.327 -0.3748 -0.4548 -0.9316
19857TIP3   OH280985   2.508   3.394   4.494 -0.3244  0.2378 -0.0074
19857TIP3    H180986   2.449   3.362   4.562  2.2919 -0.5978  2.0552
19857TIP3    H280987   2.546   3.315   4.456 -0.7232  0.7451 -1.5312
19858TIP3   OH280988   5.684   5.055  15.585 -0.4060  0.2572 -0.0762
19858TIP3    H180989   5.595   5.090  15.580 -0.8586 -0.6248  1.2773
19858TIP3    H280990   5.673   4.963  15.608  0.7629 -0.9171 -3.6362
19859TIP3   OH280991   6.712   5.511   0.900  0.3135 -0.2660  0.5122
19859TIP3    H180992   6.654   5.459   0.845  0.3748  0.6410 -0.4582
19859TIP3    H280993   6.788   5.455   0.915  0.3406 -0.5042 -0.4409
19860TIP3   OH280994   0.659   5.225  13.108 -0.7160  0.4304  0.1633
19860TIP3    H180995   0.678   5.233  13.014  2.5013  0.0243  0.6481
19860TIP3    H280996   0.652   5.130  13.123 -0.4418  0.4514  0.4411
19861TIP3   OH280997   2.261   1.962  15.406 -0.0084  0.0473 -0.2417
19861TIP3    H180998   2.191   2.004  15.356  0.8242 -0.8626 -2.2937
19861TIP3    H280999   2.216   1.910  15.472 -1.1063  2.4311  1.0299
19862TIP3   OH281000   5.912   0.611   4.931 -0.0296 -0.2031 -0.1716
19862TIP3    H181001   5.922   0.627   4.837 -0.7832  1.5419  0.0014
19862TIP3    H281002   5.978   0.666   4.972 -0.7248  0.2422  0.3718
19863TIP3   OH281003   2.830   4.444   1.014  0.2095  0.0765 -0.6828
19863TIP3    H181004   2.770   4.370   1.005  1.3026 -1.0387  0.6399
19863TIP3    H281005   2.773   4.519   1.032 -0.8371 -0.7480 -0.4472
19864TIP3   OH281006   6.006   5.885  15.478  1.0250  0.6918 -0.0082
19864TIP3    H181007   5.970   5.928  15.556  0.1654  0.7077 -0.4086
19864TIP3    H281008   6.086   5.933  15.459  1.8605 -0.0022  1.5132
19865TIP3   OH281009   2.638   0.085  13.774  0.6130 -0.6297  0.0750
19865TIP3    H181010   2.633   0.001  13.820 -0.5400  0.2137  1.5924
19865TIP3    H281011   2.730   0.110  13.780  0.6864 -1.0819  0.9477
19866TIP3   OH281012   5.102   4.352  14.245  0.7468  0.4126 -0.2440
19866TIP3    H181013   5.053   4.292  14.189 -0.5092  0.8457  0.3689
19866TIP3    H281014   5.170   4.388  14.188 -0.0434  0.2771 -1.2950
19867TIP3   OH281015   3.514   6.054   3.175  0.0176 -0.2750  0.2458
19867TIP3    H181016   3.447   6.066   3.242 -0.2261 -2.6013  0.4757
19867TIP3    H281017   3.490   6.116   3.106 -1.4374  0.0565  1.0055
19868TIP3   OH281018   4.862   2.083  13.040 -0.6249 -0.2252  0.4384
19868TIP3    H181019   4.925   2.086  13.111 -1.2899  0.0244  1.0261
19868TIP3    H281020   4.910   2.044  12.967  0.2035 -0.0431  0.8749
19869TIP3   OH281021   0.426   6.047  15.096  0.0383  0.1012 -0.1093
19869TIP3    H181022   0.356   6.014  15.040 -0.5575  1.4857 -0.2182
19869TIP3    H281023   0.499   6.062  15.037 -0.9191  2.5670 -0.8067
19870TIP3   OH281024   3.608   4.255  13.746 -0.1449 -0.7002 -0.5816
19870TIP3    H181025   3.592   4.346  13.720 -1.2366  0.3045  2.9950
19870TIP3    H281026   3.697   4.256  13.781 -0.5395 -0.6888  0.4612
19871TIP3   OH281027   1.748   4.289   1.474 -0.1122  0.9877 -1.3402
19871TIP3    H181028   1.769   4.204   1.513 -0.5252  0.9939 -1.0916
19871TIP3    H281029   1.739   4.271   1.381 -1.8336  0.4060 -1.1081
19872TIP3   OH281030   3.801   6.095  12.765 -0.1600  0.4246  0.0601
19872TIP3    H181031   3.789   6.170  12.822  0.4916 -0.1084  0.9148
19872TIP3    H281032   3.752   6.117  12.686 -2.6635  0.3752  1.5129
19873TIP3   OH281033   0.968   2.286  17.356 -0.4183 -0.4254  0.4073
19873TIP3    H181034   0.915   2.340  17.415 -1.3392 -0.2631 -0.5411
19873TIP3    H281035   0.904   2.238  17.304  0.3568 -0.0213 -0.9608
19874TIP3   OH281036   1.621   1.155  13.998  0.2791  0.0216 -0.1914
19874TIP3    H181037   1.534   1.182  13.969  0.3121  0.8140  0.4047
19874TIP3    H281038   1.628   1.063  13.973 -1.3304 -0.4960  1.1343
19875TIP3   OH281039   2.698   4.862   4.506 -0.5132  0.6650 -0.2939
19875TIP3    H181040   2.682   4.773   4.477  0.8942  0.7876 -1.5332
19875TIP3    H281041   2.743   4.853   4.590 -3.0551  0.2988  1.1494
19876TIP3   OH281042   2.319   5.545   0.510 -0.1969 -0.3349 -0.4224
19876TIP3    H181043   2.248   5.540   0.446  0.0834  1.4996 -0.9196
19876TIP3    H281044   2.365   5.461   0.500 -2.2192 -1.5549 -0.1095
19877TIP3   OH281045   4.405   3.090  11.896  0.2182 -0.4701 -0.2116
19877TIP3    H181046   4.424   3.048  11.980  0.8778  0.7125  0.2597
19877TIP3    H281047   4.419   3.183  11.913 -0.2999 -0.1523 -1.4652
19878TIP3   OH281048   2.648   4.006   2.162 -0.0075 -0.1406  0.5506
19878TIP3    H181049   2.663   4.047   2.077  0.8597  0.6475  1.0606
19878TIP3    H281050   2.734   4.008   2.205  0.0351 -2.3224  0.6858
19879TIP3   OH281051   2.348   4.488  12.118 -0.2324  0.0069 -0.2211
19879TIP3    H181052   2.373   4.520  12.031  0.0156 -2.2274 -1.0466
19879TIP3    H281053   2.259   4.523  12.131  0.4514  1.9849 -0.4529
19880TIP3   OH281054   1.758   0.572   2.922 -0.1226  0.2034  0.2875
19880TIP3    H181055   1.741   0.596   2.831 -1.8396 -2.6925 -0.2724
19880TIP3    H281056   1.838   0.519   2.918 -1.3658 -1.7163  0.0873
19881TIP3   OH281057   2.502   6.521  16.007 -0.0601 -0.7336  0.2347
19881TIP3    H181058   2.578   6.513  15.949 -0.6215 -0.9452 -0.4850
19881TIP3    H281059   2.427   6.497  15.953 -0.8276  0.9348  0.4777
19882TIP3   OH281060   1.685   2.052   3.294  0.1859  0.7975 -0.2685
19882TIP3    H181061   1.754   1.993   3.262  0.8497  1.4661 -0.1003
19882TIP3    H281062   1.701   2.134   3.248 -0.3915  1.0198 -0.0828
19883TIP3   OH281063   6.567   3.313  17.361  0.0118  0.5629  0.5702
19883TIP3    H181064   6.546   3.312  17.267 -1.2414  4.2690  0.6227
19883TIP3    H281065   6.658   3.286  17.366 -0.3434 -1.3319 -1.4748
19884TIP3   OH281066   4.545   0.897   5.824 -0.5059  0.4734  0.5415
19884TIP3    H181067   4.475   0.832   5.829  0.7613 -0.8421  2.3302
19884TIP3    H281068   4.625   0.845   5.813  0.9792  1.2926  5.4223
19885TIP3   OH281069   3.616   4.463  16.438  0.6068  0.5871  0.5766
19885TIP3    H181070   3.653   4.390  16.389  0.0137  1.3575 -1.0725
19885TIP3    H281071   3.563   4.421  16.506 -0.3168 -0.5572 -0.7915
19886TIP3   OH281072   4.807   3.808   2.276 -0.2463  0.4109 -0.0741
19886TIP3    H181073   4.847   3.891   2.253  1.0033  0.0631  0.7363
19886TIP3    H281074   4.821   3.752   2.200 -0.1378  0.6176 -0.2054
19887TIP3   OH281075   0.864   3.117  11.394 -0.7764 -0.2406 -0.6458
19887TIP3    H181076   0.910   3.177  11.452 -1.1707 -1.6668  1.2653
19887TIP3    H281077   0.856   3.164  11.311 -0.2413  1.9357  0.4654
19888TIP3   OH281078   0.214   1.009  16.882 -0.4096  0.4407  0.7901
19888TIP3    H181079   0.242   0.991  16.972 -2.3312 -1.1214  1.1496
19888TIP3    H281080   0.119   1.020  16.888 -0.5618  0.4724 -1.0361
19889TIP3   OH281081   4.487   5.214  15.275  0.5764 -0.6217  0.1827
19889TIP3    H181082   4.513   5.204  15.367  0.0764  0.2545  0.4352
19889TIP3    H281083   4.568   5.234  15.229  0.5189  1.4077  0.8563
19890TIP3   OH281084   2.889   3.092  13.532  0.1528  0.4616  0.0995
19890TIP3    H181085   2.968   3.052  13.568  0.1465 -0.4003 -0.7843
19890TIP3    H281086   2.921   3.161  13.474  0.4433 -1.3882 -2.1075
19891TIP3   OH281087   1.911   5.647   3.177  0.0870  0.0106  0.3616
19891TIP3    H181088   1.946   5.736   3.183  1.0952 -0.3377 -0.0782
19891TIP3    H281089   1.986   5.594   3.150 -0.5310 -0.9554  0.5031
19892TIP3   OH281090   6.654   1.331   6.544 -0.3350  0.7799 -0.2076
19892TIP3    H181091   6.581   1.355   6.601  1.3583  4.2755  0.7824
19892TIP3    H281092   6.709   1.275   6.598 -0.4904  1.1329  0.3275
19893TIP3   OH281093   6.131   1.717   1.914  0.1021 -0.3413 -0.0746
19893TIP3    H181094   6.196   1.720   1.984 -0.3098  1.4603  0.2574
19893TIP3    H281095   6.048   1.700   1.958 -0.1567  0.7934 -0.1000
19894TIP3   OH281096   4.205   5.735   4.233  0.0125 -0.1417  0.0592
19894TIP3    H181097   4.289   5.780   4.245 -0.2581  0.8901 -1.5477
19894TIP3    H281098   4.157   5.790   4.172 -1.1304 -1.6481 -0.4677
19895TIP3   OH281099   4.880   0.537   3.982  0.3971 -0.2210  0.1735
19895TIP3    H181100   4.935   0.511   4.055 -0.5083  0.3257  1.0733
19895TIP3    H281101   4.930   0.607   3.939  0.9136 -0.5125  0.2892
19896TIP3   OH281102   4.605   0.854  17.064  0.6401 -0.0867 -0.3289
19896TIP3    H181103   4.660   0.882  16.991  0.3956  1.5952  0.0921
19896TIP3    H281104   4.646   0.893  17.142 -0.8894  0.8726  0.0395
19897TIP3   OH281105   5.224   0.953  13.165 -0.7529 -0.2645 -0.1708
19897TIP3    H181106   5.173   0.886  13.119  1.1002 -2.4427  0.7625
19897TIP3    H281107   5.300   0.967  13.109 -0.6228  0.2912  0.1408
19898TIP3   OH281108   2.474   5.256   6.138 -0.3837 -0.6604 -0.5881
19898TIP3    H181109   2.398   5.203   6.111  0.3525 -1.7494 -0.5678
19898TIP3    H281110   2.494   5.225   6.226 -0.1482 -0.1001 -0.4432
19899TIP3   OH281111   2.251   3.636   5.780  0.0864  0.3413  0.4006
19899TIP3    H181112   2.253   3.651   5.685  2.0468  1.7257  0.6326
19899TIP3    H281113   2.338   3.603   5.801 -0.7859 -1.3842  1.5531
19900TIP3   OH281114   1.625   0.419   3.392  0.8979  0.0073 -0.7192
19900TIP3    H181115   1.656   0.506   3.420  2.0433 -0.2641 -1.0718
19900TIP3    H281116   1.637   0.419   3.297  0.9907 -0.5692 -0.7099
19901TIP3   OH281117   4.444   1.551  13.942  0.1199  0.2272 -0.0994
19901TIP3    H181118   4.480   1.585  14.025  0.4907  1.7468 -0.8455
19901TIP3    H281119   4.352   1.533  13.962  0.0397  1.2099  0.4847
19902TIP3   OH281120   5.891   1.194  16.026 -0.7001 -0.3054  0.3677
19902TIP3    H181121   5.842   1.231  15.953 -0.6725  0.7627  0.8756
19902TIP3    H281122   5.896   1.100  16.006  0.7720  0.1676 -1.8544
19903TIP3   OH281123   5.562   2.367   5.771 -0.7364 -0.5981 -0.1942
19903TIP3    H181124   5.515   2.308   5.831 -0.2720 -1.3728 -0.5724
19903TIP3    H281125   5.547   2.330   5.684  1.6470 -1.7133 -0.2295
19904TIP3   OH281126   0.159   0.148  14.970 -0.2285  0.6174 -0.0881
19904TIP3    H181127   0.184   0.174  14.882  2.1814  3.3977  1.2404
19904TIP3    H281128   0.064   0.160  14.972 -0.4059  0.0458 -2.3733
19905TIP3   OH281129   0.299   5.602  15.754 -0.5456 -0.1573  0.2371
19905TIP3    H181130   0.305   5.672  15.689 -0.4828 -0.5384 -0.1668
19905TIP3    H281131   0.361   5.628  15.822  0.3849 -0.4368 -0.4949
19906TIP3   OH281132   0.487   6.636   4.648  0.2900  0.7171  0.2214
19906TIP3    H181133   0.475   6.730   4.663  1.1240  0.7070  1.0536
19906TIP3    H281134   0.522   6.631   4.559 -0.2596  1.1499 -0.0243
19907TIP3   OH281135   6.414   4.962   5.013  0.2470  0.1001 -0.2169
19907TIP3    H181136   6.400   4.868   5.022  0.2257  0.0957 -0.3001
19907TIP3    H281137   6.495   4.979   5.061  2.3425 -0.5692 -3.2669
19908TIP3   OH281138   1.441   3.190   1.623 -0.1340  0.6278 -0.6376
19908TIP3    H181139   1.513   3.142   1.579  0.9058  0.4428  1.1639
19908TIP3    H281140   1.368   3.128   1.622 -0.3012  0.7900 -2.4484
19909TIP3   OH281141   5.989   1.174  11.753 -0.1121 -0.9784 -0.1465
19909TIP3    H181142   5.943   1.251  11.788  4.4076  1.4573  1.2447
19909TIP3    H281143   6.018   1.201  11.667 -0.8984 -2.3489 -0.8783
19910TIP3   OH281144   3.236   3.092   2.560 -0.4479  0.4550  0.2820
19910TIP3    H181145   3.192   3.129   2.636 -2.2187 -2.5611  0.8712
19910TIP3    H281146   3.291   3.022   2.595  0.0241  0.1079 -1.0625
19911TIP3   OH281147   0.053   4.589  13.645 -0.1191  0.9927  0.1176
19911TIP3    H181148  -0.042   4.606  13.646 -0.7475 -1.8818  2.1815
19911TIP3    H281149   0.062   4.504  13.687  3.3294  0.5339 -1.2748
19912TIP3   OH281150   1.789   3.372  13.486  0.0914  0.8173  0.4075
19912TIP3    H181151   1.873   3.411  13.463  1.3800 -1.9212  0.1254
19912TIP3    H281152   1.811   3.285  13.520 -2.5538  0.4802  1.5108
19913TIP3   OH281153   5.364   5.841   2.001  0.1660  0.0809 -0.2075
19913TIP3    H181154   5.380   5.928   1.964 -1.0143  0.5057  0.2055
19913TIP3    H281155   5.334   5.858   2.090  2.6356 -0.9085  0.8830
19914TIP3   OH281156   2.197   0.992  13.245 -0.1041 -0.1831 -0.7226
19914TIP3    H181157   2.265   1.048  13.282 -0.5251  1.3081 -2.1424
19914TIP3    H281158   2.244   0.926  13.195  0.3383 -0.2221 -0.2610
19915TIP3   OH281159   5.835   4.271  16.835  0.3066 -0.5494  0.5292
19915TIP3    H181160   5.817   4.215  16.910  0.4377 -0.3103  0.7402
19915TIP3    H281161   5.857   4.356  16.873 -1.9052  0.2418  0.1637
19916TIP3   OH281162   3.260   0.785   3.649  0.1369 -0.4374  0.4335
19916TIP3    H181163   3.343   0.821   3.681 -0.4321  0.4874  0.9226
19916TIP3    H281164   3.208   0.862   3.627 -0.8996 -0.9787  0.9375
19917TIP3   OH281165   6.048   0.705   3.282 -0.4355 -0.2106 -0.0304
19917TIP3    H181166   6.115   0.749   3.229  0.2690 -1.2611 -0.0315
19917TIP3    H281167   5.986   0.670   3.218  1.5560 -3.3931 -0.4236
19918TIP3   OH281168   3.564   3.377   2.557  0.0991 -0.3387  0.2285
19918TIP3    H181169   3.558   3.441   2.629  0.7965 -0.1757  0.1499
19918TIP3    H281170   3.601   3.299   2.598 -0.9969 -0.7996  0.3810
19919TIP3   OH281171   1.022   2.929   5.180  0.7219 -0.0295  0.2201
19919TIP3    H181172   1.083   2.894   5.116  0.8690  0.1053  0.2876
19919TIP3    H281173   0.958   2.977   5.129  1.3605  0.8649  0.2450
19920TIP3   OH281174   2.708   0.928  11.250 -0.7713 -0.0587 -0.0638
19920TIP3    H181175   2.759   0.961  11.175  0.5939 -1.2587  0.2845
19920TIP3    H281176   2.663   0.851  11.216 -1.3772  0.2886 -0.0467
19921TIP3   OH281177   3.125   5.502  16.947  0.4973 -0.1033 -0.4589
19921TIP3    H181178   3.174   5.542  16.876  0.7937  1.1214  0.4004
19921TIP3    H281179   3.192   5.476  17.011  0.2535 -1.3762 -0.7075
19922TIP3   OH281180   2.154   0.670   0.042  0.7315  0.5515 -0.3110
19922TIP3    H181181   2.178   0.759   0.070  2.9072  0.7390 -2.4459
19922TIP3    H281182   2.140   0.678  -0.052  0.2860 -1.2553 -0.4213
19923TIP3   OH281183   1.388   3.353  13.414  0.1473 -0.3433  0.6803
19923TIP3    H181184   1.385   3.378  13.506 -0.9761  0.8158  0.3510
19923TIP3    H281185   1.453   3.412  13.375 -1.9198  1.6903  0.0680
19924TIP3   OH281186   4.278   5.969  11.041 -0.6599 -0.4890 -0.1353
19924TIP3    H181187   4.214   6.004  11.103 -1.6110  0.9777 -1.8496
19924TIP3    H281188   4.340   6.040  11.028  1.0149 -1.6746  1.0109
19925TIP3   OH281189   5.510   3.354   0.506  0.8445  0.2056  0.0846
19925TIP3    H181190   5.589   3.381   0.552  1.2225 -0.8752  0.1180
19925TIP3    H281191   5.532   3.269   0.468 -0.4613 -0.3713  0.5329
19926TIP3   OH281192   2.850   0.307  12.391 -0.1318  0.3302 -0.9744
19926TIP3    H181193   2.854   0.243  12.321 -1.5315  1.0861 -1.7816
19926TIP3    H281194   2.764   0.295  12.430  0.4087  0.3091  0.2588
19927TIP3   OH281195   0.036   4.769  12.695  0.4595  0.7187  0.5710
19927TIP3    H181196   0.057   4.784  12.603 -1.0158  3.3200  0.5627
19927TIP3    H281197   0.000   4.681  12.698  1.5024  0.1899 -1.1411
19928TIP3   OH281198   4.566   0.317  12.584 -0.2335  0.0960  0.3718
19928TIP3    H181199   4.622   0.341  12.658 -0.7987  0.1942  0.7705
19928TIP3    H281200   4.489   0.374  12.592 -1.2360 -1.2873  0.8832
19929TIP3   OH281201   1.390   0.795  15.647 -0.1606 -0.1550 -0.3271
19929TIP3    H181202   1.439   0.741  15.586  0.6708 -3.3669  2.8297
19929TIP3    H281203   1.439   0.877  15.652  0.6660 -0.4460 -2.5830
19930TIP3   OH281204   3.478   4.486   6.612 -0.7646  0.1249  0.2938
19930TIP3    H181205   3.411   4.418   6.621 -0.4360 -0.3778 -0.8826
19930TIP3    H281206   3.440   4.548   6.550 -0.6209  0.4638  0.5404
19931TIP3   OH281207   5.591   3.265   2.134 -0.2087 -0.2337 -0.0798
19931TIP3    H181208   5.681   3.240   2.157  0.2517  1.3857  0.0279
19931TIP3    H281209   5.600   3.314   2.053 -0.9082  0.4900  0.2712
19932TIP3   OH281210   0.723   0.717   1.611 -0.4411 -0.0949  0.1769
19932TIP3    H181211   0.771   0.745   1.534  1.5645 -1.3213  0.8924
19932TIP3    H281212   0.631   0.729   1.588  0.0737 -0.4885 -2.4184
19933TIP3   OH281213   5.274   0.192  15.904 -0.0133 -0.1096  0.1946
19933TIP3    H181214   5.252   0.221  15.992  0.1576  2.0495 -0.3973
19933TIP3    H281215   5.239   0.260  15.847  0.6080 -1.0169 -1.3490
19934TIP3   OH281216   3.104   5.328  12.099  0.1100  0.4759  0.3242
19934TIP3    H181217   3.184   5.367  12.062  0.8384 -1.0429  0.2041
19934TIP3    H281218   3.122   5.321  12.192  0.1675  0.0695  0.2869
19935TIP3   OH281219   6.015   1.820  16.811  0.5096 -0.2842  0.2122
19935TIP3    H181220   6.107   1.817  16.787  0.6793  0.2453  0.7722
19935TIP3    H281221   5.978   1.890  16.757  1.0512  1.4168  1.9558
19936TIP3   OH281222   1.350   0.523  13.415 -0.4258  0.1484  0.2062
19936TIP3    H181223   1.263   0.560  13.425 -1.0877 -1.0094 -1.0200
19936TIP3    H281224   1.336   0.429  13.404  1.0616 -0.2335  1.1675
19937TIP3   OH281225   6.476   3.113   5.779  0.1713  0.3157 -0.1601
19937TIP3    H181226   6.481   3.131   5.873 -1.5667  0.0659  0.0157
19937TIP3    H281227   6.486   3.018   5.774  1.3664  0.4342 -0.3550
19938TIP3   OH281228   1.033   4.715   4.137  0.5474 -0.7154  0.8300
19938TIP3    H181229   0.941   4.690   4.130  0.5970 -0.6444 -0.3405
19938TIP3    H281230   1.058   4.740   4.047  1.7384 -0.8736  1.0996
19939TIP3   OH281231   3.414   0.664  12.831 -0.7157 -0.1110 -0.4842
19939TIP3    H181232   3.439   0.647  12.740 -0.5218  0.2674 -0.5068
19939TIP3    H281233   3.320   0.648  12.833 -0.6333 -0.6368 -0.6233
19940TIP3   OH281234   3.995   0.821  15.471  0.8128 -0.0727  0.3012
19940TIP3    H181235   3.959   0.909  15.485  0.2228 -0.6872  3.2865
19940TIP3    H281236   4.067   0.834  15.409 -0.3731  2.2068 -0.7261
19941TIP3   OH281237   6.646   4.665  11.417 -0.6129 -0.0436  0.5580
19941TIP3    H181238   6.691   4.607  11.478  2.5111  1.6004  0.0008
19941TIP3    H281239   6.625   4.609  11.342  2.3733 -0.5873  0.0029
19942TIP3   OH281240   4.581   2.961  14.065 -0.6595  0.2223 -0.2664
19942TIP3    H181241   4.565   2.905  13.989 -0.1876 -0.3348  0.0259
19942TIP3    H281242   4.633   2.906  14.124 -0.1607  0.9873  0.0230
19943TIP3   OH281243   1.371   1.542   1.868 -0.6208 -0.0993 -0.0584
19943TIP3    H181244   1.302   1.487   1.831 -0.7218 -0.4639  0.6555
19943TIP3    H281245   1.327   1.625   1.887 -0.7709 -0.2024  0.0421
19944TIP3   OH281246   1.360   6.244   4.724  0.2847  0.2818  0.3419
19944TIP3    H181247   1.281   6.270   4.771 -0.5856  0.3288 -1.1229
19944TIP3    H281248   1.420   6.215   4.793 -0.6899  1.0348  1.5419
19945TIP3   OH281249   1.789   6.120   0.661 -0.3499  0.0507  0.2457
19945TIP3    H181250   1.828   6.139   0.576 -0.0310 -3.8195 -0.6654
19945TIP3    H281251   1.862   6.085   0.713 -1.2198 -0.7472  0.9531
19946TIP3   OH281252   1.994   2.719  10.486 -0.0800 -0.1037 -1.1577
19946TIP3    H181253   2.055   2.791  10.475  2.9058 -2.2382  0.0817
19946TIP3    H281254   1.957   2.706  10.398  1.9444  0.7533 -2.2132
19947TIP3   OH281255   1.255   6.340  13.148 -0.4397 -0.2502 -0.0250
19947TIP3    H181256   1.297   6.422  13.173  0.1219 -0.8752  1.1801
19947TIP3    H281257   1.306   6.307  13.075  0.4388 -0.3966  0.6441
19948TIP3   OH281258   1.354   3.313   2.161  0.0776  0.0317  0.0052
19948TIP3    H181259   1.314   3.283   2.079  3.0443  2.3274 -2.5515
19948TIP3    H281260   1.396   3.235   2.197 -0.1078 -0.7552 -1.4258
19949TIP3   OH281261   5.813   3.038  12.285  0.5256  0.0901  0.3282
19949TIP3    H181262   5.841   3.116  12.237 -1.8113  0.2858 -0.8793
19949TIP3    H281263   5.839   2.965  12.229 -1.8905  0.3047 -1.2458
19950TIP3   OH281264   6.504   2.097  11.901 -0.1874 -0.0866  0.4957
19950TIP3    H181265   6.578   2.108  11.842 -2.3147  1.3895 -2.1489
19950TIP3    H281266   6.486   2.003  11.901  0.4055 -0.2119 -0.5113
19951TIP3   OH281267   3.873   4.405  16.236 -0.6534 -0.7404  0.3523
19951TIP3    H181268   3.867   4.311  16.224  0.9010 -0.7180 -1.0939
19951TIP3    H281269   3.919   4.416  16.319 -0.0319 -1.3075  0.0956
19952TIP3   OH281270   0.301   0.981  14.652 -0.2234 -0.2054  0.2906
19952TIP3    H181271   0.282   0.917  14.720  0.9688  0.2055  1.0376
19952TIP3    H281272   0.394   1.000  14.661  0.3778 -1.2785 -2.4554
19953TIP3   OH281273   6.253   5.231   1.631 -0.2560 -0.3460 -0.2100
19953TIP3    H181274   6.260   5.266   1.542  1.5561  0.6707  0.2771
19953TIP3    H281275   6.330   5.175   1.640  0.2120  0.4597  1.0711
19954TIP3   OH281276   2.069   4.423   3.146  0.0915 -0.5358 -0.3803
19954TIP3    H181277   2.035   4.425   3.056  0.7236  0.0291 -0.6148
19954TIP3    H281278   2.132   4.495   3.149  2.3892 -2.4210 -0.4210
19955TIP3   OH281279   5.787   5.795   3.146  0.3756  0.4745 -0.4862
19955TIP3    H181280   5.814   5.818   3.057  2.1832 -1.3524 -0.4937
19955TIP3    H281281   5.809   5.702   3.154 -1.0470  0.2580  1.4198
19956TIP3   OH281282   1.659   6.542  12.062 -0.0880 -0.1815 -0.4246
19956TIP3    H181283   1.742   6.511  12.026 -0.1414 -0.9373  0.0744
19956TIP3    H281284   1.683   6.587  12.143 -0.2171 -0.9950  0.0729
19957TIP3   OH281285   0.325   0.825  16.390  0.5238 -0.1166 -0.0582
19957TIP3    H181286   0.308   0.854  16.480  2.6506 -0.4460  0.4933
19957TIP3    H281287   0.248   0.772  16.368 -0.4224  0.6242  1.2479
19958TIP3   OH281288   6.029   4.707  17.210  0.2054 -0.0813 -0.1937
19958TIP3    H181289   6.095   4.667  17.266 -0.7148 -0.8078  0.4136
19958TIP3    H281290   5.947   4.693  17.258 -0.5022 -0.0509 -1.3738
19959TIP3   OH281291   4.391   3.181  13.855 -0.3701  0.1331 -0.2258
19959TIP3    H181292   4.478   3.178  13.815  0.5561 -2.5503  1.6376
19959TIP3    H281293   4.346   3.105  13.817 -2.1827  1.8079 -1.5850
19960TIP3   OH281294   3.318   2.157  13.203 -0.3731  0.4080 -0.9276
19960TIP3    H181295   3.413   2.156  13.197 -0.2659 -0.3962  0.4570
19960TIP3    H281296   3.298   2.243  13.241 -0.0348 -0.1483  0.5762
19961TIP3   OH281297   4.065   5.021   2.667 -0.2869  0.2636 -0.3313
19961TIP3    H181298   4.085   5.110   2.698  0.1213  0.0206  0.1191
19961TIP3    H281299   4.109   5.014   2.583 -0.9398  0.7423 -0.7241
19962TIP3   OH281300   3.898   1.999  12.341  0.1095  0.6312 -0.1882
19962TIP3    H181301   3.932   1.919  12.300 -2.1124 -0.7116  0.4285
19962TIP3    H281302   3.968   2.025  12.402  1.0513 -0.6053 -0.6839
19963TIP3   OH281303   0.907   5.205  16.109  0.0075  0.4825  0.5231
19963TIP3    H181304   0.976   5.154  16.151 -0.0937  0.3261  0.5014
19963TIP3    H281305   0.954   5.268  16.055  0.1360  0.7133  0.9052
19964TIP3   OH281306   1.820   0.702   4.017 -0.3435 -0.0356 -0.1967
19964TIP3    H181307   1.853   0.705   3.927 -1.7470 -0.0460 -0.7470
19964TIP3    H281308   1.756   0.631   4.016  1.4095 -1.7761  1.4908
19965TIP3   OH281309   1.370   6.093  13.269  0.0481 -0.5923 -0.7291
19965TIP3    H181310   1.408   6.047  13.345  1.1296 -1.0358 -1.5046
19965TIP3    H281311   1.422   6.173  13.262 -0.3226 -0.3551 -0.7571
19966TIP3   OH281312   1.306   0.236  13.338  0.3750  0.0406 -0.1678
19966TIP3    H181313   1.248   0.177  13.387 -0.0742  0.2693 -0.4111
19966TIP3    H281314   1.253   0.265  13.264  0.5995  0.7185 -0.0738
19967TIP3   OH281315   0.293   0.905  15.903 -0.3819 -0.6527 -0.1844
19967TIP3    H181316   0.271   0.977  15.962  0.1873  1.0705 -1.9459
19967TIP3    H281317   0.371   0.936  15.857  0.6296 -2.9534 -0.1432
19968TIP3   OH281318   2.692   1.863  16.520  0.0021 -0.0269  0.2456
19968TIP3    H181319   2.666   1.786  16.469  1.1710 -0.1292 -0.2374
19968TIP3    H281320   2.718   1.828  16.605  0.1039 -0.1062  0.1811
19969TIP3   OH281321   0.095   6.370  17.291 -0.2807 -0.1655  0.2173
19969TIP3    H181322   0.097   6.274  17.290 -0.9451 -0.2342 -2.2494
19969TIP3    H281323   0.168   6.396  17.236 -0.5711  0.7263  0.2421
19970TIP3   OH281324   1.362   6.662   5.128  0.3933  0.5107 -0.1166
19970TIP3    H181325   1.370   6.570   5.154 -0.6091  1.0367  2.3232
19970TIP3    H281326   1.269   6.681   5.136  0.3419  1.3776 -2.1576
19971TIP3   OH281327   5.302   5.005   6.800 -0.3776  0.2005  0.1693
19971TIP3    H181328   5.244   4.967   6.867 -0.3598  1.5138  0.9602
19971TIP3    H281329   5.386   4.961   6.815 -0.6649 -0.3414  0.2478
19972TIP3   OH281330   1.237   0.968   2.998 -0.5324  0.2364  0.4369
19972TIP3    H181331   1.225   1.059   2.972  0.4677  0.5485  0.9852
19972TIP3    H281332   1.154   0.943   3.037 -0.7660  0.9729  0.4310
19973TIP3   OH281333   5.895   4.212   1.471  0.5601  0.4414 -0.3629
19973TIP3    H181334   5.806   4.239   1.447  0.8334  1.8029  0.0869
19973TIP3    H281335   5.893   4.116   1.463 -0.5355  0.5444 -1.6995
19974TIP3   OH281336   2.521   3.572  15.538 -0.1400  0.6999  0.1324
19974TIP3    H181337   2.527   3.501  15.474  1.7330  0.7555  0.2079
19974TIP3    H281338   2.453   3.629  15.502 -1.8227 -1.1818  0.1725
19975TIP3   OH281339   2.687   4.656  14.044 -0.7569  0.7123  0.1118
19975TIP3    H181340   2.737   4.577  14.027 -2.8210 -0.6956  0.1865
19975TIP3    H281341   2.698   4.673  14.137 -0.6260  0.2740  0.1781
19976TIP3   OH281342   2.301   4.330  11.478  0.4614  0.2145  0.3962
19976TIP3    H181343   2.374   4.348  11.538 -1.2467 -0.4105  2.8452
19976TIP3    H281344   2.262   4.415  11.461 -0.4208  0.2123  2.1648
19977TIP3   OH281345   6.286   3.215  11.500  0.2175  0.2626  0.5127
19977TIP3    H181346   6.268   3.278  11.430  2.9923 -0.4537 -1.0259
19977TIP3    H281347   6.250   3.133  11.467  0.4199  0.1813  0.4933
19978LIG     O181348   2.133   2.540  17.381  0.0953  0.2036 -0.3646
19978LIG     O281349   2.190   2.754  17.311 -0.3927  0.4203  0.5472
19978LIG     O381350   2.339   2.622  17.177 -0.0663  0.0136 -0.3217
19978LIG     O481351   1.984   2.725  17.607 -0.5503 -0.8321 -0.1279
19978LIG     O581352   2.216   2.597  17.721  0.2533  0.1064 -0.5960
19978LIG     O681353   2.103   2.883  17.046  0.4465 -0.1735 -0.2608
19978LIG     O781354   2.309   2.979  17.230 -0.3516  0.1568  0.0640
19978LIG     O881355   2.581   2.909  17.162  0.2248  0.0650  1.0570
19978LIG     O981356   1.921   2.823  17.269 -0.3767  0.2641  0.1807
19978LIG    O1081357   2.400   2.416  17.457  0.1172 -0.0460 -0.9222
19978LIG    O1181358   2.695   2.679  17.261 -0.1061  0.3844 -0.0688
19978LIG     C181359   2.092   2.676  17.381 -0.6458  0.0362  0.5392
19978LIG     C281360   2.109   2.722  17.528 -0.0122  0.1675  0.4510
19978LIG     C381361   2.211   2.615  17.578 -0.0441  0.0801  0.1988
19978LIG     C481362   2.173   2.489  17.511 -0.5509 -0.0609 -0.2812
19978LIG     C581363   2.221   2.706  17.176  0.1772  0.2400  0.5975
19978LIG     C681364   2.229   2.819  17.068  0.3939 -0.1109  0.0268
19978LIG     C781365   2.337   2.906  17.114  0.3613  0.3281 -0.0293
19978LIG     C881366   2.468   2.825  17.123  0.2331 -0.3168 -0.3357
19978LIG     C981367   2.451   2.703  17.213  0.2056 -0.0615  0.1350
19978LIG    C1081368   1.952   2.693  17.324 -0.1583  0.2509 -0.4485
19978LIG    C1181369   2.276   2.374  17.517  0.0510  0.0505  0.7309
19978LIG    C1281370   2.577   2.617  17.212 -0.5309  0.0252  0.5741
19978LIG     H181371   2.155   2.821  17.538 -0.9347  0.8802 -1.8086
19978LIG     H281372   2.307   2.658  17.546  0.8232 -1.1432  1.0255
19978LIG     H381373   2.077   2.446  17.544 -0.6729 -0.0787 -0.6573
19978LIG     H481374   2.140   2.637  17.144 -0.5469  1.0385  0.6847
19978LIG     H581375   2.260   2.772  16.972  2.7244 -0.8214  1.0404
19978LIG     H681376   2.345   2.984  17.036 -3.0582  0.4513 -0.4084
19978LIG     H781377   2.490   2.797  17.017 -1.1030  1.8470 -1.2554
19978LIG     H881378   2.434   2.748  17.313  0.7857  0.4501  0.0098
19978LIG     H981379   1.933   2.622  17.241  1.1322  0.1866 -0.7036
19978LIG    H1081380   1.881   2.669  17.406  0.8320  0.4713  0.4868
19978LIG    H1181381   2.292   2.342  17.622  0.9502 -2.5831 -0.1275
19978LIG    H1281382   2.229   2.282  17.476 -2.4335  0.5459  2.2511
19978LIG    H1381383   2.557   2.533  17.282 -0.7012  0.2717  0.8225
19978LIG    H1481384   2.601   2.573  17.113  1.1852  1.3468  0.3506
19978LIG    H1581385   1.983   2.809  17.652  1.6217 -0.1204 -1.2468
19978LIG    H1681386   2.224   2.686  17.754  0.6852 -0.1119 -0.0987
19978LIG    H1781387   2.131   2.954  16.988  0.5962  0.3417  0.4355
19978LIG    H1881388   2.254   3.050  17.197  1.5011  0.7560 -1.9773
19978LIG    H1981389   2.655   2.853  17.186 -0.5389 -0.9710  1.0808
19978LIG    H2081390   1.944   2.828  17.176 -0.1745 -0.0648  0.2111
19978LIG    H2181391   2.378   2.454  17.372  0.6734  0.1097 -1.0053
19978LIG    H2281392   2.736   2.613  17.319 -0.4363  2.8189  3.2021
   6.75522   6.75522  17.38623
