Title
42775
    1SAPS     N    1   4.977   4.693   7.827 -0.3907 -0.1967 -0.4341
    1SAPS   HN1    2   4.884   4.739   7.821  0.3410  1.5543  0.7971
    1SAPS   HN2    3   5.003   4.682   7.927  1.0787 -0.9950 -0.8717
    1SAPS   HN3    4   5.038   4.769   7.791  2.5509 -1.5417  1.3045
    1SAPS   C12    5   5.017   4.574   7.748 -0.1321 -0.1198 -0.9829
    1SAPS  H12A    6   5.120   4.553   7.772 -0.2852  1.7486  1.7039
    1SAPS   C13    7   4.936   4.441   7.774 -0.8858 -0.5520  0.3767
    1SAPS  O13A    8   4.820   4.446   7.821  0.0096  0.2218  0.4149
    1SAPS  O13B    9   4.979   4.343   7.705  0.1579  0.4875  0.1170
    1SAPS   C11   10   5.036   4.608   7.599  0.1425 -0.1771 -0.2185
    1SAPS  H11A   11   4.936   4.634   7.559 -0.1944  2.8588  2.2550
    1SAPS  H11B   12   5.072   4.516   7.548  2.8076  0.4023  0.4262
    1SAPS     P   13   5.272   4.713   7.539 -0.2152  0.1173  0.3773
    1SAPS   O13   14   5.331   4.848   7.569 -0.2475 -0.0838  0.5139
    1SAPS   O14   15   5.339   4.592   7.599  0.0006  0.2594  0.1668
    1SAPS   O12   16   5.122   4.718   7.590  0.0112  0.0855  0.1975
    1SAPS   O11   17   5.251   4.697   7.387 -0.4853 -0.3705  0.8996
    1SAPS    C1   18   5.194   4.797   7.308  0.2091  0.1001 -0.5011
    1SAPS    HA   19   5.203   4.897   7.356  1.9674  0.5182 -1.5887
    1SAPS    HB   20   5.262   4.800   7.220  0.2680  1.2555 -0.4428
    1SAPS    C2   21   5.049   4.755   7.268 -0.4654 -0.7604  0.2737
    1SAPS    HS   22   4.979   4.753   7.354 -0.3864  1.3946  0.4473
    1SAPS   O21   23   5.056   4.623   7.216  0.4335  0.0546 -0.6326
    1SAPS   C21   24   4.945   4.553   7.199  0.7836 -1.0780  0.2290
    1SAPS   O22   25   4.832   4.598   7.222  0.2506 -0.1656  0.6625
    1SAPS   C22   26   4.968   4.424   7.140  0.7146 -0.5145 -1.0706
    1SAPS   H2R   27   5.076   4.420   7.114  0.8303 -2.8095 -0.4982
    1SAPS   H2S   28   4.945   4.339   7.208  1.8213  0.9762  1.2845
    1SAPS    C3   29   4.983   4.849   7.162 -0.5916  0.3964  0.0735
    1SAPS    HX   30   4.957   4.944   7.212  0.0697  1.4390 -1.4670
    1SAPS    HY   31   4.889   4.797   7.134 -0.3473 -0.0849  0.1290
    1SAPS   O31   32   5.082   4.892   7.056 -0.1624 -0.0041 -0.9364
    1SAPS   C31   33   5.068   4.824   6.943 -0.3782  0.1862 -0.3406
    1SAPS   O32   34   4.995   4.731   6.918  0.0780 -0.0828  0.1795
    1SAPS   C32   35   5.161   4.873   6.828 -0.3567  0.3130 -0.1410
    1SAPS   H2X   36   5.191   4.779   6.776  0.4993 -0.8605  2.3029
    1SAPS   H2Y   37   5.249   4.922   6.875 -1.7442  2.4928  0.2948
    1SAPS   C23   38   4.881   4.418   7.008  0.6146 -1.1541 -0.1774
    1SAPS   H3R   39   4.919   4.493   6.935 -0.5551 -1.0983 -0.7428
    1SAPS   H3S   40   4.774   4.447   7.020  0.7941 -1.2368  1.9821
    1SAPS   C24   41   4.879   4.279   6.946  0.2237 -0.7842  0.0453
    1SAPS   H4R   42   4.798   4.270   6.870 -0.2639  0.3244  0.4171
    1SAPS   H4S   43   4.859   4.205   7.026 -2.8249 -0.2184 -0.0688
    1SAPS   C25   44   5.020   4.252   6.906  0.4040 -0.2596 -0.2707
    1SAPS   H5R   45   5.080   4.210   6.988  0.3311  0.2674  0.0603
    1SAPS   C26   46   5.064   4.244   6.781  0.5257  0.1366 -0.0932
    1SAPS   H6R   47   5.172   4.228   6.768  0.7233 -1.6232  2.8140
    1SAPS   C27   48   4.999   4.284   6.655 -0.1781 -0.1084  0.4395
    1SAPS   H7R   49   5.052   4.369   6.606  2.6290 -0.4316  2.6384
    1SAPS   H7S   50   4.907   4.339   6.684  0.6908  0.7274  1.7398
    1SAPS   C28   51   4.982   4.177   6.554  0.0662  0.5783  0.6418
    1SAPS   H8R   52   4.928   4.086   6.586  0.3839  0.7463  1.6824
    1SAPS   C29   53   5.029   4.178   6.427 -0.2588 -0.4821  0.6234
    1SAPS   H9R   54   5.010   4.086   6.371 -1.1217 -1.2352  2.0865
    1SAPS  C210   55   5.107   4.283   6.363 -0.5937  0.1429  0.8309
    1SAPS  H10R   56   5.215   4.261   6.375 -0.0593 -1.2040 -4.2009
    1SAPS  H10S   57   5.085   4.384   6.405 -1.3698 -0.1607  1.1636
    1SAPS  C211   58   5.065   4.303   6.219  0.2755 -0.7638  0.3577
    1SAPS  H11R   59   4.960   4.334   6.215  0.4776 -0.0197  0.7245
    1SAPS  C212   60   5.135   4.259   6.106 -0.0029 -0.7504 -0.9451
    1SAPS  H12R   61   5.084   4.283   6.011 -0.6822  1.5527 -0.0702
    1SAPS  C213   62   5.275   4.193   6.106 -0.3444  0.0816 -0.0044
    1SAPS  H13R   63   5.290   4.123   6.191  0.4610  0.4659  0.1783
    1SAPS  H13S   64   5.365   4.259   6.104  1.0874 -1.7825 -1.8586
    1SAPS  C214   65   5.291   4.104   5.988 -0.4936  0.4348  0.9300
    1SAPS  H14R   66   5.207   4.035   5.971  0.6180 -0.4813 -1.3284
    1SAPS  C215   67   5.392   4.100   5.901 -0.3235  0.6379  0.2790
    1SAPS  H15R   68   5.385   4.038   5.811 -3.2262  1.6580 -0.3067
    1SAPS  C216   69   5.515   4.184   5.911  0.0330 -0.4468  0.4165
    1SAPS  H16R   70   5.550   4.181   6.016 -1.4272  3.0918  1.1635
    1SAPS  H16S   71   5.481   4.289   5.896  0.9254 -0.4255 -1.7491
    1SAPS  C217   72   5.630   4.159   5.814  0.7505  0.6025 -0.1685
    1SAPS  H17R   73   5.643   4.050   5.796  0.0489  0.2421  1.3896
    1SAPS  H17S   74   5.727   4.192   5.857  1.1375 -0.4160 -0.2220
    1SAPS  C218   75   5.602   4.206   5.673 -0.9981 -0.2890  0.5156
    1SAPS  H18R   76   5.492   4.201   5.660 -1.4026 -0.1136  3.3004
    1SAPS  H18S   77   5.640   4.138   5.593 -1.5996 -1.1058  0.9119
    1SAPS  C219   78   5.662   4.351   5.638 -0.0769  0.9758 -0.3973
    1SAPS  H19R   79   5.656   4.378   5.530 -0.0837 -1.0702 -0.9566
    1SAPS  H19S   80   5.768   4.328   5.664 -0.3412  0.7008  0.4418
    1SAPS  C220   81   5.619   4.465   5.727  0.1230 -0.1125  0.2694
    1SAPS  H20R   82   5.670   4.561   5.707 -3.4922  2.4766  2.2205
    1SAPS  H20S   83   5.630   4.437   5.834 -0.8908 -0.7948  0.2122
    1SAPS  H20T   84   5.515   4.503   5.714  0.4277  0.6922  0.1334
    1SAPS   C33   85   5.092   4.967   6.730  0.5333 -0.1203 -1.1242
    1SAPS   H3X   86   5.041   5.042   6.795  1.9616 -0.4998  0.5012
    1SAPS   H3Y   87   5.009   4.911   6.681 -1.1104  0.0996  1.1826
    1SAPS   C34   88   5.184   5.043   6.632 -0.1981  0.1522 -0.6264
    1SAPS   H4X   89   5.256   4.969   6.592  0.1279  1.0045 -1.6678
    1SAPS   H4Y   90   5.247   5.115   6.689  1.2549  0.3780 -2.4040
    1SAPS   C35   91   5.108   5.118   6.515 -0.5653 -0.0308  0.4546
    1SAPS   H5X   92   5.032   5.187   6.558 -0.0139 -0.1979  1.7317
    1SAPS   H5Y   93   5.043   5.045   6.461  0.7531 -1.2929  0.5270
    1SAPS   C36   94   5.196   5.185   6.408 -0.4327  0.5140 -0.2489
    1SAPS   H6X   95   5.281   5.115   6.389 -1.1607 -0.3223 -0.5055
    1SAPS   H6Y   96   5.249   5.274   6.447  1.2585 -0.8366  0.6903
    1SAPS   C37   97   5.121   5.224   6.280  0.0505  0.0956  0.2629
    1SAPS   H7X   98   5.062   5.317   6.295 -0.9605 -0.0187 -2.4582
    1SAPS   H7Y   99   5.055   5.135   6.263  2.3033 -1.3208 -1.5872
    1SAPS   C38  100   5.212   5.235   6.153 -0.1004 -0.5839  0.3269
    1SAPS   H8X  101   5.304   5.175   6.166 -0.2631 -1.3644 -1.7036
    1SAPS   H8Y  102   5.259   5.336   6.159 -1.0343  0.0972 -2.3124
    1SAPS   C39  103   5.138   5.225   6.025 -0.2430  0.5364 -0.2181
    1SAPS   H9X  104   5.056   5.300   6.023 -0.9713 -0.0414 -5.6268
    1SAPS   H9Y  105   5.095   5.122   6.022  0.9031  0.0475 -0.5149
    1SAPS  C310  106   5.210   5.242   5.893 -0.8690  0.1848  0.0025
    1SAPS  H10X  107   5.249   5.346   5.889  1.9468 -0.6974  1.4815
    1SAPS  H10Y  108   5.144   5.232   5.805 -0.7255  0.7237 -0.1671
    1SAPS  C311  109   5.337   5.154   5.886 -0.8393 -0.2337  0.6054
    1SAPS  H11X  110   5.306   5.050   5.861 -2.4830  0.6480 -1.3697
    1SAPS  H11Y  111   5.411   5.152   5.969 -1.5286 -1.1080  1.2113
    1SAPS  C312  112   5.414   5.185   5.752 -0.0563 -0.4689  0.4339
    1SAPS  H12X  113   5.416   5.295   5.735  0.5752 -0.1113  2.4868
    1SAPS  H12Y  114   5.360   5.135   5.669  0.9448 -0.6480 -0.1169
    1SAPS  C313  115   5.563   5.128   5.759 -0.5506 -0.2624 -0.4492
    1SAPS  H13X  116   5.568   5.033   5.702  0.8804  0.1617 -1.0743
    1SAPS  H13Y  117   5.585   5.114   5.867 -0.5526  0.5088 -0.3425
    1SAPS  C314  118   5.674   5.225   5.695  0.6285  0.2153  0.1614
    1SAPS  H14X  119   5.774   5.177   5.702  0.8811  0.4754 -1.2924
    1SAPS  H14Y  120   5.672   5.321   5.750  1.4789  0.5187 -0.3150
    1SAPS  C315  121   5.655   5.252   5.540  0.0033  0.0567  0.6160
    1SAPS  H15X  122   5.556   5.303   5.536 -1.4151 -2.4939  0.7824
    1SAPS  H15Y  123   5.627   5.152   5.500 -2.7410  0.8584  0.3413
    1SAPS  C316  124   5.765   5.326   5.466 -0.6901  0.0969  0.3920
    1SAPS  H16X  125   5.740   5.329   5.358 -0.0671 -0.2737  0.2313
    1SAPS  H16Y  126   5.856   5.262   5.471 -0.4321  0.2430 -1.6151
    1SAPS  C317  127   5.789   5.466   5.520  0.3576  0.1288  0.2239
    1SAPS  H17X  128   5.826   5.464   5.624  0.1062  2.1340  0.3990
    1SAPS  H17Y  129   5.688   5.513   5.514  0.2892  0.1199  1.1960
    1SAPS  C318  130   5.885   5.538   5.433 -0.4933 -0.1393  0.0508
    1SAPS  H18X  131   5.846   5.552   5.331  0.8505  1.0433 -0.3435
    1SAPS  H18Y  132   5.984   5.489   5.424 -1.0526 -1.3199  0.1995
    1SAPS  H18Z  133   5.915   5.637   5.474  1.4903 -0.8641  0.4986
    2SAPS     N  134   5.546   5.004   7.550 -0.3806 -0.5676 -0.0172
    2SAPS   HN1  135   5.522   5.031   7.453  1.6621  0.9173 -0.1972
    2SAPS   HN2  136   5.628   4.940   7.561  0.1991  0.4437  2.4318
    2SAPS   HN3  137   5.455   4.965   7.581 -2.0837  3.0988  0.1488
    2SAPS   C12  138   5.571   5.122   7.639  0.7036 -0.0375 -0.1144
    2SAPS  H12A  139   5.579   5.203   7.568  1.1820 -2.6667 -3.3136
    2SAPS   C13  140   5.461   5.150   7.750  0.2308  0.1759 -0.2761
    2SAPS  O13A  141   5.357   5.075   7.757 -0.2319 -0.2993  0.6528
    2SAPS  O13B  142   5.474   5.248   7.832  0.3297  0.0833 -0.3986
    2SAPS   C11  143   5.705   5.098   7.707 -0.0104  0.4643  0.4930
    2SAPS  H11A  144   5.683   5.009   7.770  2.7205 -1.3858 -0.9499
    2SAPS  H11B  145   5.739   5.174   7.780 -0.6939 -0.5748  1.9471
    2SAPS     P  146   5.952   5.065   7.630 -0.1950  0.5255 -0.1261
    2SAPS   O13  147   6.001   5.203   7.647 -0.6370 -0.0803 -0.4202
    2SAPS   O14  148   5.988   4.961   7.731  0.0727 -1.0468  0.8204
    2SAPS   O12  149   5.797   5.073   7.607  0.0050  0.0846 -0.1144
    2SAPS   O11  150   6.002   5.018   7.488  0.3863  0.6690 -1.0081
    2SAPS    C1  151   5.969   4.906   7.411  0.0942  0.0232 -0.5172
    2SAPS    HA  152   5.974   4.810   7.466 -2.1525 -1.1900 -2.2187
    2SAPS    HB  153   5.863   4.915   7.378 -0.1819 -2.6014 -0.5493
    2SAPS    C2  154   6.064   4.892   7.290 -0.1321  0.0957 -0.5911
    2SAPS    HS  155   6.163   4.891   7.340 -1.1061 -2.3512  1.4956
    2SAPS   O21  156   6.049   5.006   7.208  0.8447  0.3395 -0.5651
    2SAPS   C21  157   6.147   5.042   7.126  0.9793  0.3592 -0.1882
    2SAPS   O22  158   6.257   4.989   7.127  0.3753 -0.6171  0.4595
    2SAPS   C22  159   6.100   5.150   7.031  0.2668  0.1098 -0.1000
    2SAPS   H2R  160   6.042   5.111   6.944 -2.7973  0.3554  1.7019
    2SAPS   H2S  161   6.032   5.217   7.087 -0.4358  0.8355 -1.7714
    2SAPS    C3  162   6.025   4.770   7.204  0.3160 -0.3193 -0.3614
    2SAPS    HX  163   5.932   4.804   7.154 -0.2571 -0.9857  0.2374
    2SAPS    HY  164   6.008   4.676   7.260  4.0030 -1.3667 -0.6848
    2SAPS   O31  165   6.121   4.748   7.101  0.3928  0.1787 -0.5393
    2SAPS   C31  166   6.235   4.689   7.145 -0.1479  0.1411 -0.0832
    2SAPS   O32  167   6.254   4.649   7.258 -0.7067  0.1109  0.2276
    2SAPS   C32  168   6.340   4.679   7.031 -0.0147 -0.1176 -0.1947
    2SAPS   H2X  169   6.404   4.768   7.046 -0.9963  0.8166 -1.3871
    2SAPS   H2Y  170   6.278   4.704   6.942 -0.1813 -1.1497 -0.3816
    2SAPS   C23  171   6.214   5.238   6.973 -0.9100 -0.2476 -0.3856
    2SAPS   H3R  172   6.293   5.263   7.048 -0.5789 -1.4366 -0.3264
    2SAPS   H3S  173   6.177   5.330   6.923  1.0650  0.2006 -1.1514
    2SAPS   C24  174   6.281   5.167   6.844 -0.4315 -0.7410 -0.1565
    2SAPS   H4R  175   6.310   5.063   6.869 -1.1674 -0.5358  1.6565
    2SAPS   H4S  176   6.378   5.220   6.838  0.1737 -1.8901 -1.1266
    2SAPS   C25  177   6.205   5.164   6.711 -0.1868 -0.0803  0.1793
    2SAPS   H5R  178   6.202   5.252   6.645 -0.3022 -0.6806 -0.6308
    2SAPS   C26  179   6.136   5.057   6.668 -0.0226 -0.2418 -0.5063
    2SAPS   H6R  180   6.097   5.066   6.566  1.0499  2.3490 -0.7674
    2SAPS   C27  181   6.109   4.928   6.739 -0.8195 -0.3299  0.0720
    2SAPS   H7R  182   6.108   4.935   6.849 -0.8656  0.2946  0.0319
    2SAPS   H7S  183   6.196   4.861   6.720  0.4441  1.9644 -2.9454
    2SAPS   C28  184   5.980   4.873   6.678  0.2088  0.3521 -0.1894
    2SAPS   H8R  185   5.892   4.886   6.742  0.8104  0.6207  0.5988
    2SAPS   C29  186   5.958   4.817   6.557  0.3058 -0.1995  0.0732
    2SAPS   H9R  187   5.862   4.769   6.534 -0.1807  0.6311  0.3416
    2SAPS  C210  188   6.056   4.791   6.439  0.6484 -0.7256 -0.1886
    2SAPS  H10R  189   6.115   4.884   6.428 -0.0968  0.0122  1.5796
    2SAPS  H10S  190   5.990   4.798   6.350 -0.9586  2.5605  1.0780
    2SAPS  C211  191   6.136   4.663   6.454 -0.1930  0.1228  0.1149
    2SAPS  H11R  192   6.198   4.656   6.545 -0.0131 -2.9433 -0.1604
    2SAPS  C212  193   6.171   4.579   6.364 -0.8248 -0.1482  0.7264
    2SAPS  H12R  194   6.244   4.500   6.388 -2.2563 -2.1578 -1.0379
    2SAPS  C213  195   6.120   4.582   6.220  0.1510  0.3435 -0.0121
    2SAPS  H13R  196   6.098   4.682   6.177  0.8180  0.5842  0.1976
    2SAPS  H13S  197   6.022   4.531   6.230  0.2338  0.3359  0.8410
    2SAPS  C214  198   6.211   4.511   6.122  0.6885 -1.1242 -0.6253
    2SAPS  H14R  199   6.319   4.505   6.142  0.8981  0.6069 -1.0450
    2SAPS  C215  200   6.168   4.448   6.014 -0.0647  0.0711  0.2526
    2SAPS  H15R  201   6.237   4.383   5.957  1.0515 -0.9555  2.6610
    2SAPS  C216  202   6.029   4.430   5.971 -0.1657 -0.0132  0.0102
    2SAPS  H16R  203   5.950   4.476   6.034 -0.6647  0.1526 -0.7228
    2SAPS  H16S  204   5.992   4.325   5.975 -2.4817  0.7678  0.9454
    2SAPS  C217  205   6.013   4.473   5.827 -0.4258  0.1071  0.4122
    2SAPS  H17R  206   5.906   4.467   5.797  0.5113 -1.4464 -3.0974
    2SAPS  H17S  207   6.068   4.401   5.763  0.0194  0.8284 -0.0278
    2SAPS  C218  208   6.061   4.615   5.793 -0.4654  0.1299  0.6916
    2SAPS  H18R  209   6.172   4.628   5.788 -0.6024  2.7091  2.5938
    2SAPS  H18S  210   6.051   4.689   5.875 -0.1098  1.5320 -0.4859
    2SAPS  C219  211   6.005   4.668   5.659 -0.4864 -0.2712  0.0477
    2SAPS  H19R  212   5.894   4.665   5.665 -0.5999 -2.1429 -1.8865
    2SAPS  H19S  213   6.027   4.595   5.578  2.3654 -0.8633  1.2245
    2SAPS  C220  214   6.055   4.807   5.615 -0.0333 -0.1051 -0.2739
    2SAPS  H20R  215   6.058   4.886   5.694  1.3092  0.1449 -0.5663
    2SAPS  H20S  216   5.987   4.846   5.536 -1.2231  0.4260  0.9552
    2SAPS  H20T  217   6.152   4.813   5.563 -0.0468 -1.5035 -0.5007
    2SAPS   C33  218   6.414   4.544   7.032  0.1842 -0.3013 -0.2268
    2SAPS   H3X  219   6.333   4.469   7.046  0.1819 -0.1647  0.5893
    2SAPS   H3Y  220   6.478   4.540   7.123 -1.3171 -0.8244  0.8472
    2SAPS   C34  221   6.507   4.535   6.909  0.5237 -0.1253 -0.1581
    2SAPS   H4X  222   6.559   4.437   6.918 -1.1642 -0.9695  0.7930
    2SAPS   H4Y  223   6.571   4.625   6.915 -0.4261  0.5259  0.4241
    2SAPS   C35  224   6.442   4.539   6.767  0.2744 -0.6819  0.0205
    2SAPS   H5X  225   6.388   4.636   6.763  0.3698 -0.3819  3.2873
    2SAPS   H5Y  226   6.366   4.457   6.766 -1.2122  0.6335  0.3718
    2SAPS   C36  227   6.542   4.526   6.662  0.0392  0.2613 -0.2218
    2SAPS   H6X  228   6.600   4.435   6.687 -2.9148 -1.4844  0.8618
    2SAPS   H6Y  229   6.631   4.591   6.666  0.0111  0.2859  0.0135
    2SAPS   C37  230   6.483   4.525   6.524  0.3330 -0.3045  0.1296
    2SAPS   H7X  231   6.420   4.616   6.519 -2.0792 -1.8015  1.3194
    2SAPS   H7Y  232   6.421   4.434   6.504  3.2485 -2.6055  0.8163
    2SAPS   C38  233   6.595   4.537   6.425  0.1606 -0.1024 -0.0655
    2SAPS   H8X  234   6.672   4.463   6.455 -0.3064  0.0017  1.5273
    2SAPS   H8Y  235   6.634   4.641   6.424 -0.0990  0.0335 -2.9510
    2SAPS   C39  236   6.548   4.510   6.284 -0.1866  0.7898 -0.6420
    2SAPS   H9X  237   6.472   4.583   6.251 -1.5347 -1.3210 -2.5176
    2SAPS   H9Y  238   6.497   4.411   6.280  0.4920  0.4692 -2.2287
    2SAPS  C310  239   6.668   4.497   6.191  0.6523 -0.1751  0.3011
    2SAPS  H10X  240   6.754   4.434   6.223  1.5888  1.1158  0.3898
    2SAPS  H10Y  241   6.713   4.598   6.188  0.7212 -0.2197 -0.9527
    2SAPS  C311  242   6.630   4.460   6.050 -0.8555 -0.8290  0.6203
    2SAPS  H11X  243   6.723   4.451   5.990 -1.7347 -1.6104 -0.6698
    2SAPS  H11Y  244   6.577   4.547   6.005 -0.8685 -1.5438 -0.8112
    2SAPS  C312  245   6.544   4.336   6.032  0.4606 -0.1911 -0.3334
    2SAPS  H12X  246   6.443   4.360   6.070  1.0249 -1.1754  1.9929
    2SAPS  H12Y  247   6.587   4.260   6.101  0.9276  0.5158  0.1787
    2SAPS  C313  248   6.535   4.287   5.887  0.4407 -0.3600 -0.0807
    2SAPS  H13X  249   6.463   4.203   5.879 -2.2035  1.9113 -1.9395
    2SAPS  H13Y  250   6.635   4.252   5.853  0.5050  0.7670 -1.1079
    2SAPS  C314  251   6.479   4.398   5.791 -0.6341 -0.2975 -0.5795
    2SAPS  H14X  252   6.554   4.480   5.794  1.6612 -2.2186 -2.0635
    2SAPS  H14Y  253   6.386   4.430   5.844  0.5437 -0.9720  2.0280
    2SAPS  C315  254   6.454   4.355   5.649  0.4810  0.2365  1.0331
    2SAPS  H15X  255   6.397   4.259   5.656 -1.1183  1.2499  2.8894
    2SAPS  H15Y  256   6.554   4.341   5.603 -0.5208 -0.3238 -1.1071
    2SAPS  C316  257   6.371   4.458   5.567  0.2517  0.2081 -0.3130
    2SAPS  H16X  258   6.429   4.553   5.571  1.1210 -0.3085 -0.2947
    2SAPS  H16Y  259   6.273   4.479   5.614  0.2753 -1.3705  0.4882
    2SAPS  C317  260   6.343   4.410   5.420  0.0907  0.1261 -0.8650
    2SAPS  H17X  261   6.281   4.318   5.424  4.0691 -2.9458 -2.5462
    2SAPS  H17Y  262   6.443   4.384   5.379  0.7272 -0.8173  1.1551
    2SAPS  C318  263   6.285   4.521   5.339  0.0653  0.7900 -0.7496
    2SAPS  H18X  264   6.293   4.497   5.231 -0.0215 -0.2545 -0.5337
    2SAPS  H18Y  265   6.340   4.617   5.354 -0.7610  1.5691 -2.3933
    2SAPS  H18Z  266   6.177   4.540   5.359  0.9069  4.7230  1.1893
    3SAPS     N  267   6.041   4.451   7.834 -0.1152 -0.9003 -0.2157
    3SAPS   HN1  268   6.126   4.418   7.783  1.0191  1.4064  0.0814
    3SAPS   HN2  269   6.020   4.541   7.787 -0.3912  0.1483  1.8260
    3SAPS   HN3  270   6.064   4.465   7.934 -3.2140 -1.4547  0.6882
    3SAPS   C12  271   5.917   4.365   7.826  0.3294  0.2944  0.7256
    3SAPS  H12A  272   5.953   4.263   7.837  1.1838  0.1212 -2.5419
    3SAPS   C13  273   5.805   4.382   7.935 -0.3355 -0.6643 -0.2315
    3SAPS  O13A  274   5.849   4.456   8.028  0.4085 -0.4809  0.4571
    3SAPS  O13B  275   5.694   4.322   7.942  0.2970 -0.2851  0.0349
    3SAPS   C11  276   5.847   4.385   7.679 -0.0078  0.5326  0.4079
    3SAPS  H11A  277   5.793   4.482   7.672 -1.3590 -0.3082 -1.8961
    3SAPS  H11B  278   5.768   4.307   7.675  1.1008 -0.6682  1.0628
    3SAPS     P  279   5.986   4.475   7.490 -0.2081  0.6472  0.1315
    3SAPS   O13  280   6.043   4.577   7.582 -0.2140  0.4138 -0.2783
    3SAPS   O14  281   6.069   4.419   7.381  0.1013  0.0561  0.0372
    3SAPS   O12  282   5.939   4.351   7.572  0.0898  0.1836  0.4455
    3SAPS   O11  283   5.858   4.529   7.423 -0.3970 -0.2545  0.8211
    3SAPS    C1  284   5.757   4.454   7.350 -0.0527  0.6133  0.0868
    3SAPS    HA  285   5.797   4.357   7.313 -1.9903 -0.1241 -0.1759
    3SAPS    HB  286   5.671   4.435   7.418 -0.8247 -0.1730 -1.0725
    3SAPS    C2  287   5.700   4.534   7.236 -0.4674  0.5522  0.4951
    3SAPS    HS  288   5.615   4.480   7.187 -0.3690 -0.6764  1.6080
    3SAPS   O21  289   5.797   4.558   7.134 -0.3152  0.2057  0.3737
    3SAPS   C21  290   5.832   4.465   7.041  0.0417  0.5396  0.0389
    3SAPS   O22  291   5.786   4.353   7.028  0.0788 -0.1809  0.9581
    3SAPS   C22  292   5.937   4.521   6.944 -0.4640  0.6893 -0.6785
    3SAPS   H2R  293   5.900   4.614   6.894 -1.3489  1.1135  0.6918
    3SAPS   H2S  294   6.015   4.558   7.014  1.1204 -0.6594 -1.6668
    3SAPS    C3  295   5.631   4.674   7.271  0.2191  1.0261  0.5667
    3SAPS    HX  296   5.699   4.734   7.335 -0.7291  1.5228  1.1316
    3SAPS    HY  297   5.546   4.643   7.335  0.7975 -0.1660  0.7976
    3SAPS   O31  298   5.574   4.754   7.160  0.2453 -0.1537 -0.0234
    3SAPS   C31  299   5.571   4.885   7.195  0.5927  0.2762 -0.0524
    3SAPS   O32  300   5.604   4.932   7.302  0.3077 -0.5370  0.9720
    3SAPS   C32  301   5.530   4.971   7.073 -0.1681 -0.8364 -0.2144
    3SAPS   H2X  302   5.537   5.077   7.104  1.5440 -1.4341  1.7448
    3SAPS   H2Y  303   5.425   4.941   7.052 -0.5493  0.9034 -0.9321
    3SAPS   C23  304   5.999   4.412   6.845  0.1845 -0.0229 -1.0692
    3SAPS   H3R  305   6.040   4.323   6.897 -0.3927  0.0888 -0.4129
    3SAPS   H3S  306   6.085   4.463   6.798 -1.8484  1.7860 -3.1042
    3SAPS   C24  307   5.909   4.370   6.736  0.0991  0.3675  0.2233
    3SAPS   H4R  308   5.822   4.322   6.786 -0.0734  0.2692 -0.1679
    3SAPS   H4S  309   5.943   4.293   6.663 -0.6455  1.9374 -1.8857
    3SAPS   C25  310   5.872   4.482   6.643  0.0114  0.2537 -0.7640
    3SAPS   H5R  311   5.948   4.504   6.567  0.7513 -2.2133 -0.8219
    3SAPS   C26  312   5.752   4.542   6.642 -0.1704 -0.4713 -0.7174
    3SAPS   H6R  313   5.754   4.632   6.578  0.6258 -1.5663 -2.2852
    3SAPS   C27  314   5.621   4.526   6.719 -0.2370 -0.0125  0.4873
    3SAPS   H7R  315   5.565   4.619   6.695  0.6108  0.1004 -1.2413
    3SAPS   H7S  316   5.634   4.499   6.826  2.6227 -0.9622 -0.0322
    3SAPS   C28  317   5.551   4.405   6.665 -0.4395 -0.8183  0.0687
    3SAPS   H8R  318   5.569   4.320   6.733  0.7094  0.2622  1.1683
    3SAPS   C29  319   5.452   4.403   6.575  0.3150  0.7047 -0.3628
    3SAPS   H9R  320   5.411   4.303   6.553 -1.6282  1.0876  1.2531
    3SAPS  C210  321   5.399   4.515   6.490 -0.0774 -0.5441 -0.7055
    3SAPS  H10R  322   5.384   4.470   6.390  1.0696 -0.8475 -0.7536
    3SAPS  H10S  323   5.477   4.594   6.479 -2.6784  1.9182 -3.1657
    3SAPS  C211  324   5.269   4.578   6.544  0.0124 -0.4493 -0.1172
    3SAPS  H11R  325   5.238   4.532   6.639 -0.6419 -0.4072 -0.3062
    3SAPS  C212  326   5.204   4.679   6.481 -0.1757  0.0354  0.1488
    3SAPS  H12R  327   5.099   4.701   6.506 -0.2999  0.2776 -0.5716
    3SAPS  C213  328   5.267   4.743   6.355 -0.6267  0.6084 -1.5524
    3SAPS  H13R  329   5.303   4.659   6.293 -0.6441 -0.0048 -0.7588
    3SAPS  H13S  330   5.349   4.810   6.388 -0.4479  0.1697 -1.0825
    3SAPS  C214  331   5.167   4.822   6.277  0.0815  0.6575 -0.0462
    3SAPS  H14R  332   5.090   4.873   6.338 -0.5298 -2.2171  1.7922
    3SAPS  C215  333   5.155   4.832   6.146 -0.6772 -0.2164 -0.5327
    3SAPS  H15R  334   5.068   4.885   6.105 -1.6602  0.7012  2.4317
    3SAPS  C216  335   5.242   4.767   6.043  0.4921  0.0867  0.7763
    3SAPS  H16R  336   5.347   4.764   6.078  1.1126  2.2129 -0.6838
    3SAPS  H16S  337   5.239   4.835   5.955  0.0338 -0.4086  0.4088
    3SAPS  C217  338   5.192   4.627   5.987  1.0427  0.0115 -0.1469
    3SAPS  H17R  339   5.081   4.624   5.984  1.0760 -1.8177 -0.8525
    3SAPS  H17S  340   5.227   4.558   6.067  1.1221  0.8552  0.5638
    3SAPS  C218  341   5.244   4.601   5.844  0.1374  0.3597 -0.2460
    3SAPS  H18R  342   5.355   4.600   5.853  0.2363 -1.6075 -1.2226
    3SAPS  H18S  343   5.211   4.680   5.774  0.4130 -0.8394 -1.7907
    3SAPS  C219  344   5.197   4.470   5.783  1.1509  0.8326 -0.0057
    3SAPS  H19R  345   5.238   4.384   5.840  1.1950 -0.0055 -1.2652
    3SAPS  H19S  346   5.087   4.456   5.774  1.4191 -0.1621 -2.9418
    3SAPS  C220  347   5.241   4.449   5.639 -0.4637 -0.1389  0.0359
    3SAPS  H20R  348   5.209   4.348   5.603  0.1725 -1.4564  2.8942
    3SAPS  H20S  349   5.351   4.455   5.629 -0.6278  1.1404 -1.3098
    3SAPS  H20T  350   5.193   4.524   5.573  1.2113  1.3344  0.4545
    3SAPS   C33  351   5.609   4.931   6.949  0.0088 -0.4569 -0.3561
    3SAPS   H3X  352   5.600   4.822   6.929  0.2188 -0.8057  1.2938
    3SAPS   H3Y  353   5.715   4.959   6.964 -0.6058  2.4307 -0.7538
    3SAPS   C34  354   5.558   4.997   6.819  0.3338  0.0321  0.1761
    3SAPS   H4X  355   5.619   5.089   6.808 -2.0232  1.7136  0.2892
    3SAPS   H4Y  356   5.451   5.026   6.829  0.1594 -0.6021  0.1656
    3SAPS   C35  357   5.578   4.921   6.687 -0.3047  0.5036  0.2280
    3SAPS   H5X  358   5.678   4.872   6.690 -0.1345  0.8701  0.7125
    3SAPS   H5Y  359   5.496   4.851   6.661 -1.9049  1.6321  2.0184
    3SAPS   C36  360   5.602   5.032   6.573  0.7455  0.1233  0.3877
    3SAPS   H6X  361   5.703   5.077   6.578  0.9016  0.0054 -1.2421
    3SAPS   H6Y  362   5.530   5.116   6.582  0.5114 -0.0284 -0.0807
    3SAPS   C37  363   5.591   4.970   6.432  0.1252 -0.0601 -0.1129
    3SAPS   H7X  364   5.484   4.978   6.405 -0.2234  1.1156  1.4584
    3SAPS   H7Y  365   5.640   4.872   6.418 -0.1792 -0.5586  1.9656
    3SAPS   C38  366   5.667   5.061   6.332 -0.8914 -0.4806  0.5229
    3SAPS   H8X  367   5.775   5.076   6.352 -0.7970  0.9501 -0.8688
    3SAPS   H8Y  368   5.627   5.164   6.338  1.4706  0.5273  0.0928
    3SAPS   C39  369   5.655   5.006   6.182  0.0078 -0.3229  0.3253
    3SAPS   H9X  370   5.685   5.090   6.115 -0.6750  0.6653  1.2341
    3SAPS   H9Y  371   5.547   4.988   6.163  0.3364 -1.6981 -0.4202
    3SAPS  C310  372   5.747   4.886   6.153  0.1160  1.0919  0.0415
    3SAPS  H10X  373   5.732   4.813   6.235 -1.9767 -1.2036 -2.2283
    3SAPS  H10Y  374   5.853   4.915   6.162  0.0296  2.8387 -3.0201
    3SAPS  C311  375   5.744   4.830   6.013  0.7009  0.1960  0.1376
    3SAPS  H11X  376   5.832   4.764   5.999  1.3392  1.0939 -0.1092
    3SAPS  H11Y  377   5.752   4.908   5.935  1.7367  0.8961  0.9242
    3SAPS  C312  378   5.619   4.738   5.985  0.3533 -0.0354 -0.2062
    3SAPS  H12X  379   5.650   4.682   5.894  0.5080  2.0781 -1.5139
    3SAPS  H12Y  380   5.528   4.801   5.977 -0.0186 -0.6388 -0.7639
    3SAPS  C313  381   5.591   4.633   6.091  0.7301 -0.6538 -0.0620
    3SAPS  H13X  382   5.497   4.580   6.063  0.0149 -0.1656  1.2662
    3SAPS  H13Y  383   5.570   4.674   6.193 -0.3340  1.2082 -0.9731
    3SAPS  C314  384   5.701   4.529   6.112 -0.0440  0.1086  0.2151
    3SAPS  H14X  385   5.798   4.581   6.126  0.2239 -0.1261 -0.6730
    3SAPS  H14Y  386   5.724   4.472   6.019  0.2728 -1.5781  1.2841
    3SAPS  C315  387   5.676   4.445   6.231  0.1041 -0.3586 -0.4034
    3SAPS  H15X  388   5.571   4.408   6.233 -0.1285  0.3152  1.0563
    3SAPS  H15Y  389   5.692   4.507   6.322  1.1007 -1.8214  0.4546
    3SAPS  C316  390   5.776   4.324   6.242  0.4629 -0.3231  0.2474
    3SAPS  H16X  391   5.874   4.373   6.262 -0.7435  1.3744  2.4461
    3SAPS  H16Y  392   5.789   4.269   6.146 -2.2823  0.3172 -0.5698
    3SAPS  C317  393   5.738   4.232   6.362 -0.1659 -0.4791 -0.6622
    3SAPS  H17X  394   5.640   4.185   6.340 -1.1428  2.9199 -4.8941
    3SAPS  H17Y  395   5.744   4.298   6.451  0.2387 -1.5053  0.0954
    3SAPS  C318  396   5.835   4.117   6.381 -0.2071  0.0683  0.3309
    3SAPS  H18X  397   5.851   4.065   6.284 -0.7247  1.4945 -0.5595
    3SAPS  H18Y  398   5.803   4.043   6.457  2.8705 -0.9798  0.7827
    3SAPS  H18Z  399   5.931   4.157   6.420  0.7373 -1.0063 -0.8191
    4SAPS     N  400   3.010   2.811   7.507 -0.5517  0.1006 -0.0902
    4SAPS   HN1  401   2.968   2.733   7.452 -2.1036 -1.3806  2.9040
    4SAPS   HN2  402   2.938   2.834   7.579  0.4303  0.9035  0.6720
    4SAPS   HN3  403   3.021   2.901   7.457  1.0943  0.9396  1.6362
    4SAPS   C12  404   3.125   2.774   7.588  0.6377  0.1011 -0.2262
    4SAPS  H12A  405   3.215   2.808   7.539  0.3250  0.0759 -0.8225
    4SAPS   C13  406   3.113   2.821   7.733  0.2043  0.2457 -0.1702
    4SAPS  O13A  407   3.020   2.897   7.766  0.6272  0.6770  0.4129
    4SAPS  O13B  408   3.197   2.789   7.818 -0.1616  0.2303 -0.0482
    4SAPS   C11  409   3.123   2.611   7.585  0.5253  0.0061 -0.0077
    4SAPS  H11A  410   3.019   2.574   7.594  0.0123  1.4873  0.5119
    4SAPS  H11B  411   3.168   2.580   7.682 -2.1271 -0.5481  1.1133
    4SAPS     P  412   3.328   2.505   7.478  0.4820 -0.6152 -0.1511
    4SAPS   O13  413   3.411   2.601   7.559  0.5932  0.1633 -0.4728
    4SAPS   O14  414   3.322   2.376   7.544  0.6132  0.3594  0.2714
    4SAPS   O12  415   3.185   2.558   7.468 -0.0663 -0.4066 -0.2092
    4SAPS   O11  416   3.382   2.494   7.338 -0.0220  0.0819 -0.5785
    4SAPS    C1  417   3.312   2.536   7.220  0.0180  0.0067 -0.3877
    4SAPS    HA  418   3.205   2.509   7.225 -0.4834  1.7010 -1.2819
    4SAPS    HB  419   3.325   2.645   7.206 -1.7150  0.0607 -1.8169
    4SAPS    C2  420   3.375   2.464   7.097  0.3417 -0.4280  0.0572
    4SAPS    HS  421   3.340   2.526   7.012  3.9086  1.5639 -0.1335
    4SAPS   O21  422   3.319   2.333   7.104  0.0634 -0.3651  0.1302
    4SAPS   C21  423   3.286   2.274   6.992  0.1166 -0.0492 -0.2703
    4SAPS   O22  424   3.324   2.308   6.881 -0.3411  0.2366  0.4031
    4SAPS   C22  425   3.196   2.145   7.022 -0.0421  0.2906 -0.1177
    4SAPS   H2R  426   3.244   2.089   7.105  0.0142 -0.3026 -0.5490
    4SAPS   H2S  427   3.092   2.169   7.054 -0.0648 -1.1418  0.9882
    4SAPS    C3  428   3.532   2.471   7.096 -0.2337  0.1678 -0.0781
    4SAPS    HX  429   3.562   2.411   7.007  4.4925  1.9478  0.0740
    4SAPS    HY  430   3.569   2.417   7.186  2.0278 -0.0564 -1.0782
    4SAPS   O31  431   3.590   2.601   7.100 -0.3116  0.1194  0.0321
    4SAPS   C31  432   3.553   2.680   7.000 -0.4169  0.1341  0.0537
    4SAPS   O32  433   3.500   2.647   6.897  0.0153  0.0806  0.3328
    4SAPS   C32  434   3.613   2.813   7.030  0.3662 -0.3654  0.0073
    4SAPS   H2X  435   3.683   2.801   7.116  0.8768 -2.6486 -0.6590
    4SAPS   H2Y  436   3.535   2.886   7.060  0.0654 -1.7172  2.9589
    4SAPS   C23  437   3.191   2.060   6.892  0.4933  0.0048  0.1620
    4SAPS   H3R  438   3.295   2.040   6.860  0.1655 -0.8098 -0.4340
    4SAPS   H3S  439   3.150   2.120   6.808  0.0685 -0.8606 -0.2649
    4SAPS   C24  440   3.108   1.932   6.894 -0.1793  0.6562  0.5243
    4SAPS   H4R  441   3.094   1.905   6.787  0.4281  0.4878  0.4828
    4SAPS   H4S  442   3.013   1.963   6.942 -0.3433  0.3793  0.3826
    4SAPS   C25  443   3.177   1.825   6.965 -0.3077  0.2348 -0.4370
    4SAPS   H5R  444   3.250   1.856   7.041  1.1734  0.7434 -2.0106
    4SAPS   C26  445   3.195   1.703   6.925 -0.0803  0.8267 -0.5259
    4SAPS   H6R  446   3.249   1.629   6.986 -1.2123 -0.8007 -1.4093
    4SAPS   C27  447   3.147   1.632   6.803 -0.0238  0.3975 -0.2140
    4SAPS   H7R  448   3.150   1.713   6.727  2.2691 -2.1035 -3.0651
    4SAPS   H7S  449   3.044   1.603   6.830  0.1932 -0.8500 -0.6742
    4SAPS   C28  450   3.233   1.509   6.765 -0.4648 -0.5953  0.6978
    4SAPS   H8R  451   3.281   1.455   6.848 -0.6256 -1.2399  0.3783
    4SAPS   C29  452   3.254   1.472   6.634 -0.1336 -0.7218 -0.1094
    4SAPS   H9R  453   3.317   1.383   6.616  2.5568  0.8704  0.8920
    4SAPS  C210  454   3.189   1.539   6.510  0.9195  0.1045 -0.2455
    4SAPS  H10R  455   3.274   1.586   6.457  2.0382  0.1359  1.5033
    4SAPS  H10S  456   3.138   1.634   6.536  1.5418 -0.0999  1.9076
    4SAPS  C211  457   3.097   1.440   6.446  0.3643 -0.5845  0.6621
    4SAPS  H11R  458   3.069   1.357   6.513  1.8859 -0.6299  1.2728
    4SAPS  C212  459   3.035   1.458   6.323 -0.6626 -0.2731  0.1455
    4SAPS  H12R  460   2.965   1.378   6.294 -0.8786  0.6453 -2.0861
    4SAPS  C213  461   3.040   1.576   6.226 -0.4744  0.1612 -0.0688
    4SAPS  H13R  462   3.143   1.587   6.187 -0.1361 -2.2830  0.0350
    4SAPS  H13S  463   3.007   1.668   6.280 -0.3715 -0.2371  0.6693
    4SAPS  C214  464   2.945   1.545   6.111 -0.3392 -1.2288 -0.1952
    4SAPS  H14R  465   2.840   1.525   6.140 -0.0073  1.3269  3.4588
    4SAPS  C215  466   2.973   1.550   5.984 -0.7210 -0.9243 -0.0752
    4SAPS  H15R  467   2.890   1.521   5.919 -0.4028  0.0307 -0.9389
    4SAPS  C216  468   3.098   1.579   5.910 -0.0196 -0.4492 -0.3244
    4SAPS  H16R  469   3.188   1.566   5.974 -0.7004 -1.2279  0.4957
    4SAPS  H16S  470   3.094   1.681   5.866  1.4204 -0.8884 -1.5428
    4SAPS  C217  471   3.120   1.493   5.783  0.1316  0.6290 -0.6847
    4SAPS  H17R  472   3.092   1.388   5.805  0.8607  0.8106  1.3982
    4SAPS  H17S  473   3.229   1.502   5.764  0.6263  0.2241  1.6545
    4SAPS  C218  474   3.035   1.541   5.670  0.2907  0.4956  0.5394
    4SAPS  H18R  475   3.047   1.650   5.649 -2.8840  0.6212 -1.1561
    4SAPS  H18S  476   2.931   1.510   5.693  0.9692 -1.0057  1.8278
    4SAPS  C219  477   3.063   1.480   5.533 -0.6741  0.3577  0.0603
    4SAPS  H19R  478   3.072   1.371   5.553  0.4945  0.4483  0.0978
    4SAPS  H19S  479   3.158   1.518   5.489 -0.8540  1.3453  0.4976
    4SAPS  C220  480   2.950   1.501   5.427 -0.0214  0.5939 -0.0108
    4SAPS  H20R  481   2.880   1.414   5.432  0.2003  0.4678  3.1585
    4SAPS  H20S  482   2.992   1.506   5.324 -1.5246  0.9463 -0.6350
    4SAPS  H20T  483   2.880   1.586   5.442 -1.0836 -0.1136 -0.7639
    4SAPS   C33  484   3.693   2.872   6.910 -0.2820 -0.2080  0.2341
    4SAPS   H3X  485   3.745   2.964   6.942 -0.0443  0.3385 -1.5843
    4SAPS   H3Y  486   3.620   2.910   6.835  0.5492  1.8206  0.3845
    4SAPS   C34  487   3.790   2.782   6.845  0.3043  0.0782 -0.3709
    4SAPS   H4X  488   3.748   2.684   6.814  1.9769 -0.7159 -0.1907
    4SAPS   H4Y  489   3.864   2.748   6.920  3.2671  1.4490 -2.4868
    4SAPS   C35  490   3.852   2.853   6.722  0.5854 -1.5153 -0.2106
    4SAPS   H5X  491   3.922   2.924   6.772 -0.7766 -1.8373  2.3463
    4SAPS   H5Y  492   3.780   2.915   6.665  1.3731 -1.8016 -1.5684
    4SAPS   C36  493   3.911   2.756   6.625  0.2299 -0.0113  0.2651
    4SAPS   H6X  494   3.831   2.681   6.607  0.8798 -0.4836 -0.8013
    4SAPS   H6Y  495   4.002   2.707   6.667  0.4286  0.1795  0.0599
    4SAPS   C37  496   3.972   2.814   6.491  0.0777  0.2953 -0.2912
    4SAPS   H7X  497   4.061   2.874   6.521 -0.2906  0.2596  0.9271
    4SAPS   H7Y  498   3.907   2.894   6.450 -1.7832 -1.2502 -0.4766
    4SAPS   C38  499   3.989   2.720   6.377 -0.2579 -0.0636  0.0642
    4SAPS   H8X  500   3.892   2.670   6.355 -0.7713  0.7556  0.4302
    4SAPS   H8Y  501   4.058   2.639   6.412  1.1435  2.3355  3.3569
    4SAPS   C39  502   4.055   2.782   6.257  0.0865 -0.8982  0.1546
    4SAPS   H9X  503   4.155   2.820   6.290  0.3582 -1.4267 -0.0442
    4SAPS   H9Y  504   4.003   2.867   6.209  2.2125  0.8916  0.8193
    4SAPS  C310  505   4.097   2.677   6.149 -0.6187  0.0269 -0.9143
    4SAPS  H10X  506   4.007   2.642   6.095 -0.6703 -2.1911  0.4259
    4SAPS  H10Y  507   4.130   2.584   6.202 -2.0627  0.2196  0.4084
    4SAPS  C311  508   4.208   2.714   6.054  0.7806 -0.3220 -0.2968
    4SAPS  H11X  509   4.306   2.688   6.099  0.7129 -2.1827 -1.1044
    4SAPS  H11Y  510   4.215   2.824   6.046 -1.5881 -0.2720 -4.0199
    4SAPS  C312  511   4.195   2.636   5.919  0.2422  0.7716 -0.0715
    4SAPS  H12X  512   4.100   2.661   5.866  0.0085 -1.8376 -1.0190
    4SAPS  H12Y  513   4.181   2.532   5.954 -0.7592  0.2711 -1.8587
    4SAPS  C313  514   4.316   2.653   5.827  0.0240 -0.0084 -0.3139
    4SAPS  H13X  515   4.404   2.596   5.863 -0.2988 -2.0820 -2.5355
    4SAPS  H13Y  516   4.336   2.762   5.821 -0.9753  0.1229 -2.9038
    4SAPS  C314  517   4.274   2.604   5.694 -0.0917  0.0573 -0.2247
    4SAPS  H14X  518   4.186   2.664   5.662 -0.8000 -0.6992  0.2561
    4SAPS  H14Y  519   4.246   2.497   5.697 -0.4714  0.1666  0.1928
    4SAPS  C315  520   4.387   2.629   5.593  0.2614  0.4111 -0.7390
    4SAPS  H15X  521   4.426   2.729   5.620  2.9204 -0.4669 -0.9724
    4SAPS  H15Y  522   4.328   2.626   5.499 -3.7465  2.0815  1.4677
    4SAPS  C316  523   4.490   2.521   5.599  0.1906 -0.1765  0.1652
    4SAPS  H16X  524   4.440   2.423   5.594  2.0668 -1.3002  1.7733
    4SAPS  H16Y  525   4.541   2.518   5.698 -1.6817  3.0834  1.3910
    4SAPS  C317  526   4.583   2.531   5.473  0.2626  0.3530 -0.5956
    4SAPS  H17X  527   4.533   2.578   5.385 -0.5218  0.0713 -0.3048
    4SAPS  H17Y  528   4.600   2.425   5.445 -3.7220 -0.7314  0.3991
    4SAPS  C318  529   4.711   2.604   5.508 -0.4132  0.6562 -0.2739
    4SAPS  H18X  530   4.782   2.607   5.422  0.8295 -2.4489  0.5024
    4SAPS  H18Y  531   4.761   2.537   5.582 -1.0944  2.5325  1.9694
    4SAPS  H18Z  532   4.697   2.704   5.553 -2.4638 -0.8701  2.8597
    5SAPS     N  533   0.131   4.845   7.481 -0.4455 -0.1072 -0.2758
    5SAPS   HN1  534   0.083   4.916   7.422  0.3441 -0.4237 -1.3346
    5SAPS   HN2  535   0.218   4.813   7.434  0.6470  0.3129  1.3608
    5SAPS   HN3  536   0.069   4.762   7.482 -0.3432 -0.1880 -0.5680
    5SAPS   C12  537   0.134   4.899   7.619 -0.5551 -0.1466 -0.1347
    5SAPS  H12A  538   0.209   4.977   7.626  0.8761 -1.3624 -1.2537
    5SAPS   C13  539   0.009   4.963   7.669  0.0750  0.1444 -0.2651
    5SAPS  O13A  540  -0.098   4.966   7.598  0.0865 -0.2837  0.4966
    5SAPS  O13B  541   0.021   5.021   7.780  0.2007  0.2416 -0.3377
    5SAPS   C11  542   0.172   4.784   7.720 -0.4627  0.0032 -0.2811
    5SAPS  H11A  543   0.103   4.700   7.697 -2.0490  0.4363  2.4438
    5SAPS  H11B  544   0.145   4.805   7.826  0.0016 -0.0570 -0.1484
    5SAPS     P  545   0.414   4.824   7.807  0.0131 -0.6814 -0.0036
    5SAPS   O13  546   0.343   4.839   7.935 -0.1622 -0.2813 -0.0607
    5SAPS   O14  547   0.542   4.762   7.794 -0.6939  0.4254  0.9354
    5SAPS   O12  548   0.310   4.743   7.714  0.2474  0.3658  0.0689
    5SAPS   O11  549   0.419   4.965   7.731  0.7709 -0.3877  0.6298
    5SAPS    C1  550   0.482   4.977   7.600  0.3777 -0.6228  0.4326
    5SAPS    HA  551   0.588   4.943   7.600  0.9638  0.8993  3.0948
    5SAPS    HB  552   0.430   4.910   7.529  1.9834 -1.8650  0.3815
    5SAPS    C2  553   0.486   5.125   7.546  0.3986  0.6906  0.7379
    5SAPS    HS  554   0.547   5.186   7.617 -2.8776  2.5076  2.2677
    5SAPS   O21  555   0.353   5.177   7.540 -0.1786 -0.5029  0.2582
    5SAPS   C21  556   0.350   5.312   7.527  1.1940  0.0318  0.3286
    5SAPS   O22  557   0.449   5.385   7.535 -0.1986 -0.1947 -0.3578
    5SAPS   C22  558   0.205   5.364   7.507  0.2991 -0.5297  0.5035
    5SAPS   H2R  559   0.146   5.356   7.601  0.0358  0.7792  0.4711
    5SAPS   H2S  560   0.205   5.469   7.472 -0.7483 -0.7864 -0.3508
    5SAPS    C3  561   0.567   5.132   7.404  0.0353 -0.6617 -0.3668
    5SAPS    HX  562   0.667   5.084   7.407  1.0058  1.2448 -0.8440
    5SAPS    HY  563   0.599   5.237   7.386 -0.4879 -0.3800  0.3034
    5SAPS   O31  564   0.475   5.091   7.305 -0.0250 -0.1047  0.6070
    5SAPS   C31  565   0.532   5.051   7.197  0.1993 -0.3053 -0.0654
    5SAPS   O32  566   0.650   5.062   7.160  0.2352  0.1072 -0.0753
    5SAPS   C32  567   0.408   5.018   7.109  0.6657  0.2109  0.5568
    5SAPS   H2X  568   0.322   5.084   7.134 -1.2919 -1.7185 -0.7471
    5SAPS   H2Y  569   0.368   4.917   7.131 -2.8818  0.7934 -2.3864
    5SAPS   C23  570   0.119   5.276   7.403  0.2003  0.3349  0.0162
    5SAPS   H3R  571   0.012   5.297   7.425  0.3286  0.5782  0.4056
    5SAPS   H3S  572   0.126   5.169   7.433  1.1206 -0.3402 -2.3860
    5SAPS   C24  573   0.146   5.300   7.254  0.1181  0.1970 -0.5253
    5SAPS   H4R  574   0.096   5.220   7.196 -2.5421  1.5554 -0.2920
    5SAPS   H4S  575   0.252   5.297   7.224  0.1990 -1.0081 -0.1418
    5SAPS   C25  576   0.082   5.434   7.214  0.3266  0.5877  0.2394
    5SAPS   H5R  577   0.075   5.511   7.292 -1.8159 -0.3516  1.0438
    5SAPS   C26  578   0.038   5.472   7.093 -0.4011 -0.5533  0.3646
    5SAPS   H6R  579   0.000   5.575   7.082  1.7974  0.1657 -1.1610
    5SAPS   C27  580   0.038   5.387   6.970  0.2715  0.6220  0.0641
    5SAPS   H7R  581  -0.052   5.323   6.976  1.8724 -1.7323  0.4917
    5SAPS   H7S  582   0.118   5.310   6.973 -0.8467 -0.5747  2.9937
    5SAPS   C28  583   0.043   5.468   6.840  0.5552 -0.5234 -0.2132
    5SAPS   H8R  584   0.136   5.522   6.820  0.5538 -0.6443 -0.5524
    5SAPS   C29  585  -0.059   5.482   6.757 -0.2853 -0.0533  0.0848
    5SAPS   H9R  586  -0.046   5.547   6.669  1.4066 -0.4968 -0.0273
    5SAPS  C210  587  -0.194   5.412   6.770 -0.3232  0.1469 -0.2218
    5SAPS  H10R  588  -0.190   5.301   6.779 -0.1739  0.0643 -1.1936
    5SAPS  H10S  589  -0.236   5.422   6.668 -0.6676  1.3311  0.0220
    5SAPS  C211  590  -0.291   5.479   6.869  0.0657 -0.3936  0.1024
    5SAPS  H11R  591  -0.269   5.447   6.972  3.8631 -0.0067 -0.4222
    5SAPS  C212  592  -0.387   5.555   6.838 -0.3315 -0.1991 -0.4413
    5SAPS  H12R  593  -0.448   5.588   6.923 -0.1904 -1.3778  0.1448
    5SAPS  C213  594  -0.431   5.613   6.703 -0.4816  0.1650 -0.0651
    5SAPS  H13R  595  -0.356   5.669   6.642 -0.3565  0.0228 -0.0425
    5SAPS  H13S  596  -0.510   5.689   6.720 -2.1523 -1.0519 -2.0060
    5SAPS  C214  597  -0.505   5.513   6.615 -0.6602  0.0019  0.2832
    5SAPS  H14R  598  -0.599   5.500   6.670 -1.3992  1.9305 -0.4083
    5SAPS  C215  599  -0.501   5.486   6.475 -0.7495  0.0985 -0.4657
    5SAPS  H15R  600  -0.566   5.404   6.442 -1.4224  0.4926 -0.1343
    5SAPS  C216  601  -0.382   5.507   6.381 -0.0334 -0.1297  0.1414
    5SAPS  H16R  602  -0.298   5.559   6.432 -0.5645 -0.4553  1.3841
    5SAPS  H16S  603  -0.401   5.581   6.300 -0.1549  0.8770  1.0726
    5SAPS  C217  604  -0.307   5.382   6.324  0.4399  0.2788 -0.0498
    5SAPS  H17R  605  -0.389   5.316   6.285  0.1574  0.9805 -0.6626
    5SAPS  H17S  606  -0.252   5.332   6.407  1.7101 -0.0769 -1.0756
    5SAPS  C218  607  -0.217   5.421   6.209  0.2090  1.0861 -0.1281
    5SAPS  H18R  608  -0.134   5.483   6.251 -0.5777  0.7065  2.1240
    5SAPS  H18S  609  -0.282   5.471   6.134 -1.6795  0.1813  0.8486
    5SAPS  C219  610  -0.154   5.297   6.145 -0.4723 -0.2339 -0.2028
    5SAPS  H19R  611  -0.096   5.233   6.215 -1.1437 -0.4246  0.1871
    5SAPS  H19S  612  -0.079   5.337   6.073  0.2742  0.9606  1.1729
    5SAPS  C220  613  -0.254   5.215   6.067 -0.0928 -0.1355  0.0797
    5SAPS  H20R  614  -0.314   5.154   6.139 -1.3401 -0.4868 -1.2074
    5SAPS  H20S  615  -0.195   5.136   6.017 -1.5247 -1.5212  0.4769
    5SAPS  H20T  616  -0.321   5.268   5.995 -1.5067  1.6462  2.5334
    5SAPS   C33  617   0.448   5.016   6.960 -0.2667  0.1457 -0.5504
    5SAPS   H3X  618   0.550   4.972   6.956 -0.5210 -0.4581 -0.5408
    5SAPS   H3Y  619   0.467   5.117   6.918  0.8857 -0.5025 -1.6294
    5SAPS   C34  620   0.355   4.936   6.864 -0.5072 -0.1160 -0.0937
    5SAPS   H4X  621   0.273   4.996   6.820 -2.0094 -0.6039  1.9152
    5SAPS   H4Y  622   0.298   4.862   6.924 -0.7148 -0.1932 -0.3835
    5SAPS   C35  623   0.431   4.862   6.756  0.1119 -0.1407 -0.2993
    5SAPS   H5X  624   0.385   4.763   6.735  2.4166 -1.4260  0.2322
    5SAPS   H5Y  625   0.533   4.840   6.794 -0.1191 -2.6789 -0.9730
    5SAPS   C36  626   0.422   4.940   6.627 -0.6173  0.4194 -0.6393
    5SAPS   H6X  627   0.466   5.040   6.649 -0.5972  0.0142  1.3517
    5SAPS   H6Y  628   0.315   4.938   6.598 -1.2243  0.4962  1.4140
    5SAPS   C37  629   0.483   4.869   6.499  1.0294  0.7285 -0.1450
    5SAPS   H7X  630   0.446   4.765   6.495 -2.8402  1.8725  1.1349
    5SAPS   H7Y  631   0.593   4.863   6.510  1.2556 -1.1652 -2.5836
    5SAPS   C38  632   0.432   4.938   6.369 -0.4951 -0.2236 -0.3202
    5SAPS   H8X  633   0.472   5.041   6.374 -3.8808  1.1583  1.3022
    5SAPS   H8Y  634   0.324   4.949   6.350 -0.7778 -2.5587 -0.4377
    5SAPS   C39  635   0.492   4.878   6.237  0.0171  0.1785 -0.7306
    5SAPS   H9X  636   0.462   4.771   6.231 -1.1387  0.4355  0.1251
    5SAPS   H9Y  637   0.602   4.887   6.250  0.3424 -1.2169 -2.1909
    5SAPS  C310  638   0.455   4.962   6.120  0.0343  0.1529 -0.3118
    5SAPS  H10X  639   0.508   5.059   6.137  1.0844 -0.0754 -1.9928
    5SAPS  H10Y  640   0.348   4.989   6.133  0.4015  1.8156 -0.5155
    5SAPS  C311  641   0.506   4.901   5.991  0.4264  0.1776  0.2271
    5SAPS  H11X  642   0.493   4.973   5.907  0.1901 -1.2200 -0.9788
    5SAPS  H11Y  643   0.441   4.815   5.967 -0.1976  0.1884  1.8290
    5SAPS  C312  644   0.653   4.865   5.991  0.5255 -0.3591  0.0012
    5SAPS  H12X  645   0.670   4.765   6.035  2.7057 -0.2925 -0.5892
    5SAPS  H12Y  646   0.712   4.936   6.053  3.2032 -0.1820 -2.5503
    5SAPS  C313  647   0.727   4.854   5.856  0.5513 -0.5291 -0.4214
    5SAPS  H13X  648   0.832   4.833   5.886 -0.4865 -2.3662  2.2056
    5SAPS  H13Y  649   0.712   4.954   5.809 -1.0249 -1.4501 -1.9662
    5SAPS  C314  650   0.672   4.740   5.771 -0.5694  0.7827  0.4863
    5SAPS  H14X  651   0.659   4.647   5.831 -0.7970 -0.2218 -1.0485
    5SAPS  H14Y  652   0.743   4.712   5.690 -2.4279 -0.9418 -0.6659
    5SAPS  C315  653   0.550   4.772   5.681  0.7509 -0.2528 -0.3683
    5SAPS  H15X  654   0.599   4.823   5.595 -0.9437  0.2653 -1.0539
    5SAPS  H15Y  655   0.493   4.854   5.729  1.9539  1.5187 -1.8325
    5SAPS  C316  656   0.469   4.653   5.622 -0.1751 -0.7179 -0.2965
    5SAPS  H16X  657   0.423   4.590   5.701  1.4343 -0.8090  0.6058
    5SAPS  H16Y  658   0.540   4.596   5.559  0.3365  1.0069 -1.3562
    5SAPS  C317  659   0.356   4.706   5.536 -0.0903 -0.3895  0.8575
    5SAPS  H17X  660   0.344   4.623   5.463  1.1886  0.8631 -0.8637
    5SAPS  H17Y  661   0.387   4.799   5.484 -2.1212 -0.1456 -0.0106
    5SAPS  C318  662   0.224   4.725   5.617 -0.1165  0.1402 -0.4670
    5SAPS  H18X  663   0.241   4.806   5.691 -0.1878 -0.5813  0.3441
    5SAPS  H18Y  664   0.176   4.635   5.661 -1.2889  2.2797  3.0830
    5SAPS  H18Z  665   0.143   4.778   5.562 -1.9663 -0.1890  1.7871
    6SAPS     N  666   3.698   5.416   7.562 -0.5323  0.2500 -0.3272
    6SAPS   HN1  667   3.774   5.394   7.495  0.1606 -0.3740  0.6261
    6SAPS   HN2  668   3.626   5.470   7.510 -1.0862  1.8411  1.9488
    6SAPS   HN3  669   3.733   5.474   7.642 -1.0494 -0.0649  0.1374
    6SAPS   C12  670   3.625   5.299   7.619 -0.0574 -0.3711 -0.3578
    6SAPS  H12A  671   3.668   5.206   7.585  0.1435 -2.1854  4.1127
    6SAPS   C13  672   3.600   5.300   7.773 -0.4160 -0.3208  0.6680
    6SAPS  O13A  673   3.653   5.400   7.834  0.4489 -0.0161 -0.2170
    6SAPS  O13B  674   3.546   5.205   7.833 -0.2692  0.8894  0.0272
    6SAPS   C11  675   3.488   5.296   7.555  0.0711  0.2956  1.8277
    6SAPS  H11A  676   3.428   5.387   7.579  0.3753  0.5593  1.5934
    6SAPS  H11B  677   3.433   5.209   7.597 -1.3112  0.6209  0.7780
    6SAPS     P  678   3.507   5.154   7.334 -0.0518 -0.0757 -0.0196
    6SAPS   O13  679   3.639   5.093   7.361  0.2626  0.1355  0.2795
    6SAPS   O14  680   3.388   5.075   7.362 -0.0902 -0.8766  0.2258
    6SAPS   O12  681   3.489   5.286   7.410  0.0048  0.4450  0.2290
    6SAPS   O11  682   3.513   5.204   7.187 -0.2194  0.2268  0.3389
    6SAPS    C1  683   3.499   5.334   7.140  0.3787 -0.0051 -0.1690
    6SAPS    HA  684   3.571   5.393   7.199  0.9331 -1.2501  0.4451
    6SAPS    HB  685   3.540   5.334   7.036 -0.2596 -3.1400 -0.5303
    6SAPS    C2  686   3.357   5.393   7.137  0.2309  0.8486 -0.1888
    6SAPS    HS  687   3.317   5.378   7.240  1.4980  0.9177  0.3338
    6SAPS   O21  688   3.277   5.317   7.045 -0.2833 -0.6615 -0.4650
    6SAPS   C21  689   3.143   5.320   7.060  0.4122  0.2490  0.0392
    6SAPS   O22  690   3.079   5.385   7.142  0.0145  0.0177 -0.3975
    6SAPS   C22  691   3.091   5.223   6.948  0.6360 -0.4205 -0.6411
    6SAPS   H2R  692   3.167   5.161   6.895  0.1057  1.7815 -4.3203
    6SAPS   H2S  693   3.018   5.150   6.991 -0.1881  0.7617  0.0063
    6SAPS    C3  694   3.347   5.545   7.106  0.0651 -0.1452  0.6262
    6SAPS    HX  695   3.400   5.591   7.192  1.9068  1.3344 -1.1852
    6SAPS    HY  696   3.241   5.578   7.096 -0.1635 -1.4443 -2.1806
    6SAPS   O31  697   3.417   5.567   6.985  0.6590 -0.2087  0.4306
    6SAPS   C31  698   3.336   5.573   6.872  0.1395  0.6737 -0.0682
    6SAPS   O32  699   3.219   5.569   6.872 -0.2354 -0.1955  0.0268
    6SAPS   C32  700   3.427   5.573   6.749 -0.3727  0.1365 -0.0729
    6SAPS   H2X  701   3.510   5.504   6.776  0.4970  0.7117 -1.1650
    6SAPS   H2Y  702   3.467   5.677   6.749 -0.7955  0.3073 -0.6967
    6SAPS   C23  703   3.008   5.305   6.849  0.0078  0.0869 -0.9749
    6SAPS   H3R  704   3.058   5.400   6.821 -2.0473  1.2112 -1.0211
    6SAPS   H3S  705   2.932   5.352   6.915  2.0344  0.7316  1.0377
    6SAPS   C24  706   2.941   5.227   6.737  0.7444 -0.3153  0.0071
    6SAPS   H4R  707   2.898   5.141   6.793 -1.0556  1.2415  1.1586
    6SAPS   H4S  708   3.026   5.202   6.670  0.8458  0.2295 -0.0726
    6SAPS   C25  709   2.835   5.311   6.666 -0.0926 -0.5287 -0.1377
    6SAPS   H5R  710   2.742   5.325   6.723 -0.0592 -1.0453  0.0506
    6SAPS   C26  711   2.862   5.363   6.546  0.7145  0.3650 -0.0076
    6SAPS   H6R  712   2.795   5.447   6.523 -0.4860  0.2437  2.6469
    6SAPS   C27  713   2.990   5.356   6.457 -0.1979 -0.8047  0.1554
    6SAPS   H7R  714   3.080   5.318   6.510  1.5119  2.6511 -0.0105
    6SAPS   H7S  715   3.018   5.456   6.418 -2.4744 -0.0942  0.1683
    6SAPS   C28  716   2.963   5.258   6.344 -0.2256 -0.1588  0.0281
    6SAPS   H8R  717   2.897   5.173   6.369  0.5553 -0.7120  0.2404
    6SAPS   C29  718   3.022   5.265   6.224 -0.1814 -0.3302  0.1721
    6SAPS   H9R  719   2.999   5.192   6.145  1.9883 -2.5419  1.4323
    6SAPS  C210  720   3.112   5.370   6.168 -0.4710  0.7417 -0.1958
    6SAPS  H10R  721   3.203   5.322   6.127 -0.7928 -0.6820  0.7061
    6SAPS  H10S  722   3.140   5.454   6.235  2.7887  0.6853 -1.3284
    6SAPS  C211  723   3.030   5.422   6.056  0.2107 -0.0580  0.6796
    6SAPS  H11R  724   2.939   5.476   6.085 -0.5402  0.2594 -1.9874
    6SAPS  C212  725   3.067   5.438   5.931 -0.3458  0.1053  0.3430
    6SAPS  H12R  726   2.985   5.458   5.861 -1.2681 -1.3416  0.9818
    6SAPS  C213  727   3.198   5.377   5.864 -0.1023 -0.5351  0.6949
    6SAPS  H13R  728   3.244   5.293   5.920 -1.3910 -2.2647 -0.7231
    6SAPS  H13S  729   3.277   5.455   5.858  0.9046 -1.6047 -1.7902
    6SAPS  C214  730   3.179   5.333   5.718 -0.1159  0.4470 -0.1114
    6SAPS  H14R  731   3.232   5.387   5.638 -0.6614 -0.1967 -0.9266
    6SAPS  C215  732   3.095   5.240   5.673  0.4129 -0.2170  0.9175
    6SAPS  H15R  733   3.089   5.208   5.568  1.3919 -2.4873  1.4883
    6SAPS  C216  734   3.003   5.152   5.769 -0.1508  0.4459  0.6033
    6SAPS  H16R  735   3.019   5.170   5.877 -0.8698  3.8035  0.2683
    6SAPS  H16S  736   3.019   5.048   5.734 -2.4518  0.5107 -0.8342
    6SAPS  C217  737   2.848   5.173   5.751  0.6663  0.4003 -0.1903
    6SAPS  H17R  738   2.830   5.279   5.778  3.0808  0.6803  0.5414
    6SAPS  H17S  739   2.797   5.112   5.828  2.1585 -1.1947 -0.4095
    6SAPS  C218  740   2.796   5.127   5.618  0.0852 -0.5621  1.0055
    6SAPS  H18R  741   2.855   5.036   5.596  1.5182  0.6803 -0.5222
    6SAPS  H18S  742   2.819   5.201   5.538  0.1226 -2.6633 -1.0289
    6SAPS  C219  743   2.643   5.115   5.610 -0.1977  0.1712  0.2429
    6SAPS  H19R  744   2.629   5.068   5.511  1.6805  0.3202 -0.1409
    6SAPS  H19S  745   2.582   5.208   5.608 -1.3131 -0.5399  0.3531
    6SAPS  C220  746   2.583   5.030   5.712 -0.2111  0.2146 -0.8263
    6SAPS  H20R  747   2.559   5.093   5.801 -1.4997  1.6152 -2.1128
    6SAPS  H20S  748   2.640   4.939   5.740 -1.6453 -0.2902  0.6899
    6SAPS  H20T  749   2.478   5.007   5.681 -1.3116  2.2108  1.1190
    6SAPS   C33  750   3.369   5.531   6.608 -0.3337 -0.1383 -0.3086
    6SAPS   H3X  751   3.275   5.582   6.578 -1.0783 -1.0543  0.4078
    6SAPS   H3Y  752   3.338   5.425   6.611 -0.7754  0.0066  0.4093
    6SAPS   C34  753   3.473   5.553   6.502 -0.4296  0.0774  0.0023
    6SAPS   H4X  754   3.550   5.473   6.503 -0.8623 -0.3369  0.4879
    6SAPS   H4Y  755   3.517   5.655   6.516 -0.8216  0.1171  0.9464
    6SAPS   C35  756   3.419   5.529   6.362 -0.4268  0.3749  0.6141
    6SAPS   H5X  757   3.367   5.618   6.320 -0.8146  0.6866  1.7324
    6SAPS   H5Y  758   3.344   5.448   6.374 -1.0652  0.6313 -1.2352
    6SAPS   C36  759   3.529   5.495   6.259  0.5054 -0.5242  0.3154
    6SAPS   H6X  760   3.569   5.392   6.275 -1.0300 -1.0082  1.2988
    6SAPS   H6Y  761   3.604   5.577   6.263  1.0244 -0.7955 -2.2390
    6SAPS   C37  762   3.484   5.489   6.109 -0.4777 -0.9342 -0.7048
    6SAPS   H7X  763   3.426   5.582   6.088  0.1064 -0.4937 -0.3923
    6SAPS   H7Y  764   3.422   5.398   6.094 -0.9652 -0.6951 -0.1882
    6SAPS   C38  765   3.601   5.505   6.004 -0.1123  0.1213 -0.5249
    6SAPS   H8X  766   3.679   5.429   6.022 -0.1965  0.1365 -0.0990
    6SAPS   H8Y  767   3.640   5.609   6.012  0.4417 -0.1098 -0.2118
    6SAPS   C39  768   3.548   5.478   5.869 -0.0199 -0.2255  0.1632
    6SAPS   H9X  769   3.486   5.567   5.848 -0.9634 -0.3692  2.1350
    6SAPS   H9Y  770   3.484   5.388   5.857 -0.8360  0.2356  0.9588
    6SAPS  C310  771   3.664   5.471   5.775 -0.6048 -0.4612 -0.1882
    6SAPS  H10X  772   3.739   5.408   5.827 -2.0965 -1.8638  0.3401
    6SAPS  H10Y  773   3.702   5.572   5.747  1.8050  0.0675  4.0530
    6SAPS  C311  774   3.642   5.395   5.647  0.3938 -0.0837 -0.0645
    6SAPS  H11X  775   3.620   5.291   5.679 -2.0593  0.8181  1.5167
    6SAPS  H11Y  776   3.729   5.398   5.579 -0.1302  1.3292 -0.7239
    6SAPS  C312  777   3.529   5.463   5.560 -0.5104  0.3829  0.2716
    6SAPS  H12X  778   3.565   5.555   5.510 -2.5779  1.5337  0.8075
    6SAPS  H12Y  779   3.450   5.504   5.627 -1.5730 -1.4496  0.2167
    6SAPS  C313  780   3.467   5.376   5.457  0.2160  0.5666  0.5976
    6SAPS  H13X  781   3.426   5.290   5.515 -0.7156 -0.2342 -1.1737
    6SAPS  H13Y  782   3.547   5.328   5.398 -0.1706 -0.8226  1.1524
    6SAPS  C314  783   3.364   5.426   5.358 -0.2107 -0.3391  0.1640
    6SAPS  H14X  784   3.403   5.455   5.258  3.3509  0.8707  1.7386
    6SAPS  H14Y  785   3.318   5.516   5.403 -1.0134 -0.6615 -0.0032
    6SAPS  C315  786   3.246   5.325   5.337 -0.4230  0.1919 -0.1893
    6SAPS  H15X  787   3.215   5.306   5.442 -1.2925  1.6087 -0.1674
    6SAPS  H15Y  788   3.285   5.228   5.299  0.4096  0.5289 -0.2237
    6SAPS  C316  789   3.127   5.378   5.261  0.8093 -0.7880  0.5920
    6SAPS  H16X  790   3.068   5.285   5.242  0.5320 -0.0472 -2.8772
    6SAPS  H16Y  791   3.161   5.422   5.164  0.0155  1.3062  1.2118
    6SAPS  C317  792   3.036   5.489   5.319 -0.0087  0.0890  0.2545
    6SAPS  H17X  793   3.098   5.581   5.331  0.4257 -0.3795  1.9462
    6SAPS  H17Y  794   2.994   5.452   5.415 -0.6882 -2.0229 -0.7904
    6SAPS  C318  795   2.910   5.508   5.232  0.6627 -0.2828  0.5103
    6SAPS  H18X  796   2.951   5.531   5.131  3.8872 -3.0047  1.0317
    6SAPS  H18Y  797   2.844   5.591   5.266  0.4155 -1.3806  2.8651
    6SAPS  H18Z  798   2.855   5.412   5.224 -0.9272  0.6400 -0.1738
    7SAPS     N  799   5.506   6.047   7.917  0.1602  0.5402 -0.1527
    7SAPS   HN1  800   5.515   5.951   7.955 -3.2546 -0.4172 -1.4062
    7SAPS   HN2  801   5.557   6.057   7.826 -1.0516  2.9224 -0.6557
    7SAPS   HN3  802   5.544   6.121   7.979 -0.3573  0.0753  0.7226
    7SAPS   C12  803   5.362   6.060   7.886  0.0750 -0.1144  0.1337
    7SAPS  H12A  804   5.315   5.997   7.960 -1.9216  0.2348 -0.7592
    7SAPS   C13  805   5.295   6.200   7.903  0.1100  0.2801  0.3207
    7SAPS  O13A  806   5.368   6.305   7.911 -0.3813  0.0453 -0.3469
    7SAPS  O13B  807   5.172   6.212   7.929  0.5830  0.2397 -0.2607
    7SAPS   C11  808   5.334   5.994   7.750  0.3128  0.2427  0.0536
    7SAPS  H11A  809   5.399   6.046   7.676  1.3759 -2.7337 -1.2690
    7SAPS  H11B  810   5.229   6.016   7.722  0.5125  0.9275 -0.1738
    7SAPS     P  811   5.257   5.745   7.748 -0.0297 -0.3643  0.1272
    7SAPS   O13  812   5.318   5.619   7.788  0.4800  0.1329  0.4136
    7SAPS   O14  813   5.152   5.793   7.839  0.1803  0.1242 -0.0563
    7SAPS   O12  814   5.371   5.857   7.749  0.7209  0.7399  0.1734
    7SAPS   O11  815   5.208   5.748   7.604 -0.5137  0.0903  0.4386
    7SAPS    C1  816   5.305   5.734   7.494 -0.4820  0.3710  0.1618
    7SAPS    HA  817   5.412   5.735   7.526 -0.1273 -0.7821 -0.9133
    7SAPS    HB  818   5.299   5.633   7.448 -1.0272 -0.2993  1.6282
    7SAPS    C2  819   5.294   5.849   7.391  0.1289 -0.2227  0.8227
    7SAPS    HS  820   5.271   5.944   7.445 -1.1655  0.1624 -0.3257
    7SAPS   O21  821   5.177   5.815   7.309  0.4086 -0.1936 -0.3155
    7SAPS   C21  822   5.142   5.907   7.218  0.0553 -0.2870 -0.1864
    7SAPS   O22  823   5.195   6.013   7.201 -0.4325 -0.6829  0.5149
    7SAPS   C22  824   5.020   5.861   7.137  0.3572  0.3741 -0.0784
    7SAPS   H2R  825   4.941   5.826   7.206 -1.3848  3.3319 -0.3828
    7SAPS   H2S  826   4.976   5.952   7.090  1.0484  0.5537 -0.3954
    7SAPS    C3  827   5.423   5.854   7.310 -0.2043  0.5225 -0.0015
    7SAPS    HX  828   5.492   5.888   7.390  0.0205 -1.2127  0.5684
    7SAPS    HY  829   5.424   5.934   7.233  0.1050  0.3290 -0.1981
    7SAPS   O31  830   5.449   5.724   7.256  0.5391  0.4350  0.6767
    7SAPS   C31  831   5.543   5.709   7.161 -0.0583  0.6232  0.3862
    7SAPS   O32  832   5.611   5.800   7.112 -0.1765 -0.2836 -0.1799
    7SAPS   C32  833   5.535   5.574   7.103 -0.8874  0.3361 -0.6586
    7SAPS   H2X  834   5.442   5.570   7.042 -0.1824  2.2752 -1.9376
    7SAPS   H2Y  835   5.527   5.504   7.189  1.7141  0.9130  0.1274
    7SAPS   C23  836   5.050   5.749   7.039 -0.0505 -0.3178  0.4604
    7SAPS   H3R  837   4.957   5.697   7.007 -0.2785 -0.5345  1.4278
    7SAPS   H3S  838   5.115   5.675   7.091  0.8454  0.3899  0.3836
    7SAPS   C24  839   5.128   5.796   6.918  0.0856 -0.1431 -0.9394
    7SAPS   H4R  840   5.154   5.699   6.870 -2.1530 -1.4477  0.2932
    7SAPS   H4S  841   5.222   5.836   6.962 -0.1877 -1.3815  0.8922
    7SAPS   C25  842   5.072   5.897   6.819  0.2017  0.5788 -0.6896
    7SAPS   H5R  843   5.079   5.999   6.859  1.0763 -0.1289  1.0911
    7SAPS   C26  844   4.979   5.892   6.723  0.1285  0.7030  0.6656
    7SAPS   H6R  845   4.957   5.989   6.677  1.8869  0.7432 -0.1492
    7SAPS   C27  846   4.899   5.772   6.675 -0.9104  0.5048  0.0744
    7SAPS   H7R  847   4.797   5.795   6.638 -0.7035  1.3206 -0.0072
    7SAPS   H7S  848   4.882   5.703   6.761 -1.6430  0.6153  0.0166
    7SAPS   C28  849   4.970   5.678   6.582  0.0367  0.0734 -0.9740
    7SAPS   H8R  850   5.072   5.661   6.621 -0.0069  1.3842 -0.2367
    7SAPS   C29  851   4.933   5.621   6.470  0.5774 -0.2987 -0.0967
    7SAPS   H9R  852   5.005   5.566   6.409 -0.1055  0.3185 -1.5154
    7SAPS  C210  853   4.797   5.648   6.400 -0.5380  0.5237  0.6169
    7SAPS  H10R  854   4.718   5.657   6.478  0.1077  0.0175  1.3441
    7SAPS  H10S  855   4.771   5.556   6.343 -1.5770 -0.9761  3.3179
    7SAPS  C211  856   4.808   5.783   6.329  0.5315 -0.7027  0.5349
    7SAPS  H11R  857   4.833   5.862   6.401 -2.1060 -0.3321  1.1351
    7SAPS  C212  858   4.796   5.816   6.196  0.6128  0.3605 -0.2992
    7SAPS  H12R  859   4.814   5.922   6.174 -1.8582  1.4928  2.5116
    7SAPS  C213  860   4.751   5.714   6.088  0.2963  0.4848  0.6323
    7SAPS  H13R  861   4.651   5.737   6.045  1.3933 -1.4850 -3.4569
    7SAPS  H13S  862   4.725   5.612   6.124 -0.0100 -0.1721 -1.3527
    7SAPS  C214  863   4.838   5.705   5.969  0.1244  0.2591  0.3214
    7SAPS  H14R  864   4.893   5.610   5.960  0.5448  0.5600 -0.3875
    7SAPS  C215  865   4.853   5.791   5.861  0.5127  0.2382  0.1326
    7SAPS  H15R  866   4.925   5.761   5.783  1.7548  0.0701  1.3030
    7SAPS  C216  867   4.794   5.928   5.853 -0.0683  0.3166  0.0273
    7SAPS  H16R  868   4.727   5.955   5.937  0.3862 -0.0776  0.5214
    7SAPS  H16S  869   4.740   5.936   5.757  1.2761  1.1218 -0.6921
    7SAPS  C217  870   4.904   6.039   5.833 -0.2330  0.1608 -0.3861
    7SAPS  H17R  871   4.959   6.005   5.744 -2.8322 -1.7417 -1.4064
    7SAPS  H17S  872   4.973   6.035   5.920 -1.1524 -0.1674  0.3428
    7SAPS  C218  873   4.843   6.179   5.801  0.4704  0.5566  0.0656
    7SAPS  H18R  874   4.842   6.237   5.896 -1.3340  0.4595  0.1447
    7SAPS  H18S  875   4.740   6.185   5.758  0.4303  1.6396  0.2862
    7SAPS  C219  876   4.920   6.263   5.695 -0.0118  0.5229  0.0386
    7SAPS  H19R  877   5.030   6.260   5.711 -0.0428  0.1922  0.2047
    7SAPS  H19S  878   4.876   6.364   5.707 -0.5590  0.4933 -1.4840
    7SAPS  C220  879   4.909   6.216   5.543  0.2626  0.0568 -0.8053
    7SAPS  H20R  880   4.936   6.109   5.533  0.1377  0.1049 -1.7831
    7SAPS  H20S  881   4.978   6.277   5.480 -0.8135  1.4118 -0.7125
    7SAPS  H20T  882   4.803   6.226   5.513  0.3652 -0.0562 -1.2101
    7SAPS   C33  883   5.662   5.533   7.018  0.4910  0.4677 -0.6903
    7SAPS   H3X  884   5.755   5.559   7.074 -0.4649  1.4455  0.5096
    7SAPS   H3Y  885   5.668   5.590   6.922 -0.4477  0.4003 -0.7960
    7SAPS   C34  886   5.663   5.381   6.972 -0.0532 -0.3100  0.1970
    7SAPS   H4X  887   5.572   5.374   6.909  0.2595 -0.9848 -0.1829
    7SAPS   H4Y  888   5.643   5.307   7.052 -1.4427 -0.2462 -0.0725
    7SAPS   C35  889   5.794   5.346   6.892  0.0211  0.4185  0.3185
    7SAPS   H5X  890   5.802   5.235   6.886 -0.7722  0.4513 -3.0128
    7SAPS   H5Y  891   5.889   5.387   6.933 -0.8011  1.2989  1.3952
    7SAPS   C36  892   5.779   5.387   6.746 -1.2144 -0.2396 -0.2561
    7SAPS   H6X  893   5.765   5.497   6.748 -1.3238 -0.1511 -2.6802
    7SAPS   H6Y  894   5.687   5.342   6.702  1.4978 -3.7462 -3.0303
    7SAPS   C37  895   5.896   5.342   6.658 -0.1582 -0.1023 -0.0999
    7SAPS   H7X  896   5.916   5.233   6.667 -0.5429 -0.2766 -1.2589
    7SAPS   H7Y  897   5.992   5.394   6.678  0.6180 -1.1914 -0.9206
    7SAPS   C38  898   5.855   5.376   6.516 -0.0176 -0.5647  0.2227
    7SAPS   H8X  899   5.819   5.479   6.496 -0.6855 -0.6312  1.0443
    7SAPS   H8Y  900   5.771   5.308   6.488  0.7997 -0.6714 -2.1919
    7SAPS   C39  901   5.956   5.355   6.408 -0.6821 -0.3975  0.4752
    7SAPS   H9X  902   6.005   5.257   6.422 -1.7367 -1.0099  0.0084
    7SAPS   H9Y  903   6.031   5.435   6.422 -0.1585 -0.7740 -0.1542
    7SAPS  C310  904   5.893   5.362   6.264 -0.3831 -1.0125  0.8166
    7SAPS  H10X  905   5.840   5.459   6.256 -0.0986 -0.9301 -0.1970
    7SAPS  H10Y  906   5.828   5.273   6.251 -1.2224 -0.5315  1.5642
    7SAPS  C311  907   5.993   5.346   6.142  0.9207  0.2286  0.2799
    7SAPS  H11X  908   6.050   5.442   6.136  0.1294  0.6340 -1.1224
    7SAPS  H11Y  909   5.934   5.349   6.049 -0.6227 -1.2580  1.1654
    7SAPS  C312  910   6.105   5.242   6.163 -0.0707 -0.1966  0.1933
    7SAPS  H12X  911   6.059   5.144   6.185 -1.1601  0.1323 -0.4963
    7SAPS  H12Y  912   6.169   5.261   6.252 -0.9851  1.0726  0.6059
    7SAPS  C313  913   6.193   5.237   6.031 -0.2797 -0.4423 -0.6242
    7SAPS  H13X  914   6.284   5.179   6.054 -1.2929 -1.2247  1.6502
    7SAPS  H13Y  915   6.223   5.340   6.003 -0.3497 -0.2038  0.1646
    7SAPS  C314  916   6.120   5.170   5.908 -0.9269  0.4984 -0.4217
    7SAPS  H14X  917   6.029   5.224   5.877 -1.0968 -0.3463 -1.4519
    7SAPS  H14Y  918   6.078   5.071   5.939 -1.4515  0.7969 -0.1624
    7SAPS  C315  919   6.207   5.143   5.791 -0.1312 -0.1676 -0.1718
    7SAPS  H15X  920   6.157   5.084   5.711 -1.9037 -0.4575  1.0796
    7SAPS  H15Y  921   6.300   5.090   5.818 -0.2002 -0.6602 -0.8807
    7SAPS  C316  922   6.248   5.278   5.718 -0.5133 -0.8358  0.0066
    7SAPS  H16X  923   6.305   5.333   5.795 -1.6149  1.7931 -0.9652
    7SAPS  H16Y  924   6.160   5.340   5.691  0.0276  0.2862  0.7589
    7SAPS  C317  925   6.339   5.245   5.600 -0.6352 -0.9355 -0.0902
    7SAPS  H17X  926   6.287   5.178   5.529  0.2628 -1.3327 -0.3897
    7SAPS  H17Y  927   6.432   5.198   5.638  0.0343  1.3350  1.2921
    7SAPS  C318  928   6.403   5.368   5.531 -0.7262  0.3662 -0.1812
    7SAPS  H18X  929   6.461   5.426   5.606  0.3650 -0.1331 -0.6212
    7SAPS  H18Y  930   6.328   5.429   5.477 -2.3685 -0.2706  1.3038
    7SAPS  H18Z  931   6.484   5.343   5.459 -1.6306 -3.2936 -0.1386
    8SAPS     N  932   2.992   6.552   7.688 -0.1528  0.0136  0.1943
    8SAPS   HN1  933   2.997   6.626   7.615  0.7597 -1.3264 -1.1597
    8SAPS   HN2  934   3.070   6.573   7.755 -0.5366  2.1100  0.0531
    8SAPS   HN3  935   2.997   6.457   7.646 -0.9285  0.2743 -0.5037
    8SAPS   C12  936   2.868   6.568   7.775 -0.4701  0.0955 -0.0245
    8SAPS  H12A  937   2.869   6.489   7.848 -2.7700  0.2388  0.2414
    8SAPS   C13  938   2.874   6.705   7.849 -0.2316 -0.5914  0.1950
    8SAPS  O13A  939   2.961   6.794   7.821  0.4347  0.1525  0.1241
    8SAPS  O13B  940   2.775   6.739   7.915 -0.8123  0.4539 -0.1836
    8SAPS   C11  941   2.740   6.561   7.689  0.0007 -0.1110 -0.2358
    8SAPS  H11A  942   2.716   6.665   7.658 -2.8806 -0.6230 -0.0688
    8SAPS  H11B  943   2.649   6.550   7.752 -1.9568  0.0786 -2.8757
    8SAPS     P  944   2.647   6.333   7.580  0.0644  0.8850 -0.1917
    8SAPS   O13  945   2.731   6.219   7.619  0.0604 -0.3026  0.3684
    8SAPS   O14  946   2.536   6.374   7.666  0.5278 -0.3998 -0.4359
    8SAPS   O12  947   2.739   6.466   7.581 -0.0906 -0.3543 -0.1326
    8SAPS   O11  948   2.597   6.324   7.425  0.0387  0.0119  0.5255
    8SAPS    C1  949   2.700   6.301   7.324  0.2023 -0.4140  0.1316
    8SAPS    HA  950   2.793   6.252   7.360  0.6245 -0.5300 -1.0745
    8SAPS    HB  951   2.667   6.234   7.241  1.4519  1.6569 -2.1962
    8SAPS    C2  952   2.729   6.433   7.245 -1.0974 -0.3841  0.7697
    8SAPS    HS  953   2.732   6.510   7.324 -0.6499  1.1144 -0.6450
    8SAPS   O21  954   2.619   6.448   7.149 -0.0035 -0.1042  0.7700
    8SAPS   C21  955   2.585   6.572   7.131  0.0190 -0.4740  0.6645
    8SAPS   O22  956   2.631   6.668   7.197  0.3014  0.2373  0.1150
    8SAPS   C22  957   2.470   6.589   7.031  0.3965 -1.0819  0.6379
    8SAPS   H2R  958   2.424   6.493   6.996  1.9793 -0.9994 -1.9544
    8SAPS   H2S  959   2.390   6.642   7.087  0.4180  0.2762 -0.5494
    8SAPS    C3  960   2.874   6.431   7.172 -0.3199  0.2324 -0.3561
    8SAPS    HX  961   2.867   6.340   7.109 -2.4783  0.9751 -1.2771
    8SAPS    HY  962   2.955   6.422   7.248 -0.5638 -0.5369 -0.1808
    8SAPS   O31  963   2.894   6.548   7.098  0.1270  0.0247  0.5821
    8SAPS   C31  964   2.979   6.537   6.992 -0.7021 -0.9355 -0.5903
    8SAPS   O32  965   3.048   6.438   6.983  0.3812  0.0182  0.4911
    8SAPS   C32  966   2.979   6.661   6.901  0.1873 -0.2083 -0.4092
    8SAPS   H2X  967   3.033   6.746   6.948 -0.9205  0.1516  0.2456
    8SAPS   H2Y  968   2.872   6.683   6.883 -0.3386 -2.2703 -0.1054
    8SAPS   C23  969   2.505   6.672   6.908  0.1784  0.1202  0.5422
    8SAPS   H3R  970   2.558   6.765   6.935 -1.0168  0.1416  3.1266
    8SAPS   H3S  971   2.410   6.697   6.855 -1.9236 -0.6564  3.6346
    8SAPS   C24  972   2.591   6.605   6.801  0.1997 -0.3202  0.5776
    8SAPS   H4R  973   2.674   6.542   6.839  0.6674 -1.1169 -1.6322
    8SAPS   H4S  974   2.646   6.690   6.756  0.1037 -0.4904  0.1342
    8SAPS   C25  975   2.526   6.507   6.704 -0.0494 -0.0066 -0.2731
    8SAPS   H5R  976   2.480   6.423   6.757  2.0279  0.7308  3.0147
    8SAPS   C26  977   2.522   6.493   6.570 -0.2674  0.2025 -0.2611
    8SAPS   H6R  978   2.451   6.418   6.530  0.9790 -1.0791 -0.1760
    8SAPS   C27  979   2.578   6.594   6.470 -0.1698  0.3704  0.2680
    8SAPS   H7R  980   2.669   6.631   6.523 -2.4410 -0.3941  5.2314
    8SAPS   H7S  981   2.512   6.681   6.451  1.8311  1.8880 -0.1378
    8SAPS   C28  982   2.622   6.527   6.344 -0.0414  0.0239  0.1553
    8SAPS   H8R  983   2.697   6.452   6.369  3.3410  3.0433 -0.1388
    8SAPS   C29  984   2.595   6.565   6.218  1.0069  0.4525  0.3691
    8SAPS   H9R  985   2.629   6.497   6.138  1.1123  2.5925 -1.5286
    8SAPS  C210  986   2.503   6.679   6.185  0.6613 -0.8481  0.1045
    8SAPS  H10R  987   2.568   6.769   6.178  0.8732 -1.0805 -1.1238
    8SAPS  H10S  988   2.416   6.681   6.253 -0.1089 -1.9709 -0.8143
    8SAPS  C211  989   2.450   6.666   6.042 -0.1344  0.2068 -1.2065
    8SAPS  H11R  990   2.341   6.653   6.036 -0.0185 -1.3819 -0.3681
    8SAPS  C212  991   2.516   6.692   5.927  0.3591  0.6400  0.3108
    8SAPS  H12R  992   2.455   6.669   5.839  0.7259 -2.0385  0.6854
    8SAPS  C213  993   2.661   6.721   5.903 -0.0234 -0.5688 -0.2270
    8SAPS  H13R  994   2.710   6.721   6.003  2.3256 -0.2294 -1.3097
    8SAPS  H13S  995   2.685   6.820   5.860 -0.4364 -1.6511 -3.1849
    8SAPS  C214  996   2.724   6.606   5.825 -0.1179 -0.1791  0.6695
    8SAPS  H14R  997   2.782   6.544   5.896  1.6082 -0.5383 -0.9468
    8SAPS  C215  998   2.713   6.576   5.693 -0.8898  0.1316  0.0949
    8SAPS  H15R  999   2.751   6.480   5.654 -1.3334 -1.0648  2.3987
    8SAPS  C216 1000   2.623   6.650   5.598 -0.9788 -0.0105 -0.0012
    8SAPS  H16R 1001   2.573   6.732   5.654 -0.6974  0.3836 -0.3220
    8SAPS  H16S 1002   2.554   6.580   5.546 -0.4140 -1.0377  0.6030
    8SAPS  C217 1003   2.700   6.726   5.487 -0.5539  0.2720 -0.4414
    8SAPS  H17R 1004   2.781   6.664   5.443 -1.1195 -0.5159 -0.3910
    8SAPS  H17S 1005   2.743   6.813   5.541 -2.3943  0.7075  0.4247
    8SAPS  C218 1006   2.604   6.782   5.373  0.3036 -0.2643  0.0408
    8SAPS  H18R 1007   2.519   6.828   5.428  0.7162 -0.2241  0.6469
    8SAPS  H18S 1008   2.570   6.693   5.315  0.8728 -1.3278  1.2839
    8SAPS  C219 1009   2.662   6.884   5.264 -0.0101 -0.1539  0.0741
    8SAPS  H19R 1010   2.691   6.970   5.328  0.5639 -0.3533  0.0901
    8SAPS  H19S 1011   2.572   6.893   5.200  0.0985 -2.9331 -0.6276
    8SAPS  C220 1012   2.775   6.843   5.169  0.2100 -0.5811  0.4105
    8SAPS  H20R 1013   2.844   6.772   5.219 -0.1878 -1.4156 -0.1923
    8SAPS  H20S 1014   2.838   6.927   5.132 -1.0066 -0.1722 -0.8164
    8SAPS  H20T 1015   2.727   6.790   5.084  0.9175  0.8753 -0.9532
    8SAPS   C33 1016   3.042   6.631   6.766  0.0743 -0.3393 -0.2379
    8SAPS   H3X 1017   3.150   6.611   6.781 -0.5742 -4.3761  0.2099
    8SAPS   H3Y 1018   3.022   6.727   6.714  0.2181  0.6074  1.3882
    8SAPS   C34 1019   2.997   6.520   6.683 -0.4057  0.4796  0.3005
    8SAPS   H4X 1020   2.887   6.525   6.673 -0.5083 -1.2404  0.3507
    8SAPS   H4Y 1021   3.030   6.420   6.719  0.1441  0.6938  0.4024
    8SAPS   C35 1022   3.068   6.536   6.544 -0.1838 -0.1379  0.0061
    8SAPS   H5X 1023   3.178   6.540   6.553 -0.2167  1.8422  0.0303
    8SAPS   H5Y 1024   3.036   6.631   6.496  0.3462 -0.3395 -0.7643
    8SAPS   C36 1025   3.033   6.416   6.447 -0.7020 -0.2357 -0.0926
    8SAPS   H6X 1026   2.923   6.399   6.440 -1.2553  2.5954  0.4389
    8SAPS   H6Y 1027   3.086   6.328   6.487 -0.9111  0.7169  2.4411
    8SAPS   C37 1028   3.095   6.444   6.304  0.0874 -0.2244 -0.7164
    8SAPS   H7X 1029   3.105   6.348   6.250  1.4593 -1.5744  1.7616
    8SAPS   H7Y 1030   3.197   6.489   6.312 -0.3948  0.6340  1.5709
    8SAPS   C38 1031   3.019   6.552   6.218  0.1002  0.1412  0.2134
    8SAPS   H8X 1032   2.996   6.642   6.280  0.8886  0.6416 -0.2032
    8SAPS   H8Y 1033   2.916   6.519   6.191  0.8079 -0.7342 -1.5632
    8SAPS   C39 1034   3.094   6.584   6.082  0.3832 -0.0339 -0.2279
    8SAPS   H9X 1035   3.067   6.496   6.020 -2.1638  0.0056  0.7100
    8SAPS   H9Y 1036   3.204   6.577   6.096  0.5267 -0.0537 -1.2819
    8SAPS  C310 1037   3.055   6.695   5.995  0.2926 -1.0185  0.5025
    8SAPS  H10X 1038   3.074   6.785   6.058 -1.7503  0.3352 -0.7126
    8SAPS  H10Y 1039   2.946   6.693   5.973  0.8970  0.0679 -3.2999
    8SAPS  C311 1040   3.120   6.713   5.860  0.1822  0.8211 -0.3781
    8SAPS  H11X 1041   3.113   6.613   5.813  4.4047  1.0400 -1.9244
    8SAPS  H11Y 1042   3.228   6.731   5.881 -0.0093 -0.8456  2.5061
    8SAPS  C312 1043   3.076   6.823   5.775 -0.1431  0.7747  0.7401
    8SAPS  H12X 1044   3.113   6.923   5.808 -1.4111  0.6883  2.5841
    8SAPS  H12Y 1045   2.968   6.817   5.800 -1.1002  2.6819 -2.4127
    8SAPS  C313 1046   3.109   6.805   5.623 -0.4769 -0.1980  0.9771
    8SAPS  H13X 1047   3.090   6.899   5.568 -0.5879 -0.4109  0.6481
    8SAPS  H13Y 1048   3.044   6.728   5.575 -1.7676  1.4731 -0.0508
    8SAPS  C314 1049   3.262   6.785   5.604  0.7571  0.1220 -0.6957
    8SAPS  H14X 1050   3.292   6.683   5.636 -0.1913 -0.1595 -0.6623
    8SAPS  H14Y 1051   3.306   6.866   5.666 -2.7646  1.2545  0.5533
    8SAPS  C315 1052   3.292   6.809   5.459  0.6670 -0.2731 -0.3493
    8SAPS  H15X 1053   3.279   6.915   5.428 -0.0761 -0.8470 -2.1717
    8SAPS  H15Y 1054   3.217   6.749   5.402  2.0801 -0.6498 -1.8832
    8SAPS  C316 1055   3.430   6.765   5.391 -0.6723 -0.0461 -0.9112
    8SAPS  H16X 1056   3.512   6.818   5.445 -0.5949  0.6501 -1.7027
    8SAPS  H16Y 1057   3.420   6.801   5.287 -0.4324 -0.5702 -1.1209
    8SAPS  C317 1058   3.459   6.617   5.387 -0.0237  0.6373  0.1136
    8SAPS  H17X 1059   3.383   6.571   5.320 -0.4522  0.7026  0.5537
    8SAPS  H17Y 1060   3.464   6.566   5.485 -0.5783 -1.5994 -0.9567
    8SAPS  C318 1061   3.598   6.582   5.334 -0.4469 -0.2454 -0.5090
    8SAPS  H18X 1062   3.633   6.476   5.337  1.9497  0.4701 -0.8991
    8SAPS  H18Y 1063   3.673   6.635   5.397 -0.2457 -0.4381 -0.5811
    8SAPS  H18Z 1064   3.619   6.626   5.234 -2.6433  0.2156 -0.8061
    9SAPS     N 1065   6.332   4.387   7.432  0.0893  0.4552  0.6674
    9SAPS   HN1 1066   6.395   4.414   7.354  2.2532 -2.0919  1.3677
    9SAPS   HN2 1067   6.335   4.285   7.452 -1.7728  0.6303  2.1067
    9SAPS   HN3 1068   6.238   4.418   7.403  0.7722  2.5584  0.5558
    9SAPS   C12 1069   6.375   4.458   7.556  0.0636  0.1236 -0.1564
    9SAPS  H12A 1070   6.347   4.562   7.546 -1.5799 -0.1457  1.1650
    9SAPS   C13 1071   6.323   4.399   7.687  0.6315  0.1367 -0.2800
    9SAPS  O13A 1072   6.237   4.311   7.683 -0.6091  0.5778 -0.3656
    9SAPS  O13B 1073   6.350   4.462   7.797  0.5172 -0.3765  0.1807
    9SAPS   C11 1074   6.526   4.455   7.549  0.0011 -0.0559  0.3945
    9SAPS  H11A 1075   6.566   4.352   7.563  0.6112 -0.2244 -2.1103
    9SAPS  H11B 1076   6.562   4.517   7.634  1.6956 -0.5397  0.0768
    9SAPS     P 1077   6.728   4.504   7.383  0.4252  0.0784 -0.0177
    9SAPS   O13 1078   6.821   4.587   7.462 -0.5661  0.9005 -0.1355
    9SAPS   O14 1079   6.758   4.359   7.372  0.1959  0.1440 -0.5143
    9SAPS   O12 1080   6.582   4.525   7.428  0.5307  0.0135  0.3369
    9SAPS   O11 1081   6.729   4.554   7.238  0.1346  0.4151 -0.1810
    9SAPS    C1 1082   6.730   4.693   7.209  0.3331 -1.1612 -0.2969
    9SAPS    HA 1083   6.627   4.726   7.181  1.5313  2.8736 -0.6590
    9SAPS    HB 1084   6.762   4.759   7.292 -0.8663  0.9834 -1.4471
    9SAPS    C2 1085   6.812   4.733   7.078  0.0915  0.8248 -0.5649
    9SAPS    HS 1086   6.908   4.788   7.088 -0.1772  1.2876 -0.4697
    9SAPS   O21 1087   6.720   4.808   6.996  0.2691  0.7296  0.0106
    9SAPS   C21 1088   6.756   4.925   6.958  0.2742 -0.0630 -0.4657
    9SAPS   O22 1089   6.846   4.990   7.016  0.0244  0.5941  0.1016
    9SAPS   C22 1090   6.662   4.985   6.845  0.0457 -0.5254  0.1682
    9SAPS   H2R 1091   6.586   4.914   6.806  1.0273 -0.3902 -2.1726
    9SAPS   H2S 1092   6.623   5.073   6.899  2.0576  0.8601 -0.5055
    9SAPS    C3 1093   6.857   4.609   7.003 -0.5705 -0.4731  0.7695
    9SAPS    HX 1094   6.771   4.548   6.969 -0.1704 -0.0441 -1.1303
    9SAPS    HY 1095   6.915   4.556   7.082 -1.1322 -2.2469  0.0475
    9SAPS   O31 1096   6.937   4.633   6.880 -0.9621  0.0360 -0.0295
    9SAPS   C31 1097   6.985   4.515   6.832  0.2978  0.2245 -0.1456
    9SAPS   O32 1098   6.977   4.407   6.893 -0.0980  0.2259 -0.0807
    9SAPS   C32 1099   7.038   4.543   6.684 -0.1800 -0.5269 -0.2129
    9SAPS   H2X 1100   7.149   4.550   6.688 -0.2271  0.4690 -0.4011
    9SAPS   H2Y 1101   6.992   4.643   6.665 -1.6501 -1.3658 -1.2708
    9SAPS   C23 1102   6.741   5.045   6.723  0.3181  0.2796 -0.0671
    9SAPS   H3R 1103   6.818   5.119   6.753 -0.8815  2.2599 -1.5991
    9SAPS   H3S 1104   6.672   5.121   6.680 -0.0308 -0.6734 -1.2317
    9SAPS   C24 1105   6.786   4.944   6.619 -0.5671 -0.1668  0.8813
    9SAPS   H4R 1106   6.724   4.854   6.640 -0.6259 -0.4379 -0.3642
    9SAPS   H4S 1107   6.890   4.909   6.630  0.3611  2.5217  1.3182
    9SAPS   C25 1108   6.783   5.000   6.473  0.6624 -0.2822  0.2088
    9SAPS   H5R 1109   6.871   5.062   6.449 -0.4443  1.1501 -0.2779
    9SAPS   C26 1110   6.675   4.978   6.385 -0.1875 -0.1631 -0.3247
    9SAPS   H6R 1111   6.682   5.007   6.279 -1.7867  0.4461 -0.2937
    9SAPS   C27 1112   6.548   4.903   6.423 -0.6053 -0.2043  0.3544
    9SAPS   H7R 1113   6.532   4.875   6.529 -1.1986  0.0861  0.3515
    9SAPS   H7S 1114   6.547   4.819   6.351  3.6415  0.5789 -0.8539
    9SAPS   C28 1115   6.433   4.989   6.387 -0.0639  0.5616 -0.4500
    9SAPS   H8R 1116   6.407   5.071   6.456  0.9092  2.8899 -2.7022
    9SAPS   C29 1117   6.361   4.977   6.273 -0.7201 -0.5221  0.2303
    9SAPS   H9R 1118   6.269   5.035   6.258 -0.3038 -0.0385 -0.5602
    9SAPS  C210 1119   6.385   4.861   6.181  0.4669  0.5918  0.4971
    9SAPS  H10R 1120   6.363   4.771   6.241  0.4508 -0.7134 -1.3876
    9SAPS  H10S 1121   6.489   4.870   6.143  0.6332 -0.1237  0.7799
    9SAPS  C211 1122   6.296   4.859   6.060 -0.5186  0.5221 -0.6722
    9SAPS  H11R 1123   6.190   4.880   6.080 -1.0151 -2.6767  0.5168
    9SAPS  C212 1124   6.332   4.827   5.933 -0.2387  0.6050 -0.6988
    9SAPS  H12R 1125   6.259   4.825   5.849 -0.5428  2.0912 -0.5087
    9SAPS  C213 1126   6.474   4.803   5.886 -0.2257  0.2137  0.0966
    9SAPS  H13R 1127   6.469   4.715   5.819  0.6886 -0.1704  0.5192
    9SAPS  H13S 1128   6.550   4.782   5.963  0.8779 -1.1318 -1.3050
    9SAPS  C214 1129   6.533   4.925   5.820  0.3119  0.3507  0.5676
    9SAPS  H14R 1130   6.508   5.027   5.856 -1.0774  0.2718 -0.1220
    9SAPS  C215 1131   6.592   4.915   5.696  0.3869  0.4662 -0.0638
    9SAPS  H15R 1132   6.635   5.008   5.657  0.0114  0.5548 -0.2669
    9SAPS  C216 1133   6.606   4.794   5.611 -0.1258  0.9669 -0.1772
    9SAPS  H16R 1134   6.509   4.739   5.615  0.0874  0.6107  0.0263
    9SAPS  H16S 1135   6.682   4.720   5.643 -1.4491 -0.4133 -0.0971
    9SAPS  C217 1136   6.648   4.836   5.467 -0.1883 -0.7544 -0.2761
    9SAPS  H17R 1137   6.653   4.744   5.404  0.0131  0.4944 -2.1976
    9SAPS  H17S 1138   6.750   4.879   5.465 -0.0009 -1.0085  1.9476
    9SAPS  C218 1139   6.553   4.939   5.400 -0.3670  0.6408 -0.7204
    9SAPS  H18R 1140   6.556   5.035   5.456 -1.4512 -0.0262  0.5514
    9SAPS  H18S 1141   6.449   4.900   5.407 -0.8793  1.7439 -1.9172
    9SAPS  C219 1142   6.584   4.960   5.256 -0.0251  0.0299  0.0811
    9SAPS  H19R 1143   6.567   4.864   5.202 -0.6474 -0.9596  1.9420
    9SAPS  H19S 1144   6.688   4.997   5.242 -0.0005 -0.3759 -0.9095
    9SAPS  C220 1145   6.499   5.068   5.192  0.2601  0.0253  0.5754
    9SAPS  H20R 1146   6.509   5.169   5.239 -3.7243  0.5311  0.7067
    9SAPS  H20S 1147   6.392   5.041   5.208 -0.4923  1.8794 -0.8757
    9SAPS  H20T 1148   6.514   5.086   5.083  0.6202  3.9636  1.1221
    9SAPS   C33 1149   6.998   4.448   6.566 -0.0978  0.3238  0.1085
    9SAPS   H3X 1150   6.890   4.422   6.564 -0.3673  1.4188 -0.4886
    9SAPS   H3Y 1151   7.059   4.358   6.588  0.2692 -0.0124 -2.0732
    9SAPS   C34 1152   7.045   4.511   6.427  0.9879  0.1767  0.1799
    9SAPS   H4X 1153   7.032   4.433   6.349 -0.6114  0.3871  0.1916
    9SAPS   H4Y 1154   7.153   4.533   6.423  0.7201  1.6609  0.5299
    9SAPS   C35 1155   6.969   4.639   6.387  0.2828 -0.0994  0.1446
    9SAPS   H5X 1156   6.993   4.726   6.452 -1.9683  0.5735  0.1630
    9SAPS   H5Y 1157   6.863   4.607   6.387  0.4277 -0.6548  1.8945
    9SAPS   C36 1158   6.993   4.667   6.242  0.6526  0.2908 -0.0651
    9SAPS   H6X 1159   6.986   4.583   6.170  0.0126  0.7184 -0.5056
    9SAPS   H6Y 1160   7.103   4.684   6.234  1.1942 -3.2066 -2.6432
    9SAPS   C37 1161   6.930   4.787   6.184  0.2860  0.1531  0.1431
    9SAPS   H7X 1162   6.992   4.873   6.219  0.2735  0.2534 -0.0776
    9SAPS   H7Y 1163   6.830   4.799   6.229 -0.2912 -0.6001 -0.8935
    9SAPS   C38 1164   6.910   4.784   6.034 -0.8480  0.3365 -0.0412
    9SAPS   H8X 1165   6.836   4.703   6.017  0.1130 -1.0812  1.9178
    9SAPS   H8Y 1166   7.009   4.765   5.987 -1.2915 -1.5400 -0.3191
    9SAPS   C39 1167   6.855   4.909   5.969  0.1470  0.3944 -0.1527
    9SAPS   H9X 1168   6.762   4.940   6.019  1.0874  2.0193  0.6679
    9SAPS   H9Y 1169   6.829   4.875   5.866  1.5004 -3.6505  0.6562
    9SAPS  C310 1170   6.951   5.024   5.974  0.1093 -0.2388 -0.1803
    9SAPS  H10X 1171   7.050   4.994   5.932 -1.3413 -2.1108 -2.5735
    9SAPS  H10Y 1172   6.938   5.071   6.073 -1.2985 -0.8329 -0.0683
    9SAPS  C311 1173   6.899   5.124   5.875  1.0911  0.1119 -0.1488
    9SAPS  H11X 1174   6.788   5.125   5.880  0.9501  1.7808 -2.2926
    9SAPS  H11Y 1175   6.935   5.099   5.773  1.4986 -0.3265  0.0996
    9SAPS  C312 1176   6.947   5.262   5.904 -0.0210 -0.0877 -0.2223
    9SAPS  H12X 1177   7.054   5.270   5.876 -0.3709  1.8202 -1.2087
    9SAPS  H12Y 1178   6.930   5.288   6.010 -0.0101 -0.1000 -0.2175
    9SAPS  C313 1179   6.885   5.376   5.819 -0.1713 -0.6892  0.7723
    9SAPS  H13X 1180   6.775   5.388   5.831 -0.0302  1.4128  0.4356
    9SAPS  H13Y 1181   6.914   5.357   5.714 -0.2060  0.1759  0.6005
    9SAPS  C314 1182   6.949   5.509   5.861  0.1029  0.2115 -0.1881
    9SAPS  H14X 1183   7.058   5.488   5.859 -0.0473 -0.6130 -0.1080
    9SAPS  H14Y 1184   6.912   5.541   5.961 -1.3418  1.0292 -0.9500
    9SAPS  C315 1185   6.925   5.621   5.764  0.1455  0.2113  0.3292
    9SAPS  H15X 1186   6.817   5.641   5.750  0.7649  1.9831 -2.9183
    9SAPS  H15Y 1187   6.963   5.587   5.665 -0.7778 -2.7469  0.8931
    9SAPS  C316 1188   6.993   5.751   5.801 -0.0078 -0.8230 -0.8528
    9SAPS  H16X 1189   7.101   5.734   5.821  0.3519  0.7699 -1.3390
    9SAPS  H16Y 1190   6.946   5.763   5.901  1.3417 -1.9993 -0.0485
    9SAPS  C317 1191   6.964   5.873   5.714  0.5098  1.0594  0.6418
    9SAPS  H17X 1192   6.855   5.894   5.708  0.3222 -0.1020 -0.6296
    9SAPS  H17Y 1193   6.988   5.837   5.611 -2.4616 -0.9597  0.5385
    9SAPS  C318 1194   7.049   5.990   5.754 -0.1938 -0.5487  0.0729
    9SAPS  H18X 1195   7.153   5.954   5.741 -0.3602 -1.1559  0.3490
    9SAPS  H18Y 1196   7.020   6.023   5.857  0.7598 -3.5932  1.4290
    9SAPS  H18Z 1197   7.036   6.075   5.684 -0.2078  0.6792  1.5114
   10SAPS     N 1198   2.054   4.662   7.393  0.6859  0.0568 -0.3332
   10SAPS   HN1 1199   2.116   4.634   7.472 -2.7647 -1.7875  1.9825
   10SAPS   HN2 1200   1.955   4.641   7.417 -0.2012  3.8127  0.0272
   10SAPS   HN3 1201   2.075   4.609   7.307  0.0897 -0.3884 -0.2099
   10SAPS   C12 1202   2.060   4.807   7.379 -0.4388  0.9186 -0.1238
   10SAPS  H12A 1203   1.976   4.825   7.312 -2.4573 -2.8240  1.0998
   10SAPS   C13 1204   2.049   4.897   7.502 -0.0568  0.0323 -0.3738
   10SAPS  O13A 1205   2.075   4.851   7.621 -0.2677  0.0205  0.0855
   10SAPS  O13B 1206   2.042   5.020   7.495 -0.5165 -0.0288  0.3391
   10SAPS   C11 1207   2.197   4.841   7.312 -0.4519  0.5354  1.0229
   10SAPS  H11A 1208   2.276   4.823   7.388 -1.0829 -0.9253  1.3818
   10SAPS  H11B 1209   2.202   4.949   7.287 -0.3427  0.2381 -0.3220
   10SAPS     P 1210   2.368   4.780   7.127 -0.6169  0.4662  0.0170
   10SAPS   O13 1211   2.376   4.924   7.101  0.3300 -0.3602  0.7337
   10SAPS   O14 1212   2.471   4.715   7.214 -0.0560  0.5249  0.2175
   10SAPS   O12 1213   2.229   4.762   7.197 -0.1386 -0.0539  0.3638
   10SAPS   O11 1214   2.341   4.700   6.999 -0.1556  0.3561 -0.9310
   10SAPS    C1 1215   2.239   4.720   6.904 -0.2023  0.6503  0.1157
   10SAPS    HA 1216   2.162   4.641   6.911  0.1458  0.1773 -1.0573
   10SAPS    HB 1217   2.184   4.816   6.914 -2.8135 -0.7978  0.5813
   10SAPS    C2 1218   2.308   4.713   6.764 -0.4749 -0.2793 -0.2791
   10SAPS    HS 1219   2.398   4.650   6.782  0.0759  0.4748 -0.3443
   10SAPS   O21 1220   2.338   4.846   6.731 -0.0989  0.5171  0.4681
   10SAPS   C21 1221   2.464   4.865   6.673 -0.1918  0.1268 -0.4769
   10SAPS   O22 1222   2.551   4.781   6.672 -0.5390  0.5669  0.5665
   10SAPS   C22 1223   2.475   5.008   6.611 -0.5188  0.4526 -0.1067
   10SAPS   H2R 1224   2.432   5.090   6.672  2.6004  1.0891  1.4471
   10SAPS   H2S 1225   2.584   5.024   6.597 -0.5727 -0.1500 -1.3587
   10SAPS    C3 1226   2.224   4.642   6.641 -0.2090 -0.7152  0.4329
   10SAPS    HX 1227   2.151   4.717   6.605  1.5531  1.8086  1.7824
   10SAPS    HY 1228   2.172   4.554   6.685  1.1948 -1.2363  1.1331
   10SAPS   O31 1229   2.308   4.600   6.529  0.2301 -0.0838 -0.0299
   10SAPS   C31 1230   2.302   4.674   6.420 -0.3701  0.2298  0.4417
   10SAPS   O32 1231   2.220   4.759   6.391 -0.0832  0.4141  0.4927
   10SAPS   C32 1232   2.415   4.617   6.330  0.1346 -0.1651  0.2513
   10SAPS   H2X 1233   2.380   4.514   6.307  0.1028 -0.1182  0.0896
   10SAPS   H2Y 1234   2.503   4.622   6.397 -0.7535  0.4584  1.4044
   10SAPS   C23 1235   2.410   5.015   6.464 -0.4653  0.6592  0.4040
   10SAPS   H3R 1236   2.307   4.974   6.459 -1.0097  2.0733 -0.5838
   10SAPS   H3S 1237   2.477   4.963   6.393 -0.0019 -0.0569  1.3386
   10SAPS   C24 1238   2.396   5.167   6.417  0.0578 -0.8244 -0.2411
   10SAPS   H4R 1239   2.331   5.218   6.491 -0.2368 -0.6104 -0.6461
   10SAPS   H4S 1240   2.337   5.173   6.323 -1.4100 -1.5211  0.5840
   10SAPS   C25 1241   2.530   5.244   6.406  0.6219  0.4311 -0.8135
   10SAPS   H5R 1242   2.557   5.296   6.498 -1.0123 -0.3327  0.1454
   10SAPS   C26 1243   2.605   5.227   6.293  0.3031 -0.0538 -0.4437
   10SAPS   H6R 1244   2.710   5.259   6.292  0.2050  0.3025  0.0772
   10SAPS   C27 1245   2.554   5.160   6.167  0.3644 -0.4758 -0.1763
   10SAPS   H7R 1246   2.464   5.099   6.186 -0.0595  0.6360  1.6430
   10SAPS   H7S 1247   2.633   5.088   6.135  2.1265 -0.2024  3.1020
   10SAPS   C28 1248   2.544   5.263   6.057 -0.4131 -1.0597  0.1507
   10SAPS   H8R 1249   2.634   5.321   6.033 -0.8400 -0.2284  0.5111
   10SAPS   C29 1250   2.428   5.282   5.991  1.4863  0.6248  0.7795
   10SAPS   H9R 1251   2.416   5.362   5.916  0.6971  0.2762  0.5243
   10SAPS  C210 1252   2.303   5.200   6.006 -0.1639  0.1837  0.3154
   10SAPS  H10R 1253   2.208   5.248   5.973  0.5595  0.4532 -1.5067
   10SAPS  H10S 1254   2.277   5.179   6.112 -2.9420 -0.9091 -0.5020
   10SAPS  C211 1255   2.305   5.073   5.926 -0.0062  0.6382 -0.4356
   10SAPS  H11R 1256   2.378   4.998   5.959 -1.5673 -1.6269 -1.8475
   10SAPS  C212 1257   2.232   5.044   5.812 -0.8644  0.2225 -0.5657
   10SAPS  H12R 1258   2.256   4.955   5.751 -1.4854  0.7681 -1.6535
   10SAPS  C213 1259   2.121   5.123   5.756 -0.2421 -0.8321  0.4079
   10SAPS  H13R 1260   2.074   5.184   5.837 -1.5637  0.4317 -1.2281
   10SAPS  H13S 1261   2.041   5.053   5.723 -2.8551  1.3808  1.5840
   10SAPS  C214 1262   2.168   5.218   5.641  0.0643 -0.4042  0.7822
   10SAPS  H14R 1263   2.219   5.313   5.665 -0.1201 -0.2392  0.5251
   10SAPS  C215 1264   2.156   5.217   5.509  0.0876 -0.0296  0.4601
   10SAPS  H15R 1265   2.220   5.291   5.460 -0.8849  0.8837  0.5225
   10SAPS  C216 1266   2.083   5.124   5.415  0.0417  0.4911  0.4253
   10SAPS  H16R 1267   1.994   5.176   5.373 -1.6718 -1.3841  1.5478
   10SAPS  H16S 1268   2.026   5.045   5.467  0.3234  0.9777  1.5098
   10SAPS  C217 1269   2.159   5.067   5.296 -1.0413  0.2465  0.4718
   10SAPS  H17R 1270   2.165   5.144   5.217  1.1214  0.3796  0.7075
   10SAPS  H17S 1271   2.104   4.975   5.266 -1.4350  0.5837  0.1507
   10SAPS  C218 1272   2.303   5.029   5.335 -0.5128  0.0500 -1.1121
   10SAPS  H18R 1273   2.294   4.962   5.424  0.7977 -0.3582 -1.2719
   10SAPS  H18S 1274   2.367   5.110   5.375 -1.7942 -0.0324  1.3466
   10SAPS  C219 1275   2.356   4.942   5.220 -0.4393 -0.3696 -0.4519
   10SAPS  H19R 1276   2.370   5.021   5.143  2.1262 -1.0040 -0.7251
   10SAPS  H19S 1277   2.279   4.877   5.171  0.2488 -0.8326 -0.9357
   10SAPS  C220 1278   2.484   4.858   5.252 -0.1210 -0.1662  0.0171
   10SAPS  H20R 1279   2.535   4.899   5.342  0.2197  0.8247 -0.6048
   10SAPS  H20S 1280   2.557   4.867   5.169  0.5231 -2.0589  0.3357
   10SAPS  H20T 1281   2.452   4.752   5.263 -0.7973  0.0388  0.1046
   10SAPS   C33 1282   2.439   4.705   6.207 -1.3593 -0.4594  0.0188
   10SAPS   H3X 1283   2.488   4.801   6.235  0.3209 -0.8546 -1.3582
   10SAPS   H3Y 1284   2.347   4.733   6.151  0.7470  0.4624 -3.3114
   10SAPS   C34 1285   2.529   4.628   6.110 -0.3134 -0.2987 -0.5382
   10SAPS   H4X 1286   2.509   4.519   6.117  1.4001 -0.6827 -1.2506
   10SAPS   H4Y 1287   2.633   4.663   6.129 -0.3952 -0.7997  1.0011
   10SAPS   C35 1288   2.503   4.676   5.964 -0.5011  0.0427 -0.4293
   10SAPS   H5X 1289   2.479   4.782   5.944  0.5533 -0.1285 -2.9672
   10SAPS   H5Y 1290   2.419   4.616   5.922  0.5217 -1.8990  0.1665
   10SAPS   C36 1291   2.629   4.653   5.878 -0.1052  0.1699  0.9773
   10SAPS   H6X 1292   2.676   4.559   5.916 -1.5481 -0.1148  2.1603
   10SAPS   H6Y 1293   2.700   4.737   5.896  1.0404 -0.8409  1.3822
   10SAPS   C37 1294   2.603   4.641   5.728  0.3723  0.8231 -0.2357
   10SAPS   H7X 1295   2.540   4.726   5.694  0.5662  0.9383 -0.3093
   10SAPS   H7Y 1296   2.540   4.549   5.722  1.3014  0.0189  1.4839
   10SAPS   C38 1297   2.733   4.638   5.647  0.1580 -0.6172  0.5656
   10SAPS   H8X 1298   2.788   4.542   5.660  2.2513  0.5621  1.0229
   10SAPS   H8Y 1299   2.797   4.724   5.676  0.3002 -0.9506  1.2532
   10SAPS   C39 1300   2.711   4.667   5.494  0.4568 -0.2503  0.3881
   10SAPS   H9X 1301   2.666   4.768   5.484 -1.1266 -0.9201  0.3412
   10SAPS   H9Y 1302   2.628   4.603   5.457  1.1829 -1.6887  1.1842
   10SAPS  C310 1303   2.831   4.649   5.408 -0.1922 -0.6016  0.1802
   10SAPS  H10X 1304   2.818   4.624   5.301  2.2332  1.5569 -0.7091
   10SAPS  H10Y 1305   2.889   4.571   5.462 -1.0830 -0.7848  0.9074
   10SAPS  C311 1306   2.909   4.777   5.401  1.0154 -0.6017 -0.5821
   10SAPS  H11X 1307   3.011   4.745   5.371  1.0904 -0.6540 -0.2733
   10SAPS  H11Y 1308   2.913   4.822   5.502 -0.5238 -0.2317 -0.6620
   10SAPS  C312 1309   2.863   4.879   5.291 -0.4320  0.0494 -1.3652
   10SAPS  H12X 1310   2.776   4.934   5.331  1.2180  1.8839 -0.0918
   10SAPS  H12Y 1311   2.831   4.816   5.205 -1.5711 -0.6959 -0.4254
   10SAPS  C313 1312   2.976   4.973   5.248 -0.4259  0.5632  0.0215
   10SAPS  H13X 1313   3.070   4.913   5.245  0.0155  1.1705  1.0105
   10SAPS  H13Y 1314   2.997   5.057   5.317 -0.6790  1.0080 -0.4442
   10SAPS  C314 1315   2.945   5.033   5.114  0.5516 -0.5827 -0.5245
   10SAPS  H14X 1316   2.940   4.955   5.035 -1.4832 -1.7890  0.6907
   10SAPS  H14Y 1317   3.040   5.088   5.096  0.7096 -0.2808  1.1041
   10SAPS  C315 1318   2.811   5.114   5.101 -0.4105 -0.2355 -0.1013
   10SAPS  H15X 1319   2.819   5.186   5.186  0.1530  2.3026 -2.1658
   10SAPS  H15Y 1320   2.724   5.045   5.101  0.2514 -1.0973 -0.9034
   10SAPS  C316 1321   2.791   5.195   4.965 -0.2822  0.2587  0.9702
   10SAPS  H16X 1322   2.802   5.118   4.886  2.7457 -0.3839  1.8760
   10SAPS  H16Y 1323   2.870   5.266   4.935 -1.6133  0.1568 -3.4927
   10SAPS  C317 1324   2.659   5.268   4.950  0.6998 -0.2758 -0.8300
   10SAPS  H17X 1325   2.663   5.349   5.026 -2.9212 -0.4285 -0.3205
   10SAPS  H17Y 1326   2.572   5.208   4.984  0.5149 -0.1821 -1.1363
   10SAPS  C318 1327   2.644   5.348   4.819 -0.1891  0.4447 -0.1615
   10SAPS  H18X 1328   2.619   5.286   4.730 -3.7142  2.2679 -0.6432
   10SAPS  H18Y 1329   2.725   5.423   4.804 -0.4379  0.4647 -1.5906
   10SAPS  H18Z 1330   2.559   5.418   4.829  0.2265  0.8578  0.5170
   11SAPS     N 1331   6.334   3.942   2.947  0.3241 -0.1369 -1.1416
   11SAPS   HN1 1332   6.268   3.964   2.869 -1.6852  1.0144  0.7473
   11SAPS   HN2 1333   6.309   3.851   2.990  2.7964  1.0449  3.3983
   11SAPS   HN3 1334   6.324   4.011   3.024  2.4961 -1.2426  0.2220
   11SAPS   C12 1335   6.467   3.955   2.891 -1.0158 -0.1827 -0.2714
   11SAPS  H12A 1336   6.474   3.886   2.808 -3.4074 -1.5037  0.5330
   11SAPS   C13 1337   6.511   4.091   2.830  0.6511  0.0569  0.0984
   11SAPS  O13A 1338   6.430   4.185   2.841 -0.4513  0.1601  0.1147
   11SAPS  O13B 1339   6.612   4.091   2.755 -0.1181  0.4505 -0.4415
   11SAPS   C11 1340   6.572   3.915   3.006 -0.3080 -0.2759  0.5355
   11SAPS  H11A 1341   6.667   3.928   2.950 -0.8537  1.3770 -0.0617
   11SAPS  H11B 1342   6.550   3.810   3.034  1.0328 -1.0553 -1.1477
   11SAPS     P 1343   6.634   3.976   3.258  0.0982 -0.2141  0.1157
   11SAPS   O13 1344   6.780   4.011   3.255 -0.0202  0.4215  0.0079
   11SAPS   O14 1345   6.555   4.040   3.364  0.0802  0.2008  0.3959
   11SAPS   O12 1346   6.574   4.010   3.114  0.0765  0.8274  0.0934
   11SAPS   O11 1347   6.616   3.816   3.266 -0.1862 -0.1973 -0.2352
   11SAPS    C1 1348   6.489   3.760   3.283 -0.7791  0.5876 -0.2258
   11SAPS    HA 1349   6.413   3.829   3.239 -1.3481 -0.6440 -1.2416
   11SAPS    HB 1350   6.496   3.666   3.225 -0.4645  1.0508 -0.9418
   11SAPS    C2 1351   6.462   3.710   3.438  0.2362 -0.0636  0.3032
   11SAPS    HS 1352   6.456   3.798   3.507 -1.4284 -1.8233  2.5499
   11SAPS   O21 1353   6.564   3.612   3.474 -0.3984 -0.0995 -0.6334
   11SAPS   C21 1354   6.661   3.661   3.545  0.2863 -0.3902  0.3550
   11SAPS   O22 1355   6.696   3.777   3.549 -0.4993 -0.4715  0.1451
   11SAPS   C22 1356   6.733   3.539   3.621 -0.1516 -0.8290  0.0190
   11SAPS   H2R 1357   6.765   3.468   3.542  2.0939 -1.1150  1.1235
   11SAPS   H2S 1358   6.822   3.588   3.666 -0.2448 -1.2216  0.6387
   11SAPS    C3 1359   6.313   3.644   3.449  0.2873 -0.2817  0.4128
   11SAPS    HX 1360   6.308   3.552   3.387  0.5256  0.1593 -0.2696
   11SAPS    HY 1361   6.240   3.713   3.401  0.4171 -0.3002  0.1852
   11SAPS   O31 1362   6.271   3.601   3.579  0.2863  0.8520  0.2486
   11SAPS   C31 1363   6.263   3.692   3.675 -0.0095 -0.6959  0.9911
   11SAPS   O32 1364   6.284   3.810   3.658  0.0086  0.0047 -0.2933
   11SAPS   C32 1365   6.211   3.629   3.807 -0.4419  0.0297 -0.1985
   11SAPS   H2X 1366   6.247   3.524   3.804 -0.6746 -0.0361 -1.1386
   11SAPS   H2Y 1367   6.100   3.625   3.800 -0.5296 -1.5216  1.2766
   11SAPS   C23 1368   6.636   3.469   3.716  0.1625  0.2973 -0.3047
   11SAPS   H3R 1369   6.692   3.377   3.745  1.1255  0.3518 -1.8921
   11SAPS   H3S 1370   6.544   3.439   3.662  1.4916 -1.3043 -1.7919
   11SAPS   C24 1371   6.604   3.554   3.841 -0.3866  0.1000  0.2341
   11SAPS   H4R 1372   6.550   3.486   3.911  0.5411  0.1955  1.0645
   11SAPS   H4S 1373   6.542   3.638   3.802 -1.3490 -1.2901 -1.4372
   11SAPS   C25 1374   6.722   3.602   3.915 -0.1601 -0.1184 -0.4531
   11SAPS   H5R 1375   6.788   3.526   3.961 -1.0409 -1.5672 -1.4806
   11SAPS   C26 1376   6.751   3.730   3.945 -0.2891 -0.3366 -0.1633
   11SAPS   H6R 1377   6.843   3.751   4.002 -1.4432  0.6540  1.4098
   11SAPS   C27 1378   6.667   3.854   3.909  0.1043  0.2113  0.2569
   11SAPS   H7R 1379   6.565   3.839   3.949  0.5272 -1.7686  0.7298
   11SAPS   H7S 1380   6.663   3.864   3.798 -0.8626 -0.5954  0.2016
   11SAPS   C28 1381   6.728   3.983   3.965  0.2781  0.7277  0.6166
   11SAPS   H8R 1382   6.768   4.044   3.882 -0.3534 -0.1639 -0.3710
   11SAPS   C29 1383   6.724   4.021   4.093 -0.3274 -0.7426  0.1146
   11SAPS   H9R 1384   6.767   4.121   4.114 -2.7262  0.2494  0.5798
   11SAPS  C210 1385   6.669   3.955   4.215 -0.4265  0.4020 -0.1855
   11SAPS  H10R 1386   6.749   3.946   4.291  1.4885  4.4528 -1.4294
   11SAPS  H10S 1387   6.646   3.849   4.194 -1.9020  0.8470 -0.9970
   11SAPS  C211 1388   6.554   4.020   4.275 -0.6394  0.0566 -0.2499
   11SAPS  H11R 1389   6.466   4.031   4.210  1.4950  0.6740 -3.2792
   11SAPS  C212 1390   6.538   4.057   4.401  0.0372  0.3563 -0.6297
   11SAPS  H12R 1391   6.443   4.105   4.430  1.1987  1.8341  0.9585
   11SAPS  C213 1392   6.646   4.062   4.516  0.8056 -0.2403  0.1771
   11SAPS  H13R 1393   6.749   4.034   4.488 -0.1582 -3.1156 -0.8929
   11SAPS  H13S 1394   6.612   3.979   4.583 -1.3441  2.2584  2.4050
   11SAPS  C214 1395   6.647   4.197   4.582  0.3730  0.8067 -0.1046
   11SAPS  H14R 1396   6.649   4.277   4.506  0.9812  0.2420 -0.6893
   11SAPS  C215 1397   6.632   4.232   4.710  0.7344  0.3536 -0.1541
   11SAPS  H15R 1398   6.644   4.337   4.738 -0.2273  0.6795 -0.9065
   11SAPS  C216 1399   6.607   4.142   4.829 -0.7082 -0.5136  0.3456
   11SAPS  H16R 1400   6.699   4.145   4.890  1.1341  0.2325 -2.2874
   11SAPS  H16S 1401   6.603   4.036   4.796  1.6385 -0.8944  1.1048
   11SAPS  C217 1402   6.481   4.168   4.903  0.4949  0.2273  0.1704
   11SAPS  H17R 1403   6.387   4.137   4.852 -1.3715  0.2393  3.2808
   11SAPS  H17S 1404   6.485   4.271   4.946  1.8584  0.0322  0.5407
   11SAPS  C218 1405   6.486   4.070   5.023  0.5890  0.2466 -0.3128
   11SAPS  H18R 1406   6.584   4.041   5.068 -0.4633 -2.8258  0.2042
   11SAPS  H18S 1407   6.433   3.979   4.986 -2.3900  2.1430 -1.0427
   11SAPS  C219 1408   6.400   4.132   5.135 -0.4684 -0.2396  0.5521
   11SAPS  H19R 1409   6.301   4.146   5.086 -0.0110 -0.0974 -0.3598
   11SAPS  H19S 1410   6.448   4.227   5.166 -1.0601  0.3095 -0.1709
   11SAPS  C220 1411   6.381   4.040   5.254 -0.2370 -0.2547  0.3991
   11SAPS  H20R 1412   6.331   3.949   5.214 -3.3992  1.6069 -0.2748
   11SAPS  H20S 1413   6.310   4.070   5.334  1.0852  0.6757  1.2571
   11SAPS  H20T 1414   6.479   4.021   5.303 -1.7199 -0.5726  3.4922
   11SAPS   C33 1415   6.246   3.713   3.939  0.0633  0.0469  0.4918
   11SAPS   H3X 1416   6.177   3.796   3.964 -0.8955 -0.6410  0.2172
   11SAPS   H3Y 1417   6.344   3.760   3.914  0.5726 -1.3855 -0.3154
   11SAPS   C34 1418   6.271   3.626   4.060  0.1314 -0.5604  0.4233
   11SAPS   H4X 1419   6.344   3.548   4.032 -1.0326 -1.2395 -0.8066
   11SAPS   H4Y 1420   6.179   3.571   4.089 -0.0356 -1.2881 -1.3779
   11SAPS   C35 1421   6.336   3.704   4.178  0.3179 -0.2892  0.3405
   11SAPS   H5X 1422   6.285   3.803   4.181 -1.1115 -1.0341  1.2515
   11SAPS   H5Y 1423   6.443   3.716   4.149  0.4123  0.1166  0.8464
   11SAPS   C36 1424   6.332   3.625   4.309  0.2002 -0.7242  0.2526
   11SAPS   H6X 1425   6.327   3.516   4.289 -0.6952 -0.4494 -1.1986
   11SAPS   H6Y 1426   6.230   3.635   4.352 -1.5944 -2.8975 -2.9995
   11SAPS   C37 1427   6.450   3.656   4.405  0.6420 -0.6581  0.2073
   11SAPS   H7X 1428   6.422   3.609   4.502  2.3545  1.5140  1.8678
   11SAPS   H7Y 1429   6.442   3.767   4.413  0.1179 -0.7239  0.6881
   11SAPS   C38 1430   6.587   3.611   4.367  0.0532 -0.0506  0.4229
   11SAPS   H8X 1431   6.599   3.634   4.259  1.2219  0.3441  0.6211
   11SAPS   H8Y 1432   6.596   3.502   4.385  0.7240 -0.1146 -0.2622
   11SAPS   C39 1433   6.708   3.676   4.444 -0.3006  0.3542 -0.4204
   11SAPS   H9X 1434   6.709   3.784   4.418 -2.3362  0.1051 -1.7806
   11SAPS   H9Y 1435   6.807   3.637   4.412 -0.1074 -0.3591  0.9833
   11SAPS  C310 1436   6.710   3.661   4.603 -0.2087 -0.2904  0.0469
   11SAPS  H10X 1437   6.681   3.558   4.634  0.1941 -0.4531 -0.1081
   11SAPS  H10Y 1438   6.624   3.725   4.631  1.8467  2.7895 -0.2503
   11SAPS  C311 1439   6.847   3.698   4.665  0.4940  0.3782  0.6622
   11SAPS  H11X 1440   6.887   3.796   4.633  0.6363 -0.0767 -0.5977
   11SAPS  H11Y 1441   6.923   3.625   4.629  1.6139  0.9049  1.8637
   11SAPS  C312 1442   6.837   3.686   4.822  0.0248  0.1297  0.3799
   11SAPS  H12X 1443   6.939   3.716   4.857  0.6218 -1.1445 -0.1949
   11SAPS  H12Y 1444   6.812   3.579   4.843  1.7062 -0.4835 -0.5418
   11SAPS  C313 1445   6.719   3.764   4.894  0.2727 -0.9222 -0.5268
   11SAPS  H13X 1446   6.630   3.720   4.843  1.2574 -1.6167 -1.7025
   11SAPS  H13Y 1447   6.747   3.868   4.869  1.5427 -1.0124  0.4207
   11SAPS  C314 1448   6.704   3.758   5.045  0.3694 -0.1959  0.0359
   11SAPS  H14X 1449   6.656   3.855   5.070  0.5522  0.4842 -2.0386
   11SAPS  H14Y 1450   6.806   3.751   5.088  1.0148  0.7155 -1.2503
   11SAPS  C315 1451   6.610   3.652   5.089  0.0080 -1.0270 -0.2985
   11SAPS  H15X 1452   6.652   3.559   5.045  1.3203 -0.8238  0.5124
   11SAPS  H15Y 1453   6.508   3.672   5.048  0.4782  0.9916 -0.6008
   11SAPS  C316 1454   6.574   3.659   5.236 -0.5252 -0.2154 -0.0359
   11SAPS  H16X 1455   6.540   3.762   5.262  0.3686  0.3859 -1.1465
   11SAPS  H16Y 1456   6.656   3.618   5.298 -1.5116 -0.9267  0.8302
   11SAPS  C317 1457   6.445   3.577   5.271  0.0149 -0.2141 -0.4117
   11SAPS  H17X 1458   6.437   3.544   5.377  0.3513  0.6901 -0.0983
   11SAPS  H17Y 1459   6.449   3.481   5.215 -1.4629 -0.1000 -0.7442
   11SAPS  C318 1460   6.316   3.645   5.228  0.1786 -0.0612 -0.2886
   11SAPS  H18X 1461   6.332   3.701   5.133  2.0844 -1.0500 -0.5971
   11SAPS  H18Y 1462   6.280   3.705   5.314 -0.8737  0.5067 -1.1004
   11SAPS  H18Z 1463   6.242   3.566   5.199 -1.1164  0.8711  0.4000
   12SAPS     N 1464   5.566   3.899   3.029  0.7741 -0.1154  0.3360
   12SAPS   HN1 1465   5.482   3.956   3.054  0.4164 -0.7782  0.6539
   12SAPS   HN2 1466   5.606   3.837   3.102 -1.1833  0.9948  2.4965
   12SAPS   HN3 1467   5.634   3.972   2.997  2.0117 -1.0625  0.7460
   12SAPS   C12 1468   5.529   3.817   2.916 -0.0967  0.4741 -0.4284
   12SAPS  H12A 1469   5.470   3.735   2.954  0.2067  1.2702  1.9178
   12SAPS   C13 1470   5.456   3.889   2.801 -0.7862  0.7075  0.2162
   12SAPS  O13A 1471   5.449   4.010   2.797  0.5899 -0.0860 -0.3614
   12SAPS  O13B 1472   5.401   3.815   2.714  0.6779 -0.3177  0.1075
   12SAPS   C11 1473   5.664   3.768   2.863  0.3747 -0.0977  0.2849
   12SAPS  H11A 1474   5.714   3.853   2.811  1.5209  1.0121  3.0022
   12SAPS  H11B 1475   5.644   3.686   2.791  0.1444  0.0645  0.1646
   12SAPS     P 1476   5.885   3.634   2.956  0.0595  0.2474  0.1968
   12SAPS   O13 1477   5.923   3.627   2.813 -0.1218  0.1114 -0.2326
   12SAPS   O14 1478   5.987   3.683   3.051 -0.2154 -0.3774 -0.0394
   12SAPS   O12 1479   5.753   3.722   2.964  0.1377 -0.4884 -0.0348
   12SAPS   O11 1480   5.847   3.488   3.010 -0.0833 -0.1047  0.3643
   12SAPS    C1 1481   5.719   3.437   3.044  0.2723 -0.0508  0.1011
   12SAPS    HA 1482   5.651   3.466   2.961  0.7609 -1.0164 -0.6563
   12SAPS    HB 1483   5.721   3.326   3.054  1.3602 -0.3777 -2.7319
   12SAPS    C2 1484   5.689   3.483   3.185  0.2261  0.0648  0.7187
   12SAPS    HS 1485   5.688   3.594   3.194 -0.3473  0.2569 -1.2365
   12SAPS   O21 1486   5.770   3.413   3.283 -0.2183 -0.1196 -0.3442
   12SAPS   C21 1487   5.804   3.493   3.394 -0.9780  0.1979  0.8966
   12SAPS   O22 1488   5.777   3.609   3.412 -0.2406  0.2018 -0.5672
   12SAPS   C22 1489   5.879   3.399   3.491 -0.0029  0.6286 -1.1798
   12SAPS   H2R 1490   5.855   3.292   3.475 -1.9403  1.1721 -2.2989
   12SAPS   H2S 1491   5.988   3.418   3.492  0.4347 -0.8419  3.4930
   12SAPS    C3 1492   5.542   3.440   3.221  0.3060  0.1219 -0.1821
   12SAPS    HX 1493   5.525   3.331   3.210  0.0124  0.0887  0.5356
   12SAPS    HY 1494   5.473   3.485   3.146  0.8351  1.2255 -0.0384
   12SAPS   O31 1495   5.501   3.463   3.358  0.3794  0.1920  0.1314
   12SAPS   C31 1496   5.457   3.585   3.385 -0.6949  0.0786 -1.0223
   12SAPS   O32 1497   5.476   3.683   3.315 -0.9575 -0.0923  0.0288
   12SAPS   C32 1498   5.355   3.579   3.498  0.1051  0.2153  0.2161
   12SAPS   H2X 1499   5.261   3.541   3.453 -0.4486  0.6940  0.9540
   12SAPS   H2Y 1500   5.337   3.685   3.525 -0.6784  0.3038 -0.6053
   12SAPS   C23 1501   5.821   3.444   3.624 -0.4840 -0.3196 -0.7611
   12SAPS   H3R 1502   5.718   3.407   3.641 -0.6862  0.2076 -0.8380
   12SAPS   H3S 1503   5.808   3.554   3.629  0.2558 -0.2839  2.0535
   12SAPS   C24 1504   5.901   3.414   3.752 -0.1918  0.6241  0.4609
   12SAPS   H4R 1505   5.846   3.469   3.831 -1.2742 -0.4426  0.4949
   12SAPS   H4S 1506   6.006   3.448   3.742  0.1757 -0.0901  1.6411
   12SAPS   C25 1507   5.914   3.267   3.774  0.3039 -0.7206  0.5597
   12SAPS   H5R 1508   5.901   3.209   3.681 -0.6879  0.7377 -0.2579
   12SAPS   C26 1509   5.940   3.210   3.892 -0.0436  0.4652 -0.0705
   12SAPS   H6R 1510   5.959   3.102   3.894 -0.5317  0.3692 -0.3511
   12SAPS   C27 1511   5.962   3.295   4.014 -0.1231 -0.0530  0.0178
   12SAPS   H7R 1512   5.917   3.396   4.001  2.2532  1.2333  1.1696
   12SAPS   H7S 1513   6.071   3.299   4.035 -0.1599 -1.0991  0.4201
   12SAPS   C28 1514   5.904   3.218   4.130  0.2652  0.0332 -0.1529
   12SAPS   H8R 1515   5.858   3.124   4.096  0.1550 -0.0923  0.3477
   12SAPS   C29 1516   5.928   3.246   4.262  0.0445  0.9375  0.6503
   12SAPS   H9R 1517   5.885   3.193   4.348 -1.5213  1.0761 -0.0201
   12SAPS  C210 1518   6.016   3.359   4.304  0.0542  0.1626  0.1595
   12SAPS  H10R 1519   5.953   3.438   4.349  1.1055  0.4966  1.0803
   12SAPS  H10S 1520   6.076   3.395   4.218  0.3170  0.4976  0.4840
   12SAPS  C211 1521   6.115   3.300   4.400 -0.4109 -1.4578 -0.4140
   12SAPS  H11R 1522   6.193   3.243   4.349  1.4945  0.6429 -0.0352
   12SAPS  C212 1523   6.120   3.322   4.533 -0.1894  1.1953 -0.5291
   12SAPS  H12R 1524   6.200   3.283   4.598  0.0428  1.8083 -0.4406
   12SAPS  C213 1525   6.031   3.420   4.609  0.3466  0.3474 -0.4173
   12SAPS  H13R 1526   5.926   3.410   4.573  0.7530 -0.6990 -1.3776
   12SAPS  H13S 1527   6.068   3.519   4.575  0.3731  0.3878 -0.2694
   12SAPS  C214 1528   6.044   3.406   4.764 -0.1252  0.7533  0.1613
   12SAPS  H14R 1529   5.949   3.376   4.811 -0.2991 -0.7294 -1.0540
   12SAPS  C215 1530   6.145   3.438   4.843  0.0711 -0.3059  0.1162
   12SAPS  H15R 1531   6.139   3.436   4.953  1.2421  1.6523  0.2641
   12SAPS  C216 1532   6.281   3.484   4.789 -0.6881  0.0991 -0.2314
   12SAPS  H16R 1533   6.293   3.449   4.684 -0.1490 -0.5717  0.0478
   12SAPS  H16S 1534   6.348   3.424   4.854 -1.7790 -0.6085  0.2632
   12SAPS  C217 1535   6.310   3.637   4.811 -0.5394 -0.7602 -0.0573
   12SAPS  H17R 1536   6.417   3.658   4.788 -1.0487  0.8604 -1.1162
   12SAPS  H17S 1537   6.291   3.680   4.911 -0.9956  0.5592 -0.6828
   12SAPS  C218 1538   6.220   3.729   4.726 -0.2044 -0.4153  0.9775
   12SAPS  H18R 1539   6.111   3.713   4.741 -0.7597  1.1568 -0.9331
   12SAPS  H18S 1540   6.244   3.695   4.623  1.2741  3.1448  0.0110
   12SAPS  C219 1541   6.248   3.883   4.739 -0.1526 -0.4018 -0.0741
   12SAPS  H19R 1542   6.219   3.919   4.638  1.4161 -0.9153 -0.7437
   12SAPS  H19S 1543   6.357   3.889   4.758  0.0084 -1.1473 -0.7076
   12SAPS  C220 1544   6.164   3.937   4.852 -0.1019 -0.4687  0.4340
   12SAPS  H20R 1545   6.057   3.921   4.830  0.3820 -1.7850 -1.1863
   12SAPS  H20S 1546   6.178   4.044   4.879  1.2638 -0.7944  1.1391
   12SAPS  H20T 1547   6.173   3.872   4.941 -0.1416  0.8609  1.4267
   12SAPS   C33 1548   5.392   3.503   3.632  0.2604 -0.2573 -0.3426
   12SAPS   H3X 1549   5.329   3.549   3.712  2.5177  0.0447  1.3588
   12SAPS   H3Y 1550   5.496   3.531   3.656 -0.3989  1.4125  0.7992
   12SAPS   C34 1551   5.374   3.352   3.612 -0.7693  0.6106 -0.1899
   12SAPS   H4X 1552   5.456   3.303   3.555 -1.0199  0.4134 -0.3801
   12SAPS   H4Y 1553   5.271   3.331   3.578 -0.4717  0.3515 -0.9609
   12SAPS   C35 1554   5.390   3.280   3.753 -0.0794 -0.0447  0.8577
   12SAPS   H5X 1555   5.492   3.310   3.786 -0.2016  0.8922  0.4215
   12SAPS   H5Y 1556   5.387   3.170   3.738  0.6815 -0.1869  1.6032
   12SAPS   C36 1557   5.304   3.335   3.868  0.4407 -0.1984  0.0908
   12SAPS   H6X 1558   5.198   3.314   3.842  0.3452  0.0847  0.2498
   12SAPS   H6Y 1559   5.308   3.445   3.885 -0.4849  0.0376 -1.0767
   12SAPS   C37 1560   5.339   3.262   4.002 -0.1270 -0.7176 -0.1714
   12SAPS   H7X 1561   5.440   3.297   4.033 -0.7021  1.3027 -0.4398
   12SAPS   H7Y 1562   5.342   3.155   3.972  0.5274 -0.6158 -0.4803
   12SAPS   C38 1563   5.237   3.293   4.111 -0.6635  0.1421  0.2474
   12SAPS   H8X 1564   5.130   3.285   4.082 -0.8768  0.6667  0.8761
   12SAPS   H8Y 1565   5.243   3.401   4.137 -1.3591  0.2285  0.0560
   12SAPS   C39 1566   5.265   3.187   4.214  0.3515  0.4814 -0.3695
   12SAPS   H9X 1567   5.374   3.171   4.230 -0.1435 -1.3603  1.6151
   12SAPS   H9Y 1568   5.241   3.095   4.157  0.8349  0.1071  0.0208
   12SAPS  C310 1569   5.173   3.195   4.335 -0.3311  1.0574  0.4002
   12SAPS  H10X 1570   5.183   3.105   4.399 -1.9636  0.4066 -0.2008
   12SAPS  H10Y 1571   5.064   3.205   4.316 -0.3919  3.3105  1.5274
   12SAPS  C311 1572   5.193   3.323   4.419  0.3173 -0.2497  0.2570
   12SAPS  H11X 1573   5.147   3.410   4.368 -0.6614 -1.5491 -1.1976
   12SAPS  H11Y 1574   5.304   3.334   4.423  0.3960 -1.2227  1.3252
   12SAPS  C312 1575   5.142   3.318   4.559  0.8589  0.3383  0.4454
   12SAPS  H12X 1576   5.034   3.288   4.560  1.7278 -3.5684  3.3840
   12SAPS  H12Y 1577   5.153   3.413   4.616 -1.0250  0.3539  0.8854
   12SAPS  C313 1578   5.205   3.219   4.655  0.4622 -0.3907  0.9802
   12SAPS  H13X 1579   5.309   3.256   4.667 -0.0310  1.2816  0.3602
   12SAPS  H13Y 1580   5.216   3.116   4.615 -0.0921 -0.4292  0.9180
   12SAPS  C314 1581   5.138   3.230   4.795 -1.1347  0.5463 -0.4648
   12SAPS  H14X 1582   5.036   3.188   4.807 -0.4272 -0.5711  2.3674
   12SAPS  H14Y 1583   5.135   3.339   4.814  0.4108  0.7818 -1.3712
   12SAPS  C315 1584   5.226   3.166   4.906 -0.7168 -0.8645  0.1610
   12SAPS  H15X 1585   5.331   3.195   4.923  0.2785 -2.8006 -2.1358
   12SAPS  H15Y 1586   5.229   3.060   4.872 -1.8017 -0.4905 -1.2420
   12SAPS  C316 1587   5.164   3.182   5.044  0.1843 -0.0305 -0.3916
   12SAPS  H16X 1588   5.059   3.152   5.023  0.5210 -0.9562 -0.8202
   12SAPS  H16Y 1589   5.170   3.290   5.069  0.6750 -0.1637  0.0633
   12SAPS  C317 1590   5.236   3.096   5.158  0.0251 -0.4064  0.1317
   12SAPS  H17X 1591   5.280   3.173   5.224  2.2986 -0.4428 -1.2322
   12SAPS  H17Y 1592   5.324   3.042   5.115 -0.0708 -0.7625  0.3739
   12SAPS  C318 1593   5.150   2.991   5.215  0.4369 -0.1041 -0.3607
   12SAPS  H18X 1594   5.050   3.035   5.234 -0.2601 -2.1784  1.0326
   12SAPS  H18Y 1595   5.178   2.952   5.314  0.8506  1.1034  0.0232
   12SAPS  H18Z 1596   5.138   2.908   5.143 -1.5020 -1.6176  1.5711
   13SAPS     N 1597   1.409   4.396   2.464  0.5707  0.2478 -0.0601
   13SAPS   HN1 1598   1.393   4.334   2.382 -1.7619 -0.7553  1.0569
   13SAPS   HN2 1599   1.461   4.484   2.447  0.6695  0.4264  1.0880
   13SAPS   HN3 1600   1.456   4.335   2.534 -1.6636  0.1119  1.4191
   13SAPS   C12 1601   1.275   4.427   2.510 -1.3836  0.1014  0.5111
   13SAPS  H12A 1602   1.228   4.505   2.451 -0.0134  1.3821  1.0515
   13SAPS   C13 1603   1.174   4.312   2.508  0.2286  0.1658 -0.3055
   13SAPS  O13A 1604   1.200   4.210   2.437 -0.7625  0.0714  0.2535
   13SAPS  O13B 1605   1.057   4.342   2.532 -0.3184 -0.7943  0.2959
   13SAPS   C11 1606   1.282   4.495   2.649  0.1455 -0.4924  0.5407
   13SAPS  H11A 1607   1.304   4.413   2.721  0.3029 -2.1676 -1.3207
   13SAPS  H11B 1608   1.182   4.538   2.670  0.8622  0.8483  1.3544
   13SAPS     P 1609   1.404   4.711   2.754  0.3287  0.1913 -0.3469
   13SAPS   O13 1610   1.478   4.819   2.695  0.2679 -0.4138  0.1235
   13SAPS   O14 1611   1.272   4.734   2.820  0.0724 -0.2614  0.1029
   13SAPS   O12 1612   1.384   4.598   2.645  0.4520 -0.4598  0.3590
   13SAPS   O11 1613   1.506   4.632   2.854  0.5204 -0.0665  0.1210
   13SAPS    C1 1614   1.471   4.515   2.920  0.2278  0.3820 -0.9629
   13SAPS    HA 1615   1.363   4.489   2.930  0.6223 -1.3121 -0.7238
   13SAPS    HB 1616   1.511   4.428   2.864  1.4169  1.1513 -1.3410
   13SAPS    C2 1617   1.543   4.500   3.059  0.6764 -0.0658  0.2183
   13SAPS    HS 1618   1.505   4.400   3.091  0.2644 -0.3211 -0.9936
   13SAPS   O21 1619   1.509   4.604   3.146 -0.0576  0.3301  0.2437
   13SAPS   C21 1620   1.391   4.595   3.194 -0.4966 -0.1996  0.0787
   13SAPS   O22 1621   1.298   4.520   3.161 -0.8738  0.0763  0.3329
   13SAPS   C22 1622   1.376   4.708   3.296 -0.2026 -0.2242  0.4220
   13SAPS   H2R 1623   1.473   4.713   3.351  0.4461 -2.0993 -0.4671
   13SAPS   H2S 1624   1.365   4.801   3.237  0.0601  0.8732  2.0278
   13SAPS    C3 1625   1.690   4.503   3.039  0.3423  0.5394  0.0601
   13SAPS    HX 1626   1.736   4.604   3.041  2.6640 -0.4492 -0.6452
   13SAPS    HY 1627   1.712   4.459   2.940 -0.1344  0.5063 -0.0328
   13SAPS   O31 1628   1.751   4.407   3.133  0.5219  0.0051 -0.6803
   13SAPS   C31 1629   1.786   4.459   3.250 -0.0589 -0.7289  0.7252
   13SAPS   O32 1630   1.794   4.579   3.283  0.6436  0.6683  0.0813
   13SAPS   C32 1631   1.819   4.342   3.335  0.4070  0.3915 -0.6196
   13SAPS   H2X 1632   1.857   4.376   3.434  1.0124  1.4564 -1.2047
   13SAPS   H2Y 1633   1.905   4.293   3.286  0.7429 -1.2755  1.4760
   13SAPS   C23 1634   1.251   4.704   3.383  0.2331  0.1055  0.5549
   13SAPS   H3R 1635   1.168   4.652   3.330  0.0327 -0.6357  1.5372
   13SAPS   H3S 1636   1.206   4.804   3.397 -0.1727  0.1829 -1.1147
   13SAPS   C24 1637   1.263   4.650   3.527 -0.6148  0.0040 -0.1828
   13SAPS   H4R 1638   1.186   4.704   3.586  0.3004 -0.5859  1.6284
   13SAPS   H4S 1639   1.362   4.689   3.560 -0.8789  1.3404 -0.9027
   13SAPS   C25 1640   1.258   4.499   3.536  0.2658 -0.5688 -0.6834
   13SAPS   H5R 1641   1.286   4.440   3.447 -0.5411  1.2893 -2.2478
   13SAPS   C26 1642   1.211   4.419   3.645 -0.4178 -0.6480  0.3663
   13SAPS   H6R 1643   1.193   4.312   3.627 -0.0913 -0.7562  0.6690
   13SAPS   C27 1644   1.152   4.470   3.770 -0.3318 -0.6261  0.2186
   13SAPS   H7R 1645   1.073   4.543   3.743 -1.4580 -0.9039  2.5358
   13SAPS   H7S 1646   1.238   4.524   3.815 -0.8140 -0.5852  1.0928
   13SAPS   C28 1647   1.092   4.364   3.858  0.2334  0.8580  0.2522
   13SAPS   H8R 1648   1.054   4.275   3.806 -0.8596  1.7240 -0.4615
   13SAPS   C29 1649   1.099   4.379   3.992 -0.3644  0.4811  0.0299
   13SAPS   H9R 1650   1.029   4.317   4.050  0.0346  1.2545  1.3969
   13SAPS  C210 1651   1.161   4.490   4.072 -0.2888 -0.5543 -0.1649
   13SAPS  H10R 1652   1.246   4.541   4.022 -1.7675  0.1767 -2.0543
   13SAPS  H10S 1653   1.201   4.454   4.169  2.0890  2.4644  0.0900
   13SAPS  C211 1654   1.063   4.603   4.090 -0.7135  0.5228 -0.0764
   13SAPS  H11R 1655   1.015   4.629   3.994  0.2032 -1.4891 -1.1580
   13SAPS  C212 1656   1.054   4.666   4.208  0.5959  0.3808  0.6616
   13SAPS  H12R 1657   0.984   4.748   4.225 -0.0270 -0.7671  4.4817
   13SAPS  C213 1658   1.131   4.634   4.331  0.0273  0.3126 -0.0630
   13SAPS  H13R 1659   1.132   4.723   4.398 -1.2951 -0.9512  1.7298
   13SAPS  H13S 1660   1.240   4.618   4.313 -0.0938 -1.5487  0.6123
   13SAPS  C214 1661   1.073   4.520   4.407 -0.1924  0.6543 -0.0362
   13SAPS  H14R 1662   1.122   4.423   4.389 -1.6165  0.0262 -0.7160
   13SAPS  C215 1663   0.976   4.511   4.495  0.8260 -0.1798 -0.0810
   13SAPS  H15R 1664   0.946   4.411   4.530 -2.4792  0.9842  0.8327
   13SAPS  C216 1665   0.883   4.622   4.543  0.5472  0.1472  0.8404
   13SAPS  H16R 1666   0.779   4.600   4.511 -0.1168  3.4939  0.3469
   13SAPS  H16S 1667   0.897   4.724   4.502 -2.4105 -0.5782 -2.4086
   13SAPS  C217 1668   0.866   4.629   4.694  0.2568 -0.4373  0.0317
   13SAPS  H17R 1669   0.785   4.700   4.721 -0.7781  0.1421 -4.0746
   13SAPS  H17S 1670   0.960   4.673   4.737  0.8085 -1.2543 -0.3201
   13SAPS  C218 1671   0.849   4.489   4.767 -0.1625  0.2617  0.1164
   13SAPS  H18R 1672   0.938   4.422   4.756 -0.8764 -0.9341  1.3455
   13SAPS  H18S 1673   0.769   4.431   4.717  0.6009 -1.6237  0.9623
   13SAPS  C219 1674   0.816   4.500   4.919 -0.4729 -0.2832 -0.7167
   13SAPS  H19R 1675   0.743   4.582   4.937  1.4307  1.3936 -0.2391
   13SAPS  H19S 1676   0.900   4.552   4.969 -0.0007  0.3937 -2.1565
   13SAPS  C220 1677   0.782   4.367   4.991 -0.2181 -0.3095  0.3893
   13SAPS  H20R 1678   0.881   4.318   5.001 -1.3323 -2.6809  0.4881
   13SAPS  H20S 1679   0.719   4.302   4.926  2.3422 -2.6056  0.0269
   13SAPS  H20T 1680   0.736   4.382   5.091  0.2704 -0.2605  0.6103
   13SAPS   C33 1681   1.716   4.233   3.361  0.5446  0.4202  0.4625
   13SAPS   H3X 1682   1.764   4.137   3.390  0.0981 -0.2392 -0.8982
   13SAPS   H3Y 1683   1.662   4.210   3.267  1.1593  1.5708 -0.2034
   13SAPS   C34 1684   1.608   4.277   3.468  0.3590 -0.0647 -0.2956
   13SAPS   H4X 1685   1.514   4.218   3.476  1.0460 -0.9809  1.4627
   13SAPS   H4Y 1686   1.562   4.375   3.444 -1.2943 -0.2645  1.7966
   13SAPS   C35 1687   1.672   4.308   3.601 -0.6218 -0.3657  0.1938
   13SAPS   H5X 1688   1.760   4.375   3.602 -0.2716 -0.8294  0.7677
   13SAPS   H5Y 1689   1.708   4.209   3.635  0.9083  0.1227  0.0522
   13SAPS   C36 1690   1.578   4.351   3.710 -0.0332  0.0575  0.3289
   13SAPS   H6X 1691   1.497   4.274   3.708  2.8742 -3.2328  0.6516
   13SAPS   H6Y 1692   1.532   4.450   3.689 -1.7734 -0.5174  1.2540
   13SAPS   C37 1693   1.638   4.336   3.850 -0.3279 -0.0076  0.2871
   13SAPS   H7X 1694   1.748   4.351   3.851 -0.2522 -0.3670 -0.9084
   13SAPS   H7Y 1695   1.628   4.230   3.881  3.6335 -0.9426 -0.9782
   13SAPS   C38 1696   1.578   4.427   3.957  0.1214  0.2349  0.8394
   13SAPS   H8X 1697   1.468   4.416   3.951  0.0550  1.2781 -0.3082
   13SAPS   H8Y 1698   1.601   4.534   3.939  1.1034  0.2720  2.1326
   13SAPS   C39 1699   1.617   4.383   4.099  0.0723  0.5764 -0.2740
   13SAPS   H9X 1700   1.727   4.381   4.109 -0.0308 -1.9984  0.9688
   13SAPS   H9Y 1701   1.580   4.282   4.124 -0.9002  1.1221  0.6204
   13SAPS  C310 1702   1.550   4.467   4.206  0.2023 -0.5188 -0.2749
   13SAPS  H10X 1703   1.440   4.458   4.214 -0.0425  0.8162 -1.6538
   13SAPS  H10Y 1704   1.566   4.570   4.168  0.1066 -0.6520 -0.6734
   13SAPS  C311 1705   1.624   4.462   4.339 -0.8881  0.2025  0.3517
   13SAPS  H11X 1706   1.729   4.498   4.326 -0.7464 -0.5510 -0.7338
   13SAPS  H11Y 1707   1.631   4.359   4.379 -0.3780  0.2535  0.4036
   13SAPS  C312 1708   1.557   4.547   4.449 -0.3158  0.4488  0.5144
   13SAPS  H12X 1709   1.450   4.532   4.470  0.2398  1.0445  4.5732
   13SAPS  H12Y 1710   1.557   4.648   4.401  1.0799 -1.0212 -2.9013
   13SAPS  C313 1711   1.630   4.535   4.583  0.4391  0.6499  0.1663
   13SAPS  H13X 1712   1.626   4.426   4.607 -0.7689 -0.0437 -2.6977
   13SAPS  H13Y 1713   1.584   4.602   4.659  1.5980  3.3319 -1.3491
   13SAPS  C314 1714   1.782   4.561   4.589  0.6882 -0.1411  0.1962
   13SAPS  H14X 1715   1.801   4.667   4.564  0.8793 -0.1125  0.4574
   13SAPS  H14Y 1716   1.822   4.503   4.502 -2.0184 -2.7579  0.5305
   13SAPS  C315 1717   1.847   4.522   4.718  0.3049  0.2468 -0.2704
   13SAPS  H15X 1718   1.837   4.412   4.733 -0.7846  0.3832  0.0331
   13SAPS  H15Y 1719   1.783   4.566   4.797 -1.3267 -0.0278 -1.3804
   13SAPS  C316 1720   1.993   4.564   4.736  0.3353  0.7496  0.2438
   13SAPS  H16X 1721   2.019   4.652   4.674  0.3404  0.8832  0.4370
   13SAPS  H16Y 1722   2.055   4.487   4.686  0.4609 -0.0146  1.5386
   13SAPS  C317 1723   2.030   4.575   4.892 -0.4256 -0.3682 -0.2885
   13SAPS  H17X 1724   2.140   4.584   4.892 -0.4695  0.2835 -0.2682
   13SAPS  H17Y 1725   1.991   4.486   4.945 -1.2282  0.4017  0.4494
   13SAPS  C318 1726   1.965   4.701   4.952 -0.2314 -0.4017 -0.3408
   13SAPS  H18X 1727   1.985   4.711   5.061  1.1908  2.1060 -0.7450
   13SAPS  H18Y 1728   1.855   4.707   4.937 -0.0837 -0.7090 -1.6652
   13SAPS  H18Z 1729   2.000   4.789   4.895 -3.4474  0.3397 -1.3893
   14SAPS     N 1730   1.528   6.076   2.648  0.4320 -0.3070 -0.4480
   14SAPS   HN1 1731   1.453   6.061   2.578 -0.1629 -0.7108  0.2597
   14SAPS   HN2 1732   1.527   6.016   2.733  1.2952 -0.4482 -0.5318
   14SAPS   HN3 1733   1.523   6.176   2.676 -0.0128 -0.4241 -0.0963
   14SAPS   C12 1734   1.666   6.063   2.596  0.0814 -0.5740  0.2188
   14SAPS  H12A 1735   1.686   5.966   2.552  0.6365 -1.0273  1.4317
   14SAPS   C13 1736   1.699   6.173   2.494  0.3188  0.8175 -0.1012
   14SAPS  O13A 1737   1.613   6.258   2.457 -0.0148 -0.8692 -0.6190
   14SAPS  O13B 1738   1.815   6.162   2.441  0.4535 -0.8350  0.5974
   14SAPS   C11 1739   1.768   6.085   2.706  0.7457 -0.0626  0.0787
   14SAPS  H11A 1740   1.870   6.073   2.662  0.6773 -0.9363  0.1441
   14SAPS  H11B 1741   1.747   6.012   2.786  1.9801  2.4262  2.8564
   14SAPS     P 1742   1.855   6.279   2.870  0.1041  0.0008  0.2141
   14SAPS   O13 1743   1.973   6.334   2.801 -0.2653 -0.0029  0.1141
   14SAPS   O14 1744   1.762   6.371   2.946  0.2048 -0.5479  0.1204
   14SAPS   O12 1745   1.759   6.213   2.768 -0.3783 -0.0312  0.0600
   14SAPS   O11 1746   1.911   6.152   2.950  0.2481 -0.9444 -0.0614
   14SAPS    C1 1747   1.818   6.093   3.046 -0.4241  0.5797 -0.4968
   14SAPS    HA 1748   1.714   6.118   3.016  0.3980  2.4650 -2.0461
   14SAPS    HB 1749   1.837   5.984   3.054  0.6865  0.8055  0.3182
   14SAPS    C2 1750   1.841   6.146   3.193 -0.4601 -0.3437 -0.8181
   14SAPS    HS 1751   1.782   6.238   3.214  1.2126  0.2100  2.0052
   14SAPS   O21 1752   1.975   6.166   3.220 -0.6260 -0.3413  0.3665
   14SAPS   C21 1753   2.013   6.280   3.282  0.5874 -0.3948  0.5654
   14SAPS   O22 1754   1.952   6.384   3.278  0.1525 -0.1966 -0.5844
   14SAPS   C22 1755   2.142   6.257   3.357  0.2552 -0.0817  0.5123
   14SAPS   H2R 1756   2.156   6.152   3.392 -1.0788  0.1070  1.6921
   14SAPS   H2S 1757   2.230   6.306   3.310 -0.8454  0.9382 -0.5649
   14SAPS    C3 1758   1.780   6.052   3.294 -0.5234  0.0486 -0.3875
   14SAPS    HX 1759   1.843   5.962   3.278 -2.2110 -1.6067  1.6576
   14SAPS    HY 1760   1.674   6.040   3.264 -0.6225  1.1585 -0.5419
   14SAPS   O31 1761   1.789   6.103   3.431 -0.3168 -0.0978 -0.5000
   14SAPS   C31 1762   1.702   6.197   3.467 -0.3206  0.1082  0.1225
   14SAPS   O32 1763   1.619   6.245   3.391 -0.3425  0.6299 -0.3460
   14SAPS   C32 1764   1.726   6.227   3.612 -0.7548  0.3227  0.2069
   14SAPS   H2X 1765   1.823   6.282   3.615 -0.6958  0.2146  0.3481
   14SAPS   H2Y 1766   1.734   6.131   3.667 -0.3623  0.4016  0.2949
   14SAPS   C23 1767   2.135   6.325   3.497  0.0688  0.1774  0.1223
   14SAPS   H3R 1768   2.060   6.272   3.560  0.6174 -0.8718 -0.0916
   14SAPS   H3S 1769   2.089   6.426   3.503 -0.0670  0.0648  1.3909
   14SAPS   C24 1770   2.263   6.324   3.578  0.0803 -0.2428  0.5512
   14SAPS   H4R 1771   2.332   6.403   3.540 -0.0189 -0.5918 -0.3664
   14SAPS   H4S 1772   2.314   6.231   3.545  0.1198  0.7365 -2.4736
   14SAPS   C25 1773   2.260   6.322   3.728 -0.0636 -0.5263  0.1971
   14SAPS   H5R 1774   2.197   6.397   3.776  2.4267  0.4188  2.2584
   14SAPS   C26 1775   2.342   6.253   3.801 -0.2448 -0.4647 -0.0418
   14SAPS   H6R 1776   2.339   6.258   3.911  3.3775 -0.3447  0.1739
   14SAPS   C27 1777   2.446   6.157   3.762 -0.2118  0.2507  0.6444
   14SAPS   H7R 1778   2.537   6.191   3.816 -0.8224 -0.7707  2.3820
   14SAPS   H7S 1779   2.472   6.160   3.654 -0.8104 -0.5473  0.4709
   14SAPS   C28 1780   2.410   6.011   3.790  0.6909  0.5861 -0.9071
   14SAPS   H8R 1781   2.362   5.961   3.704  1.6433  0.8787 -1.6146
   14SAPS   C29 1782   2.444   5.935   3.900 -0.2153  0.2497  0.1142
   14SAPS   H9R 1783   2.395   5.836   3.902 -1.3323  0.7968  0.0840
   14SAPS  C210 1784   2.516   5.982   4.025  0.6407  0.6603 -0.0121
   14SAPS  H10R 1785   2.464   6.074   4.060 -1.5468  0.5328 -2.6261
   14SAPS  H10S 1786   2.613   6.022   3.988  0.9218  1.2124  1.2581
   14SAPS  C211 1787   2.541   5.877   4.126  0.0669  0.4403  0.8524
   14SAPS  H11R 1788   2.650   5.861   4.128  0.6240  3.5563  0.4018
   14SAPS  C212 1789   2.455   5.811   4.200  0.2142 -0.3642 -0.0703
   14SAPS  H12R 1790   2.492   5.736   4.272 -0.6372 -1.2349 -0.5285
   14SAPS  C213 1791   2.319   5.861   4.216 -0.1292 -0.0053 -0.2488
   14SAPS  H13R 1792   2.302   5.955   4.159  1.6652 -0.3713 -1.4574
   14SAPS  H13S 1793   2.294   5.888   4.321 -0.2794 -1.6356  0.1606
   14SAPS  C214 1794   2.215   5.766   4.162 -0.2956  0.5110  0.0107
   14SAPS  H14R 1795   2.244   5.720   4.066  0.5407  0.4485  0.2824
   14SAPS  C215 1796   2.104   5.735   4.222  0.3669  0.4858  0.4887
   14SAPS  H15R 1797   2.037   5.661   4.178  1.8694 -0.1206 -0.8878
   14SAPS  C216 1798   2.039   5.790   4.345  0.0775 -0.2527  0.0720
   14SAPS  H16R 1799   1.929   5.791   4.329 -0.0015 -0.5679  0.5831
   14SAPS  H16S 1800   2.077   5.892   4.366 -0.1122 -0.5670  2.1292
   14SAPS  C217 1801   2.062   5.683   4.460  0.0898 -0.0905 -0.2094
   14SAPS  H17R 1802   2.171   5.677   4.480  0.6018  0.5470 -2.5358
   14SAPS  H17S 1803   2.003   5.594   4.430 -1.4353  1.0227 -0.6461
   14SAPS  C218 1804   1.991   5.731   4.584 -0.8339 -0.5886  0.0085
   14SAPS  H18R 1805   2.002   5.643   4.652 -1.5114  0.2419  1.2367
   14SAPS  H18S 1806   1.886   5.759   4.564  0.3300  2.9043 -2.0362
   14SAPS  C219 1807   2.063   5.858   4.641  0.2465 -0.4151 -0.4423
   14SAPS  H19R 1808   2.053   5.943   4.571 -1.6238  1.0941  1.5210
   14SAPS  H19S 1809   2.173   5.850   4.654  0.2220 -0.4141 -0.2283
   14SAPS  C220 1810   1.981   5.903   4.760  0.5418  0.0353  0.5734
   14SAPS  H20R 1811   2.004   5.835   4.844  2.1574  0.0457  0.1836
   14SAPS  H20S 1812   1.874   5.895   4.733  0.5816  0.9725  0.0934
   14SAPS  H20T 1813   2.013   6.007   4.782 -1.4668  0.8811 -0.2445
   14SAPS   C33 1814   1.619   6.329   3.676  0.6292 -0.6648 -0.3059
   14SAPS   H3X 1815   1.516   6.287   3.666 -0.3256  0.7956  2.4154
   14SAPS   H3Y 1816   1.614   6.428   3.627  0.2119 -1.1288 -1.2406
   14SAPS   C34 1817   1.637   6.334   3.824 -0.0930 -0.2181 -0.0963
   14SAPS   H4X 1818   1.745   6.347   3.847 -0.1278 -0.2550  0.0904
   14SAPS   H4Y 1819   1.605   6.235   3.864 -1.3384  0.2626  0.1687
   14SAPS   C35 1820   1.559   6.445   3.894 -0.0937 -0.4943  0.1525
   14SAPS   H5X 1821   1.453   6.435   3.865 -0.6942  0.3664  1.8903
   14SAPS   H5Y 1822   1.599   6.540   3.851 -0.2885 -1.0777 -1.3709
   14SAPS   C36 1823   1.578   6.457   4.043 -0.3881  0.4559 -0.4010
   14SAPS   H6X 1824   1.688   6.454   4.061 -0.2538  3.7930 -0.0244
   14SAPS   H6Y 1825   1.523   6.376   4.094  0.2262 -0.1643 -0.6944
   14SAPS   C37 1826   1.545   6.597   4.106  0.8802 -0.2995  0.7373
   14SAPS   H7X 1827   1.436   6.618   4.114  1.1797  1.6488  0.1197
   14SAPS   H7Y 1828   1.598   6.677   4.051 -1.1507 -0.5723 -1.7844
   14SAPS   C38 1829   1.597   6.613   4.249  0.1838  0.5348 -0.0110
   14SAPS   H8X 1830   1.561   6.711   4.285  0.6415  0.7042 -0.0056
   14SAPS   H8Y 1831   1.708   6.605   4.256  0.1407 -1.5106 -0.7933
   14SAPS   C39 1832   1.545   6.502   4.348  0.1819 -0.8917 -0.1425
   14SAPS   H9X 1833   1.590   6.540   4.443  2.8080 -0.0880 -1.6150
   14SAPS   H9Y 1834   1.591   6.404   4.323  1.6514 -0.6382  1.3733
   14SAPS  C310 1835   1.392   6.502   4.359 -0.1637 -0.3168 -0.6078
   14SAPS  H10X 1836   1.344   6.453   4.271 -0.4363 -0.6600 -0.2716
   14SAPS  H10Y 1837   1.353   6.605   4.349 -1.6830 -0.3039  3.6212
   14SAPS  C311 1838   1.332   6.451   4.490  1.0660 -0.0523  0.2590
   14SAPS  H11X 1839   1.356   6.343   4.505  1.2173 -0.0210  0.2427
   14SAPS  H11Y 1840   1.223   6.453   4.472  1.0167 -1.8627  0.1936
   14SAPS  C312 1841   1.358   6.545   4.613  0.1826 -0.3076  1.0408
   14SAPS  H12X 1842   1.308   6.645   4.617  0.7323 -0.0626  2.0689
   14SAPS  H12Y 1843   1.466   6.561   4.630 -0.0450  1.6517  0.9318
   14SAPS  C313 1844   1.312   6.476   4.740  0.1216 -0.8166 -0.1860
   14SAPS  H13X 1845   1.360   6.377   4.754 -1.3797 -1.5279  0.2358
   14SAPS  H13Y 1846   1.205   6.460   4.716 -0.3150  0.6899  0.6032
   14SAPS  C314 1847   1.323   6.557   4.875 -0.3189  0.4485  0.1871
   14SAPS  H14X 1848   1.273   6.656   4.862 -0.5466  0.1756 -1.1225
   14SAPS  H14Y 1849   1.429   6.591   4.887 -0.0619 -0.4908  0.6303
   14SAPS  C315 1850   1.277   6.481   5.000 -0.3049  0.5685  0.1221
   14SAPS  H15X 1851   1.308   6.549   5.082  1.1903  1.7779 -1.3596
   14SAPS  H15Y 1852   1.346   6.394   4.999 -0.5016  0.4057  0.6568
   14SAPS  C316 1853   1.131   6.443   5.016 -0.4336  0.3062 -0.0163
   14SAPS  H16X 1854   1.106   6.380   4.928  0.0925 -0.0705  0.0940
   14SAPS  H16Y 1855   1.062   6.527   4.992 -1.7259 -0.8726 -0.4974
   14SAPS  C317 1856   1.100   6.369   5.149  0.3762 -0.4517 -0.2284
   14SAPS  H17X 1857   0.990   6.374   5.165  0.2127 -1.8263 -0.8547
   14SAPS  H17Y 1858   1.148   6.423   5.234 -1.3857 -1.1037  1.2526
   14SAPS  C318 1859   1.127   6.220   5.139 -0.4307 -0.3557  0.0464
   14SAPS  H18X 1860   1.223   6.204   5.086  0.5453  0.6541  1.4240
   14SAPS  H18Y 1861   1.044   6.165   5.090  0.6492 -1.9144 -0.0949
   14SAPS  H18Z 1862   1.125   6.173   5.240  1.7351  1.8148  1.2058
   15SAPS     N 1863   6.472   4.324   3.088 -0.1733 -0.4824 -0.2579
   15SAPS   HN1 1864   6.470   4.245   3.020  2.3233 -0.3622 -0.5864
   15SAPS   HN2 1865   6.573   4.342   3.105 -0.1662  0.9320 -1.5579
   15SAPS   HN3 1866   6.428   4.297   3.178  1.5221  3.7560  2.1412
   15SAPS   C12 1867   6.409   4.448   3.048 -0.4996  0.1162  0.1600
   15SAPS  H12A 1868   6.413   4.516   3.132  0.4858 -0.4706  0.6072
   15SAPS   C13 1869   6.492   4.515   2.932 -0.4325 -0.0886 -0.7788
   15SAPS  O13A 1870   6.612   4.479   2.913  0.0836 -0.0707  0.7758
   15SAPS  O13B 1871   6.456   4.628   2.891 -0.0825  0.2960  0.2097
   15SAPS   C11 1872   6.265   4.425   3.000  0.0568  0.0082  0.3070
   15SAPS  H11A 1873   6.262   4.348   2.920  1.2853  2.1242 -1.9097
   15SAPS  H11B 1874   6.229   4.520   2.957  0.9473  1.3963  2.4699
   15SAPS     P 1875   6.030   4.348   3.094 -0.1848 -0.0615  0.3569
   15SAPS   O13 1876   5.975   4.418   2.970 -0.2333  0.8675  0.0558
   15SAPS   O14 1877   6.034   4.199   3.096  0.2003  0.0268 -0.6943
   15SAPS   O12 1878   6.185   4.388   3.116 -0.0793 -0.2109  0.4767
   15SAPS   O11 1879   5.951   4.399   3.221  0.2236  0.6455  0.3049
   15SAPS    C1 1880   6.002   4.511   3.280  0.3785 -0.2467 -0.2898
   15SAPS    HA 1881   6.057   4.586   3.218 -0.6065  1.7866  1.1725
   15SAPS    HB 1882   5.916   4.567   3.324  0.1468 -1.2607  0.5808
   15SAPS    C2 1883   6.097   4.486   3.401  0.2080  0.0342 -0.4423
   15SAPS    HS 1884   6.200   4.470   3.362  0.1398  0.7569 -0.9252
   15SAPS   O21 1885   6.055   4.365   3.470  0.1527 -0.0846 -0.1702
   15SAPS   C21 1886   6.147   4.305   3.543 -1.1368  0.2918  0.3315
   15SAPS   O22 1887   6.265   4.338   3.546 -0.5795 -0.8687  0.3249
   15SAPS   C22 1888   6.083   4.186   3.618 -0.0564  0.0034 -0.6671
   15SAPS   H2R 1889   5.992   4.222   3.670 -0.4799 -0.5638 -0.9914
   15SAPS   H2S 1890   6.051   4.117   3.536  0.5579 -1.1640  0.0558
   15SAPS    C3 1891   6.105   4.606   3.497  0.1075  0.3202 -0.4494
   15SAPS    HX 1892   6.009   4.611   3.552  0.0870  0.1993 -0.4731
   15SAPS    HY 1893   6.114   4.692   3.428 -3.3352 -0.4888 -2.1110
   15SAPS   O31 1894   6.223   4.609   3.589  0.0535 -0.3532  0.2290
   15SAPS   C31 1895   6.200   4.591   3.717 -0.1010 -0.4115  0.2513
   15SAPS   O32 1896   6.096   4.555   3.770 -0.3295  0.1351  0.1532
   15SAPS   C32 1897   6.336   4.603   3.794 -0.0952 -0.2296 -0.0110
   15SAPS   H2X 1898   6.390   4.691   3.752 -1.3226  0.9392  0.8003
   15SAPS   H2Y 1899   6.403   4.515   3.782  0.9880  0.4517  0.8480
   15SAPS   C23 1900   6.182   4.118   3.716 -0.5447 -0.0756  0.1504
   15SAPS   H3R 1901   6.270   4.086   3.657  0.9741 -1.2127  2.8595
   15SAPS   H3S 1902   6.132   4.028   3.757  1.2055 -0.6600  1.1031
   15SAPS   C24 1903   6.235   4.201   3.837 -0.0110  0.4060 -0.0498
   15SAPS   H4R 1904   6.160   4.173   3.914 -1.1154  2.8468 -0.1511
   15SAPS   H4S 1905   6.226   4.311   3.822 -1.0651  0.6026  1.7077
   15SAPS   C25 1906   6.380   4.184   3.880  0.9086  0.0705  0.4801
   15SAPS   H5R 1907   6.450   4.151   3.802  0.7074  0.1730  0.2577
   15SAPS   C26 1908   6.433   4.228   3.987  0.3404  0.4228 -0.7598
   15SAPS   H6R 1909   6.536   4.199   4.014 -0.6806 -1.1726  1.6806
   15SAPS   C27 1910   6.361   4.289   4.109 -0.2274 -0.4296 -0.2151
   15SAPS   H7R 1911   6.322   4.202   4.167 -1.8464 -0.7443 -1.7111
   15SAPS   H7S 1912   6.275   4.350   4.074  1.0315  0.6376 -1.5802
   15SAPS   C28 1913   6.448   4.377   4.196  0.3725  0.3209 -0.3480
   15SAPS   H8R 1914   6.534   4.424   4.146 -0.5247  1.2544 -1.0468
   15SAPS   C29 1915   6.438   4.410   4.329  0.7983  0.1668  0.5387
   15SAPS   H9R 1916   6.513   4.477   4.374  0.2672 -0.0885  1.8808
   15SAPS  C210 1917   6.317   4.360   4.420 -0.3712  0.0849 -0.7306
   15SAPS  H10R 1918   6.361   4.329   4.517 -0.0563 -0.4132 -1.0299
   15SAPS  H10S 1919   6.259   4.273   4.385 -2.3488  0.7922  0.6274
   15SAPS  C211 1920   6.223   4.472   4.445  0.5006  0.3169  0.0542
   15SAPS  H11R 1921   6.205   4.532   4.355 -0.2877  0.8831  0.5793
   15SAPS  C212 1922   6.172   4.513   4.558 -0.4880  0.0507 -0.2836
   15SAPS  H12R 1923   6.099   4.595   4.546 -0.0460  0.3256 -1.1938
   15SAPS  C213 1924   6.172   4.453   4.694  0.1384  0.1218  0.3026
   15SAPS  H13R 1925   6.192   4.344   4.683 -0.4505  0.0652 -0.2279
   15SAPS  H13S 1926   6.069   4.457   4.736  0.1463  1.3545  0.2400
   15SAPS  C214 1927   6.269   4.518   4.782  0.2399 -0.6203 -0.3820
   15SAPS  H14R 1928   6.371   4.499   4.746  1.1097  2.3584  0.2714
   15SAPS  C215 1929   6.253   4.599   4.888 -0.0660 -0.0232 -0.1711
   15SAPS  H15R 1930   6.347   4.626   4.938  0.8509 -1.0421 -1.2981
   15SAPS  C216 1931   6.130   4.635   4.965  0.6066 -0.0101  0.5900
   15SAPS  H16R 1932   6.126   4.563   5.050  1.2823 -0.0902  0.5544
   15SAPS  H16S 1933   6.040   4.618   4.901  0.4513  1.4882  0.3591
   15SAPS  C217 1934   6.115   4.783   5.008 -0.0667 -0.5312 -0.6559
   15SAPS  H17R 1935   6.109   4.852   4.922 -1.6374  0.1318 -0.0411
   15SAPS  H17S 1936   6.210   4.818   5.054  0.7039 -1.6375 -1.3290
   15SAPS  C218 1937   5.995   4.821   5.095 -0.3792  0.5049  0.3354
   15SAPS  H18R 1938   6.002   4.759   5.187 -0.9132  1.1282  0.8022
   15SAPS  H18S 1939   5.900   4.804   5.039 -1.4998  0.3846  2.2093
   15SAPS  C219 1940   5.997   4.969   5.140  0.2571 -0.4772 -0.3476
   15SAPS  H19R 1941   6.024   5.046   5.065  0.0745  0.1888  0.2638
   15SAPS  H19S 1942   6.076   4.970   5.218 -0.1477 -4.8591  0.3651
   15SAPS  C220 1943   5.859   5.021   5.199  0.3718  1.0773  0.5873
   15SAPS  H20R 1944   5.886   5.116   5.248 -0.2998  2.2093 -1.1225
   15SAPS  H20S 1945   5.808   4.944   5.261 -0.6345 -0.0674 -1.5390
   15SAPS  H20T 1946   5.790   5.048   5.115 -2.3294  2.2045  3.0016
   15SAPS   C33 1947   6.318   4.630   3.941 -0.4323 -0.6945 -0.9077
   15SAPS   H3X 1948   6.413   4.650   3.994 -1.2753  0.1050  0.3511
   15SAPS   H3Y 1949   6.272   4.539   3.987 -0.6353  0.1274  0.5730
   15SAPS   C34 1950   6.232   4.752   3.979 -0.2708  0.3218 -0.0378
   15SAPS   H4X 1951   6.127   4.721   3.961 -0.8182  1.5497  0.9023
   15SAPS   H4Y 1952   6.249   4.848   3.926  1.4028  2.3393  3.7570
   15SAPS   C35 1953   6.244   4.793   4.127 -0.2729 -0.6133  0.6961
   15SAPS   H5X 1954   6.350   4.812   4.157 -0.3979  1.1656  0.1477
   15SAPS   H5Y 1955   6.202   4.719   4.198  0.0054 -0.0023  1.5214
   15SAPS   C36 1956   6.154   4.913   4.154 -0.4233 -0.4511  0.3746
   15SAPS   H6X 1957   6.054   4.868   4.137 -1.2750  2.0253 -1.6280
   15SAPS   H6Y 1958   6.166   4.992   4.077 -0.0969 -2.3527 -1.6227
   15SAPS   C37 1959   6.167   4.974   4.296 -0.4353 -0.3206  0.1619
   15SAPS   H7X 1960   6.107   5.067   4.306 -0.1900 -0.1399 -0.0513
   15SAPS   H7Y 1961   6.273   4.998   4.320  0.0308 -1.9667 -0.1757
   15SAPS   C38 1962   6.116   4.878   4.407  0.7594  0.3724 -0.7095
   15SAPS   H8X 1963   6.163   4.779   4.391 -1.1783 -0.4125 -1.7596
   15SAPS   H8Y 1964   6.006   4.868   4.407  0.7802  0.0236  0.2709
   15SAPS   C39 1965   6.165   4.921   4.546  0.4576 -0.1140 -0.4841
   15SAPS   H9X 1966   6.272   4.944   4.530  0.8798  0.4117  2.4505
   15SAPS   H9Y 1967   6.157   4.845   4.627  0.0065 -0.1807 -0.5901
   15SAPS  C310 1968   6.097   5.050   4.599 -0.2639 -0.2104  0.2052
   15SAPS  H10X 1969   5.992   5.025   4.627 -0.3705  2.3465  2.4567
   15SAPS  H10Y 1970   6.083   5.136   4.531  0.7948 -1.6499 -1.9719
   15SAPS  C311 1971   6.168   5.102   4.724  0.6332  0.0867 -0.0064
   15SAPS  H11X 1972   6.254   5.162   4.688 -0.2876  2.7702  1.9733
   15SAPS  H11Y 1973   6.204   5.018   4.787 -1.0856 -0.4769  0.2763
   15SAPS  C312 1974   6.085   5.205   4.805  0.4156 -0.5467  0.6087
   15SAPS  H12X 1975   6.021   5.150   4.877 -0.8387  1.3996  1.0519
   15SAPS  H12Y 1976   6.009   5.252   4.739 -2.9856 -2.4143  2.8621
   15SAPS  C313 1977   6.172   5.299   4.892 -0.5463 -0.0886 -0.1033
   15SAPS  H13X 1978   6.221   5.369   4.822  0.8657 -1.2879 -0.3585
   15SAPS  H13Y 1979   6.252   5.248   4.951  0.3359  1.1027 -0.2442
   15SAPS  C314 1980   6.085   5.387   4.994 -0.6992 -0.2312  0.1324
   15SAPS  H14X 1981   6.162   5.437   5.056  1.7484  0.9765 -3.5629
   15SAPS  H14Y 1982   6.013   5.323   5.049 -1.5197 -2.3708 -3.1070
   15SAPS  C315 1983   6.008   5.497   4.915 -0.7130 -0.8782 -0.5969
   15SAPS  H15X 1984   5.946   5.437   4.844  0.0593 -0.2302 -1.8641
   15SAPS  H15Y 1985   6.085   5.558   4.863 -1.3867  1.5491  1.0796
   15SAPS  C316 1986   5.930   5.591   5.000 -0.3073  0.1102 -0.4029
   15SAPS  H16X 1987   5.920   5.685   4.941 -0.9063 -0.0521 -0.5661
   15SAPS  H16Y 1988   5.986   5.624   5.090  0.1837 -0.7462 -0.3886
   15SAPS  C317 1989   5.794   5.532   5.047  0.8352 -0.7931  0.5871
   15SAPS  H17X 1990   5.746   5.587   5.130 -0.0433 -0.1649 -0.3188
   15SAPS  H17Y 1991   5.811   5.428   5.082 -2.6357 -1.1679  1.5373
   15SAPS  C318 1992   5.684   5.501   4.936  0.6024  0.3571 -0.1511
   15SAPS  H18X 1993   5.712   5.409   4.881 -2.3975  0.9795 -3.0218
   15SAPS  H18Y 1994   5.668   5.586   4.866 -2.2001  1.2284  1.4056
   15SAPS  H18Z 1995   5.591   5.475   4.992 -0.0638  2.3095 -0.2776
   16SAPS     N 1996   0.690   5.394   3.082 -0.2144 -0.3579  0.2815
   16SAPS   HN1 1997   0.633   5.332   3.143  0.6402  0.7317  2.2768
   16SAPS   HN2 1998   0.759   5.344   3.024 -0.4872  0.7744 -1.0927
   16SAPS   HN3 1999   0.744   5.460   3.142  2.1893 -2.8152  1.0057
   16SAPS   C12 2000   0.603   5.484   2.997 -0.2539  0.2014 -0.5662
   16SAPS  H12A 2001   0.650   5.571   2.954 -3.7559  2.8404  0.5174
   16SAPS   C13 2002   0.524   5.409   2.887  0.1634 -0.0096  0.1855
   16SAPS  O13A 2003   0.548   5.292   2.861  0.1020  0.0340 -0.1512
   16SAPS  O13B 2004   0.455   5.483   2.814 -0.0222 -0.7235  0.7445
   16SAPS   C11 2005   0.504   5.557   3.096  0.3996  1.0212 -0.3450
   16SAPS  H11A 2006   0.451   5.482   3.159 -0.3690  1.2368 -0.7141
   16SAPS  H11B 2007   0.426   5.617   3.043 -1.8293 -1.4054 -0.0418
   16SAPS     P 2008   0.584   5.642   3.337 -0.4630  0.1937  0.1752
   16SAPS   O13 2009   0.664   5.764   3.373  0.4378 -0.4129 -0.1034
   16SAPS   O14 2010   0.449   5.639   3.393  0.7489 -0.0476  0.5103
   16SAPS   O12 2011   0.582   5.646   3.179  0.5837  0.6030 -0.2399
   16SAPS   O11 2012   0.659   5.509   3.365  0.0907  0.4882  0.6609
   16SAPS    C1 2013   0.600   5.414   3.463 -0.7949 -0.3175  0.0722
   16SAPS    HA 2014   0.490   5.423   3.457 -0.5674  4.1880 -2.9158
   16SAPS    HB 2015   0.640   5.318   3.424  0.3143  0.3820 -0.5940
   16SAPS    C2 2016   0.629   5.445   3.611  0.1652 -0.0632 -0.5573
   16SAPS    HS 2017   0.557   5.522   3.644  1.9357  0.6128  1.9750
   16SAPS   O21 2018   0.774   5.476   3.627  0.3605  0.8678 -0.0518
   16SAPS   C21 2019   0.801   5.571   3.712  0.2595 -0.3093  0.0346
   16SAPS   O22 2020   0.720   5.624   3.787  0.2111  0.0340  0.3094
   16SAPS   C22 2021   0.948   5.609   3.703 -0.0861 -0.3557 -0.1006
   16SAPS   H2R 2022   0.995   5.565   3.613 -1.3981  0.9984 -1.4853
   16SAPS   H2S 2023   0.951   5.716   3.674  0.2514 -0.7403 -1.5473
   16SAPS    C3 2024   0.592   5.320   3.705 -0.1574  0.2467 -0.1053
   16SAPS    HX 2025   0.658   5.234   3.680 -1.4981 -0.7856 -0.1943
   16SAPS    HY 2026   0.486   5.300   3.676  0.6692 -1.7029 -2.0698
   16SAPS   O31 2027   0.587   5.358   3.843 -0.1804 -0.4186 -0.3388
   16SAPS   C31 2028   0.474   5.396   3.907 -0.4378  0.0225  0.3259
   16SAPS   O32 2029   0.360   5.406   3.858 -1.0711  0.2776 -0.3693
   16SAPS   C32 2030   0.504   5.412   4.056 -0.2333 -0.2607 -0.4805
   16SAPS   H2X 2031   0.504   5.306   4.087 -1.3887 -0.0418  0.3666
   16SAPS   H2Y 2032   0.415   5.459   4.103 -1.4860  0.3938 -3.2817
   16SAPS   C23 2033   1.032   5.584   3.838  0.8073 -0.6605  0.2481
   16SAPS   H3R 2034   1.134   5.552   3.808  0.6361 -3.0489  1.9753
   16SAPS   H3S 2035   0.990   5.502   3.901  0.4441 -0.3249  0.4505
   16SAPS   C24 2036   1.040   5.706   3.934 -0.3677 -0.1306 -0.2644
   16SAPS   H4R 2037   1.062   5.668   4.036  2.7665  1.7225 -0.1203
   16SAPS   H4S 2038   0.940   5.753   3.936  0.2626  1.3820 -1.8256
   16SAPS   C25 2039   1.134   5.817   3.891  0.3797  0.3056 -0.2401
   16SAPS   H5R 2040   1.135   5.850   3.786 -0.5940  2.4482  0.3811
   16SAPS   C26 2041   1.204   5.889   3.985 -0.3532  0.2492  0.1349
   16SAPS   H6R 2042   1.275   5.970   3.963  0.3224  0.0106  1.3888
   16SAPS   C27 2043   1.218   5.865   4.134  0.7381 -0.3316  0.2653
   16SAPS   H7R 2044   1.272   5.770   4.152 -1.6490 -1.9239 -0.3898
   16SAPS   H7S 2045   1.118   5.839   4.177 -0.2097  1.2749 -0.8583
   16SAPS   C28 2046   1.267   5.982   4.216  0.5320  0.4979  0.5287
   16SAPS   H8R 2047   1.185   6.038   4.262 -0.4168 -0.4174  0.0031
   16SAPS   C29 2048   1.390   6.025   4.242  0.9373 -0.0068 -0.4452
   16SAPS   H9R 2049   1.410   6.116   4.299 -2.3919  0.3571  0.3614
   16SAPS  C210 2050   1.513   5.954   4.195  0.4774 -0.5454 -0.0232
   16SAPS  H10R 2051   1.539   6.001   4.098  0.7562 -2.1623 -0.7749
   16SAPS  H10S 2052   1.483   5.849   4.172  0.6485 -0.7862  0.8104
   16SAPS  C211 2053   1.639   5.957   4.276  0.3964 -0.3465  0.1792
   16SAPS  H11R 2054   1.722   5.966   4.205 -0.7498  1.0142 -1.0518
   16SAPS  C212 2055   1.656   5.951   4.406  0.1416 -0.2282 -0.2017
   16SAPS  H12R 2056   1.757   5.976   4.442  0.9170 -0.3900 -2.1338
   16SAPS  C213 2057   1.553   5.921   4.509 -0.3051  0.1019  0.1576
   16SAPS  H13R 2058   1.610   5.892   4.599  0.3129 -2.6069 -1.0103
   16SAPS  H13S 2059   1.500   5.828   4.480  0.1428  0.0097 -0.3771
   16SAPS  C214 2060   1.451   6.023   4.551 -0.1708 -0.3961 -0.0311
   16SAPS  H14R 2061   1.354   6.000   4.506 -1.3362  1.5201  1.3640
   16SAPS  C215 2062   1.453   6.121   4.640  0.5928 -0.0076 -0.0111
   16SAPS  H15R 2063   1.358   6.167   4.671  0.4064 -0.7723  0.5916
   16SAPS  C216 2064   1.564   6.161   4.732  0.1182  0.2986 -0.2306
   16SAPS  H16R 2065   1.576   6.272   4.734 -1.7273  0.5233 -0.4615
   16SAPS  H16S 2066   1.659   6.119   4.693 -0.2359 -0.7786  0.0496
   16SAPS  C217 2067   1.544   6.108   4.877  0.2882  0.0608  0.0968
   16SAPS  H17R 2068   1.436   6.103   4.902 -0.2519 -0.6256 -2.0984
   16SAPS  H17S 2069   1.587   6.171   4.957 -1.3835  0.5025  0.6981
   16SAPS  C218 2070   1.606   5.966   4.887  0.3920  0.0979  0.0616
   16SAPS  H18R 2071   1.710   5.971   4.847  1.3641  1.1034  2.5528
   16SAPS  H18S 2072   1.563   5.901   4.807  0.7152  1.3756 -1.1754
   16SAPS  C219 2073   1.594   5.906   5.025 -0.0237 -0.7252  0.2314
   16SAPS  H19R 2074   1.488   5.909   5.058  0.3385  0.1548  1.3923
   16SAPS  H19S 2075   1.640   5.972   5.102 -3.0274  1.1564  0.5852
   16SAPS  C220 2076   1.648   5.766   5.041 -0.6455  0.8774  0.6135
   16SAPS  H20R 2077   1.603   5.689   4.975  0.7791  2.3926 -2.3237
   16SAPS  H20S 2078   1.637   5.732   5.147 -0.1847  0.5549  0.5639
   16SAPS  H20T 2079   1.759   5.755   5.036 -0.8128 -0.8706  0.0270
   16SAPS   C33 2080   0.635   5.482   4.091 -0.1703 -0.2769 -0.5161
   16SAPS   H3X 2081   0.628   5.593   4.085 -0.1999 -0.3557 -2.7889
   16SAPS   H3Y 2082   0.719   5.443   4.029  0.4235 -0.2841  0.2814
   16SAPS   C34 2083   0.683   5.458   4.227  0.6976  0.0325  0.2227
   16SAPS   H4X 2084   0.672   5.353   4.261 -2.7427  0.9420  2.5014
   16SAPS   H4Y 2085   0.609   5.516   4.287 -1.1415 -0.9335 -0.9984
   16SAPS   C35 2086   0.832   5.498   4.237  0.8319  0.4076  0.2962
   16SAPS   H5X 2087   0.852   5.599   4.194 -0.2602  0.4867 -0.0789
   16SAPS   H5Y 2088   0.894   5.421   4.188  1.7159  1.0342  0.4131
   16SAPS   C36 2089   0.878   5.494   4.383 -0.0133 -0.3741  0.7162
   16SAPS   H6X 2090   0.862   5.392   4.424  0.1837 -1.5201 -1.8153
   16SAPS   H6Y 2091   0.820   5.571   4.438 -1.3319 -0.3506 -0.6185
   16SAPS   C37 2092   1.032   5.527   4.390  0.8221  0.6111  0.0334
   16SAPS   H7X 2093   1.030   5.625   4.338  3.1562 -0.2706 -1.8618
   16SAPS   H7Y 2094   1.084   5.458   4.320 -3.4623 -1.1026 -1.8087
   16SAPS   C38 2095   1.079   5.552   4.529  0.5705  0.2331 -0.1201
   16SAPS   H8X 2096   1.085   5.462   4.593  0.6506  1.1422  1.1978
   16SAPS   H8Y 2097   1.005   5.620   4.579 -1.8596 -1.4910 -1.1731
   16SAPS   C39 2098   1.215   5.624   4.531 -0.2420  0.3824  0.1466
   16SAPS   H9X 2099   1.216   5.722   4.478  1.3165  0.3641  0.1001
   16SAPS   H9Y 2100   1.295   5.573   4.474 -0.2440  1.6714 -1.0698
   16SAPS  C310 2101   1.266   5.649   4.673  0.2256  0.3912 -0.1754
   16SAPS  H10X 2102   1.356   5.713   4.661  1.5941 -1.3903  0.2034
   16SAPS  H10Y 2103   1.301   5.550   4.710  2.6940  0.4434 -2.1318
   16SAPS  C311 2104   1.182   5.726   4.772 -0.1709  0.5480  0.3906
   16SAPS  H11X 2105   1.090   5.670   4.798  0.4887  0.0943  1.8659
   16SAPS  H11Y 2106   1.163   5.829   4.736 -0.1302  0.4568  0.1060
   16SAPS  C312 2107   1.274   5.737   4.901 -1.2037 -0.0013  0.2725
   16SAPS  H12X 2108   1.323   5.837   4.899 -0.8125 -0.1850  0.5625
   16SAPS  H12Y 2109   1.359   5.666   4.898  0.2767  1.7214 -1.6297
   16SAPS  C313 2110   1.190   5.728   5.025  0.2291  0.1987  0.8089
   16SAPS  H13X 2111   1.254   5.751   5.113 -1.5073  1.6243  1.7542
   16SAPS  H13Y 2112   1.151   5.625   5.037 -1.8122  0.7782 -0.3983
   16SAPS  C314 2113   1.079   5.834   5.034  0.4736  0.0767  0.8868
   16SAPS  H14X 2114   1.002   5.808   4.958 -1.3203  6.1930  0.0823
   16SAPS  H14Y 2115   1.126   5.930   5.003  1.5246 -0.8345 -0.4785
   16SAPS  C315 2116   1.018   5.858   5.172  0.1992 -1.1413 -0.2301
   16SAPS  H15X 2117   0.920   5.907   5.154 -0.1034 -1.3395  0.8009
   16SAPS  H15Y 2118   1.088   5.923   5.227 -1.1957 -1.2319  1.7937
   16SAPS  C316 2119   0.986   5.731   5.253 -0.6059 -0.0781 -0.2634
   16SAPS  H16X 2120   1.075   5.695   5.308 -0.6182  2.1019  1.3300
   16SAPS  H16Y 2121   0.942   5.655   5.185 -2.5190  1.0594 -0.3917
   16SAPS  C317 2122   0.872   5.762   5.350  0.0601  0.7479 -0.0541
   16SAPS  H17X 2123   0.776   5.760   5.293 -0.0056  1.7223  0.0075
   16SAPS  H17Y 2124   0.883   5.867   5.385  2.2839  1.3486 -2.2392
   16SAPS  C318 2125   0.872   5.670   5.476  0.0423  0.3097  0.0398
   16SAPS  H18X 2126   0.898   5.563   5.460  3.9298  0.8393  1.5832
   16SAPS  H18Y 2127   0.773   5.674   5.526 -0.5041 -1.6064 -0.8312
   16SAPS  H18Z 2128   0.957   5.703   5.540 -0.1978  1.2203 -0.0963
   17SAPS     N 2129   3.865   5.080   2.463 -0.1078 -0.1226 -0.2468
   17SAPS   HN1 2130   3.885   5.167   2.410 -0.3326 -0.4616 -0.8935
   17SAPS   HN2 2131   3.940   5.009   2.455 -1.2473 -1.2759 -1.0889
   17SAPS   HN3 2132   3.785   5.038   2.411  0.9506  0.5536 -2.5478
   17SAPS   C12 2133   3.818   5.102   2.595  0.0640  0.3860  0.7825
   17SAPS  H12A 2134   3.897   5.163   2.636  0.8493  0.3718 -0.6216
   17SAPS   C13 2135   3.675   5.172   2.601 -0.5003 -0.7684  0.8789
   17SAPS  O13A 2136   3.608   5.192   2.490  0.1967  0.3755 -0.2026
   17SAPS  O13B 2137   3.616   5.198   2.709  0.2691  0.2290 -0.0403
   17SAPS   C11 2138   3.817   4.969   2.677  0.4043 -0.5678  0.1115
   17SAPS  H11A 2139   3.728   4.907   2.658  0.2314 -0.6339  1.0713
   17SAPS  H11B 2140   3.803   5.014   2.777  1.0750  1.8620 -0.8173
   17SAPS     P 2141   4.071   4.918   2.737  0.4333  0.0559  0.1839
   17SAPS   O13 2142   4.175   4.826   2.674  0.1981  0.2425  0.1829
   17SAPS   O14 2143   4.112   5.058   2.746  0.1528 -0.2732 -0.0908
   17SAPS   O12 2144   3.937   4.896   2.653  0.2463 -0.1281  0.0620
   17SAPS   O11 2145   4.023   4.858   2.875  0.5027 -0.5193 -0.3939
   17SAPS    C1 2146   3.956   4.732   2.868  0.6384 -0.2830  0.2236
   17SAPS    HA 2147   3.853   4.755   2.832  0.6303 -0.7896 -0.1030
   17SAPS    HB 2148   4.003   4.660   2.798  1.1252  0.1312  0.1241
   17SAPS    C2 2149   3.962   4.677   3.013  0.3489  0.2832 -0.0423
   17SAPS    HS 2150   3.920   4.574   3.001 -3.1944  1.5650  0.1517
   17SAPS   O21 2151   3.876   4.750   3.102  0.7215  0.4739 -0.8103
   17SAPS   C21 2152   3.746   4.721   3.092 -0.9290 -0.6671 -0.1767
   17SAPS   O22 2153   3.700   4.655   3.005 -0.4423 -0.2565  0.2570
   17SAPS   C22 2154   3.653   4.791   3.196  0.0965  0.3444  0.1394
   17SAPS   H2R 2155   3.573   4.849   3.147 -1.4063 -1.7532 -0.0180
   17SAPS   H2S 2156   3.608   4.703   3.246 -0.3418  0.4707 -0.0312
   17SAPS    C3 2157   4.103   4.674   3.078 -0.1779  0.4418  0.1104
   17SAPS    HX 2158   4.139   4.778   3.072 -1.7418  0.9558 -1.1280
   17SAPS    HY 2159   4.172   4.606   3.024 -0.1771 -1.2670  2.1037
   17SAPS   O31 2160   4.092   4.634   3.221 -0.9474 -0.7963 -0.1436
   17SAPS   C31 2161   4.065   4.500   3.231 -0.2229 -0.5167 -0.1750
   17SAPS   O32 2162   4.053   4.421   3.141  0.5605  0.5471 -0.2904
   17SAPS   C32 2163   4.070   4.461   3.375  0.1833  0.4199  0.2851
   17SAPS   H2X 2164   4.134   4.532   3.431  0.7725 -0.9858  1.4674
   17SAPS   H2Y 2165   4.122   4.363   3.384 -0.1976  0.2034  0.1227
   17SAPS   C23 2166   3.725   4.863   3.317 -0.1433 -0.0835  0.1186
   17SAPS   H3R 2167   3.791   4.950   3.294 -0.4421  0.7687  2.2550
   17SAPS   H3S 2168   3.780   4.782   3.368 -0.8877  0.9455  2.7241
   17SAPS   C24 2169   3.620   4.896   3.425  0.4462 -0.2462 -0.0884
   17SAPS   H4R 2170   3.565   4.801   3.443 -2.0928  1.2977  0.8316
   17SAPS   H4S 2171   3.540   4.957   3.377 -0.2046 -1.6044 -0.7842
   17SAPS   C25 2172   3.663   4.947   3.555 -0.2988 -0.1168  0.7831
   17SAPS   H5R 2173   3.718   5.043   3.552 -1.6184  0.6726 -1.5673
   17SAPS   C26 2174   3.633   4.887   3.675 -0.2487 -1.0522  0.0582
   17SAPS   H6R 2175   3.664   4.933   3.770 -4.0120 -2.1365  2.0305
   17SAPS   C27 2176   3.543   4.771   3.710 -0.0085  0.0999  0.2356
   17SAPS   H7R 2177   3.606   4.688   3.746 -0.5007 -1.6149 -2.5176
   17SAPS   H7S 2178   3.494   4.736   3.616  1.1462 -4.1132  1.0208
   17SAPS   C28 2179   3.442   4.793   3.819  0.8248  0.6185 -0.0310
   17SAPS   H8R 2180   3.338   4.813   3.789  0.2448 -1.1802  0.6752
   17SAPS   C29 2181   3.481   4.789   3.951 -0.8377  0.1905 -0.3486
   17SAPS   H9R 2182   3.409   4.829   4.024 -0.4510  1.2697 -0.5290
   17SAPS  C210 2183   3.627   4.773   4.005  0.1467 -0.1997 -0.3948
   17SAPS  H10R 2184   3.713   4.779   3.936 -0.8279  2.0299 -1.5189
   17SAPS  H10S 2185   3.634   4.676   4.058 -1.7714  0.5394  1.3496
   17SAPS  C211 2186   3.648   4.890   4.101  0.2323 -0.1794 -0.1483
   17SAPS  H11R 2187   3.675   4.979   4.042 -1.2128  0.3761  0.0156
   17SAPS  C212 2188   3.642   4.905   4.233  0.6362  0.1958 -0.0355
   17SAPS  H12R 2189   3.685   4.992   4.285  1.7507 -0.6945  0.5449
   17SAPS  C213 2190   3.597   4.785   4.311 -0.5772 -0.1671  0.1277
   17SAPS  H13R 2191   3.657   4.694   4.294 -0.7556 -0.6172  1.7527
   17SAPS  H13S 2192   3.488   4.768   4.297 -0.8138  0.9490  0.4735
   17SAPS  C214 2193   3.600   4.812   4.458 -0.7740 -0.2775 -0.2792
   17SAPS  H14R 2194   3.695   4.782   4.506 -0.5711  1.1758  0.2847
   17SAPS  C215 2195   3.501   4.861   4.537 -0.4647 -0.0917  0.3117
   17SAPS  H15R 2196   3.518   4.858   4.646  1.0200  1.3461  0.1594
   17SAPS  C216 2197   3.362   4.910   4.499 -0.3034  0.4632 -0.7654
   17SAPS  H16R 2198   3.290   4.838   4.545 -0.7507  1.6924  0.5098
   17SAPS  H16S 2199   3.357   4.915   4.389  2.8093  0.9890 -0.9507
   17SAPS  C217 2200   3.334   5.050   4.549 -0.9534  0.1093 -0.1507
   17SAPS  H17R 2201   3.259   5.091   4.477 -2.0952 -3.2766 -1.0641
   17SAPS  H17S 2202   3.425   5.111   4.529 -0.2138 -1.1984 -0.9340
   17SAPS  C218 2203   3.284   5.053   4.693  0.1565 -0.2073 -0.2129
   17SAPS  H18R 2204   3.361   5.047   4.773 -0.9932  0.9351  1.0209
   17SAPS  H18S 2205   3.208   4.973   4.706 -0.3373  0.2638 -0.1789
   17SAPS  C219 2206   3.210   5.176   4.720 -0.6619  0.6920  0.3874
   17SAPS  H19R 2207   3.114   5.183   4.665 -1.3716  1.6774  1.6952
   17SAPS  H19S 2208   3.284   5.252   4.687  0.9440 -0.5484  0.9763
   17SAPS  C220 2209   3.193   5.206   4.869 -0.0056 -0.1471  0.7247
   17SAPS  H20R 2210   3.283   5.217   4.934  0.2551 -0.3643  0.4071
   17SAPS  H20S 2211   3.117   5.134   4.906 -0.2161 -0.6741 -0.6648
   17SAPS  H20T 2212   3.143   5.304   4.879 -1.5403 -0.9362  1.0759
   17SAPS   C33 2213   3.931   4.444   3.439  0.3712  0.0898  0.8007
   17SAPS   H3X 2214   3.888   4.343   3.420  2.5085 -0.7935  0.4268
   17SAPS   H3Y 2215   3.856   4.514   3.396 -0.9254 -1.7838 -0.1572
   17SAPS   C34 2216   3.928   4.472   3.588 -0.3486 -0.3608  0.0381
   17SAPS   H4X 2217   4.018   4.430   3.638 -0.6374 -1.8646 -0.6519
   17SAPS   H4Y 2218   3.836   4.427   3.632  1.1505 -2.2706  1.3342
   17SAPS   C35 2219   3.922   4.626   3.613  0.3529 -0.1696  0.2439
   17SAPS   H5X 2220   3.826   4.677   3.588  0.2870 -0.8077 -0.9081
   17SAPS   H5Y 2221   4.001   4.668   3.548  1.8856 -3.5863 -0.3096
   17SAPS   C36 2222   3.963   4.667   3.761 -1.0039 -0.0424  0.7083
   17SAPS   H6X 2223   3.933   4.774   3.768  0.6918  0.5502 -0.5891
   17SAPS   H6Y 2224   4.073   4.671   3.766 -1.0439  1.5301  0.7658
   17SAPS   C37 2225   3.900   4.576   3.874 -0.5870  0.0420  0.2060
   17SAPS   H7X 2226   3.948   4.476   3.865 -2.4202 -1.0041  1.4988
   17SAPS   H7Y 2227   3.793   4.566   3.845 -0.4368 -0.3314 -0.2357
   17SAPS   C38 2228   3.940   4.620   4.015  0.1835  0.4676 -0.3143
   17SAPS   H8X 2229   3.881   4.711   4.040  1.8448  1.8116 -1.0874
   17SAPS   H8Y 2230   4.048   4.643   4.028  0.4509 -1.1162  0.5163
   17SAPS   C39 2231   3.909   4.507   4.119 -0.6177 -0.1910 -1.2388
   17SAPS   H9X 2232   3.941   4.404   4.094  2.0937  0.0804  0.6801
   17SAPS   H9Y 2233   3.799   4.503   4.129 -0.8295  0.6480 -2.8563
   17SAPS  C310 2234   3.964   4.560   4.258 -0.2100 -0.3232  0.8447
   17SAPS  H10X 2235   3.911   4.656   4.278 -0.4647 -0.5659  1.3458
   17SAPS  H10Y 2236   4.072   4.583   4.242 -0.2302 -0.2178  0.8573
   17SAPS  C311 2237   3.950   4.458   4.362 -0.4657  1.0290  0.8342
   17SAPS  H11X 2238   4.027   4.379   4.352 -0.9849  0.4559  1.2354
   17SAPS  H11Y 2239   3.847   4.415   4.360 -0.6967  1.5973  0.2595
   17SAPS  C312 2240   3.979   4.527   4.499  0.9476 -0.1140  0.1567
   17SAPS  H12X 2241   3.905   4.608   4.515  1.3658  0.2909  0.0569
   17SAPS  H12Y 2242   4.081   4.571   4.496 -0.1670  2.6389 -0.3367
   17SAPS  C313 2243   3.963   4.432   4.621  0.6641  0.8171 -0.4075
   17SAPS  H13X 2244   4.031   4.453   4.706 -0.7121 -2.2655  1.6671
   17SAPS  H13Y 2245   3.984   4.330   4.581  0.4222  0.7215 -0.2905
   17SAPS  C314 2246   3.820   4.420   4.666 -0.2832 -0.1555 -0.1183
   17SAPS  H14X 2247   3.758   4.393   4.578  1.4120  1.2299 -1.8239
   17SAPS  H14Y 2248   3.776   4.518   4.697 -1.6867 -0.4548 -1.0778
   17SAPS  C315 2249   3.788   4.329   4.786 -0.0492  0.8418  0.2437
   17SAPS  H15X 2250   3.861   4.244   4.783 -2.3834 -1.2638 -1.9484
   17SAPS  H15Y 2251   3.685   4.289   4.783 -0.5996  1.9741  2.3937
   17SAPS  C316 2252   3.791   4.406   4.916 -0.5166  1.3525 -0.8309
   17SAPS  H16X 2253   3.872   4.482   4.912 -1.7334  2.6261 -2.8602
   17SAPS  H16Y 2254   3.820   4.334   4.996 -4.8863  0.1222 -0.0899
   17SAPS  C317 2255   3.656   4.479   4.955 -0.5956 -0.2441 -0.4286
   17SAPS  H17X 2256   3.576   4.407   4.928  0.5404 -0.6240 -3.1191
   17SAPS  H17Y 2257   3.640   4.565   4.887 -2.0060 -0.1071  0.0422
   17SAPS  C318 2258   3.639   4.519   5.102 -0.2187 -0.0213  0.3910
   17SAPS  H18X 2259   3.559   4.596   5.111 -0.6171 -0.4287  0.3481
   17SAPS  H18Y 2260   3.735   4.565   5.134  0.4942 -0.5532 -0.9080
   17SAPS  H18Z 2261   3.615   4.435   5.170  2.8564 -0.0418  1.5998
   18SAPS     N 2262   1.752   4.749   2.628  0.0865 -0.5937 -0.1213
   18SAPS   HN1 2263   1.789   4.791   2.716  1.4459 -0.8768 -0.5363
   18SAPS   HN2 2264   1.793   4.805   2.551 -0.5778  0.0778 -0.0056
   18SAPS   HN3 2265   1.650   4.766   2.620  0.2179  0.7581  0.7506
   18SAPS   C12 2266   1.778   4.597   2.627  0.5105  0.1878 -0.0225
   18SAPS  H12A 2267   1.751   4.565   2.726 -0.9202  2.8539  0.5297
   18SAPS   C13 2268   1.691   4.510   2.529 -0.2991 -0.0251 -0.4067
   18SAPS  O13A 2269   1.624   4.563   2.439  1.0105 -0.9481  0.2069
   18SAPS  O13B 2270   1.710   4.385   2.525  0.6098 -0.4856 -0.0743
   18SAPS   C11 2271   1.931   4.568   2.601  0.1244 -0.3186  0.5076
   18SAPS  H11A 2272   1.959   4.607   2.501 -0.5120  1.2822  0.9281
   18SAPS  H11B 2273   1.946   4.458   2.610  1.3329 -0.1473  0.8781
   18SAPS     P 2274   2.167   4.608   2.722  0.3481  0.1115 -0.0378
   18SAPS   O13 2275   2.216   4.503   2.626  0.7120 -0.1778 -0.1442
   18SAPS   O14 2276   2.241   4.734   2.741 -0.0308  0.0858 -0.0146
   18SAPS   O12 2277   2.008   4.637   2.701 -0.0863  0.0235  0.5069
   18SAPS   O11 2278   2.171   4.531   2.860  0.4142  0.0139  0.3659
   18SAPS    C1 2279   2.066   4.474   2.940 -1.5455  0.0345  0.4544
   18SAPS    HA 2280   2.001   4.553   2.982 -0.5104  0.2580  1.6926
   18SAPS    HB 2281   2.006   4.406   2.876 -0.9836 -0.6355  0.6227
   18SAPS    C2 2282   2.116   4.398   3.067 -0.3742  0.2747 -0.5489
   18SAPS    HS 2283   2.037   4.330   3.104 -0.1829  0.7612  0.8029
   18SAPS   O21 2284   2.132   4.492   3.176 -0.1464 -0.1875  0.2866
   18SAPS   C21 2285   2.136   4.451   3.299 -0.3536  0.6412  0.1080
   18SAPS   O22 2286   2.125   4.337   3.342 -0.7248  0.1852  0.3919
   18SAPS   C22 2287   2.170   4.559   3.389  0.2623 -0.5305 -0.4128
   18SAPS   H2R 2288   2.278   4.582   3.374 -0.0513  0.5403 -1.0911
   18SAPS   H2S 2289   2.109   4.649   3.366 -0.1061 -0.8636 -0.7679
   18SAPS    C3 2290   2.253   4.309   3.049  0.6696 -0.1174  0.0596
   18SAPS    HX 2291   2.326   4.389   3.021  0.9570 -0.1870  0.5960
   18SAPS    HY 2292   2.229   4.242   2.964  3.1723 -1.6156  0.4459
   18SAPS   O31 2293   2.291   4.231   3.162  0.1244 -0.4599  0.4039
   18SAPS   C31 2294   2.420   4.191   3.152  0.8826 -1.1243  0.4208
   18SAPS   O32 2295   2.499   4.228   3.074 -0.0077  0.5291 -0.0551
   18SAPS   C32 2296   2.441   4.087   3.265 -0.2309 -0.5035  0.2101
   18SAPS   H2X 2297   2.377   4.003   3.230  1.2971 -1.1933 -1.0342
   18SAPS   H2Y 2298   2.407   4.127   3.363  2.1878 -0.5903  1.1375
   18SAPS   C23 2299   2.144   4.521   3.542 -0.5667 -0.0270  0.7295
   18SAPS   H3R 2300   2.234   4.483   3.595  0.7677 -1.7659 -2.5225
   18SAPS   H3S 2301   2.075   4.434   3.546 -3.1853  1.7874 -1.3915
   18SAPS   C24 2302   2.077   4.643   3.617 -0.0703  0.1484  0.0210
   18SAPS   H4R 2303   2.135   4.730   3.579 -0.5223  0.8606  0.9120
   18SAPS   H4S 2304   2.079   4.621   3.726  0.9928 -1.2239 -0.2544
   18SAPS   C25 2305   1.934   4.657   3.586  1.0515 -0.8319  1.2152
   18SAPS   H5R 2306   1.883   4.560   3.585 -1.6402  0.4397 -0.7026
   18SAPS   C26 2307   1.858   4.769   3.587  0.1658 -0.2368 -0.5381
   18SAPS   H6R 2308   1.754   4.756   3.556 -0.6567 -1.5739  2.4614
   18SAPS   C27 2309   1.905   4.911   3.623 -0.5114 -0.6080  0.3814
   18SAPS   H7R 2310   1.810   4.959   3.656 -0.3123  0.8283 -1.0231
   18SAPS   H7S 2311   1.950   4.964   3.537  0.0555  1.0258  1.6214
   18SAPS   C28 2312   2.007   4.943   3.731  0.1036  0.3499 -0.1173
   18SAPS   H8R 2313   2.084   4.865   3.741  1.5995  1.6846 -0.7328
   18SAPS   C29 2314   2.006   5.044   3.817  0.2041 -0.3292  0.2129
   18SAPS   H9R 2315   2.090   5.044   3.888  3.5094  2.0865 -3.2508
   18SAPS  C210 2316   1.923   5.167   3.826 -0.0293  0.2789 -0.0253
   18SAPS  H10R 2317   1.844   5.162   3.748  0.5145  0.0452 -0.5624
   18SAPS  H10S 2318   1.983   5.259   3.813  1.2305 -0.3555  1.0721
   18SAPS  C211 2319   1.857   5.160   3.965  0.5888  0.5733 -0.3936
   18SAPS  H11R 2320   1.825   5.062   4.002  1.4650  1.2951  2.5661
   18SAPS  C212 2321   1.824   5.260   4.050  0.0744 -0.4446  0.6590
   18SAPS  H12R 2322   1.778   5.226   4.144  2.0878 -1.8696  1.2006
   18SAPS  C213 2323   1.856   5.403   4.035  0.7856  0.2761 -0.4245
   18SAPS  H13R 2324   1.882   5.425   3.929 -1.6251  0.0177 -1.1275
   18SAPS  H13S 2325   1.938   5.433   4.103  0.2181 -5.2284  3.3876
   18SAPS  C214 2326   1.738   5.498   4.058 -0.1660 -0.3328  0.6614
   18SAPS  H14R 2327   1.676   5.519   3.970  0.1233  0.4867  0.6430
   18SAPS  C215 2328   1.699   5.561   4.173 -0.8945 -0.3006 -0.5568
   18SAPS  H15R 2329   1.619   5.637   4.176 -0.6507 -0.0647  0.5839
   18SAPS  C216 2330   1.764   5.536   4.303  0.5744  0.1819 -0.3335
   18SAPS  H16R 2331   1.780   5.628   4.361 -0.2662 -1.0229  1.9235
   18SAPS  H16S 2332   1.860   5.480   4.307  0.5059  0.1701  2.2136
   18SAPS  C217 2333   1.672   5.450   4.390  0.5852 -0.2511 -0.0485
   18SAPS  H17R 2334   1.692   5.343   4.370  3.0227 -0.5990  3.4204
   18SAPS  H17S 2335   1.563   5.470   4.383  0.9136  1.2091 -1.7979
   18SAPS  C218 2336   1.715   5.460   4.534 -0.3418  0.0025  0.0564
   18SAPS  H18R 2337   1.705   5.564   4.570 -1.2959  0.5470 -1.7085
   18SAPS  H18S 2338   1.821   5.426   4.533 -0.2286  0.3670 -0.1986
   18SAPS  C219 2339   1.629   5.372   4.626 -0.5673 -0.1956  0.5765
   18SAPS  H19R 2340   1.646   5.266   4.596  0.2678 -0.5462  2.1475
   18SAPS  H19S 2341   1.522   5.398   4.616 -0.6848  0.2246  2.4844
   18SAPS  C220 2342   1.668   5.384   4.774 -0.0443 -0.3145  0.0381
   18SAPS  H20R 2343   1.620   5.475   4.816 -0.4011 -0.5682  0.1805
   18SAPS  H20S 2344   1.779   5.386   4.778  0.0327 -0.8952 -1.4867
   18SAPS  H20T 2345   1.629   5.295   4.828 -2.6549  1.2068  0.8402
   18SAPS   C33 2346   2.592   4.049   3.281 -0.2814  0.9372  0.0664
   18SAPS   H3X 2347   2.663   4.134   3.281  1.3750 -0.3775  1.2684
   18SAPS   H3Y 2348   2.615   3.987   3.192 -1.0226  1.5943 -0.5931
   18SAPS   C34 2349   2.617   3.971   3.409  0.3985 -0.1087 -0.1979
   18SAPS   H4X 2350   2.554   3.880   3.412 -0.0272 -0.0077 -2.9639
   18SAPS   H4Y 2351   2.606   4.031   3.502  3.0861 -2.9423  2.1215
   18SAPS   C35 2352   2.767   3.920   3.393  0.2840  0.1356  0.9762
   18SAPS   H5X 2353   2.834   4.005   3.420  0.8968 -0.9884  3.2655
   18SAPS   H5Y 2354   2.780   3.874   3.292  0.4653  1.2303  0.4870
   18SAPS   C36 2355   2.819   3.811   3.491  0.3128  0.7769 -0.1859
   18SAPS   H6X 2356   2.929   3.814   3.480  0.4980 -0.2462  1.2261
   18SAPS   H6Y 2357   2.773   3.713   3.467  0.2182  0.8219 -0.1895
   18SAPS   C37 2358   2.797   3.833   3.640 -0.1176  0.5405 -0.6300
   18SAPS   H7X 2359   2.688   3.824   3.656  0.0956 -1.9634 -0.2666
   18SAPS   H7Y 2360   2.827   3.931   3.683  0.3543 -0.7981  2.3699
   18SAPS   C38 2361   2.844   3.715   3.729 -0.4644 -0.9360  0.6405
   18SAPS   H8X 2362   2.953   3.725   3.714 -0.5123  0.0325  0.8863
   18SAPS   H8Y 2363   2.796   3.621   3.694  0.5644 -1.3894  0.4376
   18SAPS   C39 2364   2.817   3.731   3.881 -0.1055 -0.6204 -0.1098
   18SAPS   H9X 2365   2.715   3.696   3.907 -0.3808 -1.1382 -1.7437
   18SAPS   H9Y 2366   2.819   3.840   3.903 -0.8382 -0.5584 -0.3414
   18SAPS  C310 2367   2.923   3.655   3.973  0.5033  0.1002  0.8967
   18SAPS  H10X 2368   3.027   3.687   3.948  0.1109 -0.1547 -1.2451
   18SAPS  H10Y 2369   2.910   3.548   3.949  0.7197  0.0230  1.1205
   18SAPS  C311 2370   2.892   3.681   4.121  0.4121 -0.0118 -0.1964
   18SAPS  H11X 2371   2.785   3.658   4.142  0.2618 -0.4340 -1.3666
   18SAPS  H11Y 2372   2.903   3.789   4.148 -0.9476 -0.0030  0.4442
   18SAPS  C312 2373   2.969   3.591   4.210 -0.5875 -0.0833 -0.7663
   18SAPS  H12X 2374   3.073   3.619   4.184  0.0540 -1.1746  0.5163
   18SAPS  H12Y 2375   2.958   3.485   4.176 -1.4576 -0.0822 -0.5198
   18SAPS  C313 2376   2.952   3.612   4.362  0.4090 -0.4041 -0.4215
   18SAPS  H13X 2377   2.858   3.573   4.407  1.3101 -0.9492  1.0713
   18SAPS  H13Y 2378   2.966   3.719   4.389 -0.3455 -0.2421 -0.6554
   18SAPS  C314 2379   3.065   3.540   4.446  0.1811  0.0369 -0.1629
   18SAPS  H14X 2380   3.158   3.573   4.395  0.2407 -0.7565 -0.5783
   18SAPS  H14Y 2381   3.062   3.430   4.429 -0.5108 -0.0393  0.4062
   18SAPS  C315 2382   3.065   3.566   4.600  0.5863 -0.3678  0.3816
   18SAPS  H15X 2383   2.970   3.542   4.652 -0.3826 -0.6525 -1.4187
   18SAPS  H15Y 2384   3.078   3.673   4.625 -0.2336 -0.3570  0.7943
   18SAPS  C316 2385   3.189   3.503   4.667 -0.5035  0.0006 -0.3434
   18SAPS  H16X 2386   3.286   3.547   4.636  0.8328 -0.7094  2.5113
   18SAPS  H16Y 2387   3.204   3.395   4.644 -0.5207  0.3494 -2.1224
   18SAPS  C317 2388   3.185   3.516   4.821 -0.1278  0.1165 -0.5590
   18SAPS  H17X 2389   3.090   3.476   4.862  0.1274  1.3328  1.3497
   18SAPS  H17Y 2390   3.199   3.625   4.837  1.9685  0.0344 -1.4872
   18SAPS  C318 2391   3.300   3.458   4.909 -0.4709 -0.1558 -0.6060
   18SAPS  H18X 2392   3.318   3.349   4.906  0.7516  0.0017  0.0563
   18SAPS  H18Y 2393   3.287   3.501   5.010  4.6051  1.0072 -0.1438
   18SAPS  H18Z 2394   3.396   3.510   4.885 -1.0157  2.1724  1.7636
   19SAPS     N 2395   0.292   2.131   2.208  0.5171  0.3485 -0.1234
   19SAPS   HN1 2396   0.211   2.089   2.157 -0.7818  0.9082  1.4148
   19SAPS   HN2 2397   0.269   2.228   2.239  0.7141  0.7376 -1.1324
   19SAPS   HN3 2398   0.361   2.151   2.133  0.2937  2.7090  0.2321
   19SAPS   C12 2399   0.330   2.051   2.321  0.5324 -0.0428  0.1635
   19SAPS  H12A 2400   0.257   2.070   2.398  0.3900  1.7473 -0.3708
   19SAPS   C13 2401   0.340   1.898   2.292 -0.5572 -0.2317 -0.1109
   19SAPS  O13A 2402   0.316   1.844   2.178 -0.4847 -0.4767  0.1177
   19SAPS  O13B 2403   0.362   1.824   2.392  0.2008  0.2282 -0.0825
   19SAPS   C11 2404   0.469   2.108   2.365  0.0776 -0.0388 -0.4346
   19SAPS  H11A 2405   0.542   2.093   2.283  0.9161 -1.0252  0.4515
   19SAPS  H11B 2406   0.503   2.041   2.447  2.4060 -0.5559 -1.7361
   19SAPS     P 2407   0.595   2.318   2.475  0.2721 -0.0731  0.0934
   19SAPS   O13 2408   0.642   2.419   2.383  0.4135 -0.1597  0.2617
   19SAPS   O14 2409   0.557   2.363   2.615  0.0074  0.1202 -0.0559
   19SAPS   O12 2410   0.473   2.249   2.403  0.0398  0.8238  0.4613
   19SAPS   O11 2411   0.703   2.208   2.480  0.4632  0.9448 -0.6479
   19SAPS    C1 2412   0.716   2.114   2.595  0.2632  0.0984 -0.0694
   19SAPS    HA 2413   0.623   2.111   2.655  1.1625 -0.1925  1.3580
   19SAPS    HB 2414   0.728   2.010   2.559 -0.4165  0.4145 -1.2627
   19SAPS    C2 2415   0.834   2.144   2.699  0.3550 -0.0350 -1.2083
   19SAPS    HS 2416   0.847   2.047   2.752 -2.3906  0.4481  0.5569
   19SAPS   O21 2417   0.806   2.254   2.793  0.2423  0.3450  0.4016
   19SAPS   C21 2418   0.742   2.222   2.895  0.6878  0.0715  0.0379
   19SAPS   O22 2419   0.703   2.108   2.926  0.1847 -0.7388 -0.0219
   19SAPS   C22 2420   0.734   2.345   2.988 -0.0530  0.6872  0.6917
   19SAPS   H2R 2421   0.832   2.397   2.986 -0.1454  0.9580 -2.9198
   19SAPS   H2S 2422   0.665   2.410   2.930  1.3188 -0.3006 -2.2468
   19SAPS    C3 2423   0.967   2.171   2.634  0.0137 -0.2388 -0.2470
   19SAPS    HX 2424   0.955   2.261   2.570  0.2510 -0.3432 -0.4393
   19SAPS    HY 2425   0.994   2.090   2.563 -0.0905 -0.4641 -0.0307
   19SAPS   O31 2426   1.076   2.188   2.726  0.1501 -0.5789  0.1110
   19SAPS   C31 2427   1.105   2.313   2.765  0.1458 -0.3148  0.7755
   19SAPS   O32 2428   1.047   2.413   2.724  0.4905  0.4413  0.2964
   19SAPS   C32 2429   1.210   2.312   2.870  0.3803 -0.4289  0.6158
   19SAPS   H2X 2430   1.313   2.287   2.834  0.7023  1.5479  0.0678
   19SAPS   H2Y 2431   1.192   2.229   2.942  0.5420 -2.1447 -1.2412
   19SAPS   C23 2432   0.687   2.307   3.128  0.1386 -0.7022 -0.0173
   19SAPS   H3R 2433   0.758   2.238   3.179  0.8559  1.0861  1.5006
   19SAPS   H3S 2434   0.597   2.244   3.115 -0.6270  0.3820 -0.0898
   19SAPS   C24 2435   0.664   2.430   3.210  0.6220 -0.2467 -0.8844
   19SAPS   H4R 2436   0.606   2.401   3.300 -0.3642  0.3621 -1.3141
   19SAPS   H4S 2437   0.596   2.501   3.159 -1.9569  0.2118  2.7639
   19SAPS   C25 2438   0.793   2.495   3.261  0.3949  0.5634  0.3099
   19SAPS   H5R 2439   0.842   2.553   3.181 -0.3004 -0.5744 -0.9952
   19SAPS   C26 2440   0.848   2.488   3.379  0.2903 -0.0383  0.3624
   19SAPS   H6R 2441   0.951   2.527   3.384  0.0984  0.4988  0.1940
   19SAPS   C27 2442   0.795   2.421   3.509  0.0574 -0.5355  0.3105
   19SAPS   H7R 2443   0.883   2.365   3.547  0.0642  0.6683  2.2433
   19SAPS   H7S 2444   0.714   2.350   3.481 -0.0992  0.8569 -3.3451
   19SAPS   C28 2445   0.749   2.517   3.606  0.8519  0.5862 -0.1799
   19SAPS   H8R 2446   0.689   2.597   3.560  2.0088  0.0955 -2.7065
   19SAPS   C29 2447   0.769   2.527   3.738  0.1284  1.0717 -0.3188
   19SAPS   H9R 2448   0.735   2.614   3.796 -2.0593  0.2629 -0.2762
   19SAPS  C210 2449   0.844   2.427   3.821  0.1349  0.0618  1.0533
   19SAPS  H10R 2450   0.934   2.478   3.862  0.7884  1.0524 -1.4656
   19SAPS  H10S 2451   0.865   2.336   3.761 -1.1337 -0.2936  1.1249
   19SAPS  C211 2452   0.755   2.380   3.930  0.1036  0.7937  1.1162
   19SAPS  H11R 2453   0.696   2.289   3.910 -0.4022  1.2907  0.3216
   19SAPS  C212 2454   0.750   2.423   4.058 -1.3828 -0.6904 -0.2844
   19SAPS  H12R 2455   0.679   2.386   4.134 -0.1485  0.3507  1.4336
   19SAPS  C213 2456   0.832   2.544   4.115 -0.4076  0.1111 -0.0671
   19SAPS  H13R 2457   0.774   2.609   4.184 -0.4212 -1.6546  1.6563
   19SAPS  H13S 2458   0.864   2.612   4.033  0.2789  2.1218  1.7702
   19SAPS  C214 2459   0.960   2.494   4.175  0.1882  0.1072 -0.8380
   19SAPS  H14R 2460   1.022   2.431   4.110 -0.6074  1.3193 -2.8730
   19SAPS  C215 2461   1.005   2.503   4.299 -0.0203 -0.1703  0.0713
   19SAPS  H15R 2462   1.103   2.456   4.316  1.9971  3.4664 -0.2761
   19SAPS  C216 2463   0.945   2.571   4.420  0.6123 -0.4388  0.1218
   19SAPS  H16R 2464   0.912   2.499   4.498  0.3223  0.6488  1.0249
   19SAPS  H16S 2465   0.853   2.615   4.374 -0.9059 -2.6048  0.9338
   19SAPS  C217 2466   1.039   2.678   4.475  0.1685  0.4310  0.1524
   19SAPS  H17R 2467   1.121   2.616   4.516 -0.5865 -0.9487 -0.3654
   19SAPS  H17S 2468   0.986   2.735   4.554 -1.2964  0.2949 -0.6885
   19SAPS  C218 2469   1.089   2.779   4.373 -0.4431 -0.8282  0.3624
   19SAPS  H18R 2470   1.000   2.817   4.320  1.3507  2.1463 -0.7572
   19SAPS  H18S 2471   1.148   2.730   4.293  1.1104 -1.7056  1.9551
   19SAPS  C219 2472   1.166   2.900   4.430  0.5890  0.2373 -0.3856
   19SAPS  H19R 2473   1.212   2.958   4.347 -0.1791  2.0105  0.3591
   19SAPS  H19S 2474   1.248   2.862   4.494 -0.8637 -0.0011  1.4101
   19SAPS  C220 2475   1.077   2.997   4.517 -0.0164  0.5437  0.1071
   19SAPS  H20R 2476   1.126   3.092   4.548  1.7896  0.3807 -1.9560
   19SAPS  H20S 2477   1.038   2.933   4.599 -0.4044 -1.0328 -1.2405
   19SAPS  H20T 2478   0.999   3.030   4.445  0.2628  2.6225  0.7108
   19SAPS   C33 2479   1.231   2.442   2.947 -0.2719 -0.3347 -0.1839
   19SAPS   H3X 2480   1.250   2.528   2.879  2.3988  0.2016  1.1192
   19SAPS   H3Y 2481   1.325   2.446   3.006  0.2519  0.4615 -1.0428
   19SAPS   C34 2482   1.109   2.468   3.040 -0.6995 -0.0894 -0.2625
   19SAPS   H4X 2483   1.107   2.377   3.105 -1.4508  0.9149  1.1774
   19SAPS   H4Y 2484   1.014   2.479   2.985 -0.4528  0.6168 -0.5519
   19SAPS   C35 2485   1.130   2.592   3.135 -0.4040 -0.0675 -0.2249
   19SAPS   H5X 2486   1.036   2.589   3.195  0.5560  2.1642  1.5416
   19SAPS   H5Y 2487   1.142   2.681   3.070  0.9981 -0.6889 -0.8556
   19SAPS   C36 2488   1.249   2.585   3.233  0.9073  0.4169 -0.5636
   19SAPS   H6X 2489   1.248   2.678   3.294 -4.0061 -0.1860  0.7036
   19SAPS   H6Y 2490   1.342   2.590   3.173  0.7725  0.0128 -0.8134
   19SAPS   C37 2491   1.245   2.455   3.319 -0.1477  0.8157  0.6089
   19SAPS   H7X 2492   1.251   2.361   3.260 -0.4254  1.1112  0.1029
   19SAPS   H7Y 2493   1.143   2.449   3.363  0.5554  1.2547  2.3765
   19SAPS   C38 2494   1.368   2.464   3.401 -0.0498 -0.6829 -0.2173
   19SAPS   H8X 2495   1.372   2.567   3.444 -0.2598 -0.1507 -1.4274
   19SAPS   H8Y 2496   1.451   2.451   3.329 -0.0564 -0.3724 -0.2849
   19SAPS   C39 2497   1.384   2.362   3.511  0.7330  0.8102  0.1859
   19SAPS   H9X 2498   1.480   2.388   3.560  1.4966  0.9947 -1.3253
   19SAPS   H9Y 2499   1.400   2.260   3.472  1.5209  1.4467 -1.2492
   19SAPS  C310 2500   1.262   2.360   3.602 -0.0539  0.0008  0.1645
   19SAPS  H10X 2501   1.165   2.323   3.562  0.3926 -0.8023 -0.1972
   19SAPS  H10Y 2502   1.236   2.461   3.641 -1.5376 -0.0674 -0.5679
   19SAPS  C311 2503   1.302   2.280   3.727 -0.2669 -0.6751  0.1212
   19SAPS  H11X 2504   1.389   2.333   3.772 -1.1406  1.7399 -0.9329
   19SAPS  H11Y 2505   1.354   2.186   3.697  2.3716  0.0083  2.1116
   19SAPS  C312 2506   1.179   2.244   3.814 -0.0223 -1.0289 -1.0764
   19SAPS  H12X 2507   1.105   2.175   3.769 -1.1449 -1.9100  1.8653
   19SAPS  H12Y 2508   1.134   2.343   3.837  0.9833  0.0585 -3.4497
   19SAPS  C313 2509   1.217   2.175   3.950 -0.5730  0.8746 -0.6048
   19SAPS  H13X 2510   1.286   2.247   4.001  0.9779 -0.4832 -0.7133
   19SAPS  H13Y 2511   1.271   2.083   3.919 -2.1619 -0.2916 -0.0511
   19SAPS  C314 2512   1.102   2.125   4.043  0.1083  0.1435 -0.0881
   19SAPS  H14X 2513   1.030   2.059   3.989  0.0897 -1.7704  2.1505
   19SAPS  H14Y 2514   1.052   2.220   4.075  1.1023  0.8686 -0.6337
   19SAPS  C315 2515   1.159   2.055   4.167  0.0934 -0.1215  0.1982
   19SAPS  H15X 2516   1.243   2.115   4.208 -0.9494  1.9337 -0.5416
   19SAPS  H15Y 2517   1.199   1.954   4.144  0.6541  0.3400 -0.9277
   19SAPS  C316 2518   1.048   2.046   4.279 -0.4174 -0.4297  0.3464
   19SAPS  H16X 2519   0.954   1.995   4.246 -0.2226 -0.5967  0.0452
   19SAPS  H16Y 2520   1.031   2.153   4.303  3.8540  0.2626  1.0498
   19SAPS  C317 2521   1.080   1.967   4.407 -0.2602  0.0924  0.1231
   19SAPS  H17X 2522   1.141   2.039   4.466 -1.2527  0.1364  1.1224
   19SAPS  H17Y 2523   1.133   1.873   4.381 -0.1777 -0.1046  0.9770
   19SAPS  C318 2524   0.962   1.926   4.492  0.0845 -0.4723 -0.4461
   19SAPS  H18X 2525   1.004   1.904   4.593  0.3128 -0.1656 -0.4723
   19SAPS  H18Y 2526   0.904   1.836   4.461 -0.4413  0.1554 -1.3252
   19SAPS  H18Z 2527   0.890   2.010   4.499 -1.8073 -2.1685  2.2245
   20SAPS     N 2528   1.321   3.483   2.890 -0.5112 -0.1217  0.6134
   20SAPS   HN1 2529   1.252   3.538   2.946 -0.6519  0.7125 -0.3533
   20SAPS   HN2 2530   1.328   3.382   2.913  1.4271 -0.5102 -1.3460
   20SAPS   HN3 2531   1.413   3.526   2.911 -0.3355 -0.9734  1.6920
   20SAPS   C12 2532   1.272   3.501   2.757  0.5404  0.2228  0.4369
   20SAPS  H12A 2533   1.273   3.607   2.736  0.5357  0.1557  0.0778
   20SAPS   C13 2534   1.365   3.434   2.648  0.9867  0.0639  0.0902
   20SAPS  O13A 2535   1.424   3.326   2.677  0.0901 -0.2736  0.2108
   20SAPS  O13B 2536   1.330   3.461   2.526  0.2680  0.0954  0.4922
   20SAPS   C11 2537   1.124   3.433   2.749  0.3805 -1.0632 -0.8217
   20SAPS  H11A 2538   1.128   3.338   2.693  1.0241 -1.0510 -0.8042
   20SAPS  H11B 2539   1.060   3.506   2.695 -1.9299 -1.5946  1.0170
   20SAPS     P 2540   0.932   3.353   2.910 -0.4001 -0.2133  0.0176
   20SAPS   O13 2541   0.829   3.432   2.840  0.1163 -0.3121  0.5187
   20SAPS   O14 2542   0.947   3.212   2.873 -1.0534  0.1903 -0.0683
   20SAPS   O12 2543   1.074   3.412   2.880 -0.2866 -0.2971 -0.1338
   20SAPS   O11 2544   0.926   3.373   3.068 -0.1474  0.0412  0.3745
   20SAPS    C1 2545   1.042   3.348   3.151  0.3365 -0.2842  0.0080
   20SAPS    HA 2546   1.128   3.326   3.084  0.7961 -0.6313  0.6977
   20SAPS    HB 2547   1.058   3.441   3.210 -0.6338  0.0425 -0.2360
   20SAPS    C2 2548   1.029   3.218   3.234  0.1116 -0.1795  0.1227
   20SAPS    HS 2549   1.003   3.133   3.167  1.5714 -1.9339  1.6362
   20SAPS   O21 2550   0.937   3.222   3.344 -0.5305  0.0040  0.5374
   20SAPS   C21 2551   0.949   3.312   3.428  0.5364 -0.8198 -0.4119
   20SAPS   O22 2552   1.038   3.393   3.446 -0.2367  0.1383 -0.0769
   20SAPS   C22 2553   0.818   3.297   3.512 -0.5822 -0.1391  0.2133
   20SAPS   H2R 2554   0.732   3.309   3.442 -0.6520  0.9783  0.4732
   20SAPS   H2S 2555   0.823   3.204   3.573 -0.2447  0.0502  0.4814
   20SAPS    C3 2556   1.165   3.162   3.276 -0.0425  0.5108 -0.5046
   20SAPS    HX 2557   1.219   3.253   3.311 -0.5858  1.9217 -3.0593
   20SAPS    HY 2558   1.222   3.126   3.188  0.7105  1.8242 -0.5870
   20SAPS   O31 2559   1.158   3.075   3.393  0.0573  0.4668  0.2680
   20SAPS   C31 2560   1.143   2.951   3.356  0.0420  0.3761 -0.6481
   20SAPS   O32 2561   1.154   2.908   3.245  0.4570  0.1204 -0.3369
   20SAPS   C32 2562   1.121   2.851   3.473 -0.6246 -0.2458  0.5550
   20SAPS   H2X 2563   1.225   2.812   3.472 -0.0925  1.1255  0.3788
   20SAPS   H2Y 2564   1.047   2.773   3.444  0.7681 -1.1456 -0.7043
   20SAPS   C23 2565   0.813   3.405   3.627 -0.2062  0.0873 -0.2043
   20SAPS   H3R 2566   0.720   3.387   3.686 -1.0029  0.6848 -1.2510
   20SAPS   H3S 2567   0.795   3.501   3.574 -0.5093  0.3903  0.4365
   20SAPS   C24 2568   0.935   3.433   3.724  1.0673 -0.1974  0.2562
   20SAPS   H4R 2569   0.906   3.514   3.795 -1.8163 -0.9746  0.0887
   20SAPS   H4S 2570   1.019   3.473   3.664  1.1495 -1.8631 -0.8091
   20SAPS   C25 2571   0.995   3.313   3.778  0.4123  0.4953  0.4822
   20SAPS   H5R 2572   1.038   3.248   3.700 -0.3507 -0.4098  0.8120
   20SAPS   C26 2573   1.019   3.275   3.903  0.1950 -1.1129  0.6906
   20SAPS   H6R 2574   1.055   3.173   3.922  3.7437 -0.3959 -1.2284
   20SAPS   C27 2575   0.999   3.352   4.030 -0.1894 -0.0720 -0.4387
   20SAPS   H7R 2576   1.004   3.281   4.115 -2.2803  0.4363  0.1518
   20SAPS   H7S 2577   0.895   3.389   4.038 -0.5756 -1.5662  3.3048
   20SAPS   C28 2578   1.100   3.458   4.060  0.3995 -0.1795  0.3553
   20SAPS   H8R 2579   1.162   3.494   3.976 -0.6053  1.2843  0.2025
   20SAPS   C29 2580   1.103   3.537   4.172 -0.3770  0.4095 -0.1577
   20SAPS   H9R 2581   1.192   3.600   4.181  0.5013 -1.0131  1.8427
   20SAPS  C210 2582   1.002   3.532   4.284 -0.4562  0.3142 -0.6732
   20SAPS  H10R 2583   0.964   3.428   4.298 -1.6621  0.7616 -0.5168
   20SAPS  H10S 2584   0.907   3.578   4.250 -0.3745  1.1846  0.2208
   20SAPS  C211 2585   1.054   3.567   4.423  0.1165  0.2958 -0.0461
   20SAPS  H11R 2586   1.162   3.555   4.442  0.0859  0.5146  0.2614
   20SAPS  C212 2587   0.971   3.596   4.523 -0.0776  0.0262 -0.2957
   20SAPS  H12R 2588   1.014   3.637   4.616  1.1233 -0.4592 -0.6112
   20SAPS  C213 2589   0.817   3.608   4.510  0.2666  0.3475 -0.7017
   20SAPS  H13R 2590   0.778   3.517   4.459 -0.4679 -0.4377  1.1728
   20SAPS  H13S 2591   0.796   3.687   4.435  0.7670 -1.5049 -2.8991
   20SAPS  C214 2592   0.741   3.630   4.636 -1.0439  0.2570  0.0064
   20SAPS  H14R 2593   0.677   3.718   4.643  0.5875  1.4210  0.9216
   20SAPS  C215 2594   0.741   3.544   4.741  0.9904 -0.6688  0.3102
   20SAPS  H15R 2595   0.671   3.567   4.823  1.5125  0.7502  0.3810
   20SAPS  C216 2596   0.809   3.412   4.753  0.4890 -0.2886  0.3017
   20SAPS  H16R 2597   0.851   3.382   4.655  0.6636 -1.6342  0.7722
   20SAPS  H16S 2598   0.734   3.334   4.778  0.1170  0.0656  0.3072
   20SAPS  C217 2599   0.930   3.406   4.859 -0.1829  0.0708 -0.3262
   20SAPS  H17R 2600   1.005   3.480   4.825 -0.2410  0.0819 -0.4301
   20SAPS  H17S 2601   0.984   3.309   4.848  1.8183  1.0305  0.5032
   20SAPS  C218 2602   0.895   3.426   5.009  0.3413  0.4136  0.6663
   20SAPS  H18R 2603   0.834   3.341   5.048  0.3648 -0.0547 -0.3057
   20SAPS  H18S 2604   0.833   3.518   5.020  0.0592  0.0958  1.8572
   20SAPS  C219 2605   1.016   3.433   5.099  0.2772 -0.3053  0.5282
   20SAPS  H19R 2606   1.078   3.519   5.067 -0.2100 -0.7617 -1.8516
   20SAPS  H19S 2607   1.071   3.339   5.073  0.5777  0.1680 -0.6386
   20SAPS  C220 2608   0.980   3.426   5.247 -0.2232 -0.1585  0.8386
   20SAPS  H20R 2609   0.931   3.516   5.290 -0.8774 -0.8585  1.6039
   20SAPS  H20S 2610   1.071   3.411   5.308 -0.5146 -1.1359  1.0587
   20SAPS  H20T 2611   0.911   3.339   5.261 -1.2395  0.6811  1.1696
   20SAPS   C33 2612   1.081   2.911   3.610  0.6264  0.0723 -0.5813
   20SAPS   H3X 2613   0.977   2.945   3.595 -0.0908 -2.4343 -1.8602
   20SAPS   H3Y 2614   1.135   3.002   3.644 -0.3723  0.3533  0.3179
   20SAPS   C34 2615   1.110   2.799   3.718  0.3375 -0.0192 -0.1434
   20SAPS   H4X 2616   1.064   2.702   3.690  1.1796 -0.9081  1.4107
   20SAPS   H4Y 2617   1.048   2.836   3.803  1.6807  1.4789  0.2425
   20SAPS   C35 2618   1.247   2.783   3.781 -0.4470  0.1799  0.2855
   20SAPS   H5X 2619   1.284   2.872   3.836 -0.6893  1.1552 -1.0942
   20SAPS   H5Y 2620   1.318   2.770   3.697 -0.0118  0.0864  0.6628
   20SAPS   C36 2621   1.232   2.679   3.881  0.6957 -0.4648  0.6791
   20SAPS   H6X 2622   1.198   2.586   3.831  0.9730 -1.4225  2.1964
   20SAPS   H6Y 2623   1.157   2.715   3.956  1.3648  0.0214  1.1312
   20SAPS   C37 2624   1.358   2.638   3.965 -0.1056 -0.6719  1.1479
   20SAPS   H7X 2625   1.396   2.738   3.996 -2.1366 -0.2618  2.4815
   20SAPS   H7Y 2626   1.425   2.583   3.895 -1.4334 -3.2045  1.7538
   20SAPS   C38 2627   1.324   2.549   4.085  0.3773 -0.0624 -0.7157
   20SAPS   H8X 2628   1.297   2.445   4.054 -0.0228  0.0369 -0.7132
   20SAPS   H8Y 2629   1.240   2.593   4.142  0.5969 -1.1583  0.5039
   20SAPS   C39 2630   1.434   2.524   4.191  0.0621  0.5166  0.2087
   20SAPS   H9X 2631   1.485   2.622   4.204  0.0371  0.4053  1.1669
   20SAPS   H9Y 2632   1.507   2.460   4.138 -2.1175 -1.8911 -0.0682
   20SAPS  C310 2633   1.403   2.478   4.335 -0.0643 -0.1551  0.3881
   20SAPS  H10X 2634   1.323   2.543   4.377  0.4297  0.3538  0.5497
   20SAPS  H10Y 2635   1.488   2.495   4.405  1.1485 -0.1662 -1.0326
   20SAPS  C311 2636   1.372   2.327   4.331 -0.8840 -0.1131 -0.0290
   20SAPS  H11X 2637   1.461   2.277   4.286 -0.9674  1.4188 -2.0248
   20SAPS  H11Y 2638   1.283   2.318   4.264  0.0524  1.4957 -1.5716
   20SAPS  C312 2639   1.343   2.258   4.472 -0.5445 -1.6822  1.2088
   20SAPS  H12X 2640   1.433   2.280   4.534 -0.2447  0.7875  0.0591
   20SAPS  H12Y 2641   1.333   2.152   4.441  0.5071 -0.6109 -3.7387
   20SAPS  C313 2642   1.214   2.305   4.535  0.1935 -0.7096  0.3871
   20SAPS  H13X 2643   1.145   2.280   4.451 -1.4561  0.5050  1.3374
   20SAPS  H13Y 2644   1.203   2.415   4.527 -0.0767 -0.5547  2.3469
   20SAPS  C314 2645   1.161   2.256   4.674 -0.2640 -1.0526  0.5647
   20SAPS  H14X 2646   1.234   2.291   4.749 -0.2032 -3.5595  1.7644
   20SAPS  H14Y 2647   1.150   2.146   4.682 -1.9240 -0.8470  1.6745
   20SAPS  C315 2648   1.033   2.318   4.720 -0.3391 -0.3594  0.5320
   20SAPS  H15X 2649   0.955   2.306   4.641  0.1690  4.6286 -1.0950
   20SAPS  H15Y 2650   1.033   2.428   4.739  0.7552  0.0921 -1.7191
   20SAPS  C316 2651   0.964   2.258   4.843 -0.1181 -0.0743 -1.0735
   20SAPS  H16X 2652   0.873   2.317   4.870  0.1977  0.2102 -0.6195
   20SAPS  H16Y 2653   1.028   2.272   4.932 -3.2023  2.8044  0.9356
   20SAPS  C317 2654   0.918   2.109   4.848 -1.1581 -0.6550  0.2581
   20SAPS  H17X 2655   1.010   2.045   4.850 -0.4342  0.3514 -0.2596
   20SAPS  H17Y 2656   0.876   2.090   4.747 -2.7308  2.3697  0.2405
   20SAPS  C318 2657   0.819   2.050   4.950 -0.2839  0.7006 -0.0889
   20SAPS  H18X 2658   0.805   1.940   4.938 -0.1269  0.7991 -1.2323
   20SAPS  H18Y 2659   0.726   2.110   4.946 -0.6822  0.1322  0.3510
   20SAPS  H18Z 2660   0.858   2.058   5.054  2.3286  0.6541 -1.0172
   21CHL1    C3 2661   2.784   3.862   6.912 -0.5820 -0.3430 -0.7340
   21CHL1    H3 2662   2.680   3.834   6.884 -0.5428  1.2726 -2.6555
   21CHL1    O3 2663   2.800   3.878   7.056  0.0223  0.0328 -0.3014
   21CHL1   H3' 2664   2.787   3.971   7.076  0.1327  0.0846 -0.4690
   21CHL1    C4 2665   2.879   3.748   6.874 -0.1946  0.0991  0.4501
   21CHL1   H4A 2666   2.981   3.752   6.917 -0.9163  1.5990  2.1569
   21CHL1   H4B 2667   2.834   3.658   6.922 -0.6689  0.1415  0.0965
   21CHL1    C5 2668   2.899   3.730   6.726 -0.4059  0.6588  0.6704
   21CHL1    C6 2669   2.873   3.622   6.659  0.3164 -0.6771  0.0676
   21CHL1    H6 2670   2.840   3.531   6.712 -0.2537 -0.8122 -0.5070
   21CHL1    C7 2671   2.899   3.606   6.512 -0.7283  0.4652  0.7341
   21CHL1   H7A 2672   2.940   3.505   6.488 -1.1522  0.8158 -1.6014
   21CHL1   H7B 2673   2.810   3.608   6.447 -1.5134  0.8315  1.8016
   21CHL1    C8 2674   3.000   3.714   6.454 -0.2559  0.4667  0.6969
   21CHL1    H8 2675   3.099   3.685   6.494 -0.0488  0.5060  0.2130
   21CHL1   C14 2676   3.004   3.721   6.308 -0.0801  0.5157  0.0994
   21CHL1   H14 2677   2.902   3.752   6.276 -0.0865 -0.8727 -1.3209
   21CHL1   C15 2678   3.026   3.587   6.232  0.1799  0.3923 -0.4657
   21CHL1  H15A 2679   3.098   3.526   6.290 -0.8058  0.0806  0.4617
   21CHL1  H15B 2680   2.933   3.527   6.241 -0.1951  1.1802  1.1478
   21CHL1   C16 2681   3.062   3.626   6.089 -0.2670  0.1084  0.3401
   21CHL1  H16A 2682   3.157   3.576   6.061  1.5768  2.3686  2.1541
   21CHL1  H16B 2683   2.979   3.593   6.023 -1.6973  2.2240  0.9609
   21CHL1   C17 2684   3.089   3.771   6.095 -0.0197 -0.6813 -0.3823
   21CHL1   H17 2685   3.001   3.828   6.059  0.5523  1.8161  1.8178
   21CHL1   C13 2686   3.105   3.816   6.246  0.2299 -0.0641  0.1403
   21CHL1   C18 2687   3.250   3.783   6.296 -0.5809  0.4811  0.4377
   21CHL1  H18A 2688   3.322   3.854   6.251 -1.0411 -0.3724 -1.7570
   21CHL1  H18B 2689   3.259   3.784   6.407 -0.8762  3.3980  0.5131
   21CHL1  H18C 2690   3.282   3.681   6.265 -0.8302  0.2278  0.9885
   21CHL1   C12 2691   3.059   3.953   6.289 -0.3262 -0.9275 -0.0229
   21CHL1  H12A 2692   3.130   4.029   6.251 -0.7710 -0.0862  0.7798
   21CHL1  H12B 2693   2.959   3.973   6.244 -0.4484 -1.1170  0.1615
   21CHL1   C11 2694   3.035   3.969   6.436  0.8933  0.3636 -0.5326
   21CHL1  H11A 2695   3.136   3.980   6.480  0.4719 -0.6525  0.7373
   21CHL1  H11B 2696   2.983   4.064   6.463 -1.0122 -0.8771  0.3475
   21CHL1    C9 2697   2.958   3.855   6.510  0.4043  0.3889  0.6838
   21CHL1    H9 2698   2.853   3.857   6.473  0.2604  2.8102  1.0557
   21CHL1   C10 2699   2.951   3.858   6.662  0.1551 -0.9004  0.6463
   21CHL1   C19 2700   3.089   3.889   6.721 -0.0996 -0.4488  0.0687
   21CHL1  H19A 2701   3.169   3.870   6.646  0.9269  4.0387 -0.2318
   21CHL1  H19B 2702   3.107   3.998   6.731  1.4889 -0.4696 -1.9142
   21CHL1  H19C 2703   3.114   3.840   6.817  0.6702 -0.0635  0.0647
   21CHL1    C1 2704   2.847   3.968   6.689 -0.2505  0.1981  0.0279
   21CHL1   H1A 2705   2.862   4.059   6.627  1.4250 -1.3133 -1.9050
   21CHL1   H1B 2706   2.752   3.924   6.651  0.3543 -0.9464 -0.1804
   21CHL1    C2 2707   2.820   3.994   6.838  0.7598  1.1221 -0.4385
   21CHL1   H2A 2708   2.735   4.063   6.854 -1.3560 -1.3488 -0.4421
   21CHL1   H2B 2709   2.914   4.041   6.874  0.3138  0.2896  2.0076
   21CHL1   C20 2710   3.205   3.821   5.996 -0.0683  0.5732 -0.4719
   21CHL1   H20 2711   3.301   3.770   6.013 -1.5084 -1.9036  0.6447
   21CHL1   C21 2712   3.237   3.970   6.004 -0.2711  0.3233 -0.3673
   21CHL1  H21A 2713   3.151   4.035   5.977 -0.4783  0.5853  0.8643
   21CHL1  H21B 2714   3.328   4.001   5.947 -0.8008  2.0222 -0.3618
   21CHL1  H21C 2715   3.257   4.002   6.109 -0.0507 -2.1027  0.3956
   21CHL1   C22 2716   3.176   3.777   5.844 -0.3328 -0.5677 -0.4735
   21CHL1  H22A 2717   3.158   3.668   5.850  0.3602 -0.5911  2.6279
   21CHL1  H22B 2718   3.094   3.834   5.795  0.2527 -1.1980 -2.2915
   21CHL1   C23 2719   3.301   3.802   5.758  0.7057  0.3545 -0.1902
   21CHL1  H23A 2720   3.310   3.910   5.732  0.4795  0.1296 -1.2378
   21CHL1  H23B 2721   3.388   3.775   5.822  0.9811  2.2275  0.2907
   21CHL1   C24 2722   3.301   3.716   5.627 -0.0850  0.0119  0.0480
   21CHL1  H24A 2723   3.267   3.618   5.668 -2.4892 -0.1290 -2.1075
   21CHL1  H24B 2724   3.211   3.735   5.565 -0.8017 -4.1212 -0.4518
   21CHL1   C25 2725   3.438   3.717   5.554 -0.2782  0.3337  0.4404
   21CHL1   H25 2726   3.510   3.668   5.622 -1.2245  0.2745  1.4268
   21CHL1   C26 2727   3.438   3.650   5.414  0.3099 -0.4685  0.3144
   21CHL1  H26A 2728   3.372   3.717   5.355  2.2871  2.3380  1.0869
   21CHL1  H26B 2729   3.542   3.650   5.376 -0.7114 -1.8114 -2.7450
   21CHL1  H26C 2730   3.400   3.546   5.405  1.1120 -0.7647  0.3098
   21CHL1   C27 2731   3.483   3.861   5.527  0.8639  0.3074 -0.6004
   21CHL1  H27A 2732   3.581   3.853   5.476  1.8824  0.4683  1.2510
   21CHL1  H27B 2733   3.418   3.914   5.454  0.1615  1.4162  0.7736
   21CHL1  H27C 2734   3.492   3.912   5.626  0.8892  1.6344 -1.2725
   22CHL1    C3 2735   4.237   3.678   6.828 -0.3423  0.0069 -0.6215
   22CHL1    H3 2736   4.260   3.784   6.803 -1.3600  0.9922  2.2491
   22CHL1    O3 2737   4.178   3.653   6.957 -0.6551 -0.4030 -0.7142
   22CHL1   H3' 2738   4.245   3.639   7.024 -0.8975  2.2982  0.2052
   22CHL1    C4 2739   4.138   3.625   6.718 -0.5697 -0.1190 -0.3374
   22CHL1   H4A 2740   4.113   3.517   6.726 -0.4883 -0.0311  1.4584
   22CHL1   H4B 2741   4.041   3.676   6.733 -0.5406 -0.7114  2.2334
   22CHL1    C5 2742   4.181   3.652   6.582 -0.2468 -0.3051  0.5594
   22CHL1    C6 2743   4.112   3.731   6.489 -0.3810 -0.0699  0.1081
   22CHL1    H6 2744   4.022   3.786   6.522  1.4621  2.2808  1.4985
   22CHL1    C7 2745   4.167   3.746   6.350 -0.4343 -0.2321 -0.1651
   22CHL1   H7A 2746   4.084   3.772   6.280  0.7829 -1.4534 -2.1760
   22CHL1   H7B 2747   4.230   3.837   6.353  0.2134 -0.7070  1.3120
   22CHL1    C8 2748   4.262   3.633   6.304 -0.9619  0.7086 -0.7491
   22CHL1    H8 2749   4.216   3.533   6.291 -0.0869  0.1574  0.2673
   22CHL1   C14 2750   4.331   3.680   6.171 -0.0493 -0.7179 -0.6266
   22CHL1   H14 2751   4.379   3.776   6.201  0.0857 -1.2159  0.8261
   22CHL1   C15 2752   4.243   3.700   6.045 -1.2374  0.2305 -0.3269
   22CHL1  H15A 2753   4.180   3.609   6.034  0.4334 -0.9174 -0.8125
   22CHL1  H15B 2754   4.178   3.790   6.036 -0.1697  1.0264 -0.3425
   22CHL1   C16 2755   4.354   3.701   5.937  0.1232 -0.1158 -1.0430
   22CHL1  H16A 2756   4.327   3.613   5.874 -3.3957 -0.1088  0.2098
   22CHL1  H16B 2757   4.356   3.794   5.876  0.8009  0.0962 -0.6972
   22CHL1   C17 2758   4.494   3.668   6.002  0.5316 -0.6175  0.0677
   22CHL1   H17 2759   4.531   3.769   6.028  0.0766 -0.4762  0.1730
   22CHL1   C13 2760   4.447   3.596   6.128 -0.0932  0.3522 -0.1176
   22CHL1   C18 2761   4.411   3.446   6.088 -0.0816  0.6217  0.3181
   22CHL1  H18A 2762   4.335   3.438   6.008  0.0908  2.3888 -0.0644
   22CHL1  H18B 2763   4.504   3.394   6.056 -1.1953 -1.3117  0.0531
   22CHL1  H18C 2764   4.355   3.394   6.169 -0.1781 -0.6094 -0.5141
   22CHL1   C12 2765   4.552   3.595   6.238  0.1711  0.0039 -0.4353
   22CHL1  H12A 2766   4.646   3.537   6.228  0.8005  0.5174  1.8763
   22CHL1  H12B 2767   4.584   3.701   6.245 -0.9030  0.3474 -0.6058
   22CHL1   C11 2768   4.493   3.550   6.371  0.3405  0.3125 -0.8076
   22CHL1  H11A 2769   4.478   3.440   6.361  0.6926  0.1248  0.5072
   22CHL1  H11B 2770   4.571   3.567   6.448 -1.6607 -0.9093  1.6715
   22CHL1    C9 2771   4.372   3.628   6.418 -0.5755  0.4739 -0.0530
   22CHL1    H9 2772   4.399   3.735   6.430 -0.2350  0.1670  2.4899
   22CHL1   C10 2773   4.318   3.576   6.556  0.5345  0.1442 -0.9273
   22CHL1   C19 2774   4.287   3.425   6.551  0.0867 -1.1547  0.0530
   22CHL1  H19A 2775   4.375   3.362   6.524 -0.2403 -1.3148 -0.6636
   22CHL1  H19B 2776   4.257   3.376   6.646 -0.0941 -2.0164 -0.4360
   22CHL1  H19C 2777   4.208   3.407   6.475  0.3531 -1.7799 -0.0866
   22CHL1    C1 2778   4.423   3.606   6.672 -0.3802  0.4329 -0.0198
   22CHL1   H1A 2779   4.510   3.537   6.664 -0.1454  0.8756 -1.7876
   22CHL1   H1B 2780   4.464   3.708   6.657 -1.3239  0.8153 -0.0748
   22CHL1    C2 2781   4.366   3.596   6.818  0.2470 -0.1244  0.0359
   22CHL1   H2A 2782   4.441   3.627   6.894 -0.9124  0.6492  0.9086
   22CHL1   H2B 2783   4.347   3.489   6.844  1.1944  0.4471  3.6532
   22CHL1   C20 2784   4.596   3.614   5.902 -0.9936 -0.0249 -0.1333
   22CHL1   H20 2785   4.568   3.510   5.875 -1.0651  0.2328 -1.0683
   22CHL1   C21 2786   4.735   3.614   5.974  0.4034 -0.0047  0.1959
   22CHL1  H21A 2787   4.736   3.532   6.049  1.1298  0.5931  0.8471
   22CHL1  H21B 2788   4.760   3.711   6.022  0.3066  0.1181  0.0009
   22CHL1  H21C 2789   4.816   3.577   5.906  1.7519  2.3980  0.4024
   22CHL1   C22 2790   4.602   3.684   5.772  0.7078 -0.0421  0.1160
   22CHL1  H22A 2791   4.505   3.731   5.744  0.2208 -0.3230  1.2569
   22CHL1  H22B 2792   4.676   3.766   5.774 -0.1045  0.7081  0.3993
   22CHL1   C23 2793   4.651   3.604   5.653  0.5399 -0.0467 -0.1919
   22CHL1  H23A 2794   4.760   3.595   5.672  1.1608  1.0837 -2.7427
   22CHL1  H23B 2795   4.595   3.510   5.673 -0.4901  0.6410  0.1864
   22CHL1   C24 2796   4.620   3.672   5.518  0.6701  0.2231 -0.1673
   22CHL1  H24A 2797   4.512   3.664   5.496  1.2199  0.9094 -3.6985
   22CHL1  H24B 2798   4.646   3.780   5.525  0.0646  0.3912 -0.4544
   22CHL1   C25 2799   4.690   3.605   5.401 -0.3381 -0.4924  0.1012
   22CHL1   H25 2800   4.800   3.603   5.417 -0.0203  0.3440 -1.7581
   22CHL1   C26 2801   4.641   3.461   5.368  0.1705 -1.0126 -0.2186
   22CHL1  H26A 2802   4.657   3.396   5.457 -2.6749 -0.9494  0.4520
   22CHL1  H26B 2803   4.533   3.458   5.341  0.1367 -1.9447 -0.0402
   22CHL1  H26C 2804   4.698   3.414   5.285  0.6901 -3.2659  1.3195
   22CHL1   C27 2805   4.676   3.681   5.268  0.6777 -0.1925 -0.5061
   22CHL1  H27A 2806   4.580   3.730   5.241  0.3535 -0.7923 -0.4670
   22CHL1  H27B 2807   4.749   3.763   5.284  1.9807 -1.6013  1.1932
   22CHL1  H27C 2808   4.703   3.629   5.174  0.8634  1.6699 -1.5220
   23CHL1    C3 2809   2.279   3.104   6.515  0.2441  0.9236 -0.2273
   23CHL1    H3 2810   2.181   3.068   6.477  0.3727  0.9079 -0.5453
   23CHL1    O3 2811   2.280   3.124   6.660 -0.0558  0.5815  0.4637
   23CHL1   H3' 2812   2.207   3.180   6.689 -2.4501 -2.6286  1.1209
   23CHL1    C4 2813   2.384   2.998   6.465  0.5177  0.6275  0.3605
   23CHL1   H4A 2814   2.482   3.013   6.515  0.2328 -2.6037  2.2320
   23CHL1   H4B 2815   2.349   2.908   6.522  1.8856  0.5078  1.0586
   23CHL1    C5 2816   2.398   2.987   6.313 -0.6629  0.3338 -0.6925
   23CHL1    C6 2817   2.402   2.866   6.254  0.2467  0.6909  0.0917
   23CHL1    H6 2818   2.404   2.778   6.321  0.3491 -0.5771 -1.5275
   23CHL1    C7 2819   2.434   2.852   6.112 -0.7377  0.6720  1.1569
   23CHL1   H7A 2820   2.516   2.783   6.082 -2.8358 -0.6896 -2.0656
   23CHL1   H7B 2821   2.344   2.814   6.058  1.0817  1.4080 -2.7006
   23CHL1    C8 2822   2.476   2.987   6.038  0.0827 -0.3672 -0.2440
   23CHL1    H8 2823   2.584   3.006   6.059  0.4071 -1.8069 -0.5117
   23CHL1   C14 2824   2.459   2.969   5.893  0.4463 -0.4234 -0.1327
   23CHL1   H14 2825   2.353   2.946   5.870 -0.0987  1.6626  0.1046
   23CHL1   C15 2826   2.540   2.853   5.836 -0.7695 -0.3356  0.0943
   23CHL1  H15A 2827   2.637   2.843   5.888 -1.5303  1.0405  1.9028
   23CHL1  H15B 2828   2.485   2.757   5.845 -0.1388 -0.7938 -0.7751
   23CHL1   C16 2829   2.566   2.887   5.691  0.4106 -0.4140  0.5845
   23CHL1  H16A 2830   2.677   2.890   5.686  0.3839  0.9091  0.5265
   23CHL1  H16B 2831   2.523   2.810   5.624  0.3807 -0.8187  1.0612
   23CHL1   C17 2832   2.507   3.033   5.674  0.5371  0.4359  0.4261
   23CHL1   H17 2833   2.400   3.020   5.644  0.4627  1.8190  0.0216
   23CHL1   C13 2834   2.505   3.092   5.812  0.2121 -0.5140  0.5532
   23CHL1   C18 2835   2.643   3.139   5.855  0.1795 -0.2763 -0.3117
   23CHL1  H18A 2836   2.721   3.061   5.838  0.0765 -0.7075  1.0548
   23CHL1  H18B 2837   2.668   3.230   5.796 -2.1040 -0.5671 -1.8355
   23CHL1  H18C 2838   2.655   3.170   5.961 -1.9717 -0.2991 -0.0204
   23CHL1   C12 2839   2.406   3.199   5.856 -0.0661  0.0372  0.5054
   23CHL1  H12A 2840   2.434   3.297   5.813  1.5179 -0.6826 -0.1567
   23CHL1  H12B 2841   2.301   3.172   5.829 -0.1672  2.0201 -1.3531
   23CHL1   C11 2842   2.406   3.226   6.003  0.4267 -0.9206 -0.1105
   23CHL1  H11A 2843   2.501   3.278   6.027 -1.2914  1.8572  1.1973
   23CHL1  H11B 2844   2.328   3.301   6.025  1.6657  0.1970  0.5782
   23CHL1    C9 2845   2.391   3.099   6.092  0.1710 -0.1500 -0.0232
   23CHL1    H9 2846   2.285   3.072   6.072 -0.4083 -0.6478  3.2724
   23CHL1   C10 2847   2.412   3.120   6.242  0.6194  0.3797  0.5182
   23CHL1   C19 2848   2.557   3.173   6.270  0.0862 -0.7120  0.0403
   23CHL1  H19A 2849   2.579   3.268   6.218  0.8614 -1.6793 -1.4740
   23CHL1  H19B 2850   2.571   3.206   6.375 -1.6313  1.1753 -0.2716
   23CHL1  H19C 2851   2.642   3.103   6.251  2.8084  2.0184  1.3641
   23CHL1    C1 2852   2.312   3.221   6.293  0.4012  0.1936 -0.1607
   23CHL1   H1A 2853   2.345   3.316   6.246 -1.0675  0.6464 -0.3037
   23CHL1   H1B 2854   2.213   3.188   6.256 -0.1976  0.1949  1.3925
   23CHL1    C2 2855   2.310   3.241   6.449 -0.2191 -0.1017 -0.0640
   23CHL1   H2A 2856   2.229   3.314   6.468 -0.4425  0.3126 -2.3357
   23CHL1   H2B 2857   2.410   3.281   6.478  0.4795 -1.6802 -0.1605
   23CHL1   C20 2858   2.560   3.109   5.556 -1.3942  0.0894 -0.3659
   23CHL1   H20 2859   2.653   3.149   5.603 -2.7763 -0.2422  2.9155
   23CHL1   C21 2860   2.489   3.235   5.499 -0.4819  0.2650 -0.6168
   23CHL1  H21A 2861   2.496   3.322   5.568  3.7166  1.0786 -1.7919
   23CHL1  H21B 2862   2.382   3.212   5.479 -1.5106  3.4078  0.6567
   23CHL1  H21C 2863   2.534   3.270   5.404  2.5651 -3.3613 -0.7558
   23CHL1   C22 2864   2.598   3.006   5.439 -0.4523 -1.1027 -0.4942
   23CHL1  H22A 2865   2.643   3.080   5.369  0.8770 -0.7306  0.7130
   23CHL1  H22B 2866   2.683   2.939   5.464  0.1909 -0.3927 -0.7363
   23CHL1   C23 2867   2.478   2.937   5.367 -0.6131 -0.5580 -0.9043
   23CHL1  H23A 2868   2.462   2.845   5.426 -0.3700  0.5498  0.9829
   23CHL1  H23B 2869   2.390   3.006   5.371  0.3963  0.7873 -1.2030
   23CHL1   C24 2870   2.511   2.886   5.229 -0.1645  0.6900  0.1246
   23CHL1  H24A 2871   2.592   2.811   5.238 -0.8550  0.1559  2.4438
   23CHL1  H24B 2872   2.433   2.827   5.176  1.4389 -0.5758 -0.8902
   23CHL1   C25 2873   2.517   2.984   5.107 -0.2566 -0.0128 -0.9717
   23CHL1   H25 2874   2.615   3.036   5.110 -0.4296  0.2981  0.5600
   23CHL1   C26 2875   2.519   2.917   4.972  0.2260 -0.3427  0.1135
   23CHL1  H26A 2876   2.531   2.996   4.895 -0.8538  0.7189  1.0062
   23CHL1  H26B 2877   2.591   2.832   4.965  0.6184 -0.0051  0.0575
   23CHL1  H26C 2878   2.419   2.871   4.957 -0.2120 -0.1014  1.9922
   23CHL1   C27 2879   2.402   3.093   5.114 -0.4236  0.0825  0.9682
   23CHL1  H27A 2880   2.393   3.141   5.015 -0.5748  0.8073  1.3312
   23CHL1  H27B 2881   2.306   3.041   5.136  0.5997 -2.7246 -0.6450
   23CHL1  H27C 2882   2.424   3.166   5.195 -2.1867 -0.5172  2.0461
   24CHL1    C3 2883   3.821   5.628   7.084  0.5525 -0.3983 -0.5168
   24CHL1    H3 2884   3.725   5.581   7.052  0.3818  0.1961 -0.8902
   24CHL1    O3 2885   3.835   5.611   7.221 -0.4653  0.0646 -0.4257
   24CHL1   H3' 2886   3.921   5.648   7.241 -0.0177 -1.6252  1.1039
   24CHL1    C4 2887   3.929   5.550   7.007  0.5896  0.2778  0.1353
   24CHL1   H4A 2888   4.024   5.595   7.042  0.0114  0.9142  0.9269
   24CHL1   H4B 2889   3.922   5.450   7.055  1.5852  0.4581  0.6913
   24CHL1    C5 2890   3.911   5.558   6.855 -0.1953  0.3706 -0.3524
   24CHL1    C6 2891   3.888   5.456   6.778 -0.0744  1.1726 -0.4279
   24CHL1    H6 2892   3.875   5.355   6.819  0.5835  1.0827 -0.4259
   24CHL1    C7 2893   3.884   5.466   6.629 -0.0459  0.0079 -0.1321
   24CHL1   H7A 2894   3.947   5.392   6.576  1.8778  0.5496  1.2964
   24CHL1   H7B 2895   3.783   5.450   6.584 -0.0746 -3.2123  0.8206
   24CHL1    C8 2896   3.936   5.603   6.577 -0.1421 -0.6459  0.9069
   24CHL1    H8 2897   4.047   5.608   6.580 -0.1748  0.0401  1.3087
   24CHL1   C14 2898   3.894   5.624   6.432 -0.4425  0.7772 -0.1398
   24CHL1   H14 2899   3.785   5.623   6.448 -0.3216  0.9477  0.7370
   24CHL1   C15 2900   3.947   5.514   6.330  0.2965  0.1433  0.4339
   24CHL1  H15A 2901   4.049   5.492   6.366 -0.6235 -0.2257  2.9924
   24CHL1  H15B 2902   3.903   5.412   6.329  0.4893  0.0617  0.1748
   24CHL1   C16 2903   3.947   5.579   6.192  0.1724 -0.1479 -0.3181
   24CHL1  H16A 2904   4.049   5.568   6.149 -0.2245 -0.8849 -1.0907
   24CHL1  H16B 2905   3.876   5.526   6.126  3.3343 -3.8256 -1.1432
   24CHL1   C17 2906   3.905   5.727   6.219  0.6899 -0.2114  0.8160
   24CHL1   H17 2907   3.794   5.722   6.221  0.3875  1.2440 -3.0807
   24CHL1   C13 2908   3.944   5.755   6.366 -0.0178  0.0875  0.3763
   24CHL1   C18 2909   4.105   5.774   6.378 -0.1644 -0.6685  0.7830
   24CHL1  H18A 2910   4.134   5.856   6.309 -0.6720 -1.8755 -0.9189
   24CHL1  H18B 2911   4.146   5.792   6.480  0.3401 -2.2212  0.8806
   24CHL1  H18C 2912   4.159   5.684   6.343  1.2743  0.5716 -0.2875
   24CHL1   C12 2913   3.886   5.873   6.449 -0.1695 -0.9842  0.0746
   24CHL1  H12A 2914   3.907   5.979   6.423 -0.4771 -1.1509 -0.9074
   24CHL1  H12B 2915   3.776   5.860   6.439 -0.4145 -0.0683  1.3954
   24CHL1   C11 2916   3.918   5.855   6.598  0.0372  0.4461  0.8227
   24CHL1  H11A 2917   4.023   5.889   6.609  0.1742  0.6563 -0.8529
   24CHL1  H11B 2918   3.854   5.929   6.651 -0.5351 -0.0433  0.8216
   24CHL1    C9 2919   3.883   5.721   6.658 -0.1780 -0.7707 -0.7473
   24CHL1    H9 2920   3.774   5.715   6.638  0.4672 -3.2105 -4.8150
   24CHL1   C10 2921   3.918   5.709   6.809 -0.3616 -0.5395 -0.2365
   24CHL1   C19 2922   4.065   5.756   6.832  0.1161 -0.6254 -1.0493
   24CHL1  H19A 2923   4.140   5.691   6.782  2.2713  2.1811 -1.6579
   24CHL1  H19B 2924   4.090   5.858   6.796 -0.0152 -1.0153 -2.3023
   24CHL1  H19C 2925   4.099   5.745   6.937  1.0232 -1.4120 -1.4095
   24CHL1    C1 2926   3.817   5.802   6.890 -0.5725 -0.1941 -0.5711
   24CHL1   H1A 2927   3.822   5.909   6.859 -0.2576  0.2342  0.8702
   24CHL1   H1B 2928   3.718   5.772   6.849  0.1664 -1.6737 -1.3350
   24CHL1    C2 2929   3.820   5.782   7.043  0.3053 -0.0007 -1.1915
   24CHL1   H2A 2930   3.736   5.832   7.096  0.7678  0.0600 -0.4991
   24CHL1   H2B 2931   3.915   5.830   7.075 -0.5701  0.5046  0.7686
   24CHL1   C20 2932   3.934   5.826   6.109  0.0209 -0.2458  0.3761
   24CHL1   H20 2933   4.043   5.842   6.120 -0.1044  0.2038  1.0890
   24CHL1   C21 2934   3.868   5.963   6.143 -0.3544 -0.1537 -0.2013
   24CHL1  H21A 2935   3.901   6.000   6.242  0.1152 -1.4996  0.1605
   24CHL1  H21B 2936   3.760   5.940   6.158 -0.4001 -0.2038 -0.5960
   24CHL1  H21C 2937   3.893   6.042   6.069 -0.9014 -0.6084 -0.8772
   24CHL1   C22 2938   3.906   5.781   5.963  0.0993 -0.0490  0.1977
   24CHL1  H22A 2939   3.927   5.673   5.953 -0.0018 -0.0539  0.0293
   24CHL1  H22B 2940   3.796   5.793   5.954 -0.0175  0.6999  2.0533
   24CHL1   C23 2941   3.999   5.839   5.853 -0.2492 -0.7717  0.3598
   24CHL1  H23A 2942   4.002   5.950   5.855 -0.2594 -0.5837 -3.2127
   24CHL1  H23B 2943   4.105   5.816   5.873  0.5664  3.1045  1.2680
   24CHL1   C24 2944   3.958   5.782   5.716 -0.3328  0.4806  0.8151
   24CHL1  H24A 2945   4.036   5.810   5.642 -0.5541 -2.6349 -0.7655
   24CHL1  H24B 2946   3.948   5.672   5.722 -1.0176  0.3888 -1.2744
   24CHL1   C25 2947   3.827   5.828   5.655  0.1554  0.1068  0.6551
   24CHL1   H25 2948   3.740   5.782   5.707 -0.3308  0.2195 -0.0381
   24CHL1   C26 2949   3.810   5.978   5.661 -0.9510 -0.0358  0.0252
   24CHL1  H26A 2950   3.809   6.014   5.766  0.6503 -0.0330  0.0581
   24CHL1  H26B 2951   3.887   6.034   5.604  0.2035 -0.6212  0.9802
   24CHL1  H26C 2952   3.714   6.011   5.615 -0.9990  2.2922  1.6512
   24CHL1   C27 2953   3.820   5.774   5.504 -0.2211 -0.1446  0.2355
   24CHL1  H27A 2954   3.721   5.800   5.459  0.3507  1.0976 -0.3690
   24CHL1  H27B 2955   3.901   5.823   5.446  0.0399  0.7774  1.3479
   24CHL1  H27C 2956   3.836   5.664   5.503  1.9827  0.1328 -0.0921
   25CHL1    C3 2957   6.808   0.271   6.963 -0.2929  0.5615 -0.4506
   25CHL1    H3 2958   6.812   0.382   6.963  0.2349  0.6002  2.1396
   25CHL1    O3 2959   6.777   0.224   7.094  0.2454 -0.0399 -0.1839
   25CHL1   H3' 2960   6.819   0.138   7.104  2.1572  0.8844  0.0967
   25CHL1    C4 2961   6.705   0.209   6.872  0.4166 -0.5545  0.5328
   25CHL1   H4A 2962   6.690   0.101   6.892 -0.2609 -0.2471  1.7756
   25CHL1   H4B 2963   6.605   0.247   6.901  0.5240 -0.1419  0.3786
   25CHL1    C5 2964   6.738   0.250   6.731  0.5324 -0.0192 -0.8115
   25CHL1    C6 2965   6.647   0.322   6.660  0.3739 -0.8343 -0.4334
   25CHL1    H6 2966   6.558   0.364   6.710  1.8459  1.3192  0.5003
   25CHL1    C7 2967   6.655   0.341   6.509 -0.4774 -0.5287 -0.2209
   25CHL1   H7A 2968   6.560   0.313   6.459  0.2099 -1.1889 -1.1997
   25CHL1   H7B 2969   6.676   0.446   6.477 -1.1507 -0.3815 -0.1870
   25CHL1    C8 2970   6.766   0.241   6.452 -0.0559 -0.7995 -0.1744
   25CHL1    H8 2971   6.715   0.143   6.447 -0.7845 -0.3833 -2.4554
   25CHL1   C14 2972   6.796   0.278   6.307  0.2633  0.5197  0.5321
   25CHL1   H14 2973   6.846   0.377   6.313  1.2170  0.3582 -2.6565
   25CHL1   C15 2974   6.676   0.308   6.218 -0.2553  0.1854  0.1742
   25CHL1  H15A 2975   6.596   0.232   6.233 -0.4800  0.3191 -0.3202
   25CHL1  H15B 2976   6.626   0.406   6.227  1.0396  0.9894 -0.9200
   25CHL1   C16 2977   6.731   0.293   6.072  0.1423  0.1097 -0.6818
   25CHL1  H16A 2978   6.676   0.208   6.026  0.4115  0.2847 -1.3431
   25CHL1  H16B 2979   6.741   0.382   6.007 -1.5835 -0.5148 -1.8741
   25CHL1   C17 2980   6.886   0.239   6.097  0.5005 -0.1880 -0.0246
   25CHL1   H17 2981   6.943   0.333   6.106 -0.3372  0.1454  2.5716
   25CHL1   C13 2982   6.899   0.182   6.238 -0.2203 -0.2485  0.2153
   25CHL1   C18 2983   6.847   0.035   6.237 -0.4407 -0.2313  0.8359
   25CHL1  H18A 2984   6.758   0.027   6.170  0.8659 -3.8773 -0.7272
   25CHL1  H18B 2985   6.920  -0.042   6.202  0.2208 -0.4703  2.6565
   25CHL1  H18C 2986   6.826  -0.009   6.337 -3.1400 -0.0668  0.4140
   25CHL1   C12 2987   7.032   0.208   6.314 -0.2592  0.4242  0.6275
   25CHL1  H12A 2988   7.121   0.156   6.272 -0.6759 -1.3682  1.8752
   25CHL1  H12B 2989   7.052   0.318   6.317  3.6743 -0.1749  3.3354
   25CHL1   C11 2990   7.018   0.169   6.462  1.1697  0.1100 -0.2791
   25CHL1  H11A 2991   6.999   0.060   6.473 -2.6979  0.7098  0.3777
   25CHL1  H11B 2992   7.113   0.198   6.513  2.0556 -2.9714  0.0822
   25CHL1    C9 2993   6.897   0.241   6.535 -0.0910  0.0339 -0.1364
   25CHL1    H9 2994   6.925   0.348   6.543  0.4011 -0.1777  1.4305
   25CHL1   C10 2995   6.866   0.196   6.681 -1.1303 -0.2024 -0.3452
   25CHL1   C19 2996   6.860   0.036   6.685 -0.0078 -0.1661  0.0996
   25CHL1  H19A 2997   6.951  -0.025   6.662 -1.3502 -1.8766 -0.8800
   25CHL1  H19B 2998   6.837  -0.003   6.786  2.4279  1.9503  1.6015
   25CHL1  H19C 2999   6.793  -0.006   6.607  0.7627 -2.3840  0.5618
   25CHL1    C1 3000   6.978   0.257   6.772 -0.2625 -0.2120 -0.8275
   25CHL1   H1A 3001   7.073   0.202   6.756 -0.1875 -0.6492  0.9853
   25CHL1   H1B 3002   6.987   0.366   6.752  2.2104 -0.4645 -1.3954
   25CHL1    C2 3003   6.952   0.239   6.927 -0.5851  0.4565  1.0625
   25CHL1   H2A 3004   7.029   0.298   6.980 -1.1568  0.9482  1.3634
   25CHL1   H2B 3005   6.973   0.131   6.945  1.1132  0.6239  0.2175
   25CHL1   C20 3006   6.934   0.161   5.973 -0.0608 -0.3495 -0.0413
   25CHL1   H20 3007   6.884   0.062   5.976  0.5695 -0.6628  0.4825
   25CHL1   C21 3008   7.083   0.119   5.991 -0.0708 -0.0322 -0.4855
   25CHL1  H21A 3009   7.154   0.205   5.985  0.2774 -0.4112 -2.6276
   25CHL1  H21B 3010   7.108   0.061   5.900 -0.0227  0.9147 -1.0974
   25CHL1  H21C 3011   7.083   0.052   6.079 -1.4249  2.1936  1.3244
   25CHL1   C22 3012   6.897   0.218   5.833  0.1411 -0.0195 -0.2241
   25CHL1  H22A 3013   6.938   0.146   5.758 -0.6645 -1.5120  0.7267
   25CHL1  H22B 3014   6.787   0.218   5.823  0.1636 -3.1158 -1.8763
   25CHL1   C23 3015   6.944   0.366   5.807  0.3066 -0.1705 -0.4443
   25CHL1  H23A 3016   6.893   0.437   5.877  0.1178 -0.3588 -0.3891
   25CHL1  H23B 3017   7.050   0.365   5.840 -0.6577 -0.6358  3.0459
   25CHL1   C24 3018   6.919   0.407   5.661 -0.3701  0.2831 -0.1747
   25CHL1  H24A 3019   6.979   0.342   5.594 -1.1505  0.8147 -1.4152
   25CHL1  H24B 3020   6.814   0.387   5.632 -1.3114  2.0633  1.7892
   25CHL1   C25 3021   6.957   0.548   5.621  0.5066 -0.4749 -0.3646
   25CHL1   H25 3022   6.930   0.617   5.704  2.1291 -0.1991 -0.0305
   25CHL1   C26 3023   7.109   0.557   5.604  0.2176 -0.7805 -0.2432
   25CHL1  H26A 3024   7.133   0.489   5.519 -0.2406  0.2059 -1.1812
   25CHL1  H26B 3025   7.141   0.662   5.583 -2.3915  0.4795  1.5264
   25CHL1  H26C 3026   7.157   0.537   5.702 -0.5716  2.1086  0.8464
   25CHL1   C27 3027   6.882   0.589   5.494 -0.0611  0.2141  0.1889
   25CHL1  H27A 3028   6.892   0.501   5.427 -1.0934  0.5501 -0.4275
   25CHL1  H27B 3029   6.773   0.591   5.514 -0.2865 -0.5560 -0.9085
   25CHL1  H27C 3030   6.912   0.682   5.443  1.0104 -0.7228 -0.9714
   26CHL1    C3 3031   4.442   4.573   6.928 -0.3156 -1.0456 -0.2799
   26CHL1    H3 3032   4.479   4.469   6.943  4.1941  0.2863 -0.6511
   26CHL1    O3 3033   4.394   4.620   7.053 -0.5620  0.0564  0.0628
   26CHL1   H3' 3034   4.307   4.581   7.063  0.0376 -1.1574  0.9161
   26CHL1    C4 3035   4.559   4.661   6.886  0.5971 -0.3376 -0.2319
   26CHL1   H4A 3036   4.529   4.767   6.897  0.8050 -0.3751  0.7445
   26CHL1   H4B 3037   4.638   4.645   6.962 -0.7708  2.1896  1.8871
   26CHL1    C5 3038   4.601   4.655   6.741 -0.0599  0.0725  0.3147
   26CHL1    C6 3039   4.733   4.637   6.717 -0.0979  0.0606 -0.1088
   26CHL1    H6 3040   4.802   4.632   6.803  2.5015  0.4552 -2.0435
   26CHL1    C7 3041   4.798   4.628   6.582 -0.8696 -0.8381  0.4304
   26CHL1   H7A 3042   4.884   4.698   6.578 -2.4720  1.2546  0.2855
   26CHL1   H7B 3043   4.830   4.524   6.562  0.9696 -0.3558  0.6674
   26CHL1    C8 3044   4.684   4.666   6.469 -0.1806  0.1289 -0.2394
   26CHL1    H8 3045   4.684   4.777   6.462  2.5500  0.2419  0.2163
   26CHL1   C14 3046   4.742   4.597   6.350  0.2235  0.6685  1.0437
   26CHL1   H14 3047   4.742   4.487   6.367 -1.5722  0.0176 -2.2123
   26CHL1   C15 3048   4.884   4.635   6.297 -0.1675 -0.2037 -0.4334
   26CHL1  H15A 3049   4.892   4.745   6.313  1.5212 -0.4550  0.6813
   26CHL1  H15B 3050   4.971   4.592   6.351 -0.0307  2.7061  1.9352
   26CHL1   C16 3051   4.877   4.595   6.148 -0.0878 -0.2511 -0.2770
   26CHL1  H16A 3052   4.921   4.680   6.092 -0.3084 -0.8634 -1.3995
   26CHL1  H16B 3053   4.930   4.497   6.136  0.8408  0.1634  0.2755
   26CHL1   C17 3054   4.732   4.561   6.111  0.2465 -0.4068  0.3273
   26CHL1   H17 3055   4.731   4.451   6.126  2.4171 -0.4124  0.7423
   26CHL1   C13 3056   4.644   4.614   6.225 -0.5323 -0.8632  0.5349
   26CHL1   C18 3057   4.622   4.770   6.200 -0.5581  0.2944 -0.1265
   26CHL1  H18A 3058   4.582   4.829   6.285 -0.5155 -1.6095  1.2589
   26CHL1  H18B 3059   4.721   4.814   6.173 -0.8891 -0.5759 -3.1878
   26CHL1  H18C 3060   4.568   4.790   6.105 -0.5751  1.7742  0.1697
   26CHL1   C12 3061   4.512   4.545   6.255 -0.4950 -0.1075  0.0739
   26CHL1  H12A 3062   4.443   4.553   6.169  0.8277 -0.7994 -1.0809
   26CHL1  H12B 3063   4.523   4.437   6.279  1.3626 -0.1034 -0.6188
   26CHL1   C11 3064   4.448   4.614   6.379 -0.4707 -0.0329  0.4008
   26CHL1  H11A 3065   4.422   4.720   6.358  0.0339 -0.1003 -0.6407
   26CHL1  H11B 3066   4.352   4.562   6.400  0.3320 -1.6140  0.3060
   26CHL1    C9 3067   4.552   4.609   6.505 -0.2922  0.2446 -0.2645
   26CHL1    H9 3068   4.562   4.499   6.515 -1.9173  0.1178  0.2233
   26CHL1   C10 3069   4.497   4.653   6.637  0.2748 -0.0830 -0.5587
   26CHL1   C19 3070   4.432   4.793   6.626 -0.5707 -0.0218  0.0314
   26CHL1  H19A 3071   4.405   4.840   6.722  0.3650  2.3589 -0.7923
   26CHL1  H19B 3072   4.510   4.859   6.583 -0.1102 -1.3865 -1.3220
   26CHL1  H19C 3073   4.341   4.792   6.562 -0.6692  1.8831  0.0787
   26CHL1    C1 3074   4.379   4.549   6.688 -0.1725 -0.1998  1.2580
   26CHL1   H1A 3075   4.296   4.553   6.614 -0.1452 -0.8653  1.1811
   26CHL1   H1B 3076   4.422   4.446   6.685 -1.3588 -0.7112 -1.1598
   26CHL1    C2 3077   4.327   4.579   6.832 -0.0951 -0.2995 -0.1173
   26CHL1   H2A 3078   4.247   4.506   6.853 -1.0243  0.1831 -1.8097
   26CHL1   H2B 3079   4.278   4.679   6.838 -0.7615 -0.5920 -0.6178
   26CHL1   C20 3080   4.699   4.591   5.962  0.7157 -0.3814  0.5683
   26CHL1   H20 3081   4.698   4.702   5.959 -0.7092 -0.3890 -0.5120
   26CHL1   C21 3082   4.557   4.550   5.922 -0.9434 -0.1952 -0.3276
   26CHL1  H21A 3083   4.549   4.439   5.928 -0.7863 -0.3572 -2.2939
   26CHL1  H21B 3084   4.537   4.579   5.817 -0.6813 -0.1492 -0.3655
   26CHL1  H21C 3085   4.476   4.595   5.982 -2.4571  0.2214 -2.5434
   26CHL1   C22 3086   4.799   4.524   5.860 -0.0366 -0.1757 -0.0753
   26CHL1  H22A 3087   4.905   4.515   5.892  0.8713  1.1825 -2.4560
   26CHL1  H22B 3088   4.767   4.421   5.834 -2.4966  0.5929 -0.3764
   26CHL1   C23 3089   4.812   4.601   5.726  0.5001  0.2055 -0.5580
   26CHL1  H23A 3090   4.880   4.538   5.665 -0.0744  1.4340 -2.5908
   26CHL1  H23B 3091   4.712   4.628   5.685 -1.3326  0.9329  3.8228
   26CHL1   C24 3092   4.878   4.738   5.754  0.3053 -0.6380  0.9027
   26CHL1  H24A 3093   4.812   4.817   5.797  3.0056  2.6385 -0.4844
   26CHL1  H24B 3094   4.970   4.737   5.815 -0.2288  2.3371  1.9448
   26CHL1   C25 3095   4.933   4.800   5.628  0.1545 -0.5105 -0.3020
   26CHL1   H25 3096   5.003   4.721   5.594 -1.0424 -1.4469 -0.6786
   26CHL1   C26 3097   4.828   4.832   5.518  0.3560 -0.0250 -0.1531
   26CHL1  H26A 3098   4.883   4.867   5.428  0.3165 -1.3805 -0.7242
   26CHL1  H26B 3099   4.760   4.747   5.497  1.0058 -0.6704  0.2865
   26CHL1  H26C 3100   4.764   4.907   5.568  0.8669 -0.1195  0.6688
   26CHL1   C27 3101   5.028   4.929   5.643  0.0059 -0.3657 -0.0697
   26CHL1  H27A 3102   5.043   4.990   5.552 -2.5562  0.1657 -0.2166
   26CHL1  H27B 3103   4.973   4.983   5.723  0.7036 -0.4179  0.4524
   26CHL1  H27C 3104   5.130   4.909   5.682  0.7951  3.1599 -0.0061
   27CHL1    C3 3105   2.750   3.082   6.642 -1.0108  0.0612  0.3541
   27CHL1    H3 3106   2.657   3.116   6.592 -1.3035 -1.7157 -0.3574
   27CHL1    O3 3107   2.723   3.066   6.775  0.0609 -0.4296 -0.4772
   27CHL1   H3' 3108   2.810   3.036   6.802 -0.2245  0.1227  1.1168
   27CHL1    C4 3109   2.804   2.951   6.584  0.3247 -0.3340 -0.1968
   27CHL1   H4A 3110   2.892   2.926   6.647 -1.3326 -0.6179  2.1201
   27CHL1   H4B 3111   2.725   2.874   6.594 -0.1819  0.1571 -0.3932
   27CHL1    C5 3112   2.850   2.964   6.440  0.4759 -0.0272  0.6549
   27CHL1    C6 3113   2.806   2.882   6.346  0.2005  0.3304  0.4606
   27CHL1    H6 3114   2.726   2.812   6.373  0.6167  0.5001  2.3249
   27CHL1    C7 3115   2.854   2.876   6.205 -0.3579  0.0504  0.6495
   27CHL1   H7A 3116   2.899   2.778   6.181 -1.9156 -0.6169  0.3355
   27CHL1   H7B 3117   2.773   2.898   6.133 -1.5516 -1.8481  1.3549
   27CHL1    C8 3118   2.968   2.978   6.176 -0.6167  0.8198 -0.1999
   27CHL1    H8 3119   3.059   2.925   6.210 -1.7321  0.3774  2.2860
   27CHL1   C14 3120   2.969   3.024   6.035  0.3179  0.1512  0.0844
   27CHL1   H14 3121   2.874   3.080   6.024  2.3673  3.6886 -1.6792
   27CHL1   C15 3122   2.963   2.917   5.925 -1.0838  0.5757 -0.0107
   27CHL1  H15A 3123   3.046   2.845   5.939 -0.1204  1.6821  0.0401
   27CHL1  H15B 3124   2.872   2.852   5.922 -1.2902  0.8982 -1.8582
   27CHL1   C16 3125   3.003   2.999   5.795  0.6812  0.1598  0.0651
   27CHL1  H16A 3126   3.082   2.956   5.730  0.6227 -0.6665  0.5275
   27CHL1  H16B 3127   2.914   3.014   5.730  1.3801  2.9543 -0.3471
   27CHL1   C17 3128   3.053   3.135   5.840 -0.2983  0.6116 -0.0717
   27CHL1   H17 3129   2.969   3.207   5.844 -2.5187 -1.8810  2.1822
   27CHL1   C13 3130   3.082   3.127   5.992  0.3784  0.8868 -0.3022
   27CHL1   C18 3131   3.217   3.062   5.997 -0.2852 -0.1487 -0.3689
   27CHL1  H18A 3132   3.229   3.024   6.101 -2.2694 -0.5743 -0.2511
   27CHL1  H18B 3133   3.226   2.969   5.937  0.1138 -0.1683 -0.2832
   27CHL1  H18C 3134   3.290   3.143   5.978 -1.8358  1.2818 -0.3830
   27CHL1   C12 3135   3.076   3.253   6.071  0.5297 -0.1696  0.0480
   27CHL1  H12A 3136   3.164   3.320   6.065 -0.3318  1.5477  3.4663
   27CHL1  H12B 3137   2.990   3.316   6.039  0.2451 -0.5714  0.0216
   27CHL1   C11 3138   3.067   3.219   6.226  0.1525  0.2924  0.3384
   27CHL1  H11A 3139   3.170   3.192   6.258 -0.1295 -2.1607 -0.6053
   27CHL1  H11B 3140   3.032   3.310   6.279 -0.8172 -0.4872  1.0735
   27CHL1    C9 3141   2.961   3.109   6.261  0.1037 -0.7269  0.0927
   27CHL1    H9 3142   2.873   3.170   6.231  0.7810 -0.6476 -1.8864
   27CHL1   C10 3143   2.947   3.083   6.409  0.3826  0.1313  0.6710
   27CHL1   C19 3144   3.080   3.037   6.470 -0.0099 -0.5124  0.1836
   27CHL1  H19A 3145   3.076   3.000   6.574  3.6180 -1.5772  0.0728
   27CHL1  H19B 3146   3.127   2.962   6.403  1.5409  2.0033 -1.7741
   27CHL1  H19C 3147   3.148   3.124   6.460  0.4986 -0.8329  0.7574
   27CHL1    C1 3148   2.883   3.211   6.479 -0.0606  0.2454 -0.0695
   27CHL1   H1A 3149   2.949   3.301   6.479  3.7493 -2.3188 -0.6538
   27CHL1   H1B 3150   2.798   3.253   6.420 -1.1453 -1.2745  0.3576
   27CHL1    C2 3151   2.846   3.198   6.628  0.2505 -0.3439 -0.2289
   27CHL1   H2A 3152   2.791   3.289   6.660  1.2826  0.0917  0.3627
   27CHL1   H2B 3153   2.938   3.191   6.689  0.3785  2.6995  0.0889
   27CHL1   C20 3154   3.157   3.201   5.752 -0.5786  0.1427 -0.0997
   27CHL1   H20 3155   3.250   3.143   5.770  0.1751  1.2934 -0.1795
   27CHL1   C21 3156   3.198   3.350   5.792  0.1383  1.0180  0.0193
   27CHL1  H21A 3157   3.105   3.408   5.810  0.1725  0.7579  1.0864
   27CHL1  H21B 3158   3.249   3.412   5.714 -0.4852  1.0484 -0.3738
   27CHL1  H21C 3159   3.263   3.364   5.881  0.1331 -1.0198  0.3930
   27CHL1   C22 3160   3.109   3.209   5.599 -0.1724  0.6811  0.0647
   27CHL1  H22A 3161   3.190   3.249   5.535 -0.4091  0.3519 -0.4449
   27CHL1  H22B 3162   3.089   3.103   5.572 -0.4249  0.6802  0.2488
   27CHL1   C23 3163   2.980   3.288   5.570  0.3389  0.0301 -0.3501
   27CHL1  H23A 3164   2.909   3.267   5.653  2.4123 -0.9447  1.2435
   27CHL1  H23B 3165   3.010   3.395   5.560  0.4396  0.0301 -0.0511
   27CHL1   C24 3166   2.918   3.252   5.436 -0.3120  0.2938 -0.0419
   27CHL1  H24A 3167   2.868   3.156   5.461  0.7692 -0.3107 -0.1364
   27CHL1  H24B 3168   2.852   3.334   5.400  1.0320  2.4340  2.0247
   27CHL1   C25 3169   3.014   3.246   5.315 -0.3010  0.1470 -0.0606
   27CHL1   H25 3170   3.097   3.175   5.336 -0.6235 -0.4655 -0.8087
   27CHL1   C26 3171   2.942   3.193   5.187 -0.3997 -0.0900  0.2681
   27CHL1  H26A 3172   3.005   3.197   5.096  0.5117 -1.1583  0.8348
   27CHL1  H26B 3173   2.903   3.089   5.196  0.4644 -0.5151 -0.6943
   27CHL1  H26C 3174   2.857   3.263   5.170 -0.6953 -0.5824 -0.3507
   27CHL1   C27 3175   3.084   3.378   5.281  0.2241  0.3165 -0.2855
   27CHL1  H27A 3176   3.007   3.441   5.233 -0.1906 -1.8114 -2.5849
   27CHL1  H27B 3177   3.166   3.367   5.206  1.1597 -2.5134  1.0143
   27CHL1  H27C 3178   3.127   3.430   5.370  0.1028  2.7661 -1.5600
   28CHL1    C3 3179   1.290   3.251   6.731 -0.2336 -0.6855  0.3157
   28CHL1    H3 3180   1.204   3.317   6.706 -1.6165 -2.1178  1.0859
   28CHL1    O3 3181   1.265   3.197   6.857  0.0660 -0.0301 -0.2274
   28CHL1   H3' 3182   1.347   3.161   6.890  1.6494  0.9795 -2.7839
   28CHL1    C4 3183   1.298   3.142   6.627 -0.2760 -0.1670 -0.0288
   28CHL1   H4A 3184   1.367   3.058   6.649 -1.4798 -0.8094  1.4984
   28CHL1   H4B 3185   1.198   3.095   6.635 -0.0835 -0.3054  2.1343
   28CHL1    C5 3186   1.324   3.187   6.486 -0.5273 -0.0155 -0.2279
   28CHL1    C6 3187   1.240   3.150   6.393  0.7257  0.0375 -1.1777
   28CHL1    H6 3188   1.156   3.082   6.414 -0.4298  1.3658 -1.3705
   28CHL1    C7 3189   1.251   3.175   6.248 -0.3251  0.0001 -0.0384
   28CHL1   H7A 3190   1.236   3.086   6.183 -1.2000  1.2232 -1.5846
   28CHL1   H7B 3191   1.178   3.252   6.216 -2.4894 -1.9240  0.0026
   28CHL1    C8 3192   1.392   3.245   6.218  0.2632 -0.4802 -0.4973
   28CHL1    H8 3193   1.464   3.160   6.215 -0.5951 -1.2014 -0.9441
   28CHL1   C14 3194   1.387   3.307   6.080  0.2357 -0.1989  0.0758
   28CHL1   H14 3195   1.319   3.394   6.089  2.0554  1.0987  2.3877
   28CHL1   C15 3196   1.329   3.230   5.968 -0.2588 -0.5669  0.2900
   28CHL1  H15A 3197   1.380   3.131   5.968 -0.9178 -0.9221  0.8211
   28CHL1  H15B 3198   1.220   3.210   5.975 -0.4928  0.0693 -1.0943
   28CHL1   C16 3199   1.357   3.317   5.844 -0.0519 -0.4419  0.2364
   28CHL1  H16A 3200   1.369   3.249   5.756  1.9755 -0.0188  0.1433
   28CHL1  H16B 3201   1.263   3.374   5.826 -0.8697 -2.0429 -0.8525
   28CHL1   C17 3202   1.468   3.419   5.894  0.4851  0.2420  0.6175
   28CHL1   H17 3203   1.411   3.509   5.926  1.8722  0.7341  1.7795
   28CHL1   C13 3204   1.515   3.371   6.034 -0.3204  0.0249  0.0189
   28CHL1   C18 3205   1.632   3.269   6.033  0.3427 -0.1130  0.4611
   28CHL1  H18A 3206   1.727   3.327   6.032 -0.0825  0.6130 -0.3478
   28CHL1  H18B 3207   1.651   3.204   6.120  3.0597  0.4771  0.3754
   28CHL1  H18C 3208   1.615   3.206   5.942  1.5908  0.9853 -0.5736
   28CHL1   C12 3209   1.544   3.483   6.140  0.1819  0.3595 -0.2024
   28CHL1  H12A 3210   1.638   3.531   6.104 -0.2826  2.1044  0.8086
   28CHL1  H12B 3211   1.467   3.563   6.143 -3.0302 -2.5228 -0.7236
   28CHL1   C11 3212   1.548   3.432   6.287 -0.1012 -0.1663  0.1077
   28CHL1  H11A 3213   1.637   3.365   6.293 -1.7801 -2.7589 -1.7507
   28CHL1  H11B 3214   1.556   3.521   6.353 -0.5136  0.5477 -0.7884
   28CHL1    C9 3215   1.426   3.349   6.328  0.4667 -0.0303 -0.3051
   28CHL1    H9 3216   1.334   3.412   6.334 -0.1034 -0.6001 -2.3294
   28CHL1   C10 3217   1.437   3.287   6.471 -0.3387  0.4331 -0.1610
   28CHL1   C19 3218   1.565   3.209   6.480  0.1409  0.0881 -0.1305
   28CHL1  H19A 3219   1.659   3.269   6.482  1.3467 -1.6799  2.6422
   28CHL1  H19B 3220   1.566   3.160   6.580 -1.9836 -0.4629 -0.3439
   28CHL1  H19C 3221   1.580   3.124   6.411  1.3841 -1.6876  2.1746
   28CHL1    C1 3222   1.433   3.395   6.582  0.7502 -0.0201 -0.6024
   28CHL1   H1A 3223   1.517   3.466   6.576 -0.2242  0.9991 -3.4573
   28CHL1   H1B 3224   1.352   3.466   6.556 -0.0019  0.0512  1.6722
   28CHL1    C2 3225   1.417   3.339   6.725  0.8145 -0.0450 -0.3441
   28CHL1   H2A 3226   1.401   3.416   6.803 -0.5769 -0.6359 -0.0199
   28CHL1   H2B 3227   1.512   3.286   6.749 -0.6835 -3.9597 -2.0755
   28CHL1   C20 3228   1.575   3.463   5.795 -0.7575  0.1973 -0.6311
   28CHL1   H20 3229   1.671   3.410   5.815 -0.6470  0.7224  0.2646
   28CHL1   C21 3230   1.607   3.616   5.809  0.1961  0.2070  0.2955
   28CHL1  H21A 3231   1.683   3.659   5.741  0.2059 -0.6475 -0.2512
   28CHL1  H21B 3232   1.630   3.637   5.915 -1.6947 -3.2471  1.5856
   28CHL1  H21C 3233   1.513   3.675   5.802  0.5728  1.1611  2.4349
   28CHL1   C22 3234   1.546   3.431   5.649  0.1038  0.1938  0.2102
   28CHL1  H22A 3235   1.538   3.320   5.639 -1.8433  0.2631  0.6934
   28CHL1  H22B 3236   1.450   3.477   5.619  0.8724  1.6310 -0.1240
   28CHL1   C23 3237   1.649   3.482   5.549 -0.5300 -0.7383  0.5359
   28CHL1  H23A 3238   1.645   3.593   5.539  2.3819 -0.5874  0.0462
   28CHL1  H23B 3239   1.749   3.459   5.591 -0.5763  0.3967  1.3088
   28CHL1   C24 3240   1.635   3.424   5.411 -0.8154 -0.5043 -0.5379
   28CHL1  H24A 3241   1.605   3.317   5.421  1.2090 -1.1862 -1.1676
   28CHL1  H24B 3242   1.557   3.474   5.351 -1.6072 -0.1979  0.7113
   28CHL1   C25 3243   1.764   3.453   5.321 -0.9199  0.3806 -0.1528
   28CHL1   H25 3244   1.799   3.557   5.338  1.2728 -0.3486  0.0323
   28CHL1   C26 3245   1.868   3.344   5.346  0.2797  0.2368  0.1496
   28CHL1  H26A 3246   1.954   3.337   5.276  1.8185 -0.3877  2.0091
   28CHL1  H26B 3247   1.917   3.353   5.445 -0.1487  0.9886  0.3057
   28CHL1  H26C 3248   1.806   3.251   5.339  0.5190  0.0175  0.8497
   28CHL1   C27 3249   1.703   3.434   5.182  0.2859  0.5256  0.1905
   28CHL1  H27A 3250   1.675   3.327   5.171 -0.6892  0.5731  1.8162
   28CHL1  H27B 3251   1.610   3.494   5.173 -1.1700 -0.9053  3.6693
   28CHL1  H27C 3252   1.773   3.457   5.099 -0.2336  0.1931 -0.3506
   29CHL1    C3 3253   3.166   4.368   6.768  0.5031 -0.0745 -0.1360
   29CHL1    H3 3254   3.255   4.304   6.784  0.9584  0.4841 -0.3980
   29CHL1    O3 3255   3.081   4.375   6.878 -0.1119 -0.5902 -0.6453
   29CHL1   H3' 3256   3.033   4.458   6.873 -0.9769 -1.0037  0.3297
   29CHL1    C4 3257   3.216   4.509   6.725  0.7399 -0.2534 -0.1834
   29CHL1   H4A 3258   3.123   4.561   6.695  1.5419  2.0166  1.0894
   29CHL1   H4B 3259   3.265   4.563   6.808  0.2564 -0.3799  0.1908
   29CHL1    C5 3260   3.307   4.488   6.606  0.2694 -0.7514  0.3365
   29CHL1    C6 3261   3.438   4.525   6.613  0.0826 -0.6574  0.7951
   29CHL1    H6 3262   3.483   4.557   6.708  0.9464 -0.6060  0.3812
   29CHL1    C7 3263   3.530   4.515   6.491 -0.3080 -0.1310  0.6661
   29CHL1   H7A 3264   3.582   4.610   6.463  0.8197 -0.9168  0.0410
   29CHL1   H7B 3265   3.603   4.436   6.519 -0.9267 -0.8234  0.3590
   29CHL1    C8 3266   3.460   4.480   6.354  0.3828 -0.2949 -0.8099
   29CHL1    H8 3267   3.412   4.572   6.314 -0.5885 -2.5497 -5.5074
   29CHL1   C14 3268   3.558   4.423   6.251 -0.0012  0.1302 -0.0870
   29CHL1   H14 3269   3.602   4.330   6.293  0.5587  0.1715 -0.5664
   29CHL1   C15 3270   3.683   4.502   6.216  0.3152  0.3266 -0.6584
   29CHL1  H15A 3271   3.660   4.610   6.215 -0.3094  0.2681  1.9213
   29CHL1  H15B 3272   3.747   4.479   6.304  0.2969  0.0821 -0.7081
   29CHL1   C16 3273   3.729   4.435   6.083  0.7135  0.8732 -0.4150
   29CHL1  H16A 3274   3.746   4.503   5.998  3.2056  0.5293 -0.2838
   29CHL1  H16B 3275   3.821   4.375   6.101  0.8869  1.1202 -0.4799
   29CHL1   C17 3276   3.611   4.337   6.037 -0.6059 -0.2609 -0.0089
   29CHL1   H17 3277   3.632   4.231   6.065 -0.3042 -0.3824 -0.6796
   29CHL1   C13 3278   3.497   4.386   6.119 -0.5135  1.5928 -0.2978
   29CHL1   C18 3279   3.428   4.508   6.038 -0.2253 -0.1922  0.5369
   29CHL1  H18A 3280   3.504   4.566   5.982  0.1799 -3.8705 -3.1484
   29CHL1  H18B 3281   3.353   4.469   5.967 -0.6861  1.8055 -0.1568
   29CHL1  H18C 3282   3.373   4.573   6.110 -2.2625  0.4911 -1.5260
   29CHL1   C12 3283   3.393   4.276   6.152  0.4940  1.2376 -0.5818
   29CHL1  H12A 3284   3.343   4.239   6.061  1.8425 -1.2488 -0.4015
   29CHL1  H12B 3285   3.447   4.191   6.199 -0.9251  0.5123 -0.2162
   29CHL1   C11 3286   3.285   4.334   6.246  0.2417  0.6549  0.1818
   29CHL1  H11A 3287   3.221   4.407   6.193 -2.1787  0.4385  2.6063
   29CHL1  H11B 3288   3.225   4.246   6.276  1.5815  0.0019  1.0764
   29CHL1    C9 3289   3.346   4.386   6.374 -0.0893 -0.1274 -0.1952
   29CHL1    H9 3290   3.388   4.293   6.418  0.7684  0.1003 -0.5039
   29CHL1   C10 3291   3.243   4.431   6.479 -0.5454 -0.9654 -0.5286
   29CHL1   C19 3292   3.153   4.534   6.421 -0.2358 -0.0236 -0.1843
   29CHL1  H19A 3293   3.090   4.497   6.338 -0.9239  2.2600 -0.7540
   29CHL1  H19B 3294   3.085   4.585   6.492 -0.5912 -0.8574  0.0888
   29CHL1  H19C 3295   3.207   4.615   6.368 -0.6969 -0.3453 -1.1733
   29CHL1    C1 3296   3.161   4.308   6.528  0.0219  0.1608  0.0522
   29CHL1   H1A 3297   3.092   4.278   6.447 -1.7014 -0.9271  1.8170
   29CHL1   H1B 3298   3.234   4.224   6.542  0.2596  0.2275 -0.7499
   29CHL1    C2 3299   3.074   4.313   6.658  0.3855  0.2995  0.3594
   29CHL1   H2A 3300   3.045   4.209   6.686 -0.2338  0.1460 -0.8080
   29CHL1   H2B 3301   2.983   4.376   6.648  1.2703  1.2158 -4.0249
   29CHL1   C20 3302   3.595   4.325   5.884  0.1415 -0.3628 -0.5863
   29CHL1   H20 3303   3.578   4.427   5.843 -1.0714  0.0840  0.8846
   29CHL1   C21 3304   3.473   4.242   5.841  0.1082 -0.4580  0.4018
   29CHL1  H21A 3305   3.466   4.145   5.895  1.2896 -0.0789  1.2823
   29CHL1  H21B 3306   3.483   4.209   5.735 -0.7937  1.9665 -0.5167
   29CHL1  H21C 3307   3.378   4.298   5.844 -0.1492 -0.7571 -1.2535
   29CHL1   C22 3308   3.721   4.271   5.819  0.0820 -0.5174 -0.0903
   29CHL1  H22A 3309   3.804   4.339   5.847  0.2700  0.5500 -2.8578
   29CHL1  H22B 3310   3.757   4.169   5.847  0.9041 -0.6335 -1.4719
   29CHL1   C23 3311   3.718   4.272   5.668  0.0195 -0.5941  0.6617
   29CHL1  H23A 3312   3.643   4.200   5.630 -0.9549  0.8116 -0.1717
   29CHL1  H23B 3313   3.679   4.368   5.627  1.5243 -0.6207 -0.9558
   29CHL1   C24 3314   3.862   4.251   5.612 -0.3236  0.4824  0.0942
   29CHL1  H24A 3315   3.925   4.309   5.684  1.9868 -3.1792  1.3400
   29CHL1  H24B 3316   3.896   4.148   5.635  0.2428  0.1352 -2.1305
   29CHL1   C25 3317   3.898   4.301   5.466 -0.2935  0.3684 -0.2686
   29CHL1   H25 3318   3.877   4.410   5.459 -0.0070  0.8076  3.6113
   29CHL1   C26 3319   4.041   4.275   5.428  0.0172  0.9946  0.7932
   29CHL1  H26A 3320   4.072   4.171   5.452 -0.1628  0.9301  0.7460
   29CHL1  H26B 3321   4.051   4.284   5.318 -0.3516  0.1796  0.6873
   29CHL1  H26C 3322   4.110   4.346   5.479  0.3061  2.6548 -1.7284
   29CHL1   C27 3323   3.806   4.229   5.366  0.9085 -0.5434  0.0635
   29CHL1  H27A 3324   3.821   4.275   5.265 -0.5568 -1.4218 -0.5908
   29CHL1  H27B 3325   3.839   4.131   5.324 -1.9471 -0.9007 -1.6125
   29CHL1  H27C 3326   3.700   4.229   5.398  1.1396 -1.0900  0.8372
   30CHL1    C3 3327   3.360   6.013   7.074 -0.0755 -0.0906 -0.1673
   30CHL1    H3 3328   3.404   5.911   7.064  3.0464  1.2087 -0.9925
   30CHL1    O3 3329   3.360   6.068   7.208 -0.9239 -0.5501  0.1729
   30CHL1   H3' 3330   3.314   6.151   7.193 -1.0716 -0.6236  0.2196
   30CHL1    C4 3331   3.442   6.109   6.981 -0.3923  0.1659 -0.9292
   30CHL1   H4A 3332   3.390   6.206   6.994 -0.2960  0.1801 -0.6423
   30CHL1   H4B 3333   3.546   6.109   7.021 -0.7599  1.3720  0.1065
   30CHL1    C5 3334   3.428   6.069   6.830 -0.1621  0.4418 -0.0666
   30CHL1    C6 3335   3.536   6.056   6.752  0.5172  0.4685 -1.0024
   30CHL1    H6 3336   3.634   6.067   6.800  0.0414 -0.2854  0.1862
   30CHL1    C7 3337   3.538   6.018   6.607 -0.7850 -0.6337 -0.3921
   30CHL1   H7A 3338   3.602   6.081   6.542 -0.2292  0.3418  1.0403
   30CHL1   H7B 3339   3.576   5.914   6.601 -1.3687 -0.8989  0.3095
   30CHL1    C8 3340   3.395   6.017   6.547  0.5235  0.2523  0.6642
   30CHL1    H8 3341   3.373   6.125   6.531 -1.6318 -0.2470 -0.1659
   30CHL1   C14 3342   3.392   5.942   6.410  0.6198  0.1623 -0.7657
   30CHL1   H14 3343   3.408   5.837   6.441 -0.7575  0.3448  0.6557
   30CHL1   C15 3344   3.498   5.974   6.311  0.0679  0.1113 -0.5580
   30CHL1  H15A 3345   3.524   6.082   6.314  0.9989 -0.1214  0.4226
   30CHL1  H15B 3346   3.592   5.918   6.332 -0.2278  0.0554  0.6563
   30CHL1   C16 3347   3.436   5.920   6.180 -0.5006  0.3705  0.7734
   30CHL1  H16A 3348   3.439   5.995   6.098 -1.9411  0.0879  0.4428
   30CHL1  H16B 3349   3.500   5.834   6.152 -1.9577 -0.1318 -1.2475
   30CHL1   C17 3350   3.291   5.878   6.205  0.1804 -0.4175 -0.0260
   30CHL1   H17 3351   3.293   5.769   6.225  0.6861 -0.4696 -0.3418
   30CHL1   C13 3352   3.255   5.946   6.340 -1.1120  0.6168  0.3843
   30CHL1   C18 3353   3.209   6.094   6.300  0.0751  0.9373 -0.1847
   30CHL1  H18A 3354   3.218   6.153   6.393 -1.8932  0.5905  0.2642
   30CHL1  H18B 3355   3.254   6.141   6.210 -0.0244 -0.2111 -0.8689
   30CHL1  H18C 3356   3.099   6.093   6.282 -0.1923 -1.3555  1.1499
   30CHL1   C12 3357   3.162   5.870   6.435 -0.2808  0.0803  0.0363
   30CHL1  H12A 3358   3.067   5.846   6.384 -0.4035 -0.5473  0.5511
   30CHL1  H12B 3359   3.212   5.773   6.457  2.8995  1.5278 -0.1556
   30CHL1   C11 3360   3.156   5.944   6.572  0.8373  1.0981 -0.4157
   30CHL1  H11A 3361   3.105   6.040   6.551  0.8505  1.6395  1.7326
   30CHL1  H11B 3362   3.085   5.880   6.628  1.3754  1.2896  0.5097
   30CHL1    C9 3363   3.291   5.962   6.648  0.0279 -0.1122 -0.1342
   30CHL1    H9 3364   3.328   5.859   6.667  1.0143  0.0219 -1.1964
   30CHL1   C10 3365   3.284   6.046   6.781  0.5790 -0.2834 -0.4572
   30CHL1   C19 3366   3.192   6.172   6.753 -0.0625  0.0536 -0.2167
   30CHL1  H19A 3367   3.229   6.223   6.661  0.0225 -0.7280 -0.6248
   30CHL1  H19B 3368   3.083   6.150   6.743 -0.3069  1.5946 -1.4804
   30CHL1  H19C 3369   3.196   6.239   6.842  1.4498 -1.5027  0.9309
   30CHL1    C1 3370   3.210   5.955   6.887 -0.2179  0.1004 -0.8323
   30CHL1   H1A 3371   3.104   5.942   6.856 -0.3881 -0.7233  0.0417
   30CHL1   H1B 3372   3.260   5.856   6.885  2.2087  1.2317 -0.1121
   30CHL1    C2 3373   3.216   6.012   7.033 -0.4501  0.0048  0.0644
   30CHL1   H2A 3374   3.154   5.961   7.111 -0.1998 -0.0652  0.2171
   30CHL1   H2B 3375   3.175   6.115   7.028  1.0088  0.6653  1.0395
   30CHL1   C20 3376   3.197   5.877   6.078  0.1822  0.5286 -0.6611
   30CHL1   H20 3377   3.171   5.980   6.042 -0.3920  0.9011  0.7750
   30CHL1   C21 3378   3.065   5.808   6.107  0.5601  0.1714 -0.2145
   30CHL1  H21A 3379   3.096   5.708   6.144 -3.3746 -0.4801  1.8313
   30CHL1  H21B 3380   3.007   5.798   6.013 -2.0673  0.9825  1.2177
   30CHL1  H21C 3381   2.998   5.863   6.177  2.0069  2.0651 -0.2425
   30CHL1   C22 3382   3.272   5.803   5.967 -0.2690  0.3917  0.3576
   30CHL1  H22A 3383   3.383   5.808   5.963 -0.1246 -2.2994 -0.9169
   30CHL1  H22B 3384   3.263   5.692   5.966 -0.8201  0.3561 -3.1706
   30CHL1   C23 3385   3.218   5.844   5.826 -0.1108 -0.3607 -0.1904
   30CHL1  H23A 3386   3.107   5.850   5.830 -0.0601  0.5402  0.1785
   30CHL1  H23B 3387   3.257   5.947   5.816 -0.9928 -0.0885 -0.8946
   30CHL1   C24 3388   3.278   5.769   5.705 -0.1205  0.4591  0.3104
   30CHL1  H24A 3389   3.387   5.789   5.702 -0.1068  0.4656  0.7426
   30CHL1  H24B 3390   3.274   5.661   5.732  3.4465  0.4630  1.3795
   30CHL1   C25 3391   3.209   5.781   5.569 -0.4173  0.5612 -0.0745
   30CHL1   H25 3392   3.266   5.719   5.496 -0.9937  1.8403 -1.6796
   30CHL1   C26 3393   3.069   5.724   5.575  0.6985  0.2862  0.1105
   30CHL1  H26A 3394   3.067   5.616   5.599  2.6196  0.4620  1.3002
   30CHL1  H26B 3395   3.006   5.777   5.650 -0.5356  0.7060 -1.1693
   30CHL1  H26C 3396   3.027   5.741   5.473  0.4848 -3.0063 -0.4479
   30CHL1   C27 3397   3.209   5.928   5.519  0.6134  0.8761  0.3005
   30CHL1  H27A 3398   3.310   5.974   5.524  0.1769  1.7260  1.5876
   30CHL1  H27B 3399   3.164   5.929   5.417  0.8975 -0.9705  0.1087
   30CHL1  H27C 3400   3.141   5.986   5.584  0.1475  0.9122 -0.2090
   31CHL1    C3 3401   3.479   4.989   6.915 -1.3930 -0.3014  0.5633
   31CHL1    H3 3402   3.571   4.932   6.942 -1.5077 -1.8413 -1.9173
   31CHL1    O3 3403   3.409   5.004   7.032 -0.5778 -0.0341 -0.6122
   31CHL1   H3' 3404   3.454   5.079   7.071 -1.0775 -0.3205  0.5901
   31CHL1    C4 3405   3.503   5.120   6.844 -0.0029 -0.1760 -0.6403
   31CHL1   H4A 3406   3.415   5.188   6.849  0.1050 -0.0584 -0.3155
   31CHL1   H4B 3407   3.582   5.168   6.906 -1.4599  0.2309  0.9912
   31CHL1    C5 3408   3.553   5.108   6.702  0.1457 -0.2278 -0.6449
   31CHL1    C6 3409   3.676   5.147   6.654  0.6947  0.4511  0.9339
   31CHL1    H6 3410   3.736   5.212   6.719  1.8252  1.8366 -1.3691
   31CHL1    C7 3411   3.727   5.133   6.511 -0.0196 -0.4704 -0.2188
   31CHL1   H7A 3412   3.775   5.228   6.481 -0.8874  0.1242  0.2487
   31CHL1   H7B 3413   3.802   5.051   6.500 -0.9074 -1.5450  1.2938
   31CHL1    C8 3414   3.616   5.099   6.412  0.0622  0.2897  0.7610
   31CHL1    H8 3415   3.558   5.192   6.395  4.0716  2.6310 -2.1563
   31CHL1   C14 3416   3.678   5.055   6.276 -0.3580 -0.8585  0.2504
   31CHL1   H14 3417   3.731   4.959   6.296 -0.7695 -0.8195  1.7000
   31CHL1   C15 3418   3.773   5.152   6.207 -0.3735 -0.4984 -0.6125
   31CHL1  H15A 3419   3.747   5.260   6.214  1.4517 -0.0013 -0.9148
   31CHL1  H15B 3420   3.875   5.153   6.251 -0.3628 -0.8387 -0.6220
   31CHL1   C16 3421   3.785   5.096   6.069  0.3817  0.0979  0.6409
   31CHL1  H16A 3422   3.759   5.179   6.001 -2.0626 -1.8439 -0.9588
   31CHL1  H16B 3423   3.883   5.051   6.041  0.2085 -2.1869  3.2309
   31CHL1   C17 3424   3.677   4.981   6.057 -0.1934  0.4185  0.2604
   31CHL1   H17 3425   3.712   4.878   6.081  0.3795  0.6830  0.5644
   31CHL1   C13 3426   3.577   5.011   6.170 -0.1444  0.8774 -0.7395
   31CHL1   C18 3427   3.482   5.129   6.133 -0.2352 -0.1434  0.3371
   31CHL1  H18A 3428   3.417   5.162   6.217 -0.3539  1.7586 -0.4690
   31CHL1  H18B 3429   3.540   5.208   6.081  0.2587 -1.1717 -0.7107
   31CHL1  H18C 3430   3.403   5.087   6.068 -0.1642 -1.3633  0.9936
   31CHL1   C12 3431   3.500   4.893   6.231 -0.8142  0.4228  0.0147
   31CHL1  H12A 3432   3.413   4.873   6.166 -0.4519  1.3147 -0.7625
   31CHL1  H12B 3433   3.568   4.805   6.229  0.7131  1.5449  0.1811
   31CHL1   C11 3434   3.433   4.924   6.367 -0.1713 -0.2514 -0.4174
   31CHL1  H11A 3435   3.349   4.992   6.341  1.0026  0.9940 -1.0534
   31CHL1  H11B 3436   3.403   4.820   6.393  2.1294 -1.5787 -2.6731
   31CHL1    C9 3437   3.534   4.987   6.472 -0.2192 -0.7220 -0.2654
   31CHL1    H9 3438   3.608   4.913   6.509 -1.0737 -0.9743  0.9934
   31CHL1   C10 3439   3.457   5.021   6.604 -0.6951  0.4703 -0.1244
   31CHL1   C19 3440   3.331   5.105   6.579  0.2815 -0.0620 -0.0376
   31CHL1  H19A 3441   3.262   5.033   6.531  0.0679  0.7259 -0.9376
   31CHL1  H19B 3442   3.274   5.155   6.660 -0.1841  1.5336 -1.2896
   31CHL1  H19C 3443   3.345   5.176   6.495  0.5827  0.7906  0.7210
   31CHL1    C1 3444   3.433   4.884   6.683  0.1988  0.1195  0.3448
   31CHL1   H1A 3445   3.347   4.829   6.641 -1.1729  2.0784  0.4418
   31CHL1   H1B 3446   3.520   4.815   6.677  1.2433  1.4934 -1.1108
   31CHL1    C2 3447   3.387   4.899   6.826  0.2377 -0.2400  0.3166
   31CHL1   H2A 3448   3.389   4.797   6.870 -2.5086 -1.4162 -1.9581
   31CHL1   H2B 3449   3.283   4.939   6.831  0.3449 -0.0653  4.2088
   31CHL1   C20 3450   3.635   4.973   5.908 -0.2159 -0.0955 -0.6242
   31CHL1   H20 3451   3.575   5.063   5.884 -0.4316  0.1518  0.7417
   31CHL1   C21 3452   3.554   4.851   5.889  0.2087 -0.6389  0.4922
   31CHL1  H21A 3453   3.615   4.763   5.921  0.7783 -0.7212 -0.7778
   31CHL1  H21B 3454   3.522   4.830   5.785  1.6765 -0.1872 -0.0760
   31CHL1  H21C 3455   3.469   4.852   5.960  1.5675  2.7387  2.2877
   31CHL1   C22 3456   3.757   4.967   5.812 -0.3660  0.2925 -0.2255
   31CHL1  H22A 3457   3.809   5.065   5.804 -0.6489  0.5157  0.5525
   31CHL1  H22B 3458   3.833   4.895   5.848 -2.8647 -1.4193  1.9843
   31CHL1   C23 3459   3.717   4.937   5.665  0.3706  0.3099  0.0767
   31CHL1  H23A 3460   3.720   4.827   5.651 -1.4900  0.2737 -0.2436
   31CHL1  H23B 3461   3.623   4.986   5.632  0.0408 -0.9939 -0.9920
   31CHL1   C24 3462   3.829   4.977   5.561 -0.1126 -0.4181 -0.3651
   31CHL1  H24A 3463   3.842   5.087   5.553 -0.0737 -0.4704 -1.1330
   31CHL1  H24B 3464   3.929   4.937   5.589  0.0724 -0.9220 -1.6711
   31CHL1   C25 3465   3.790   4.933   5.418  0.7157  0.6378  0.2965
   31CHL1   H25 3466   3.682   4.948   5.399  0.6898 -1.5563 -1.8652
   31CHL1   C26 3467   3.871   5.002   5.309  0.0208 -0.2312  0.6631
   31CHL1  H26A 3468   3.969   4.951   5.308 -0.9289 -2.1255  0.3504
   31CHL1  H26B 3469   3.820   4.992   5.211 -1.5254  0.2330  1.3845
   31CHL1  H26C 3470   3.868   5.113   5.323 -1.3617 -0.3481  1.5170
   31CHL1   C27 3471   3.803   4.771   5.400 -0.1797 -1.0133 -0.0351
   31CHL1  H27A 3472   3.904   4.743   5.436  0.1777  0.4653  0.1539
   31CHL1  H27B 3473   3.728   4.718   5.463 -0.9288 -1.6929 -1.4533
   31CHL1  H27C 3474   3.799   4.737   5.295  1.0848  1.7241 -1.0671
   32CHL1    C3 3475   3.763   2.247   6.531 -0.1164  0.1615 -0.0285
   32CHL1    H3 3476   3.829   2.159   6.513  2.1264  1.5619  0.9096
   32CHL1    O3 3477   3.759   2.268   6.665  0.2965  0.3511 -0.1445
   32CHL1   H3' 3478   3.682   2.324   6.672 -0.6601 -1.0996  1.4707
   32CHL1    C4 3479   3.821   2.372   6.464 -0.2503  0.6388  0.0705
   32CHL1   H4A 3480   3.764   2.463   6.490 -0.9782 -0.0674  1.0429
   32CHL1   H4B 3481   3.921   2.390   6.510 -0.3906  1.2285  0.1414
   32CHL1    C5 3482   3.824   2.343   6.316  0.5945  0.4032 -0.7184
   32CHL1    C6 3483   3.940   2.343   6.249 -0.5131 -0.2427  0.2276
   32CHL1    H6 3484   4.028   2.369   6.309  0.7585 -0.5610 -1.4405
   32CHL1    C7 3485   3.957   2.333   6.103  0.0422 -0.5161 -0.8751
   32CHL1   H7A 3486   4.020   2.418   6.069  0.5472 -0.5350 -0.0276
   32CHL1   H7B 3487   4.008   2.237   6.080 -0.9109 -1.1004 -0.6217
   32CHL1    C8 3488   3.818   2.354   6.029  0.6348 -0.2416 -0.3944
   32CHL1    H8 3489   3.798   2.463   6.036 -1.4579 -0.6695  1.5144
   32CHL1   C14 3490   3.834   2.311   5.882  0.8313  0.4170 -0.1321
   32CHL1   H14 3491   3.854   2.201   5.887 -0.3406  0.2389  2.0146
   32CHL1   C15 3492   3.952   2.360   5.801 -0.3913  0.1612  0.0904
   32CHL1  H15A 3493   3.958   2.469   5.824 -0.7714  0.7791 -2.4340
   32CHL1  H15B 3494   4.048   2.311   5.829  0.4689  0.6600 -1.7474
   32CHL1   C16 3495   3.918   2.330   5.658  0.4433 -0.7177  0.0858
   32CHL1  H16A 3496   3.923   2.430   5.610  0.9540 -1.3157 -1.1352
   32CHL1  H16B 3497   3.988   2.264   5.604  1.2277 -0.6476  0.9951
   32CHL1   C17 3498   3.773   2.277   5.664  0.3450  0.1025  0.2602
   32CHL1   H17 3499   3.783   2.167   5.658  2.2424  0.2435  0.2775
   32CHL1   C13 3500   3.711   2.324   5.795  0.0189 -0.3997  0.8297
   32CHL1   C18 3501   3.664   2.466   5.775 -0.7491  0.5874  0.0490
   32CHL1  H18A 3502   3.742   2.526   5.723 -0.6790 -0.2685 -0.8662
   32CHL1  H18B 3503   3.574   2.475   5.711 -1.1710 -0.1429  0.5282
   32CHL1  H18C 3504   3.652   2.501   5.880  0.7677 -2.4003  1.3696
   32CHL1   C12 3505   3.600   2.242   5.862  1.0196  0.4624  0.1207
   32CHL1  H12A 3506   3.502   2.266   5.815  0.9466  0.4476  0.2653
   32CHL1  H12B 3507   3.621   2.134   5.854  0.3342  0.4350 -2.0607
   32CHL1   C11 3508   3.582   2.272   6.015  0.0569 -0.5527  0.8161
   32CHL1  H11A 3509   3.522   2.365   6.021 -1.0621 -0.8486 -3.1081
   32CHL1  H11B 3510   3.525   2.185   6.054  0.9486 -1.3925  0.2923
   32CHL1    C9 3511   3.714   2.278   6.098  0.0081  0.0035  0.2111
   32CHL1    H9 3512   3.753   2.174   6.098 -0.5979 -0.2994  2.6495
   32CHL1   C10 3513   3.689   2.316   6.253  0.0503  0.2992  0.4161
   32CHL1   C19 3514   3.599   2.436   6.263  0.1348 -1.6846 -0.6362
   32CHL1  H19A 3515   3.643   2.524   6.213 -3.2846  1.0488  0.7869
   32CHL1  H19B 3516   3.502   2.422   6.211 -0.9332 -0.6613  0.9897
   32CHL1  H19C 3517   3.563   2.460   6.366 -0.3212 -0.4062 -1.0874
   32CHL1    C1 3518   3.633   2.193   6.328  0.2073 -0.4334  0.1043
   32CHL1   H1A 3519   3.533   2.155   6.298 -0.4003  1.3962 -0.3279
   32CHL1   H1B 3520   3.709   2.111   6.331 -0.0763 -0.7715 -1.5006
   32CHL1    C2 3521   3.624   2.213   6.483 -0.0649 -0.3358 -0.3751
   32CHL1   H2A 3522   3.588   2.117   6.525 -1.2185 -0.2177 -1.0677
   32CHL1   H2B 3523   3.556   2.297   6.509 -0.9832 -0.9288 -0.8220
   32CHL1   C20 3524   3.698   2.319   5.531  0.0512  0.1739  0.3591
   32CHL1   H20 3525   3.692   2.430   5.519 -0.5337  0.2458  1.1995
   32CHL1   C21 3526   3.559   2.252   5.536  0.0022 -0.0122 -0.2302
   32CHL1  H21A 3527   3.518   2.272   5.435  1.5915 -1.1057 -1.1267
   32CHL1  H21B 3528   3.498   2.300   5.616  1.1430  1.6694 -0.3222
   32CHL1  H21C 3529   3.558   2.144   5.563  1.0806  0.2337  0.8522
   32CHL1   C22 3530   3.767   2.276   5.408  0.3235  0.4635  0.7485
   32CHL1  H22A 3531   3.698   2.301   5.324  1.7131  0.0013 -0.5804
   32CHL1  H22B 3532   3.859   2.336   5.393 -0.5120  1.4403 -0.7111
   32CHL1   C23 3533   3.801   2.123   5.394 -0.3645  0.0407  0.1725
   32CHL1  H23A 3534   3.894   2.098   5.449 -0.8960 -3.4026 -0.2782
   32CHL1  H23B 3535   3.715   2.070   5.440  1.1033 -2.5708  0.1268
   32CHL1   C24 3536   3.829   2.082   5.254  0.3162  0.0716 -0.5035
   32CHL1  H24A 3537   3.765   2.141   5.184  0.5359  2.9827  1.5548
   32CHL1  H24B 3538   3.935   2.106   5.230  0.4426  0.2481  0.2188
   32CHL1   C25 3539   3.819   1.929   5.242  0.4747  0.7713 -0.1968
   32CHL1   H25 3540   3.717   1.901   5.275  0.3182  3.7155  2.2210
   32CHL1   C26 3541   3.829   1.893   5.091 -0.7877  0.0197 -0.7470
   32CHL1  H26A 3542   3.929   1.921   5.053  0.1276 -0.2321  1.3220
   32CHL1  H26B 3543   3.811   1.785   5.072  1.3637 -0.3343 -1.0440
   32CHL1  H26C 3544   3.759   1.952   5.029 -0.5033  0.0839 -1.0070
   32CHL1   C27 3545   3.925   1.848   5.324  0.2548 -0.2974 -0.4439
   32CHL1  H27A 3546   4.026   1.884   5.294  1.1337 -1.2458  1.2823
   32CHL1  H27B 3547   3.916   1.842   5.434 -1.7953 -0.8506 -0.6107
   32CHL1  H27C 3548   3.923   1.745   5.284 -0.1353  0.0921 -1.4695
   33CHL1    C3 3549   2.325   2.564   6.647 -0.0099  0.4795  0.5738
   33CHL1    H3 3550   2.302   2.655   6.587  0.1126  0.0023 -0.2063
   33CHL1    O3 3551   2.260   2.565   6.767  0.0795 -0.0744 -0.2869
   33CHL1   H3' 3552   2.279   2.654   6.796  0.0069  0.6158 -2.1683
   33CHL1    C4 3553   2.281   2.442   6.564 -0.2361  0.1979 -0.2621
   33CHL1   H4A 3554   2.306   2.346   6.614  0.2035  0.6548  0.4204
   33CHL1   H4B 3555   2.170   2.436   6.560 -0.1387 -2.3495 -1.2787
   33CHL1    C5 3556   2.343   2.462   6.427 -0.5576  0.6169 -0.4341
   33CHL1    C6 3557   2.274   2.483   6.315  0.9184 -0.4029 -0.1722
   33CHL1    H6 3558   2.166   2.506   6.310  1.4501  2.2921 -3.6653
   33CHL1    C7 3559   2.339   2.497   6.178 -0.6299 -0.0814 -0.3325
   33CHL1   H7A 3560   2.277   2.437   6.108 -0.2758 -0.9318  0.0663
   33CHL1   H7B 3561   2.344   2.602   6.141 -1.7452  0.0123 -0.2526
   33CHL1    C8 3562   2.478   2.441   6.167  0.5124  1.0096 -0.4357
   33CHL1    H8 3563   2.462   2.331   6.179  1.1287  0.8281 -1.2181
   33CHL1   C14 3564   2.549   2.467   6.034 -0.1977 -0.3822  0.2817
   33CHL1   H14 3565   2.553   2.578   6.025  0.2819 -0.3784  0.5431
   33CHL1   C15 3566   2.476   2.423   5.906 -0.4456  0.5504  0.4701
   33CHL1  H15A 3567   2.424   2.327   5.927 -2.2704  1.0309 -1.5501
   33CHL1  H15B 3568   2.396   2.492   5.873 -1.3445  0.0470  1.5552
   33CHL1   C16 3569   2.587   2.420   5.803 -0.4759  0.1080  0.5566
   33CHL1  H16A 3570   2.586   2.325   5.745 -0.0150 -0.4909  1.5106
   33CHL1  H16B 3571   2.575   2.499   5.726  3.8620  0.0729 -0.4136
   33CHL1   C17 3572   2.717   2.450   5.878 -0.3825  0.1137 -0.1761
   33CHL1   H17 3573   2.726   2.561   5.869  0.7801  0.1705  1.2985
   33CHL1   C13 3574   2.692   2.417   6.027 -0.1370 -0.4670  0.0886
   33CHL1   C18 3575   2.692   2.263   6.040  0.0380  0.8199  0.5053
   33CHL1  H18A 3576   2.640   2.226   5.949 -0.6390 -0.4349  1.3722
   33CHL1  H18B 3577   2.790   2.210   6.037 -0.5299 -0.2185 -0.6007
   33CHL1  H18C 3578   2.640   2.218   6.127  0.2552 -2.7336 -1.0144
   33CHL1   C12 3579   2.772   2.502   6.142  0.0277 -0.2576  0.5276
   33CHL1  H12A 3580   2.876   2.464   6.141 -0.1341 -0.7010  0.5273
   33CHL1  H12B 3581   2.771   2.612   6.126 -3.6236 -0.4009 -1.4636
   33CHL1   C11 3582   2.718   2.469   6.276  0.1195 -0.6864 -0.9507
   33CHL1  H11A 3583   2.737   2.361   6.289 -2.0280 -1.1047 -0.8183
   33CHL1  H11B 3584   2.765   2.527   6.358 -1.5039 -1.4815  0.6007
   33CHL1    C9 3585   2.565   2.490   6.292 -0.2481  0.8880  0.1484
   33CHL1    H9 3586   2.559   2.600   6.278  0.6173  1.3227  2.6096
   33CHL1   C10 3587   2.506   2.453   6.428  0.1793 -0.6511  0.5551
   33CHL1   C19 3588   2.547   2.315   6.462 -0.8062  0.8709  0.5065
   33CHL1  H19A 3589   2.508   2.278   6.560  1.8947  0.0451  1.3588
   33CHL1  H19B 3590   2.525   2.238   6.385 -0.3834 -2.1382  3.1585
   33CHL1  H19C 3591   2.656   2.300   6.478 -1.0836 -0.2922  1.5108
   33CHL1    C1 3592   2.558   2.557   6.534 -0.4452  0.8889  0.5551
   33CHL1   H1A 3593   2.663   2.531   6.559 -1.1672 -1.9555  0.9620
   33CHL1   H1B 3594   2.558   2.658   6.488 -0.4514  1.2915  1.4111
   33CHL1    C2 3595   2.478   2.561   6.669  0.0740  0.9470  0.3690
   33CHL1   H2A 3596   2.518   2.644   6.730  0.7917  0.8074  0.0977
   33CHL1   H2B 3597   2.519   2.469   6.715 -0.4325  0.1896 -0.6532
   33CHL1   C20 3598   2.835   2.376   5.815 -0.1661 -0.0880 -0.8403
   33CHL1   H20 3599   2.821   2.267   5.830  0.0204  0.1900  2.0608
   33CHL1   C21 3600   2.968   2.417   5.887  0.1471 -0.5548  0.0303
   33CHL1  H21A 3601   2.967   2.374   5.989  1.4369 -1.4439 -0.3070
   33CHL1  H21B 3602   2.978   2.526   5.905 -0.8882 -0.4625  0.1138
   33CHL1  H21C 3603   3.064   2.392   5.836  0.7576  1.3612  0.1825
   33CHL1   C22 3604   2.853   2.396   5.662 -0.4538 -0.5834 -0.3608
   33CHL1  H22A 3605   2.936   2.330   5.631 -0.4001 -0.3919 -0.6240
   33CHL1  H22B 3606   2.766   2.354   5.607  0.0906  0.0427 -1.7508
   33CHL1   C23 3607   2.863   2.547   5.622  0.3846  0.5898 -0.2099
   33CHL1  H23A 3608   2.766   2.600   5.638  0.9454  1.3759  0.7119
   33CHL1  H23B 3609   2.934   2.591   5.695  2.0315 -1.5385 -0.4457
   33CHL1   C24 3610   2.919   2.558   5.476  0.5927 -0.2774 -0.8746
   33CHL1  H24A 3611   3.029   2.544   5.467  0.6670 -0.1136 -0.2891
   33CHL1  H24B 3612   2.864   2.489   5.409 -0.3750 -1.2027  0.7778
   33CHL1   C25 3613   2.891   2.701   5.411 -0.1902  1.2895 -0.9780
   33CHL1   H25 3614   2.781   2.709   5.418 -0.3600 -0.8588 -0.2584
   33CHL1   C26 3615   2.947   2.827   5.482  0.0393 -0.1568 -0.2807
   33CHL1  H26A 3616   2.930   2.923   5.428  2.5833  0.3793 -0.2766
   33CHL1  H26B 3617   2.921   2.825   5.590 -1.5114  0.8790 -0.5937
   33CHL1  H26C 3618   3.057   2.813   5.474 -0.1162 -0.5520 -2.7864
   33CHL1   C27 3619   2.928   2.710   5.265  0.0856 -0.5245  0.0034
   33CHL1  H27A 3620   2.896   2.805   5.216  0.6840  0.8920  2.2183
   33CHL1  H27B 3621   3.038   2.695   5.257 -0.1287 -1.5743 -1.6548
   33CHL1  H27C 3622   2.885   2.633   5.197  1.2895 -0.7427 -0.5437
   34CHL1    C3 3623   3.468   3.902   6.735 -0.5030 -0.3304 -0.0292
   34CHL1    H3 3624   3.390   3.824   6.720  0.0725 -0.8441 -0.4154
   34CHL1    O3 3625   3.460   3.954   6.866 -0.5779  0.3722 -0.1471
   34CHL1   H3' 3626   3.471   3.875   6.919  1.8002  1.4053  1.0998
   34CHL1    C4 3627   3.608   3.856   6.729 -0.4836  0.7195 -0.1848
   34CHL1   H4A 3628   3.676   3.942   6.746  1.7367 -0.9072 -0.3917
   34CHL1   H4B 3629   3.639   3.785   6.807 -1.3872 -1.2923 -1.5748
   34CHL1    C5 3630   3.650   3.804   6.590  0.0861  0.2465 -0.3595
   34CHL1    C6 3631   3.700   3.688   6.560  0.5267  0.4478  0.0995
   34CHL1    H6 3632   3.715   3.613   6.638 -0.1137  0.8880  0.6539
   34CHL1    C7 3633   3.734   3.632   6.426 -0.2698 -0.0565  0.2107
   34CHL1   H7A 3634   3.833   3.581   6.427 -0.2970 -0.0962  1.1104
   34CHL1   H7B 3635   3.661   3.550   6.407 -1.6167  0.9084  1.0390
   34CHL1    C8 3636   3.747   3.743   6.316  1.1610 -0.3265 -0.6950
   34CHL1    H8 3637   3.840   3.798   6.343 -0.1097  1.8150 -0.4332
   34CHL1   C14 3638   3.746   3.682   6.176  1.0505 -0.4026 -0.5058
   34CHL1   H14 3639   3.651   3.625   6.187 -1.1407  2.7578 -1.4376
   34CHL1   C15 3640   3.855   3.576   6.143 -0.0023 -0.0965  0.2724
   34CHL1  H15A 3641   3.954   3.605   6.183  0.4253  1.1895 -1.5629
   34CHL1  H15B 3642   3.820   3.477   6.179  0.8562 -1.0004 -1.2490
   34CHL1   C16 3643   3.861   3.584   5.992  0.2734 -0.1587 -0.2492
   34CHL1  H16A 3644   3.968   3.602   5.970  0.9376  1.0127  3.3052
   34CHL1  H16B 3645   3.833   3.483   5.955  3.4712 -1.0971 -0.3493
   34CHL1   C17 3646   3.767   3.696   5.935 -0.2386  0.3050 -0.7531
   34CHL1   H17 3647   3.672   3.646   5.909  0.5101 -1.1376 -0.8295
   34CHL1   C13 3648   3.743   3.782   6.063 -0.0005 -0.1569 -0.4038
   34CHL1   C18 3649   3.863   3.884   6.077  0.0829  0.6112 -1.0235
   34CHL1  H18A 3650   3.955   3.826   6.054  0.0892  0.4874 -0.6985
   34CHL1  H18B 3651   3.864   3.975   6.015  2.9924  1.7795  0.5333
   34CHL1  H18C 3652   3.870   3.914   6.184  0.3090  1.9034 -1.3848
   34CHL1   C12 3653   3.610   3.858   6.074  0.1081  0.5242  0.1595
   34CHL1  H12A 3654   3.621   3.938   5.999  1.6028 -0.9571 -1.2815
   34CHL1  H12B 3655   3.524   3.791   6.053 -0.2704  1.1104 -0.1762
   34CHL1   C11 3656   3.602   3.936   6.214  0.0746  0.3776  0.6136
   34CHL1  H11A 3657   3.681   4.014   6.205  0.0851  0.2494 -0.6213
   34CHL1  H11B 3658   3.505   3.989   6.215  0.0974  0.4185  1.2540
   34CHL1    C9 3659   3.625   3.839   6.335 -0.5955  0.0510 -0.0268
   34CHL1    H9 3660   3.543   3.764   6.333  2.2680 -3.3760  0.5787
   34CHL1   C10 3661   3.625   3.906   6.476  0.3518  0.4553 -1.0166
   34CHL1   C19 3662   3.739   4.014   6.483  0.5340  0.8315 -0.0066
   34CHL1  H19A 3663   3.840   3.968   6.479  1.3284  2.4441  0.5017
   34CHL1  H19B 3664   3.727   4.086   6.399 -0.5232 -0.2170 -0.7923
   34CHL1  H19C 3665   3.734   4.069   6.579 -2.9255  0.7754 -0.0600
   34CHL1    C1 3666   3.482   3.977   6.494  0.4392  0.7924  0.2525
   34CHL1   H1A 3667   3.465   4.059   6.421 -0.8023 -1.3667 -2.0306
   34CHL1   H1B 3668   3.405   3.900   6.473  0.4893  0.8194 -0.0269
   34CHL1    C2 3669   3.451   4.022   6.637 -0.0864 -0.3507 -0.4556
   34CHL1   H2A 3670   3.348   4.058   6.657  1.1038  1.9804  2.3547
   34CHL1   H2B 3671   3.525   4.101   6.662  0.4254 -0.4654 -1.5747
   34CHL1   C20 3672   3.814   3.760   5.801 -0.1702 -0.1991  0.0750
   34CHL1   H20 3673   3.909   3.813   5.824  0.0506 -0.3707 -0.4205
   34CHL1   C21 3674   3.707   3.856   5.759 -0.4885 -0.3382 -0.3259
   34CHL1  H21A 3675   3.700   3.939   5.832 -2.2831 -1.9695  1.4823
   34CHL1  H21B 3676   3.614   3.795   5.758 -0.6237 -0.2255  1.7672
   34CHL1  H21C 3677   3.721   3.900   5.658  1.0753 -3.0910 -1.4474
   34CHL1   C22 3678   3.848   3.665   5.683  0.2648 -0.2515 -0.5360
   34CHL1  H22A 3679   3.923   3.588   5.709 -0.5813 -1.8815 -2.6670
   34CHL1  H22B 3680   3.759   3.610   5.647  0.8533 -0.0530 -2.4244
   34CHL1   C23 3681   3.912   3.731   5.554 -0.2346  0.1240  0.8004
   34CHL1  H23A 3682   3.924   3.649   5.481  1.5154  2.2760 -1.5142
   34CHL1  H23B 3683   3.852   3.812   5.507  1.6245  1.0693 -0.0514
   34CHL1   C24 3684   4.048   3.789   5.586  0.5680  0.1743 -0.3048
   34CHL1  H24A 3685   4.023   3.888   5.631  0.7054  0.2061 -0.2982
   34CHL1  H24B 3686   4.101   3.733   5.666 -0.8411 -0.3078  0.3295
   34CHL1   C25 3687   4.142   3.814   5.463  0.5762  0.2655 -0.3666
   34CHL1   H25 3688   4.074   3.850   5.383 -0.4472  0.3307  0.5046
   34CHL1   C26 3689   4.249   3.914   5.502  0.2781 -0.5968 -0.1461
   34CHL1  H26A 3690   4.319   3.864   5.572  0.0974  1.1115  1.3334
   34CHL1  H26B 3691   4.299   3.952   5.411 -2.5377 -1.7093 -2.3063
   34CHL1  H26C 3692   4.189   3.993   5.553 -3.4902 -1.9476 -2.0923
   34CHL1   C27 3693   4.202   3.676   5.426  0.1283 -0.0805 -0.2027
   34CHL1  H27A 3694   4.130   3.591   5.431 -0.4717  0.3062 -1.8007
   34CHL1  H27B 3695   4.239   3.678   5.322 -0.0757  0.6264 -0.2670
   34CHL1  H27C 3696   4.291   3.662   5.491 -0.6833 -0.4234  0.8746
   35CHL1    C3 3697   5.891   0.352   7.122 -0.4800  0.3445  0.6976
   35CHL1    H3 3698   5.995   0.322   7.098 -0.0904  2.2827 -0.3223
   35CHL1    O3 3699   5.886   0.359   7.264  0.1784 -0.8937 -0.0224
   35CHL1   H3' 3700   5.889   0.269   7.297  0.8011 -1.7671 -2.2525
   35CHL1    C4 3701   5.859   0.492   7.062 -0.3164 -0.3622 -0.4198
   35CHL1   H4A 3702   5.766   0.530   7.110 -0.5235 -2.6448  1.1366
   35CHL1   H4B 3703   5.940   0.562   7.091  0.0504  0.4659 -3.1563
   35CHL1    C5 3704   5.850   0.495   6.914  0.0398  0.2852  0.3431
   35CHL1    C6 3705   5.916   0.579   6.832  0.1120 -0.4207 -0.0231
   35CHL1    H6 3706   5.977   0.655   6.881  0.0589  0.1565 -0.8275
   35CHL1    C7 3707   5.901   0.583   6.683 -0.2820 -0.5382 -0.1906
   35CHL1   H7A 3708   5.880   0.685   6.643 -2.6008 -0.9972 -0.2856
   35CHL1   H7B 3709   5.998   0.552   6.638  0.7013 -0.3159  1.7080
   35CHL1    C8 3710   5.775   0.499   6.639  0.3026 -0.4001 -0.2440
   35CHL1    H8 3711   5.683   0.551   6.672  0.7830 -0.3785  1.1377
   35CHL1   C14 3712   5.766   0.495   6.490  1.0171 -0.1487  0.4744
   35CHL1   H14 3713   5.863   0.450   6.457  1.6263  1.0394  0.5974
   35CHL1   C15 3714   5.753   0.621   6.408 -0.0846  0.2812 -0.7292
   35CHL1  H15A 3715   5.670   0.682   6.450 -0.4813 -1.4048  1.0540
   35CHL1  H15B 3716   5.843   0.685   6.413  0.8456 -1.1065  1.9674
   35CHL1   C16 3717   5.728   0.568   6.260 -0.4832  0.5206 -0.5588
   35CHL1  H16A 3718   5.656   0.625   6.196 -1.5875  0.6248  0.7302
   35CHL1  H16B 3719   5.829   0.581   6.215  0.8099  1.4559  2.4021
   35CHL1   C17 3720   5.697   0.414   6.283  0.4267 -0.4409  0.2713
   35CHL1   H17 3721   5.794   0.362   6.270 -0.0126 -1.4167  0.7397
   35CHL1   C13 3722   5.660   0.394   6.431 -0.1404 -0.2605  1.2190
   35CHL1   C18 3723   5.514   0.448   6.448 -0.0711 -1.0714  0.1212
   35CHL1  H18A 3724   5.509   0.542   6.390  1.0005 -1.6060 -0.8998
   35CHL1  H18B 3725   5.431   0.385   6.410 -0.2913 -0.4870 -0.3627
   35CHL1  H18C 3726   5.498   0.475   6.555 -1.0674  1.4462 -0.6165
   35CHL1   C12 3727   5.678   0.249   6.487  0.0899 -0.1901 -0.3352
   35CHL1  H12A 3728   5.596   0.177   6.464 -1.7992  0.9961  2.1155
   35CHL1  H12B 3729   5.769   0.206   6.441  0.2615  1.4927 -1.6631
   35CHL1   C11 3730   5.675   0.257   6.642  1.0402 -0.0028 -0.3265
   35CHL1  H11A 3731   5.569   0.284   6.661  0.0641 -1.7995 -2.6473
   35CHL1  H11B 3732   5.694   0.155   6.681 -0.1486 -0.5796 -1.1788
   35CHL1    C9 3733   5.775   0.364   6.706  0.4263 -0.0952  0.1169
   35CHL1    H9 3734   5.874   0.321   6.683  1.0597  1.5403 -0.3460
   35CHL1   C10 3735   5.760   0.374   6.865 -0.1496  0.3835  0.2287
   35CHL1   C19 3736   5.610   0.407   6.896  0.3072  0.0857 -0.4817
   35CHL1  H19A 3737   5.580   0.505   6.851 -0.0626  0.2964  0.1985
   35CHL1  H19B 3738   5.546   0.327   6.853 -0.2161  0.0177  0.4015
   35CHL1  H19C 3739   5.585   0.410   7.004  0.7904  0.6560 -0.3765
   35CHL1    C1 3740   5.797   0.236   6.934 -0.3032 -0.7621  0.0718
   35CHL1   H1A 3741   5.727   0.154   6.907 -0.6135 -0.9269  1.3392
   35CHL1   H1B 3742   5.895   0.196   6.902  1.1484  0.5469  2.5592
   35CHL1    C2 3743   5.797   0.249   7.083 -0.3020 -0.0438 -0.2707
   35CHL1   H2A 3744   5.825   0.151   7.127  0.4388  0.3810  0.2255
   35CHL1   H2B 3745   5.701   0.270   7.134  0.5254  0.1003  1.2740
   35CHL1   C20 3746   5.605   0.354   6.165  0.1907 -0.2021 -0.4120
   35CHL1   H20 3747   5.507   0.406   6.167  1.2735  1.9478 -0.4078
   35CHL1   C21 3748   5.586   0.201   6.187  0.3561 -0.3044  0.0646
   35CHL1  H21A 3749   5.685   0.151   6.189  0.5330 -0.1676 -2.4824
   35CHL1  H21B 3750   5.539   0.162   6.094  0.2341  2.7566 -1.3044
   35CHL1  H21C 3751   5.528   0.175   6.278  1.3793 -0.8099  0.5851
   35CHL1   C22 3752   5.664   0.385   6.025 -1.2253  0.3976  0.1098
   35CHL1  H22A 3753   5.719   0.481   6.018 -1.9515  0.7854 -0.5154
   35CHL1  H22B 3754   5.740   0.304   6.015  0.7248  2.3726 -2.4186
   35CHL1   C23 3755   5.562   0.379   5.908 -0.0010 -0.1527 -0.1130
   35CHL1  H23A 3756   5.514   0.281   5.890 -1.2542 -0.3916  3.7045
   35CHL1  H23B 3757   5.483   0.453   5.932  0.9217  1.1354 -0.8714
   35CHL1   C24 3758   5.636   0.413   5.779  0.0244 -0.7105 -0.7820
   35CHL1  H24A 3759   5.713   0.488   5.806  0.1682 -1.5295  1.2014
   35CHL1  H24B 3760   5.700   0.330   5.744  1.0354  1.0536 -3.5587
   35CHL1   C25 3761   5.545   0.459   5.670 -0.4576  0.3371  0.6508
   35CHL1   H25 3762   5.465   0.382   5.674  1.9272 -2.2645  2.1193
   35CHL1   C26 3763   5.486   0.595   5.677  0.2192 -1.0486  0.1897
   35CHL1  H26A 3764   5.479   0.620   5.785  2.6887  0.7153  0.0268
   35CHL1  H26B 3765   5.530   0.677   5.616  0.0585 -1.5301 -0.5892
   35CHL1  H26C 3766   5.387   0.600   5.627  0.9107  0.5772 -1.1278
   35CHL1   C27 3767   5.629   0.442   5.537  0.3663  0.3954 -0.3379
   35CHL1  H27A 3768   5.726   0.496   5.538  1.9382 -2.2804 -0.5418
   35CHL1  H27B 3769   5.639   0.332   5.531 -0.8664 -0.0464  3.0733
   35CHL1  H27C 3770   5.568   0.471   5.449 -0.5295  0.4079  0.2649
   36CHL1    C3 3771   2.415   3.718   6.726 -0.3356  0.7398 -0.9497
   36CHL1    H3 3772   2.516   3.684   6.757 -1.5538 -1.7477  0.6402
   36CHL1    O3 3773   2.326   3.737   6.836  0.2237  0.2195  0.1493
   36CHL1   H3' 3774   2.276   3.810   6.798  1.2533  0.8048 -0.1113
   36CHL1    C4 3775   2.416   3.849   6.647  0.1822 -0.3463  0.2377
   36CHL1   H4A 3776   2.310   3.881   6.642  0.8637  2.2427  0.8575
   36CHL1   H4B 3777   2.472   3.923   6.709  0.7492 -0.8059  0.2893
   36CHL1    C5 3778   2.465   3.853   6.501 -0.3153  0.6659  0.9696
   36CHL1    C6 3779   2.541   3.959   6.458  0.8351 -0.0700 -0.2934
   36CHL1    H6 3780   2.563   4.046   6.520  0.3013  1.0139 -1.5713
   36CHL1    C7 3781   2.595   3.963   6.317  0.5179 -0.3712 -0.3786
   36CHL1   H7A 3782   2.569   4.058   6.268 -0.2680 -0.1740  0.3891
   36CHL1   H7B 3783   2.705   3.957   6.329  0.2568 -0.1566  4.0562
   36CHL1    C8 3784   2.539   3.849   6.221 -0.0352  0.5598 -0.7867
   36CHL1    H8 3785   2.440   3.881   6.182 -0.0589 -0.8553 -1.9789
   36CHL1   C14 3786   2.633   3.832   6.106 -0.1425 -0.5755 -0.5292
   36CHL1   H14 3787   2.732   3.804   6.149  0.7226  2.5806 -0.2569
   36CHL1   C15 3788   2.662   3.956   6.018 -0.3545 -0.2519  0.1935
   36CHL1  H15A 3789   2.566   4.001   5.983  0.0521  0.0156 -0.6097
   36CHL1  H15B 3790   2.717   4.037   6.072 -3.3589  2.3855 -0.3761
   36CHL1   C16 3791   2.727   3.893   5.891 -0.4230  0.5836  0.6190
   36CHL1  H16A 3792   2.659   3.911   5.805 -2.0214  0.4805  1.8028
   36CHL1  H16B 3793   2.832   3.926   5.876 -0.4738  0.7469  0.6155
   36CHL1   C17 3794   2.729   3.734   5.912  0.4197  0.1142  0.3281
   36CHL1   H17 3795   2.821   3.701   5.965 -0.4508 -1.3467  0.9770
   36CHL1   C13 3796   2.604   3.712   6.007  0.3387 -0.3496  0.2896
   36CHL1   C18 3797   2.468   3.720   5.928  0.0366  0.6284 -0.1850
   36CHL1  H18A 3798   2.457   3.630   5.864 -0.5142 -1.5610  2.7425
   36CHL1  H18B 3799   2.385   3.730   6.001 -0.4252  2.8425 -0.9584
   36CHL1  H18C 3800   2.453   3.807   5.860 -0.9381  0.7726  0.1993
   36CHL1   C12 3801   2.615   3.582   6.094 -0.2895  0.5970  0.6863
   36CHL1  H12A 3802   2.611   3.489   6.035  0.7617  0.8246  0.2221
   36CHL1  H12B 3803   2.714   3.589   6.146  0.3246  0.2909 -0.4135
   36CHL1   C11 3804   2.511   3.587   6.203 -0.0394  0.7910 -0.0344
   36CHL1  H11A 3805   2.407   3.582   6.164  0.2541  2.3558 -1.0873
   36CHL1  H11B 3806   2.519   3.492   6.260  0.3113 -0.2815 -1.7880
   36CHL1    C9 3807   2.530   3.713   6.293 -0.1355  0.0587 -0.9543
   36CHL1    H9 3808   2.630   3.697   6.340  0.0618 -0.2139 -1.4562
   36CHL1   C10 3809   2.437   3.722   6.417  0.1397 -0.0477 -0.3512
   36CHL1   C19 3810   2.293   3.727   6.358 -0.0022 -0.1314 -0.2389
   36CHL1  H19A 3811   2.271   3.793   6.272 -1.2212  1.8044  1.4523
   36CHL1  H19B 3812   2.259   3.622   6.346  1.2643 -0.4216 -1.5808
   36CHL1  H19C 3813   2.231   3.776   6.437 -2.2093 -1.9562 -0.7464
   36CHL1    C1 3814   2.465   3.601   6.508 -0.6322  0.2758  0.4059
   36CHL1   H1A 3815   2.446   3.505   6.456  0.0832 -0.7739  1.9840
   36CHL1   H1B 3816   2.573   3.597   6.534 -0.4175  0.5349 -0.4370
   36CHL1    C2 3817   2.375   3.602   6.631  1.0007  0.0385 -0.0263
   36CHL1   H2A 3818   2.365   3.507   6.689  0.3344 -1.1099 -1.9344
   36CHL1   H2B 3819   2.269   3.622   6.604  0.7573 -1.3158 -0.1861
   36CHL1   C20 3820   2.732   3.646   5.777  0.2760  0.1210 -1.1821
   36CHL1   H20 3821   2.644   3.688   5.724  0.5734  2.0892 -0.2081
   36CHL1   C21 3822   2.735   3.492   5.800 -0.7187 -0.4589 -0.0166
   36CHL1  H21A 3823   2.639   3.453   5.840 -2.0181  0.1771 -2.3114
   36CHL1  H21B 3824   2.821   3.456   5.860 -1.7442 -1.4626  0.9043
   36CHL1  H21C 3825   2.743   3.439   5.703 -0.9898 -1.8561  0.6977
   36CHL1   C22 3826   2.851   3.683   5.693 -0.1321 -0.1120  0.6036
   36CHL1  H22A 3827   2.882   3.785   5.725  0.7951  0.0182 -0.6423
   36CHL1  H22B 3828   2.941   3.622   5.715  0.3564  0.5610  0.5184
   36CHL1   C23 3829   2.819   3.675   5.541 -0.6521  0.0463 -0.1039
   36CHL1  H23A 3830   2.793   3.569   5.517 -0.7380 -0.0178  0.2777
   36CHL1  H23B 3831   2.738   3.746   5.516  1.1941  1.3830 -2.8359
   36CHL1   C24 3832   2.933   3.737   5.453 -0.6321  0.8532  0.4599
   36CHL1  H24A 3833   2.932   3.845   5.480 -1.5720  0.8071  0.6636
   36CHL1  H24B 3834   3.027   3.687   5.484 -0.6645  0.5431  0.0623
   36CHL1   C25 3835   2.910   3.721   5.302 -0.2913 -0.0694  0.5295
   36CHL1   H25 3836   2.874   3.617   5.287 -1.3348  0.5809 -2.0248
   36CHL1   C26 3837   2.804   3.817   5.253  0.8269  0.4722 -0.3344
   36CHL1  H26A 3838   2.707   3.774   5.284  0.4907 -1.0881 -3.1640
   36CHL1  H26B 3839   2.821   3.919   5.294 -1.0705  0.1065  1.5021
   36CHL1  H26C 3840   2.816   3.840   5.145  0.1101  2.2542 -0.0566
   36CHL1   C27 3841   3.043   3.738   5.225  1.1954 -0.5464  0.3451
   36CHL1  H27A 3842   3.070   3.845   5.238 -3.1067  0.7134  0.4968
   36CHL1  H27B 3843   3.116   3.666   5.266 -1.4001 -3.8866 -0.4791
   36CHL1  H27C 3844   3.025   3.716   5.117 -0.0165 -0.8590  0.6012
   37CHL1    C3 3845   1.714   6.226   6.683  0.8396 -0.0081  0.5024
   37CHL1    H3 3846   1.821   6.249   6.665  0.2910  2.3858 -0.0443
   37CHL1    O3 3847   1.693   6.142   6.792  0.1543  0.4880  0.3476
   37CHL1   H3' 3848   1.745   6.062   6.780 -0.4778  0.1831 -0.4821
   37CHL1    C4 3849   1.641   6.358   6.704  0.0729 -0.0459 -0.5709
   37CHL1   H4A 3850   1.534   6.342   6.727 -0.2272  1.7705 -0.5621
   37CHL1   H4B 3851   1.679   6.401   6.799 -3.4254  0.5519  0.6935
   37CHL1    C5 3852   1.646   6.447   6.581 -0.0503 -0.0574  0.3338
   37CHL1    C6 3853   1.675   6.578   6.584 -0.5723 -0.0510 -0.5284
   37CHL1    H6 3854   1.710   6.613   6.682  0.0757 -2.2998  0.1053
   37CHL1    C7 3855   1.664   6.676   6.473  0.2827  0.7182 -0.3174
   37CHL1   H7A 3856   1.606   6.765   6.508 -3.5556 -1.5642 -0.3456
   37CHL1   H7B 3857   1.768   6.706   6.446  0.1343  1.2190 -0.3454
   37CHL1    C8 3858   1.598   6.608   6.348  0.2740 -0.5121 -0.1961
   37CHL1    H8 3859   1.492   6.596   6.376  0.7240  0.4350  2.1394
   37CHL1   C14 3860   1.613   6.693   6.211  0.0328  0.9751  0.6881
   37CHL1   H14 3861   1.720   6.668   6.193 -0.1943  0.5610 -0.1527
   37CHL1   C15 3862   1.587   6.845   6.204  0.0217  0.0119  0.5467
   37CHL1  H15A 3863   1.480   6.872   6.216 -0.5676 -1.0636 -1.6900
   37CHL1  H15B 3864   1.649   6.895   6.281  1.1356 -0.0460 -0.2932
   37CHL1   C16 3865   1.616   6.874   6.057  0.2344  0.0139  0.5862
   37CHL1  H16A 3866   1.546   6.951   6.019 -1.8334 -0.7590  2.5694
   37CHL1  H16B 3867   1.721   6.907   6.046  0.6552 -1.4720 -0.1106
   37CHL1   C17 3868   1.598   6.738   5.980 -0.5034 -0.8604  0.3006
   37CHL1   H17 3869   1.704   6.710   5.961 -0.8169 -1.3427 -0.8512
   37CHL1   C13 3870   1.549   6.634   6.087 -0.1474 -0.8358  1.1426
   37CHL1   C18 3871   1.396   6.636   6.109 -0.7691 -0.3724 -0.2981
   37CHL1  H18A 3872   1.372   6.583   6.203  1.3818 -0.1913  0.4197
   37CHL1  H18B 3873   1.352   6.738   6.099  1.3705  0.7008  0.5028
   37CHL1  H18C 3874   1.346   6.573   6.032  0.0384  1.4151 -2.4037
   37CHL1   C12 3875   1.603   6.491   6.061  0.9106 -0.6851  0.0134
   37CHL1  H12A 3876   1.568   6.434   5.972 -0.3601 -1.0548  0.7175
   37CHL1  H12B 3877   1.713   6.501   6.052  0.6568  1.6949 -1.2992
   37CHL1   C11 3878   1.589   6.403   6.190  0.1660  0.0667 -0.3118
   37CHL1  H11A 3879   1.479   6.392   6.206  0.1250 -3.1094 -1.8662
   37CHL1  H11B 3880   1.619   6.302   6.155 -0.9745 -0.1988 -0.5858
   37CHL1    C9 3881   1.646   6.467   6.323 -0.6858  0.4541  0.0916
   37CHL1    H9 3882   1.757   6.467   6.328 -0.6556  3.1754  1.5087
   37CHL1   C10 3883   1.615   6.376   6.448 -0.0332 -0.0899 -0.3583
   37CHL1   C19 3884   1.460   6.337   6.441  0.2513 -0.8552 -0.1976
   37CHL1  H19A 3885   1.397   6.428   6.428  2.1985  0.5850 -0.1894
   37CHL1  H19B 3886   1.438   6.262   6.362  0.7341  0.8593 -2.0698
   37CHL1  H19C 3887   1.434   6.292   6.539 -0.1535  1.3410  0.7589
   37CHL1    C1 3888   1.694   6.244   6.439  0.5426 -0.3962 -0.0625
   37CHL1   H1A 3889   1.650   6.190   6.352 -1.4535 -1.3876  1.4790
   37CHL1   H1B 3890   1.802   6.263   6.417  0.5212  0.0498  0.2134
   37CHL1    C2 3891   1.669   6.153   6.554 -0.4993  0.6622  0.1528
   37CHL1   H2A 3892   1.736   6.064   6.548  0.6914  1.3071  2.6313
   37CHL1   H2B 3893   1.568   6.110   6.570 -0.8879  1.5395  0.0708
   37CHL1   C20 3894   1.521   6.752   5.846  0.1297  0.3211 -0.4103
   37CHL1   H20 3895   1.421   6.782   5.884  0.3412  0.2857  0.1731
   37CHL1   C21 3896   1.492   6.612   5.784  0.0208 -0.6179  0.6252
   37CHL1  H21A 3897   1.414   6.562   5.846 -1.3696  2.7840  1.8723
   37CHL1  H21B 3898   1.587   6.554   5.789 -0.2875 -1.5047 -2.2996
   37CHL1  H21C 3899   1.463   6.614   5.677  1.2255 -0.1583  0.2874
   37CHL1   C22 3900   1.576   6.860   5.740  0.3362 -0.2021 -0.4324
   37CHL1  H22A 3901   1.614   6.946   5.799 -2.3693 -1.1547  3.0273
   37CHL1  H22B 3902   1.659   6.804   5.692  2.6015  1.4161  1.3535
   37CHL1   C23 3903   1.474   6.904   5.630 -0.2668 -0.1990  0.4508
   37CHL1  H23A 3904   1.434   6.814   5.578 -0.1128  0.4460 -0.8232
   37CHL1  H23B 3905   1.396   6.958   5.687 -0.7187 -0.7682  0.3839
   37CHL1   C24 3906   1.546   7.011   5.540 -0.0045 -0.1066  0.0414
   37CHL1  H24A 3907   1.599   7.079   5.609 -0.0550  0.9893 -0.9814
   37CHL1  H24B 3908   1.624   6.951   5.488  1.0302 -0.8948  2.3712
   37CHL1   C25 3909   1.451   7.089   5.442  0.2301 -0.7392 -0.6980
   37CHL1   H25 3910   1.383   7.151   5.505 -1.1622 -1.1204 -1.7697
   37CHL1   C26 3911   1.525   7.182   5.342 -0.0599 -0.0154  0.3797
   37CHL1  H26A 3912   1.574   7.267   5.394  2.8308 -1.0267 -0.4471
   37CHL1  H26B 3913   1.595   7.122   5.279 -0.2410 -1.4472  1.4738
   37CHL1  H26C 3914   1.458   7.230   5.268  1.3584  2.1993  0.4295
   37CHL1   C27 3915   1.361   6.992   5.360  0.2378  0.0704 -0.7487
   37CHL1  H27A 3916   1.431   6.929   5.301 -0.2689 -1.0191 -0.2127
   37CHL1  H27B 3917   1.301   6.914   5.411 -1.9195  0.3436 -2.6858
   37CHL1  H27C 3918   1.297   7.052   5.292 -0.6038 -2.9585 -2.8268
   38CHL1    C3 3919   4.253   0.486   6.996  0.7267 -0.5399  0.2196
   38CHL1    H3 3920   4.230   0.378   6.994 -1.4853 -0.1128 -2.2098
   38CHL1    O3 3921   4.298   0.534   7.123  0.1550  0.0528 -0.1598
   38CHL1   H3' 3922   4.289   0.629   7.120  0.3304  0.1775  1.8745
   38CHL1    C4 3923   4.350   0.519   6.885 -0.2567 -0.4510  0.3062
   38CHL1   H4A 3924   4.387   0.623   6.900 -0.2552 -0.4771  0.4864
   38CHL1   H4B 3925   4.437   0.452   6.900 -1.1536 -2.2558 -1.9407
   38CHL1    C5 3926   4.289   0.495   6.746 -0.4908  0.2464  0.9033
   38CHL1    C6 3927   4.356   0.407   6.665 -0.0990  0.2605  0.5252
   38CHL1    H6 3928   4.451   0.365   6.701  0.0748 -0.3199 -0.5817
   38CHL1    C7 3929   4.300   0.371   6.528 -0.7504  0.3475  0.2104
   38CHL1   H7A 3930   4.384   0.381   6.455 -0.0515 -0.7765  0.8248
   38CHL1   H7B 3931   4.255   0.273   6.502  0.6451  0.5179 -3.4206
   38CHL1    C8 3932   4.206   0.482   6.473  0.6335 -0.3803 -0.4674
   38CHL1    H8 3933   4.254   0.582   6.463  0.1895  0.0452  1.3339
   38CHL1   C14 3934   4.142   0.424   6.345 -0.3519  0.2579  0.1481
   38CHL1   H14 3935   4.090   0.329   6.369 -1.7835  0.3507 -2.2587
   38CHL1   C15 3936   4.231   0.381   6.227  0.1159  0.2599  0.2764
   38CHL1  H15A 3937   4.305   0.460   6.201  1.2599 -1.5483 -2.4163
   38CHL1  H15B 3938   4.298   0.296   6.255  1.1448  0.1001 -2.3710
   38CHL1   C16 3939   4.132   0.368   6.102  0.4228  0.2749  0.0459
   38CHL1  H16A 3940   4.180   0.431   6.024 -2.1217 -0.1018 -1.9450
   38CHL1  H16B 3941   4.113   0.269   6.056 -0.2310 -0.1504  1.1861
   38CHL1   C17 3942   4.000   0.426   6.160 -0.0349 -0.6663 -0.4818
   38CHL1   H17 3943   3.938   0.346   6.204  0.6442 -0.8460  0.1676
   38CHL1   C13 3944   4.026   0.509   6.292  0.2698  0.8970 -0.1933
   38CHL1   C18 3945   4.086   0.644   6.256 -0.4818  0.0696  0.1815
   38CHL1  H18A 3946   4.016   0.715   6.207 -0.2267  0.3702  0.2516
   38CHL1  H18B 3947   4.132   0.692   6.345 -0.1431  1.0100 -0.4842
   38CHL1  H18C 3948   4.172   0.639   6.187 -1.4780  0.9169 -1.1672
   38CHL1   C12 3949   3.912   0.515   6.396 -0.2418 -0.0203 -0.4621
   38CHL1  H12A 3950   3.825   0.575   6.363  0.2187  0.3189 -1.0796
   38CHL1  H12B 3951   3.884   0.411   6.425 -1.6529  0.7125  0.9767
   38CHL1   C11 3952   3.972   0.592   6.514 -0.1839 -0.3234  0.4832
   38CHL1  H11A 3953   4.011   0.695   6.499  1.2282 -0.5801  2.0524
   38CHL1  H11B 3954   3.892   0.589   6.591 -0.4519 -0.9451  0.1909
   38CHL1    C9 3955   4.097   0.515   6.576 -0.4839  0.1853  0.4010
   38CHL1    H9 3956   4.059   0.414   6.603 -1.8914 -0.0606 -2.1264
   38CHL1   C10 3957   4.165   0.570   6.712  0.8357  0.8049  0.1980
   38CHL1   C19 3958   4.184   0.720   6.699 -0.3533  0.3319  0.9111
   38CHL1  H19A 3959   4.222   0.766   6.793 -0.5330 -0.7623  1.5353
   38CHL1  H19B 3960   4.268   0.745   6.630  1.6164  1.2610  3.4645
   38CHL1  H19C 3961   4.088   0.764   6.666 -0.3629  0.3316  0.9388
   38CHL1    C1 3962   4.066   0.544   6.829  0.8462 -0.2559 -0.3385
   38CHL1   H1A 3963   3.995   0.629   6.829 -0.1051 -1.0386 -0.0652
   38CHL1   H1B 3964   4.009   0.451   6.811  0.0041  0.4937 -1.6145
   38CHL1    C2 3965   4.117   0.557   6.969 -0.7033  0.3522 -0.7463
   38CHL1   H2A 3966   4.039   0.508   7.030  1.0117 -2.9819 -0.9891
   38CHL1   H2B 3967   4.123   0.668   6.979 -1.4355  0.2636  0.9391
   38CHL1   C20 3968   3.905   0.495   6.069  0.3399  0.1409  0.0100
   38CHL1   H20 3969   3.886   0.600   6.100 -3.8615  0.2225 -2.0440
   38CHL1   C21 3970   3.769   0.419   6.082 -0.0100 -0.0447  0.5600
   38CHL1  H21A 3971   3.774   0.319   6.033  0.8974  0.0251  0.4835
   38CHL1  H21B 3972   3.694   0.481   6.029  1.7530  1.7063 -0.0420
   38CHL1  H21C 3973   3.740   0.412   6.189  0.7886  1.9280  0.9429
   38CHL1   C22 3974   3.948   0.507   5.923 -0.0040 -0.2683  0.3892
   38CHL1  H22A 3975   4.044   0.562   5.921 -0.0964 -0.0970 -1.4077
   38CHL1  H22B 3976   3.972   0.412   5.870 -1.8174 -0.0775 -0.8920
   38CHL1   C23 3977   3.845   0.574   5.828 -0.1770 -0.1600 -0.0808
   38CHL1  H23A 3978   3.747   0.520   5.834 -0.1289 -0.2510 -0.1100
   38CHL1  H23B 3979   3.835   0.675   5.872 -1.0785 -0.8674  1.4637
   38CHL1   C24 3980   3.882   0.572   5.681 -0.1264  0.5596  0.7714
   38CHL1  H24A 3981   3.808   0.641   5.635  0.4857 -0.4973 -2.0154
   38CHL1  H24B 3982   3.986   0.607   5.665  0.3992 -0.9257  0.8105
   38CHL1   C25 3983   3.862   0.433   5.597  0.1520  0.1249 -0.0679
   38CHL1   H25 3984   3.948   0.373   5.632 -0.5509 -0.7168  0.2767
   38CHL1   C26 3985   3.736   0.346   5.635 -0.2331  0.2789  0.5297
   38CHL1  H26A 3986   3.719   0.261   5.566 -1.7337  2.0037 -1.3577
   38CHL1  H26B 3987   3.743   0.314   5.741  0.9418  1.3344  0.8099
   38CHL1  H26C 3988   3.647   0.411   5.623 -0.3602  0.0749  0.3570
   38CHL1   C27 3989   3.862   0.453   5.445  0.0101 -0.2147  0.3589
   38CHL1  H27A 3990   3.760   0.483   5.413  0.0021  4.0801  3.5135
   38CHL1  H27B 3991   3.934   0.533   5.418 -0.1647 -0.3187 -0.4322
   38CHL1  H27C 3992   3.887   0.357   5.395 -0.3731  0.0276 -0.3087
   39CHL1    C3 3993   4.444   1.129   6.603  0.0314 -0.0913  0.2038
   39CHL1    H3 3994   4.406   1.233   6.594 -0.1208  0.0187  1.8317
   39CHL1    O3 3995   4.509   1.110   6.727  0.8876  0.3428  0.0809
   39CHL1   H3' 3996   4.587   1.165   6.725  0.6336  0.8088 -3.2672
   39CHL1    C4 3997   4.330   1.025   6.587 -0.4046 -0.1645  0.3958
   39CHL1   H4A 3998   4.373   0.923   6.589  0.0457  0.0444  1.8539
   39CHL1   H4B 3999   4.256   1.028   6.670 -0.3315 -0.4680  0.4715
   39CHL1    C5 4000   4.270   1.032   6.442 -0.7675 -0.0849  0.4006
   39CHL1    C6 4001   4.142   1.067   6.424 -0.5048 -0.4045 -0.3270
   39CHL1    H6 4002   4.073   1.081   6.508 -0.0760  0.3323 -0.0875
   39CHL1    C7 4003   4.071   1.078   6.295 -0.3903  0.0287 -0.7990
   39CHL1   H7A 4004   3.977   1.019   6.292 -0.8258  0.4904  1.6255
   39CHL1   H7B 4005   4.035   1.177   6.262  0.7178  0.1212 -1.7967
   39CHL1    C8 4006   4.162   1.014   6.182  0.1337  0.8912  0.1384
   39CHL1    H8 4007   4.148   0.905   6.198 -0.5799  1.2622  2.3746
   39CHL1   C14 4008   4.099   1.048   6.050  0.3001 -0.5966 -0.4291
   39CHL1   H14 4009   4.100   1.159   6.048 -0.4479 -0.5864 -0.4245
   39CHL1   C15 4010   3.953   0.996   6.029 -0.6833  0.1113  0.3225
   39CHL1  H15A 4011   3.936   0.888   6.048 -1.2671  0.1262 -0.0720
   39CHL1  H15B 4012   3.875   1.061   6.074 -1.7779  0.0516 -1.3908
   39CHL1   C16 4013   3.933   1.013   5.875 -0.5428  0.0951  0.5011
   39CHL1  H16A 4014   3.887   0.921   5.833  1.3036 -0.4400 -0.4757
   39CHL1  H16B 4015   3.867   1.096   5.843  2.0319  1.9828 -0.3053
   39CHL1   C17 4016   4.076   1.036   5.807 -0.7377  0.4138  0.0572
   39CHL1   H17 4017   4.086   1.146   5.798  1.5865  0.1978 -0.6281
   39CHL1   C13 4018   4.170   0.994   5.932  0.0347  0.0819  0.7561
   39CHL1   C18 4019   4.187   0.844   5.933 -0.3985  0.7176 -0.3245
   39CHL1  H18A 4020   4.241   0.803   5.846  0.9149 -2.0126  1.6358
   39CHL1  H18B 4021   4.247   0.809   6.020  0.3705 -0.4461 -1.2847
   39CHL1  H18C 4022   4.086   0.796   5.937 -0.4423  0.8354  0.0719
   39CHL1   C12 4023   4.313   1.055   5.930 -0.6418 -0.2921 -0.0554
   39CHL1  H12A 4024   4.360   1.023   5.835 -1.3886 -2.6989  0.3046
   39CHL1  H12B 4025   4.293   1.164   5.922 -3.3999 -0.7936 -1.3767
   39CHL1   C11 4026   4.392   1.030   6.059 -0.2125 -0.6855 -0.0186
   39CHL1  H11A 4027   4.424   0.924   6.059  0.6521 -0.4475  1.0885
   39CHL1  H11B 4028   4.480   1.097   6.055 -0.8185  0.1067 -0.4598
   39CHL1    C9 4029   4.306   1.070   6.190 -0.4892 -0.1275 -0.0846
   39CHL1    H9 4030   4.290   1.179   6.181 -0.6429 -0.1346  0.0975
   39CHL1   C10 4031   4.373   1.017   6.325  0.1924  0.3724  0.5052
   39CHL1   C19 4032   4.417   0.867   6.319  0.1176  0.4047  0.9298
   39CHL1  H19A 4033   4.325   0.810   6.293 -1.6547  3.1774  0.7681
   39CHL1  H19B 4034   4.494   0.852   6.240  0.5338 -0.1116  1.4194
   39CHL1  H19C 4035   4.457   0.822   6.412 -1.0819 -0.5190  1.0286
   39CHL1    C1 4036   4.496   1.111   6.354 -0.4136 -0.1519  0.1665
   39CHL1   H1A 4037   4.573   1.095   6.276 -0.2161 -1.6440  0.6485
   39CHL1   H1B 4038   4.450   1.212   6.346 -1.1686 -0.4160  0.9577
   39CHL1    C2 4039   4.554   1.099   6.502  0.6331  0.2811 -0.0375
   39CHL1   H2A 4040   4.650   1.152   6.518  1.1812 -0.6524 -0.1762
   39CHL1   H2B 4041   4.590   0.995   6.513 -0.0210 -0.1343 -1.5869
   39CHL1   C20 4042   4.083   0.971   5.664  0.5864  0.1186 -0.4431
   39CHL1   H20 4043   4.051   0.866   5.683  0.9298  0.2090  0.7314
   39CHL1   C21 4044   4.229   0.976   5.616 -0.3979  0.3036  0.6836
   39CHL1  H21A 4045   4.266   1.081   5.616 -1.2481  0.6837  3.2768
   39CHL1  H21B 4046   4.238   0.923   5.519 -2.7394 -0.0383  0.5876
   39CHL1  H21C 4047   4.298   0.911   5.674 -1.7338 -0.1861  1.7836
   39CHL1   C22 4048   3.983   1.039   5.560  0.0895 -0.1547  0.3045
   39CHL1  H22A 4049   3.889   1.064   5.614  0.5760  3.5154 -0.3175
   39CHL1  H22B 4050   4.028   1.138   5.542  1.2323 -0.5106  1.0529
   39CHL1   C23 4051   3.962   0.946   5.436  0.2405  0.7331 -0.2833
   39CHL1  H23A 4052   4.056   0.937   5.377  0.0651  0.2981 -0.4974
   39CHL1  H23B 4053   3.936   0.840   5.453 -0.1422  0.0887 -3.9958
   39CHL1   C24 4054   3.853   1.004   5.337  0.0615 -0.2996 -0.3588
   39CHL1  H24A 4055   3.766   1.021   5.405  0.9243 -0.9678  0.9579
   39CHL1  H24B 4056   3.887   1.095   5.283 -0.3321 -1.6846 -3.1004
   39CHL1   C25 4057   3.809   0.920   5.219  0.4992  0.3005 -0.2065
   39CHL1   H25 4058   3.774   0.822   5.258 -1.5734  1.4984  1.1284
   39CHL1   C26 4059   3.700   0.988   5.148  0.0189 -0.1547 -0.2503
   39CHL1  H26A 4060   3.606   1.000   5.205  0.3005  0.5043  0.0879
   39CHL1  H26B 4061   3.729   1.090   5.115 -0.1879 -0.7744 -2.5091
   39CHL1  H26C 4062   3.677   0.924   5.060  1.0220 -1.4235  0.3710
   39CHL1   C27 4063   3.925   0.894   5.115 -0.3514  0.0661 -0.0594
   39CHL1  H27A 4064   3.962   0.986   5.064 -1.1788  0.2874 -0.2739
   39CHL1  H27B 4065   4.019   0.864   5.166  0.9604  0.4232 -2.1338
   39CHL1  H27C 4066   3.893   0.817   5.042 -0.3216  0.0398 -0.0447
   40CHL1    C3 4067   5.642   6.751   7.318  0.3482  0.3863 -0.2047
   40CHL1    H3 4068   5.703   6.820   7.256 -1.3093  0.1028 -2.3064
   40CHL1    O3 4069   5.668   6.760   7.458 -0.2866  0.5957  0.2168
   40CHL1   H3' 4070   5.590   6.739   7.509  0.1137  0.5244  0.8081
   40CHL1    C4 4071   5.495   6.790   7.288 -0.0144  0.5081 -0.9873
   40CHL1   H4A 4072   5.425   6.722   7.341  0.2613  0.6602 -0.4174
   40CHL1   H4B 4073   5.473   6.886   7.339 -0.7101  0.0079 -0.3218
   40CHL1    C5 4074   5.463   6.782   7.145  0.2799  0.2844  0.9575
   40CHL1    C6 4075   5.416   6.890   7.078  0.3389  0.0304 -0.0875
   40CHL1    H6 4076   5.409   6.988   7.128 -0.0893 -0.6942  1.3106
   40CHL1    C7 4077   5.397   6.891   6.934 -0.1126  0.2016  0.2117
   40CHL1   H7A 4078   5.298   6.936   6.914 -0.5227  1.4410  4.1354
   40CHL1   H7B 4079   5.482   6.957   6.906  1.6452 -1.8226  0.5195
   40CHL1    C8 4080   5.416   6.755   6.863  1.0296 -0.7280  0.4289
   40CHL1    H8 4081   5.326   6.693   6.882  1.3498 -1.2263  0.3609
   40CHL1   C14 4082   5.424   6.769   6.712  0.3486 -0.9245  0.1174
   40CHL1   H14 4083   5.527   6.811   6.714  0.7960 -1.9394  1.8880
   40CHL1   C15 4084   5.319   6.854   6.636  0.3338  0.8996 -0.3683
   40CHL1  H15A 4085   5.214   6.840   6.671  0.7772 -1.8266  0.0505
   40CHL1  H15B 4086   5.343   6.962   6.649 -3.5115  1.9770 -0.9096
   40CHL1   C16 4087   5.331   6.802   6.487 -0.3410 -0.0064 -1.0969
   40CHL1  H16A 4088   5.238   6.753   6.453 -0.7729 -0.1697  0.2655
   40CHL1  H16B 4089   5.355   6.897   6.434 -0.6039  2.7488  3.1826
   40CHL1   C17 4090   5.445   6.701   6.482 -0.4720  0.3012  0.1469
   40CHL1   H17 4091   5.542   6.756   6.489  0.0174 -0.5659  0.2783
   40CHL1   C13 4092   5.439   6.644   6.626  0.3233  0.8141 -0.0655
   40CHL1   C18 4093   5.310   6.558   6.648 -0.1532 -0.6099  0.5151
   40CHL1  H18A 4094   5.330   6.465   6.591 -1.5323 -1.0544  0.7076
   40CHL1  H18B 4095   5.299   6.533   6.756  2.6098 -0.3676  0.9189
   40CHL1  H18C 4096   5.222   6.610   6.603  0.7150 -0.0188 -0.5270
   40CHL1   C12 4097   5.564   6.573   6.683  0.6674  0.4012 -0.1633
   40CHL1  H12A 4098   5.577   6.471   6.640 -0.3426 -0.3632  1.3042
   40CHL1  H12B 4099   5.657   6.627   6.655 -0.3482  1.1522 -2.3789
   40CHL1   C11 4100   5.558   6.552   6.837 -0.5155  0.4614  0.3254
   40CHL1  H11A 4101   5.489   6.467   6.853  0.0054 -0.0227  0.0273
   40CHL1  H11B 4102   5.659   6.514   6.860 -0.2947 -0.0844 -1.3610
   40CHL1    C9 4103   5.531   6.681   6.920  0.2098  0.6594 -0.3054
   40CHL1    H9 4104   5.621   6.744   6.903  0.3989 -0.2903 -3.2592
   40CHL1   C10 4105   5.511   6.649   7.074 -0.3154 -0.4705  0.0813
   40CHL1   C19 4106   5.412   6.533   7.096  0.0914 -0.1694  0.0359
   40CHL1  H19A 4107   5.311   6.557   7.056  0.9071  0.2575 -1.8681
   40CHL1  H19B 4108   5.456   6.442   7.052  1.6386  0.5472  0.0467
   40CHL1  H19C 4109   5.391   6.514   7.203 -1.2957  1.6565  0.1494
   40CHL1    C1 4110   5.653   6.604   7.117  1.0475  0.2042 -0.2727
   40CHL1   H1A 4111   5.681   6.502   7.085  1.9483 -0.1446  1.4953
   40CHL1   H1B 4112   5.733   6.675   7.086  0.2764  0.7391 -1.0938
   40CHL1    C2 4113   5.673   6.613   7.267 -0.0450 -0.0016  0.1995
   40CHL1   H2A 4114   5.778   6.579   7.284 -0.3685 -1.4946 -0.5943
   40CHL1   H2B 4115   5.606   6.541   7.319 -3.0148  0.2676 -2.8829
   40CHL1   C20 4116   5.440   6.599   6.362 -0.5310 -0.5015 -0.2999
   40CHL1   H20 4117   5.343   6.547   6.379  0.3137 -1.5158  1.7055
   40CHL1   C21 4118   5.558   6.502   6.360  0.1765  0.8326 -0.1602
   40CHL1  H21A 4119   5.658   6.551   6.364  1.1870 -1.1017 -0.6807
   40CHL1  H21B 4120   5.557   6.439   6.269  1.6562 -0.3054  0.5800
   40CHL1  H21C 4121   5.554   6.430   6.445  1.5424 -0.7788 -1.4172
   40CHL1   C22 4122   5.429   6.684   6.230  0.2574 -0.2204 -0.0850
   40CHL1  H22A 4123   5.333   6.740   6.229 -1.3439 -2.3410  4.8854
   40CHL1  H22B 4124   5.504   6.765   6.218  1.7178 -1.4846  0.0959
   40CHL1   C23 4125   5.424   6.601   6.099  0.0158 -0.4425 -0.4087
   40CHL1  H23A 4126   5.526   6.565   6.075 -0.0566 -0.9822  0.0673
   40CHL1  H23B 4127   5.363   6.512   6.125  0.3870 -0.6888 -0.3734
   40CHL1   C24 4128   5.372   6.661   5.969  1.0937  0.3984 -0.2230
   40CHL1  H24A 4129   5.264   6.672   5.995  0.8035 -0.0736 -1.1622
   40CHL1  H24B 4130   5.417   6.762   5.957 -1.7537  1.8198  0.1459
   40CHL1   C25 4131   5.386   6.565   5.841 -0.4575  0.5438 -0.3551
   40CHL1   H25 4132   5.336   6.468   5.861 -0.1797  0.2991 -0.8237
   40CHL1   C26 4133   5.325   6.626   5.722 -0.7850  0.0920 -0.1948
   40CHL1  H26A 4134   5.333   6.557   5.636 -0.2608 -1.2981  0.9318
   40CHL1  H26B 4135   5.216   6.640   5.739 -0.0266  5.4006  2.5116
   40CHL1  H26C 4136   5.379   6.718   5.693 -0.1470 -0.4423 -0.7307
   40CHL1   C27 4137   5.531   6.533   5.799 -0.2766  0.0851  0.1603
   40CHL1  H27A 4138   5.581   6.632   5.788 -0.8768  0.3113 -0.5926
   40CHL1  H27B 4139   5.574   6.480   5.887 -0.0761  0.0409  0.0375
   40CHL1  H27C 4140   5.552   6.486   5.701  0.5063  1.6607 -0.4725
   41CHL1    C3 4141   1.086   4.733   6.546 -0.0989 -0.1974 -0.8239
   41CHL1    H3 4142   0.984   4.774   6.529  0.5172  1.5260 -0.5877
   41CHL1    O3 4143   1.105   4.672   6.679  0.1611 -0.1351  0.2096
   41CHL1   H3' 4144   1.030   4.616   6.701  0.8684 -0.8113  0.9517
   41CHL1    C4 4145   1.117   4.630   6.438 -0.8717  0.0685  0.1843
   41CHL1   H4A 4146   1.210   4.578   6.471 -0.7504  0.7593  0.9448
   41CHL1   H4B 4147   1.034   4.558   6.451 -0.7218 -0.4774 -1.5562
   41CHL1    C5 4148   1.130   4.679   6.294  0.9141  0.9034  0.1146
   41CHL1    C6 4149   1.059   4.628   6.185  0.0099 -0.7551  0.6586
   41CHL1    H6 4150   0.982   4.551   6.197  0.1571 -0.7143  2.0899
   41CHL1    C7 4151   1.064   4.699   6.051  0.1360 -0.2835  0.0858
   41CHL1   H7A 4152   1.057   4.617   5.976 -0.9053 -1.4654  1.4232
   41CHL1   H7B 4153   0.973   4.761   6.035  1.0807  0.3113 -4.1335
   41CHL1    C8 4154   1.191   4.782   6.026 -0.0324 -0.4996  1.5055
   41CHL1    H8 4155   1.277   4.713   6.015 -0.2968 -0.5374 -0.7315
   41CHL1   C14 4156   1.176   4.872   5.898  0.1655  0.4891 -0.0286
   41CHL1   H14 4157   1.086   4.931   5.927  1.2278  0.8388  2.9507
   41CHL1   C15 4158   1.127   4.802   5.766 -0.6289 -0.0902 -0.2277
   41CHL1  H15A 4159   1.193   4.713   5.755  0.0515  0.4985 -1.1079
   41CHL1  H15B 4160   1.022   4.767   5.770 -0.4760 -0.5648 -0.4010
   41CHL1   C16 4161   1.159   4.906   5.660  0.4736  0.7403 -0.3840
   41CHL1  H16A 4162   1.234   4.865   5.590  1.8772 -0.1354  1.5370
   41CHL1  H16B 4163   1.061   4.918   5.609  0.5055 -0.3134 -0.7171
   41CHL1   C17 4164   1.224   5.022   5.738 -0.7579 -0.2006  0.3274
   41CHL1   H17 4165   1.139   5.085   5.772 -0.7159 -0.0581  0.1721
   41CHL1   C13 4166   1.286   4.969   5.866 -0.1835  0.5601  0.6051
   41CHL1   C18 4167   1.420   4.899   5.827  1.3344  0.1810 -0.1032
   41CHL1  H18A 4168   1.457   4.824   5.899  0.4532  1.3085  1.5751
   41CHL1  H18B 4169   1.402   4.845   5.731 -1.4529 -0.1766  0.5610
   41CHL1  H18C 4170   1.497   4.979   5.818 -0.0816  1.8283  1.5503
   41CHL1   C12 4171   1.304   5.065   5.984 -0.2291 -0.5547 -0.1485
   41CHL1  H12A 4172   1.393   5.129   5.970  0.2601 -1.3487 -0.7830
   41CHL1  H12B 4173   1.215   5.131   5.987 -0.9096 -1.4561  0.1768
   41CHL1   C11 4174   1.321   4.984   6.112 -0.3274  0.0433 -0.2439
   41CHL1  H11A 4175   1.414   4.923   6.104  0.2895  0.8082  0.7552
   41CHL1  H11B 4176   1.344   5.038   6.206  2.6946 -0.5301 -0.5444
   41CHL1    C9 4177   1.208   4.874   6.147 -0.5901 -0.0206  0.3664
   41CHL1    H9 4178   1.118   4.939   6.149 -0.5294  0.0502  0.9252
   41CHL1   C10 4179   1.224   4.801   6.285  0.3307  0.2273  0.1676
   41CHL1   C19 4180   1.366   4.744   6.295  0.2522  1.5203  0.2873
   41CHL1  H19A 4181   1.442   4.825   6.301  0.7223  1.1163 -0.1526
   41CHL1  H19B 4182   1.383   4.689   6.390  0.3641 -0.1291 -0.6600
   41CHL1  H19C 4183   1.390   4.670   6.217 -1.1606 -1.6493  2.6363
   41CHL1    C1 4184   1.195   4.909   6.393 -0.2479  0.1638  0.4602
   41CHL1   H1A 4185   1.285   4.973   6.396 -1.0569  1.2897  2.4477
   41CHL1   H1B 4186   1.120   4.986   6.365  1.6726  1.9325 -0.0032
   41CHL1    C2 4187   1.184   4.849   6.536 -0.2899  0.3450 -0.5244
   41CHL1   H2A 4188   1.161   4.929   6.610  2.0123 -1.5888  2.4996
   41CHL1   H2B 4189   1.282   4.805   6.564  0.0305  0.5746 -1.2660
   41CHL1   C20 4190   1.313   5.122   5.657  0.6718  0.1668 -0.5880
   41CHL1   H20 4191   1.402   5.154   5.716 -0.4738  0.5840  0.9908
   41CHL1   C21 4192   1.223   5.243   5.640 -0.1073 -0.7845  0.0776
   41CHL1  H21A 4193   1.139   5.224   5.570  0.4274  2.3481 -1.5872
   41CHL1  H21B 4194   1.284   5.328   5.602  0.9751 -2.4642 -2.1472
   41CHL1  H21C 4195   1.184   5.272   5.740  1.3855 -3.1734  1.4522
   41CHL1   C22 4196   1.350   5.070   5.515 -0.3775  0.2370 -0.4645
   41CHL1  H22A 4197   1.390   4.967   5.518 -1.2585 -0.0951  0.3629
   41CHL1  H22B 4198   1.258   5.065   5.453  0.0358 -1.5090 -1.0032
   41CHL1   C23 4199   1.447   5.163   5.444  0.0480 -0.4162 -0.1770
   41CHL1  H23A 4200   1.408   5.260   5.405 -0.1214 -0.2338  0.4443
   41CHL1  H23B 4201   1.522   5.197   5.518 -0.2638  0.1695 -0.1308
   41CHL1   C24 4202   1.515   5.099   5.325  0.1310  0.6757  0.0426
   41CHL1  H24A 4203   1.561   5.005   5.363 -1.3375  0.6457  1.9064
   41CHL1  H24B 4204   1.437   5.049   5.263  1.5649 -2.8392  0.8535
   41CHL1   C25 4205   1.607   5.186   5.238  0.1902  0.2309  0.0113
   41CHL1   H25 4206   1.683   5.236   5.301  1.1855 -0.3370 -0.7021
   41CHL1   C26 4207   1.670   5.092   5.136  0.2324 -0.1088  0.0265
   41CHL1  H26A 4208   1.661   4.986   5.170  0.0131 -0.0630  0.1162
   41CHL1  H26B 4209   1.628   5.096   5.033 -0.6264 -1.2864  0.3051
   41CHL1  H26C 4210   1.778   5.114   5.127  0.4383 -0.8081  0.6293
   41CHL1   C27 4211   1.530   5.298   5.163 -0.2804 -0.0611  0.1102
   41CHL1  H27A 4212   1.486   5.371   5.233  0.4539 -0.2636  0.7960
   41CHL1  H27B 4213   1.606   5.353   5.103 -0.6558  0.4678  0.1176
   41CHL1  H27C 4214   1.451   5.253   5.099 -0.6580 -0.0925  0.5939
   42CHL1    C3 4215   6.599   1.783   6.896  0.0070  0.2846  0.8486
   42CHL1    H3 4216   6.492   1.810   6.882 -0.3043 -0.5120  1.5768
   42CHL1    O3 4217   6.622   1.788   7.037  0.4907 -0.1792 -0.7628
   42CHL1   H3' 4218   6.709   1.753   7.059  0.5685  2.0669  3.4819
   42CHL1    C4 4219   6.615   1.637   6.834  0.3917  0.1686  0.3139
   42CHL1   H4A 4220   6.709   1.588   6.866 -0.0928 -0.9139  0.1138
   42CHL1   H4B 4221   6.542   1.577   6.893  1.2064  1.2657  2.5602
   42CHL1    C5 4222   6.586   1.634   6.681 -0.8105  0.2589 -0.0647
   42CHL1    C6 4223   6.503   1.550   6.630  0.0581 -0.0177  0.7125
   42CHL1    H6 4224   6.462   1.480   6.705 -1.5142  2.2139  2.0559
   42CHL1    C7 4225   6.462   1.535   6.490 -0.0127  0.1023  0.8033
   42CHL1   H7A 4226   6.478   1.429   6.460  3.2728  0.8507 -0.6017
   42CHL1   H7B 4227   6.360   1.574   6.470 -0.0178 -0.7657 -1.1983
   42CHL1    C8 4228   6.549   1.628   6.395  0.0747 -0.3690 -0.3916
   42CHL1    H8 4229   6.642   1.572   6.374 -0.2934 -1.1417 -0.0225
   42CHL1   C14 4230   6.481   1.670   6.267  0.1399  0.1638 -0.1594
   42CHL1   H14 4231   6.398   1.739   6.295 -0.6422  0.3057 -2.5715
   42CHL1   C15 4232   6.406   1.555   6.185 -1.0379 -0.1580  0.2475
   42CHL1  H15A 4233   6.480   1.472   6.178  0.3984  1.1528 -1.0936
   42CHL1  H15B 4234   6.316   1.522   6.240 -1.8012  2.8060  0.9651
   42CHL1   C16 4235   6.384   1.618   6.048  0.0823  0.3251 -0.1263
   42CHL1  H16A 4236   6.411   1.550   5.964  0.6836 -1.5204  1.4903
   42CHL1  H16B 4237   6.274   1.629   6.033 -0.2740 -2.0349  0.3307
   42CHL1   C17 4238   6.472   1.751   6.044  0.3848  0.0053  0.0848
   42CHL1   H17 4239   6.396   1.823   6.081  2.5648  1.2549  2.4032
   42CHL1   C13 4240   6.566   1.744   6.167 -0.0728  0.2249 -0.7649
   42CHL1   C18 4241   6.683   1.665   6.128  0.0753  0.5974  0.4028
   42CHL1  H18A 4242   6.753   1.680   6.213 -0.1733  1.2456  0.4934
   42CHL1  H18B 4243   6.666   1.555   6.131  3.7914 -0.0915  2.5377
   42CHL1  H18C 4244   6.732   1.683   6.029  1.7921  0.8158  1.2581
   42CHL1   C12 4245   6.608   1.879   6.233 -0.3085 -0.1265  0.2987
   42CHL1  H12A 4246   6.692   1.927   6.178  0.9699 -1.2001  1.2480
   42CHL1  H12B 4247   6.525   1.953   6.236 -1.2843 -1.1463 -0.6820
   42CHL1   C11 4248   6.663   1.860   6.373  1.0054 -0.2446  0.4245
   42CHL1  H11A 4249   6.767   1.821   6.361  1.7699  1.5199  0.9664
   42CHL1  H11B 4250   6.669   1.958   6.426  1.1091 -0.8600  1.5828
   42CHL1    C9 4251   6.591   1.762   6.466 -0.4490  0.1944 -0.4684
   42CHL1    H9 4252   6.495   1.809   6.498  0.1572  2.5289 -1.8201
   42CHL1   C10 4253   6.655   1.747   6.606 -0.6457  0.0416 -0.2261
   42CHL1   C19 4254   6.806   1.694   6.591 -0.1819 -0.6423  0.3465
   42CHL1  H19A 4255   6.806   1.597   6.535 -1.7564  0.0528 -0.9342
   42CHL1  H19B 4256   6.851   1.774   6.529  0.0899  0.3058  1.7299
   42CHL1  H19C 4257   6.857   1.688   6.690  1.5479 -2.4680 -0.5602
   42CHL1    C1 4258   6.658   1.887   6.678 -0.3016 -0.0316 -0.0705
   42CHL1   H1A 4259   6.741   1.946   6.634 -1.5161  0.3195 -2.0384
   42CHL1   H1B 4260   6.559   1.933   6.654 -0.4687  0.7198  1.8971
   42CHL1    C2 4261   6.691   1.880   6.824  0.1229 -0.1233 -0.4313
   42CHL1   H2A 4262   6.686   1.981   6.870 -0.7612 -1.2603  2.1344
   42CHL1   H2B 4263   6.798   1.852   6.840  0.4429  2.4052  2.8849
   42CHL1   C20 4264   6.515   1.782   5.901 -0.0003 -1.1818  0.2315
   42CHL1   H20 4265   6.572   1.696   5.859 -2.8352 -1.8460 -2.6190
   42CHL1   C21 4266   6.600   1.906   5.911  0.1759 -0.0758 -0.4938
   42CHL1  H21A 4267   6.539   1.984   5.961  0.6298 -0.1507  0.1885
   42CHL1  H21B 4268   6.635   1.942   5.812  0.8663 -1.1568 -0.6615
   42CHL1  H21C 4269   6.692   1.888   5.971 -1.3826 -2.3196  1.4036
   42CHL1   C22 4270   6.401   1.796   5.798  0.3055 -0.4563 -0.5150
   42CHL1  H22A 4271   6.316   1.728   5.818 -0.3819  0.2523 -0.9908
   42CHL1  H22B 4272   6.362   1.899   5.812  0.2422 -0.5138 -0.2691
   42CHL1   C23 4273   6.457   1.780   5.653 -0.1686 -0.6298 -0.5331
   42CHL1  H23A 4274   6.552   1.838   5.646  0.0759 -0.6675  1.5766
   42CHL1  H23B 4275   6.480   1.671   5.647 -1.4413 -0.9225 -0.2881
   42CHL1   C24 4276   6.374   1.825   5.536  0.2039  0.5426 -0.0410
   42CHL1  H24A 4277   6.352   1.934   5.541 -0.9005  0.3014  0.5977
   42CHL1  H24B 4278   6.425   1.805   5.439  0.3122  0.9786 -0.0758
   42CHL1   C25 4279   6.236   1.752   5.521  0.3903 -0.3475  0.7571
   42CHL1   H25 4280   6.207   1.753   5.628 -0.4374  2.4781  0.5853
   42CHL1   C26 4281   6.130   1.831   5.448 -0.7527 -0.2959 -0.0594
   42CHL1  H26A 4282   6.158   1.813   5.342 -1.4914 -0.6401 -0.2014
   42CHL1  H26B 4283   6.029   1.791   5.469 -0.6880 -0.4585 -0.0603
   42CHL1  H26C 4284   6.132   1.939   5.475 -1.2327  0.0704 -1.4202
   42CHL1   C27 4285   6.247   1.607   5.478  0.2511  0.3128 -0.0701
   42CHL1  H27A 4286   6.320   1.552   5.541 -1.9629 -2.7661  0.0609
   42CHL1  H27B 4287   6.154   1.550   5.500 -0.2022  0.6938 -0.9676
   42CHL1  H27C 4288   6.263   1.590   5.370 -1.3269  0.3696 -0.3352
   43CHL1    C3 4289   0.699   2.238   7.136 -0.4534  0.0202 -0.2449
   43CHL1    H3 4290   0.671   2.133   7.156 -1.1906  0.4861  1.2663
   43CHL1    O3 4291   0.687   2.315   7.252  0.3797  0.4750 -0.1097
   43CHL1   H3' 4292   0.715   2.402   7.223  1.4479  0.2831  0.2954
   43CHL1    C4 4293   0.840   2.249   7.070  0.5763  0.4859 -0.8464
   43CHL1   H4A 4294   0.849   2.356   7.041  1.1770  0.2256 -1.6631
   43CHL1   H4B 4295   0.925   2.228   7.139  1.1300  0.9572 -1.3807
   43CHL1    C5 4296   0.846   2.169   6.938  0.3144  0.0697 -0.0763
   43CHL1    C6 4297   0.948   2.082   6.910 -0.1378  0.3423 -1.0323
   43CHL1    H6 4298   1.021   2.053   6.987  0.0070 -1.8016 -1.9125
   43CHL1    C7 4299   0.953   2.013   6.782 -0.1840  0.6961  0.4806
   43CHL1   H7A 4300   1.058   2.004   6.746 -0.4058  1.5164 -0.4054
   43CHL1   H7B 4301   0.926   1.906   6.797 -1.3176  1.1750  2.0208
   43CHL1    C8 4302   0.868   2.070   6.672 -0.8448  0.2580 -0.3113
   43CHL1    H8 4303   0.922   2.164   6.648 -0.6136 -0.1144 -1.2916
   43CHL1   C14 4304   0.867   1.969   6.558 -0.4302 -0.6022 -0.0167
   43CHL1   H14 4305   0.821   1.876   6.596 -2.6135  0.0079 -1.0513
   43CHL1   C15 4306   1.000   1.933   6.491 -0.4486  0.4553 -0.0505
   43CHL1  H15A 4307   1.072   2.017   6.476  2.4011 -1.8294 -0.1300
   43CHL1  H15B 4308   1.055   1.860   6.554 -0.9587 -0.3589 -0.5319
   43CHL1   C16 4309   0.955   1.871   6.361  0.0714 -0.1362  0.1288
   43CHL1  H16A 4310   1.022   1.925   6.291  0.6065 -1.6083 -0.5386
   43CHL1  H16B 4311   0.973   1.761   6.358 -0.5495 -0.2191 -1.3630
   43CHL1   C17 4312   0.803   1.898   6.344  0.0099  0.2024 -0.0852
   43CHL1   H17 4313   0.757   1.814   6.399  0.8380  0.3225  0.8276
   43CHL1   C13 4314   0.783   2.019   6.434 -0.4766  1.2544  0.1224
   43CHL1   C18 4315   0.851   2.155   6.384 -0.3756  0.8525  0.2772
   43CHL1  H18A 4316   0.957   2.146   6.352  0.0004 -0.8291  1.8296
   43CHL1  H18B 4317   0.794   2.200   6.300  1.1569  2.2044 -0.0891
   43CHL1  H18C 4318   0.856   2.230   6.465  0.7947  0.4610  0.5840
   43CHL1   C12 4319   0.642   2.044   6.488 -0.3941  0.5566 -0.2744
   43CHL1  H12A 4320   0.577   2.090   6.410 -0.7640 -1.1818 -1.0386
   43CHL1  H12B 4321   0.589   1.951   6.517 -1.9944  1.3701 -0.4935
   43CHL1   C11 4322   0.638   2.133   6.612  0.9691 -0.2918 -0.1504
   43CHL1  H11A 4323   0.668   2.235   6.579 -3.1239  1.8202  1.8035
   43CHL1  H11B 4324   0.536   2.131   6.657  0.9265  0.9260 -0.1531
   43CHL1    C9 4325   0.728   2.087   6.726 -0.3929 -0.1513  0.1277
   43CHL1    H9 4326   0.688   1.999   6.780 -1.0165  1.0678  1.7454
   43CHL1   C10 4327   0.736   2.198   6.838  0.8013  0.6310 -0.4463
   43CHL1   C19 4328   0.761   2.335   6.771 -0.4264 -0.1413 -0.5456
   43CHL1  H19A 4329   0.847   2.346   6.702 -0.5666 -0.9439 -0.8537
   43CHL1  H19B 4330   0.669   2.370   6.719  0.6836 -0.1881 -2.6467
   43CHL1  H19C 4331   0.776   2.412   6.850 -0.0610 -1.2123  0.4685
   43CHL1    C1 4332   0.604   2.198   6.918  0.0966  0.2949  0.0109
   43CHL1   H1A 4333   0.532   2.237   6.844 -0.6239  0.0080  0.5537
   43CHL1   H1B 4334   0.591   2.095   6.956  0.6698  0.6574  1.2378
   43CHL1    C2 4335   0.597   2.297   7.034 -0.4240 -0.3533  0.4676
   43CHL1   H2A 4336   0.498   2.279   7.081 -0.8758  3.9070  1.5908
   43CHL1   H2B 4337   0.603   2.406   7.012 -1.9207  0.0092  1.6148
   43CHL1   C20 4338   0.748   1.900   6.202 -0.4809  0.3958 -0.0303
   43CHL1   H20 4339   0.653   1.956   6.203 -0.2586  0.7836 -0.2760
   43CHL1   C21 4340   0.710   1.753   6.167 -0.4410  0.2165 -0.1470
   43CHL1  H21A 4341   0.806   1.700   6.145 -0.3360  0.4252 -0.1951
   43CHL1  H21B 4342   0.643   1.767   6.080  1.1124  0.9154 -1.2769
   43CHL1  H21C 4343   0.652   1.699   6.244  0.7445 -1.8103 -0.5910
   43CHL1   C22 4344   0.833   1.959   6.094 -0.0876  0.3022  0.3250
   43CHL1  H22A 4345   0.889   2.050   6.121 -0.2731  0.3497  0.5559
   43CHL1  H22B 4346   0.922   1.901   6.062  1.0131  1.4791  1.2192
   43CHL1   C23 4347   0.753   1.992   5.968 -0.8128  0.0193 -0.6015
   43CHL1  H23A 4348   0.741   1.899   5.909 -0.1175 -0.4682  0.0164
   43CHL1  H23B 4349   0.661   2.048   5.993 -0.1866  2.3818 -3.0945
   43CHL1   C24 4350   0.839   2.075   5.871 -0.6847  0.1733 -0.3393
   43CHL1  H24A 4351   0.872   2.165   5.926  1.7443 -0.9580  0.2013
   43CHL1  H24B 4352   0.935   2.019   5.874 -0.2742  0.8994  2.0954
   43CHL1   C25 4353   0.777   2.111   5.734  0.5339  0.3137 -0.0208
   43CHL1   H25 4354   0.688   2.172   5.761 -0.0276 -0.5696  0.1662
   43CHL1   C26 4355   0.867   2.211   5.662 -0.1886  0.7656  0.4577
   43CHL1  H26A 4356   0.844   2.210   5.553 -0.9252 -1.6424  0.5809
   43CHL1  H26B 4357   0.824   2.308   5.695  0.1568  0.7546  0.9549
   43CHL1  H26C 4358   0.975   2.197   5.686 -0.2200 -0.8895 -0.2566
   43CHL1   C27 4359   0.737   1.987   5.648 -0.1950 -0.3194  0.4761
   43CHL1  H27A 4360   0.714   2.028   5.548  0.0252  1.6245  1.1697
   43CHL1  H27B 4361   0.824   1.919   5.645  1.0475  1.2037  0.6701
   43CHL1  H27C 4362   0.649   1.943   5.700 -0.4869  0.0654  0.3119
   44CHL1    C3 4363   1.858   3.948   6.497  0.0121  0.1814 -0.4027
   44CHL1    H3 4364   1.942   3.879   6.518 -1.4334 -1.9170 -1.1379
   44CHL1    O3 4365   1.756   3.938   6.596 -0.5513 -0.0821 -0.4102
   44CHL1   H3' 4366   1.712   4.022   6.581 -0.0376  0.2155 -0.2751
   44CHL1    C4 4367   1.921   4.091   6.492 -0.0749  1.0249  0.1628
   44CHL1   H4A 4368   1.835   4.161   6.481 -1.4983 -1.0190 -3.4044
   44CHL1   H4B 4369   1.966   4.110   6.592 -0.4950  5.3209 -0.2371
   44CHL1    C5 4370   2.007   4.093   6.369 -0.1455  0.4015 -0.3365
   44CHL1    C6 4371   2.137   4.107   6.388  0.1318  0.0731  0.2112
   44CHL1    H6 4372   2.176   4.126   6.489  0.2625  2.8720 -0.2906
   44CHL1    C7 4373   2.242   4.129   6.286  0.2100 -0.0101  0.3853
   44CHL1   H7A 4374   2.296   4.222   6.312 -1.1506  0.8912  0.0968
   44CHL1   H7B 4375   2.315   4.045   6.295 -0.0862 -0.0374  3.4889
   44CHL1    C8 4376   2.172   4.150   6.146  0.4015  0.0759 -0.7619
   44CHL1    H8 4377   2.126   4.250   6.139  2.7745  1.3216  0.2266
   44CHL1   C14 4378   2.275   4.149   6.042  0.5164  0.1014 -0.6247
   44CHL1   H14 4379   2.323   4.050   6.053  0.5562  0.1974  0.1221
   44CHL1   C15 4380   2.393   4.245   6.056  0.0986 -0.4583 -0.3322
   44CHL1  H15A 4381   2.347   4.345   6.072 -3.8348 -1.9476 -1.1376
   44CHL1  H15B 4382   2.456   4.214   6.142  1.9951  0.0127 -1.5066
   44CHL1   C16 4383   2.465   4.245   5.923 -0.0660 -1.4719  0.4120
   44CHL1  H16A 4384   2.472   4.345   5.875 -0.1762 -1.4454  0.4532
   44CHL1  H16B 4385   2.568   4.203   5.927 -0.0812 -1.5622 -0.0645
   44CHL1   C17 4386   2.372   4.159   5.827 -0.0138  0.2547 -0.2190
   44CHL1   H17 4387   2.414   4.056   5.827  0.1522  0.3106 -1.0022
   44CHL1   C13 4388   2.233   4.151   5.895 -0.2478  0.5042 -0.2015
   44CHL1   C18 4389   2.157   4.275   5.855 -0.2309 -0.0045 -0.3019
   44CHL1  H18A 4390   2.216   4.363   5.890 -0.3951 -0.2332  0.5869
   44CHL1  H18B 4391   2.127   4.286   5.749 -1.3832  0.3807  0.0546
   44CHL1  H18C 4392   2.063   4.279   5.914  0.6775  0.5695  1.1491
   44CHL1   C12 4393   2.156   4.021   5.880 -0.0111 -0.8083  0.0812
   44CHL1  H12A 4394   2.126   4.016   5.773  1.5304 -1.2382 -0.3682
   44CHL1  H12B 4395   2.223   3.932   5.890 -0.3190 -1.0866 -0.3038
   44CHL1   C11 4396   2.032   4.020   5.984 -0.7406 -0.6418  0.9404
   44CHL1  H11A 4397   1.954   4.084   5.936  2.7732  2.2667 -1.5068
   44CHL1  H11B 4398   1.980   3.923   5.973 -0.5896 -0.7464  1.1543
   44CHL1    C9 4399   2.072   4.038   6.132  0.0176 -1.0835  0.2671
   44CHL1    H9 4400   2.123   3.946   6.167  1.5938  0.6193  2.7966
   44CHL1   C10 4401   1.951   4.050   6.235 -0.2592  0.6812  0.1332
   44CHL1   C19 4402   1.854   4.165   6.193  0.2493  0.4841 -0.5648
   44CHL1  H19A 4403   1.763   4.157   6.257 -0.3148 -2.1960 -1.5689
   44CHL1  H19B 4404   1.896   4.267   6.204 -2.4057  1.3517  3.7273
   44CHL1  H19C 4405   1.811   4.152   6.091  0.0226  1.3726 -0.5925
   44CHL1    C1 4406   1.877   3.915   6.249  1.3860 -0.4074 -0.6332
   44CHL1   H1A 4407   1.811   3.905   6.160  0.1785  1.8507 -0.0792
   44CHL1   H1B 4408   1.940   3.824   6.252 -0.3886 -1.6750  0.1979
   44CHL1    C2 4409   1.786   3.913   6.366 -0.5899 -0.9206  0.2478
   44CHL1   H2A 4410   1.741   3.813   6.380 -1.1815 -0.4252  2.2856
   44CHL1   H2B 4411   1.697   3.977   6.345 -0.4495 -1.1484 -1.0727
   44CHL1   C20 4412   2.374   4.192   5.678 -0.0604  0.0162 -0.2612
   44CHL1   H20 4413   2.347   4.299   5.662  0.1539  0.2202  0.6694
   44CHL1   C21 4414   2.282   4.096   5.592  0.6913 -0.0074 -0.2687
   44CHL1  H21A 4415   2.301   3.988   5.608 -0.0835 -0.0682  0.2674
   44CHL1  H21B 4416   2.290   4.126   5.485 -3.0231  1.5605 -0.2549
   44CHL1  H21C 4417   2.175   4.124   5.600  0.6790 -0.1109 -0.0715
   44CHL1   C22 4418   2.520   4.175   5.626  0.6003  0.3679 -0.0406
   44CHL1  H22A 4419   2.588   4.241   5.684  2.6637 -1.6042 -0.0752
   44CHL1  H22B 4420   2.548   4.068   5.638 -0.9555 -0.1410 -0.6901
   44CHL1   C23 4421   2.526   4.216   5.480  0.3341  0.0187  0.0727
   44CHL1  H23A 4422   2.481   4.141   5.412  4.4036 -2.6114 -0.0885
   44CHL1  H23B 4423   2.471   4.311   5.471  1.2316  0.9378  3.0177
   44CHL1   C24 4424   2.671   4.226   5.436  0.6006  0.1723 -0.5218
   44CHL1  H24A 4425   2.723   4.314   5.478  1.8889 -0.6928 -0.2662
   44CHL1  H24B 4426   2.714   4.136   5.484 -1.3817 -0.1144  0.8443
   44CHL1   C25 4427   2.705   4.214   5.284 -0.7477 -0.6051  0.0379
   44CHL1   H25 4428   2.650   4.130   5.236  2.0878 -1.7924 -1.3449
   44CHL1   C26 4429   2.681   4.345   5.213 -0.8600 -0.1791 -0.1066
   44CHL1  H26A 4430   2.576   4.381   5.217 -0.7326  0.0478  2.1789
   44CHL1  H26B 4431   2.749   4.426   5.247 -0.7938  0.3248 -1.3744
   44CHL1  H26C 4432   2.701   4.327   5.105 -0.0811  0.3230 -0.0564
   44CHL1   C27 4433   2.860   4.186   5.268  0.3511 -0.4188  0.1085
   44CHL1  H27A 4434   2.923   4.273   5.297 -0.0865  1.9235 -4.9411
   44CHL1  H27B 4435   2.882   4.097   5.331  3.0359 -1.1514 -1.6835
   44CHL1  H27C 4436   2.881   4.160   5.162  0.8897 -2.4498  0.6744
   45CHL1    C3 4437   1.695   4.651   6.787 -0.2072 -0.0055 -0.0809
   45CHL1    H3 4438   1.624   4.568   6.765 -1.1997  0.1265  2.3120
   45CHL1    O3 4439   1.704   4.664   6.927 -0.0320 -0.2299 -0.5651
   45CHL1   H3' 4440   1.782   4.718   6.940 -0.6972  0.6803 -0.2473
   45CHL1    C4 4441   1.839   4.616   6.736  0.3438  0.7739  0.1045
   45CHL1   H4A 4442   1.904   4.695   6.780  0.7831  0.6521 -0.3154
   45CHL1   H4B 4443   1.874   4.530   6.796  0.4463  0.4777 -0.3749
   45CHL1    C5 4444   1.855   4.614   6.583 -0.4434 -0.2720 -0.6312
   45CHL1    C6 4445   1.894   4.507   6.514  1.3976  0.1978  0.5385
   45CHL1    H6 4446   1.909   4.405   6.552 -2.4357 -2.2424 -3.5464
   45CHL1    C7 4447   1.905   4.507   6.366 -0.3694 -0.4360 -0.5548
   45CHL1   H7A 4448   2.001   4.456   6.341 -0.4290 -0.8063 -0.0566
   45CHL1   H7B 4449   1.829   4.444   6.316  2.7391 -1.4413 -4.5775
   45CHL1    C8 4450   1.903   4.643   6.299  0.7169 -0.7869 -0.4253
   45CHL1    H8 4451   2.000   4.687   6.331  0.4623  1.1200 -2.0639
   45CHL1   C14 4452   1.896   4.635   6.150 -0.1550 -0.4052 -0.2168
   45CHL1   H14 4453   1.798   4.582   6.145  0.6024 -1.8830 -0.0193
   45CHL1   C15 4454   1.999   4.547   6.077  0.5713  0.2596  0.0292
   45CHL1  H15A 4455   2.101   4.558   6.120  1.0143  0.9928 -1.1578
   45CHL1  H15B 4456   1.982   4.438   6.092  0.9658  0.3599  1.3551
   45CHL1   C16 4457   1.987   4.601   5.936  0.0083  0.1533  0.1300
   45CHL1  H16A 4458   2.092   4.620   5.905  0.2115  0.4864  1.0034
   45CHL1  H16B 4459   1.949   4.519   5.870 -1.2890  0.1607  0.8384
   45CHL1   C17 4460   1.888   4.717   5.929 -0.0634 -0.1846  0.5053
   45CHL1   H17 4461   1.791   4.665   5.909 -0.8253  0.9109  1.2373
   45CHL1   C13 4462   1.887   4.771   6.075 -0.7349 -0.0763  0.1787
   45CHL1   C18 4463   2.011   4.860   6.112 -0.1407  0.1469  0.1755
   45CHL1  H18A 4464   2.029   4.875   6.221 -1.0096  0.5347  0.2724
   45CHL1  H18B 4465   2.101   4.813   6.068 -1.2689 -2.1540  0.1507
   45CHL1  H18C 4466   2.012   4.959   6.062  0.5615 -0.9951 -2.2266
   45CHL1   C12 4467   1.753   4.828   6.128 -0.6074 -0.2885  0.4372
   45CHL1  H12A 4468   1.734   4.929   6.085 -1.0053 -0.1137  1.0219
   45CHL1  H12B 4469   1.674   4.755   6.102 -0.7025 -0.4972  1.2787
   45CHL1   C11 4470   1.754   4.854   6.273 -0.7570 -0.4715 -0.4639
   45CHL1  H11A 4471   1.808   4.946   6.303  2.1615 -2.5375  1.1374
   45CHL1  H11B 4472   1.649   4.880   6.298 -1.2109 -1.8311 -0.8512
   45CHL1    C9 4473   1.795   4.731   6.365  0.1608 -0.2130  0.2001
   45CHL1    H9 4474   1.703   4.671   6.351 -1.2018  1.3793  1.7153
   45CHL1   C10 4475   1.812   4.748   6.516  0.6920 -0.3943 -0.1187
   45CHL1   C19 4476   1.908   4.862   6.541  0.2464 -0.0533  0.4941
   45CHL1  H19A 4477   1.918   4.879   6.650 -0.3339  1.1025  0.3857
   45CHL1  H19B 4478   2.005   4.844   6.490  1.1408  0.4956  1.9490
   45CHL1  H19C 4479   1.868   4.958   6.501  1.4100 -0.3167 -1.4551
   45CHL1    C1 4480   1.669   4.787   6.571 -0.3163 -0.1817 -0.1095
   45CHL1   H1A 4481   1.633   4.883   6.528 -0.1903  0.1395  0.4928
   45CHL1   H1B 4482   1.598   4.706   6.545 -0.7512 -0.5213  1.9226
   45CHL1    C2 4483   1.655   4.787   6.726  0.6577 -0.3231 -0.5182
   45CHL1   H2A 4484   1.555   4.809   6.767  0.0561  1.1707 -2.5976
   45CHL1   H2B 4485   1.728   4.866   6.751 -1.7266  2.3608 -1.5829
   45CHL1   C20 4486   1.903   4.824   5.817 -0.1067  0.1649  0.5792
   45CHL1   H20 4487   2.000   4.877   5.827 -0.7942  1.5164  0.2828
   45CHL1   C21 4488   1.783   4.910   5.810 -0.6218 -0.2781 -0.7128
   45CHL1  H21A 4489   1.773   4.967   5.905  0.6674 -1.0377 -0.1010
   45CHL1  H21B 4490   1.687   4.863   5.779  0.0964 -1.2959 -1.4423
   45CHL1  H21C 4491   1.800   4.990   5.735  2.4463  0.0027  0.1452
   45CHL1   C22 4492   1.911   4.754   5.672 -0.0075  0.3671 -0.3864
   45CHL1  H22A 4493   1.863   4.654   5.677 -1.0421  0.8375 -0.7616
   45CHL1  H22B 4494   1.851   4.817   5.603 -0.2684 -2.0156 -2.5199
   45CHL1   C23 4495   2.053   4.747   5.612  0.6013 -0.4500  0.3988
   45CHL1  H23A 4496   2.089   4.851   5.602  0.6250 -0.5566 -0.7709
   45CHL1  H23B 4497   2.123   4.698   5.684  2.3261 -0.5347 -1.2472
   45CHL1   C24 4498   2.044   4.665   5.475 -0.3925 -0.3742 -0.7304
   45CHL1  H24A 4499   2.006   4.565   5.502 -0.8066 -0.1187 -0.3427
   45CHL1  H24B 4500   1.978   4.719   5.403  0.4348  1.2826 -0.3181
   45CHL1   C25 4501   2.173   4.650   5.400  0.0285 -0.0742  0.2889
   45CHL1   H25 4502   2.193   4.748   5.352  1.1293 -0.9089 -1.0404
   45CHL1   C26 4503   2.293   4.621   5.489 -0.1986  0.5372  0.1380
   45CHL1  H26A 4504   2.385   4.611   5.428  1.1634 -2.4096  2.4440
   45CHL1  H26B 4505   2.312   4.705   5.560 -1.1866  0.2282  0.8027
   45CHL1  H26C 4506   2.280   4.532   5.554 -1.5386 -1.4940 -2.6864
   45CHL1   C27 4507   2.172   4.551   5.286  0.0481 -0.5969  0.2167
   45CHL1  H27A 4508   2.089   4.578   5.217  0.7927  0.9330 -0.1190
   45CHL1  H27B 4509   2.267   4.553   5.230 -0.4234  2.6000 -0.6727
   45CHL1  H27C 4510   2.162   4.447   5.325 -1.8692 -0.2831  0.6498
   46CHL1    C3 4511   2.279   0.682   6.913 -0.0717 -0.0976  0.7714
   46CHL1    H3 4512   2.201   0.608   6.887 -1.3240  0.2591  3.1730
   46CHL1    O3 4513   2.319   0.659   7.044 -0.2713 -0.3026 -0.4142
   46CHL1   H3' 4514   2.291   0.735   7.095 -1.0750 -0.6926 -0.2587
   46CHL1    C4 4515   2.395   0.660   6.812  0.3559  0.9322  0.3168
   46CHL1   H4A 4516   2.475   0.728   6.848  1.0182  2.3093 -3.2950
   46CHL1   H4B 4517   2.412   0.551   6.826 -2.1293  0.2637 -1.2195
   46CHL1    C5 4518   2.365   0.689   6.669 -0.2529  0.0941 -0.0093
   46CHL1    C6 4519   2.369   0.607   6.563  0.0574  0.2128  0.8571
   46CHL1    H6 4520   2.415   0.508   6.582 -0.6649 -0.2013  0.4887
   46CHL1    C7 4521   2.321   0.633   6.416  0.4272 -0.3359 -0.5797
   46CHL1   H7A 4522   2.396   0.604   6.339  0.1916  2.6832 -2.0877
   46CHL1   H7B 4523   2.229   0.577   6.389 -0.8034  0.3572  1.8785
   46CHL1    C8 4524   2.297   0.783   6.399 -0.4245 -0.4469  0.5098
   46CHL1    H8 4525   2.401   0.821   6.395 -0.4165 -0.5337 -2.7771
   46CHL1   C14 4526   2.220   0.807   6.275  0.0710 -0.2682 -0.1655
   46CHL1   H14 4527   2.116   0.772   6.288 -0.0871 -0.5371 -1.8531
   46CHL1   C15 4528   2.276   0.739   6.153  0.8871  0.1233 -0.0508
   46CHL1  H15A 4529   2.387   0.751   6.148  0.9810 -0.2506  1.0135
   46CHL1  H15B 4530   2.232   0.638   6.140 -1.7649  1.4178 -1.9406
   46CHL1   C16 4531   2.220   0.832   6.038 -1.1085  0.0928 -0.3124
   46CHL1  H16A 4532   2.306   0.850   5.969 -0.9395 -0.5947 -0.2831
   46CHL1  H16B 4533   2.140   0.783   5.978 -0.7708 -0.0204 -0.6758
   46CHL1   C17 4534   2.152   0.958   6.101  0.4125  0.1578 -0.9124
   46CHL1   H17 4535   2.043   0.943   6.114  0.4232  1.0661  0.4617
   46CHL1   C13 4536   2.210   0.956   6.239  0.8821 -0.4379  0.0072
   46CHL1   C18 4537   2.353   1.021   6.224 -0.0349 -0.6299  0.2047
   46CHL1  H18A 4538   2.406   0.972   6.139 -0.7893 -3.4984  1.2478
   46CHL1  H18B 4539   2.332   1.128   6.202 -0.6540 -0.6186  0.8081
   46CHL1  H18C 4540   2.418   1.011   6.313  0.8030 -0.2915 -0.3628
   46CHL1   C12 4541   2.122   1.021   6.352 -0.6743 -0.5127  0.0212
   46CHL1  H12A 4542   2.125   1.129   6.329 -2.4618  0.1960  2.6678
   46CHL1  H12B 4543   2.021   0.974   6.352 -1.5843  1.3473  0.7176
   46CHL1   C11 4544   2.189   0.998   6.492 -0.0146 -0.2048 -0.3873
   46CHL1  H11A 4545   2.281   1.057   6.479  0.2446 -0.5599 -0.1762
   46CHL1  H11B 4546   2.120   1.050   6.562 -0.1651 -0.9951  0.0655
   46CHL1    C9 4547   2.221   0.840   6.518 -0.6476  0.1287  0.0430
   46CHL1    H9 4548   2.120   0.794   6.527  0.0107 -1.2451  0.6421
   46CHL1   C10 4549   2.284   0.817   6.655  0.1510  0.1806  0.4113
   46CHL1   C19 4550   2.391   0.929   6.681 -0.0541 -0.0508  0.0146
   46CHL1  H19A 4551   2.340   1.028   6.680  0.4352  0.2439  1.6266
   46CHL1  H19B 4552   2.448   0.918   6.776 -2.0640 -1.2959  1.1489
   46CHL1  H19C 4553   2.454   0.911   6.591 -0.2645 -1.5026  0.1231
   46CHL1    C1 4554   2.173   0.834   6.764 -0.0852 -0.4350  0.0182
   46CHL1   H1A 4555   2.129   0.935   6.751  0.9586 -0.1855 -1.8955
   46CHL1   H1B 4556   2.099   0.753   6.748 -1.9651  1.2890 -0.4523
   46CHL1    C2 4557   2.214   0.816   6.906 -0.6650  0.2130  0.4553
   46CHL1   H2A 4558   2.123   0.814   6.970 -2.1200 -0.2987 -1.5286
   46CHL1   H2B 4559   2.282   0.896   6.943 -0.4141 -0.0675  0.6076
   46CHL1   C20 4560   2.161   1.088   6.009 -0.6204  0.1410  0.0672
   46CHL1   H20 4561   2.268   1.102   5.984 -1.1670  0.8338 -2.0225
   46CHL1   C21 4562   2.092   1.209   6.076  0.0917  0.2375 -0.1552
   46CHL1  H21A 4563   1.992   1.181   6.117  1.1634 -2.0567  1.1048
   46CHL1  H21B 4564   2.080   1.296   6.007  0.9730  0.4265 -0.0819
   46CHL1  H21C 4565   2.143   1.244   6.168 -1.5541  0.0245  0.8766
   46CHL1   C22 4566   2.091   1.068   5.872 -0.6980 -0.2237  0.5047
   46CHL1  H22A 4567   2.102   0.964   5.836  1.6347  0.3954 -0.7661
   46CHL1  H22B 4568   1.981   1.080   5.885 -1.0921  0.8856 -2.8139
   46CHL1   C23 4569   2.145   1.158   5.758 -0.2024 -0.0751 -0.2573
   46CHL1  H23A 4570   2.125   1.264   5.783 -1.0370  0.2279 -2.0605
   46CHL1  H23B 4571   2.254   1.136   5.761 -0.2130 -0.0280  1.0059
   46CHL1   C24 4572   2.074   1.122   5.628 -0.0324 -0.1906  0.3421
   46CHL1  H24A 4573   2.072   1.017   5.593  1.1456  0.1812 -0.9412
   46CHL1  H24B 4574   1.967   1.146   5.644  0.1634  1.4336 -0.4812
   46CHL1   C25 4575   2.111   1.198   5.495 -0.7122 -0.0398 -0.3871
   46CHL1   H25 4576   2.045   1.160   5.414 -1.1281  2.1097 -1.1106
   46CHL1   C26 4577   2.082   1.344   5.517 -0.3150 -0.2790 -0.1286
   46CHL1  H26A 4578   2.141   1.384   5.602 -1.8129  1.8356 -0.0060
   46CHL1  H26B 4579   2.108   1.407   5.429  1.2549  2.6754  2.2452
   46CHL1  H26C 4580   1.972   1.358   5.525 -0.4638 -0.4469 -1.6297
   46CHL1   C27 4581   2.255   1.173   5.451 -0.6436 -0.5352  0.1395
   46CHL1  H27A 4582   2.342   1.201   5.513  0.8093 -2.4894 -0.8851
   46CHL1  H27B 4583   2.265   1.065   5.424  2.6348 -0.1756 -0.5207
   46CHL1  H27C 4584   2.271   1.234   5.359  1.4192  0.2089  0.9550
   47CHL1    C3 4585   4.687   6.019   7.013  0.0076  0.5210  0.5503
   47CHL1    H3 4586   4.756   5.941   6.975  0.5721  1.0984  0.3826
   47CHL1    O3 4587   4.699   6.017   7.147  0.9310  0.8423  0.1865
   47CHL1   H3' 4588   4.638   6.078   7.188 -1.7413 -1.5177  0.0456
   47CHL1    C4 4589   4.705   6.160   6.953 -0.6563  0.2941 -0.0568
   47CHL1   H4A 4590   4.629   6.222   7.006 -0.0258 -0.6709  2.0898
   47CHL1   H4B 4591   4.806   6.204   6.973 -1.5302  3.4271 -1.8293
   47CHL1    C5 4592   4.672   6.160   6.806 -0.6643  0.1767  0.7360
   47CHL1    C6 4593   4.759   6.213   6.722  0.6436 -0.2123  0.2262
   47CHL1    H6 4594   4.855   6.251   6.761 -0.1296 -0.6646  2.6883
   47CHL1    C7 4595   4.743   6.219   6.572 -0.3308  0.2181 -0.6556
   47CHL1   H7A 4596   4.757   6.325   6.543 -2.8196  0.3938 -1.5037
   47CHL1   H7B 4597   4.823   6.158   6.526 -1.6804 -2.3779  0.2145
   47CHL1    C8 4598   4.609   6.171   6.521  0.3393  0.5985  0.3000
   47CHL1    H8 4599   4.535   6.253   6.533 -1.1066 -0.9447  3.0435
   47CHL1   C14 4600   4.624   6.134   6.379 -0.5713 -0.8958  0.3240
   47CHL1   H14 4601   4.699   6.053   6.376  1.5536  0.9654 -0.0830
   47CHL1   C15 4602   4.684   6.237   6.274 -0.1933 -0.7749  0.1212
   47CHL1  H15A 4603   4.630   6.333   6.281 -0.6257 -0.9031 -1.1932
   47CHL1  H15B 4604   4.792   6.256   6.288 -0.0880 -0.3307 -1.1102
   47CHL1   C16 4605   4.634   6.185   6.138  0.0426 -0.5509 -0.7816
   47CHL1  H16A 4606   4.598   6.267   6.073 -1.2217  0.6031  1.2410
   47CHL1  H16B 4607   4.717   6.143   6.079  1.1305 -0.6136  0.7422
   47CHL1   C17 4608   4.528   6.076   6.169  0.3583 -0.2494  0.4341
   47CHL1   H17 4609   4.587   5.982   6.163  0.3029 -0.4629  2.5140
   47CHL1   C13 4610   4.490   6.090   6.319  0.2080 -0.5424 -0.2792
   47CHL1   C18 4611   4.371   6.197   6.335 -0.6154  0.5818 -0.4557
   47CHL1  H18A 4612   4.365   6.215   6.445  0.5053  1.0774 -0.4625
   47CHL1  H18B 4613   4.382   6.286   6.270  1.8484  1.4246  0.9487
   47CHL1  H18C 4614   4.279   6.139   6.313 -1.1201 -0.2870  3.1808
   47CHL1   C12 4615   4.456   5.954   6.387  0.0907  0.5110  0.7352
   47CHL1  H12A 4616   4.353   5.924   6.358  0.4206  0.2479 -0.2022
   47CHL1  H12B 4617   4.530   5.878   6.356 -0.3986 -0.3017  1.5253
   47CHL1   C11 4618   4.446   5.966   6.544 -0.1683  0.0201  0.4218
   47CHL1  H11A 4619   4.351   6.018   6.568  1.4546  3.1566  0.5785
   47CHL1  H11B 4620   4.435   5.871   6.600  1.8512 -0.2270  0.4586
   47CHL1    C9 4621   4.564   6.048   6.600  0.1201 -0.0426  0.4083
   47CHL1    H9 4622   4.646   5.974   6.589  0.3092  0.2262 -0.0015
   47CHL1   C10 4623   4.548   6.090   6.755  0.1599  0.3914 -0.7286
   47CHL1   C19 4624   4.431   6.191   6.777 -0.2051  0.7174  0.5753
   47CHL1  H19A 4625   4.442   6.280   6.711  2.0468  0.9080  1.1426
   47CHL1  H19B 4626   4.330   6.150   6.756 -0.6562  0.1537  3.4522
   47CHL1  H19C 4627   4.415   6.229   6.879  3.3683  1.1269  1.1090
   47CHL1    C1 4628   4.510   5.957   6.834 -0.0018 -0.4146  0.2818
   47CHL1   H1A 4629   4.404   5.927   6.822 -0.5365  1.1845  0.7385
   47CHL1   H1B 4630   4.579   5.881   6.791  1.5807  0.8108  0.5522
   47CHL1    C2 4631   4.536   5.963   6.982 -0.8574 -0.5893 -0.3214
   47CHL1   H2A 4632   4.535   5.862   7.027 -2.6403 -1.4791 -2.2230
   47CHL1   H2B 4633   4.458   6.029   7.026  0.9810  1.0241  0.7231
   47CHL1   C20 4634   4.415   6.072   6.062  0.9820 -0.0608  0.2335
   47CHL1   H20 4635   4.367   6.172   6.058  0.1628 -0.4810 -1.1738
   47CHL1   C21 4636   4.307   5.966   6.083 -0.1376 -0.3580 -0.1212
   47CHL1  H21A 4637   4.343   5.865   6.115  0.9222  0.4977  1.5740
   47CHL1  H21B 4638   4.253   5.938   5.991 -1.6158  3.5145 -0.5828
   47CHL1  H21C 4639   4.227   5.997   6.153 -2.2755  0.1441 -2.6764
   47CHL1   C22 4640   4.469   6.067   5.922  0.0455 -0.3943  0.8734
   47CHL1  H22A 4641   4.578   6.088   5.912  0.1818 -0.0325  2.8350
   47CHL1  H22B 4642   4.472   5.960   5.893  0.4813 -0.0443 -0.4817
   47CHL1   C23 4643   4.377   6.157   5.828 -0.1389  0.5363  0.0352
   47CHL1  H23A 4644   4.276   6.117   5.848  0.6702 -1.3377  0.6426
   47CHL1  H23B 4645   4.389   6.263   5.859 -0.1732  0.8717 -1.0342
   47CHL1   C24 4646   4.398   6.152   5.677 -0.1179 -0.6313 -0.2985
   47CHL1  H24A 4647   4.319   6.215   5.630  0.4023 -0.9335 -1.6514
   47CHL1  H24B 4648   4.494   6.206   5.662 -0.1996 -0.8465 -1.8319
   47CHL1   C25 4649   4.392   6.018   5.604 -0.6647 -0.3564  0.4524
   47CHL1   H25 4650   4.465   5.946   5.647  0.0635  0.3324  0.3848
   47CHL1   C26 4651   4.255   5.956   5.618  0.1613  0.3310 -0.4065
   47CHL1  H26A 4652   4.253   5.887   5.705  1.1885 -0.5056 -1.0192
   47CHL1  H26B 4653   4.176   6.033   5.625 -0.2858 -0.1887  0.4711
   47CHL1  H26C 4654   4.239   5.885   5.534  0.3808  0.1656 -0.3114
   47CHL1   C27 4655   4.438   6.040   5.456  0.0169 -0.1838 -0.3590
   47CHL1  H27A 4656   4.422   5.949   5.394 -0.2857 -0.9704  0.8466
   47CHL1  H27B 4657   4.388   6.129   5.412  1.2867  0.1136 -1.2508
   47CHL1  H27C 4658   4.546   6.062   5.460  0.0501 -0.4220  3.0887
   48CHL1    C3 4659   6.740   5.946   6.987  0.3377  0.1416  0.2896
   48CHL1    H3 4660   6.727   5.836   6.979 -1.5230  0.4392 -1.4185
   48CHL1    O3 4661   6.782   5.986   7.118  0.7751  0.0142  0.0621
   48CHL1   H3' 4662   6.830   6.066   7.096  1.2373 -0.0782  0.7201
   48CHL1    C4 4663   6.848   5.991   6.884  1.2261 -0.4478 -0.0204
   48CHL1   H4A 4664   6.850   6.102   6.884 -3.5118 -0.1229 -1.9808
   48CHL1   H4B 4665   6.941   5.962   6.937  1.1315 -1.5369 -0.4189
   48CHL1    C5 4666   6.819   5.945   6.744  0.1845  0.2500 -0.0044
   48CHL1    C6 4667   6.892   5.864   6.669  0.2901  0.1344  0.5909
   48CHL1    H6 4668   6.989   5.834   6.714  0.7579 -0.1077 -0.5517
   48CHL1    C7 4669   6.862   5.830   6.523 -0.3387 -0.7011 -0.4635
   48CHL1   H7A 4670   6.957   5.839   6.465 -0.9916 -0.3848 -1.5017
   48CHL1   H7B 4671   6.828   5.724   6.529  0.3754 -0.8544  3.7881
   48CHL1    C8 4672   6.742   5.906   6.462  0.0843 -0.4466  0.3085
   48CHL1    H8 4673   6.772   6.012   6.448  1.5320 -0.4901  2.5456
   48CHL1   C14 4674   6.702   5.842   6.331  0.7542  0.6638  0.6760
   48CHL1   H14 4675   6.672   5.739   6.361  2.1366  0.9596  3.3653
   48CHL1   C15 4676   6.802   5.826   6.214  0.6075  0.0136 -0.2463
   48CHL1  H15A 4677   6.851   5.924   6.198  0.9287  0.0467  0.8371
   48CHL1  H15B 4678   6.881   5.757   6.251 -0.9075 -1.8821 -0.3634
   48CHL1   C16 4679   6.709   5.771   6.096 -0.6498  0.2255  0.6635
   48CHL1  H16A 4680   6.749   5.813   6.001  0.4129  3.2790  2.3261
   48CHL1  H16B 4681   6.717   5.661   6.083  3.0084  0.3038  1.1586
   48CHL1   C17 4682   6.566   5.816   6.132 -0.1047 -0.3388 -0.8837
   48CHL1   H17 4683   6.516   5.723   6.168  0.8793 -0.4166  0.3538
   48CHL1   C13 4684   6.581   5.908   6.265 -0.2989 -0.3867 -0.8281
   48CHL1   C18 4685   6.604   6.053   6.223 -0.0147  0.4680 -0.0555
   48CHL1  H18A 4686   6.653   6.115   6.302  2.4409 -1.6776  0.2709
   48CHL1  H18B 4687   6.675   6.054   6.137  0.2092 -1.7733  0.0203
   48CHL1  H18C 4688   6.513   6.099   6.180  0.0065  0.8238  0.2760
   48CHL1   C12 4689   6.470   5.901   6.365 -0.1191  0.8286 -0.7194
   48CHL1  H12A 4690   6.377   5.942   6.320  0.1131  1.1967 -0.8710
   48CHL1  H12B 4691   6.454   5.800   6.409 -0.3684  0.9921 -0.4283
   48CHL1   C11 4692   6.499   5.983   6.498 -0.1313  0.2330 -0.2283
   48CHL1  H11A 4693   6.516   6.089   6.471  1.2720  0.0628 -0.0579
   48CHL1  H11B 4694   6.410   5.984   6.565 -0.8417 -4.3969 -0.7301
   48CHL1    C9 4695   6.628   5.924   6.564 -0.4862 -0.3418  0.0026
   48CHL1    H9 4696   6.602   5.821   6.597  1.7883 -0.7342  0.7646
   48CHL1   C10 4697   6.672   5.995   6.692  0.5541 -1.1045  0.5717
   48CHL1   C19 4698   6.687   6.147   6.658  0.0635 -0.2179 -0.2050
   48CHL1  H19A 4699   6.768   6.172   6.587 -0.3233  1.6154 -0.0479
   48CHL1  H19B 4700   6.598   6.205   6.625  1.4361  1.8262 -0.5289
   48CHL1  H19C 4701   6.718   6.206   6.747 -0.5266  0.1717 -0.2516
   48CHL1    C1 4702   6.567   5.977   6.803 -0.2557  0.0147 -0.3261
   48CHL1   H1A 4703   6.468   6.023   6.779 -0.6336 -0.3934  0.4099
   48CHL1   H1B 4704   6.540   5.869   6.803  0.6771 -0.2807 -2.9117
   48CHL1    C2 4705   6.602   6.011   6.947 -0.6958 -0.4170 -0.6419
   48CHL1   H2A 4706   6.517   5.994   7.017 -0.7586  0.1391 -0.5812
   48CHL1   H2B 4707   6.619   6.121   6.945  0.2413 -0.5601 -2.0964
   48CHL1   C20 4708   6.474   5.871   6.021 -1.1288 -0.1018  0.1027
   48CHL1   H20 4709   6.396   5.938   6.063 -0.1965  0.6034  0.7430
   48CHL1   C21 4710   6.391   5.749   5.968 -1.0044  0.4143  0.1630
   48CHL1  H21A 4711   6.323   5.703   6.042  0.0837  2.3622  2.5224
   48CHL1  H21B 4712   6.332   5.778   5.879 -3.5756 -1.0219  1.3008
   48CHL1  H21C 4713   6.462   5.668   5.942 -1.9726 -1.2762  2.4854
   48CHL1   C22 4714   6.549   5.944   5.898  0.3134  0.0907 -0.5884
   48CHL1  H22A 4715   6.633   6.004   5.939  0.6707 -2.7682  3.4828
   48CHL1  H22B 4716   6.593   5.871   5.827  0.0895  0.8445 -1.5186
   48CHL1   C23 4717   6.448   6.031   5.817 -0.3496  0.6922 -0.5256
   48CHL1  H23A 4718   6.370   5.983   5.754 -2.7015  1.9724  1.2493
   48CHL1  H23B 4719   6.394   6.094   5.891 -0.0309  0.1695  0.1746
   48CHL1   C24 4720   6.526   6.118   5.713 -0.2964  0.3814 -0.0265
   48CHL1  H24A 4721   6.608   6.174   5.762  1.0045  1.4963 -3.1996
   48CHL1  H24B 4722   6.577   6.043   5.649 -1.8171 -0.1468 -0.6825
   48CHL1   C25 4723   6.450   6.223   5.625  0.1468  0.4469 -0.7399
   48CHL1   H25 4724   6.380   6.273   5.696  2.4946  0.0001  2.0839
   48CHL1   C26 4725   6.542   6.319   5.560 -0.3241  0.5734 -0.0352
   48CHL1  H26A 4726   6.614   6.373   5.624  1.6017 -1.1248 -0.6642
   48CHL1  H26B 4727   6.589   6.252   5.484 -1.4195  0.2680 -0.4651
   48CHL1  H26C 4728   6.489   6.400   5.506  0.5888  0.5776 -0.9510
   48CHL1   C27 4729   6.363   6.149   5.528 -0.2439  0.1953 -0.7128
   48CHL1  H27A 4730   6.284   6.099   5.588 -0.4932  2.5845  1.0685
   48CHL1  H27B 4731   6.296   6.219   5.473 -1.5887  0.8237  1.6078
   48CHL1  H27C 4732   6.417   6.073   5.468 -0.9900 -0.4213 -0.6225
   49CHL1    C3 4733   0.253   5.877   3.746 -0.7165 -0.1717 -0.4379
   49CHL1    H3 4734   0.142   5.881   3.738 -0.7455  0.0596  0.0087
   49CHL1    O3 4735   0.312   5.876   3.620 -0.0949  0.2391 -0.2081
   49CHL1   H3' 4736   0.406   5.883   3.637  0.0099 -1.9421  0.4198
   49CHL1    C4 4737   0.309   5.984   3.837  0.8405  0.5333  0.1617
   49CHL1   H4A 4738   0.419   5.979   3.850  0.9187  1.8490  0.1554
   49CHL1   H4B 4739   0.292   6.085   3.794 -1.1023  0.4013  0.5459
   49CHL1    C5 4740   0.249   5.964   3.972  0.3774 -0.6653  0.0767
   49CHL1    C6 4741   0.181   6.063   4.029 -0.6669 -0.1819  0.3143
   49CHL1    H6 4742   0.161   6.159   3.980  0.0992 -0.1933 -0.0360
   49CHL1    C7 4743   0.125   6.053   4.165 -0.3502  0.3268  0.1099
   49CHL1   H7A 4744   0.161   6.144   4.218 -0.3423  0.4314 -0.0744
   49CHL1   H7B 4745   0.014   6.046   4.170 -0.4384 -0.7087 -2.2388
   49CHL1    C8 4746   0.192   5.945   4.254 -0.0020 -0.5777  0.1344
   49CHL1    H8 4747   0.298   5.972   4.274 -0.7032  1.9786  0.8633
   49CHL1   C14 4748   0.126   5.952   4.391 -1.0011  0.5038  0.0304
   49CHL1   H14 4749   0.018   5.931   4.376 -1.6513  2.2069  1.7727
   49CHL1   C15 4750   0.130   6.081   4.472  0.6225  0.5276  0.5049
   49CHL1  H15A 4751   0.233   6.125   4.472  0.3474  1.2043  1.2468
   49CHL1  H15B 4752   0.060   6.158   4.434  2.1217  0.3197 -3.0340
   49CHL1   C16 4753   0.092   6.032   4.614  0.2235 -0.2237 -0.1451
   49CHL1  H16A 4754   0.162   6.083   4.684  1.0373 -0.8052 -0.5122
   49CHL1  H16B 4755  -0.014   6.059   4.629 -0.6218 -1.1676 -3.6019
   49CHL1   C17 4756   0.120   5.876   4.611  0.3392  0.2397  0.3038
   49CHL1   H17 4757   0.019   5.831   4.605 -0.4950  1.8797  1.1916
   49CHL1   C13 4758   0.192   5.843   4.482  0.0062 -0.1390 -0.1205
   49CHL1   C18 4759   0.347   5.866   4.500 -0.3476 -0.7281 -0.0620
   49CHL1  H18A 4760   0.397   5.785   4.557  0.8550 -1.1000 -1.6030
   49CHL1  H18B 4761   0.390   5.846   4.400 -1.8815  3.0140 -1.6751
   49CHL1  H18C 4762   0.369   5.961   4.553 -1.0261 -1.6736  2.0249
   49CHL1   C12 4763   0.172   5.705   4.407  0.0557  0.5222 -0.3828
   49CHL1  H12A 4764   0.193   5.612   4.465 -1.1364 -0.0863 -0.8763
   49CHL1  H12B 4765   0.064   5.701   4.379 -0.1501  3.1730 -0.2240
   49CHL1   C11 4766   0.237   5.695   4.270  0.0457 -0.2759 -0.0646
   49CHL1  H11A 4767   0.348   5.687   4.266  0.1903  1.8022 -0.9607
   49CHL1  H11B 4768   0.192   5.602   4.228  0.7401 -0.9413  0.6251
   49CHL1    C9 4769   0.185   5.817   4.181  0.0988  0.3446 -0.5246
   49CHL1    H9 4770   0.078   5.803   4.154 -0.7641 -0.5944  2.8319
   49CHL1   C10 4771   0.276   5.825   4.043  0.6565 -0.0806 -0.6431
   49CHL1   C19 4772   0.427   5.797   4.069  0.4509  0.0089 -0.2218
   49CHL1  H19A 4773   0.496   5.809   3.982  0.5620 -0.5147 -0.2048
   49CHL1  H19B 4774   0.462   5.867   4.147  1.1831 -0.8154  0.2015
   49CHL1  H19C 4775   0.452   5.696   4.106  2.7992  0.5524 -0.1880
   49CHL1    C1 4776   0.228   5.710   3.951  0.2430 -1.2053 -0.4251
   49CHL1   H1A 4777   0.276   5.614   3.981  0.7395 -0.6149  0.7341
   49CHL1   H1B 4778   0.117   5.705   3.940  0.0443 -1.3455  1.2688
   49CHL1    C2 4779   0.283   5.731   3.803 -0.2555 -0.1793  0.3689
   49CHL1   H2A 4780   0.241   5.658   3.731  0.3988 -0.5598  0.3647
   49CHL1   H2B 4781   0.394   5.723   3.796 -0.0231  2.8949 -1.0408
   49CHL1   C20 4782   0.164   5.825   4.748 -0.1293  0.2966  0.2486
   49CHL1   H20 4783   0.264   5.867   4.774  0.3061 -1.5503  1.7547
   49CHL1   C21 4784   0.181   5.674   4.730  0.3568  0.4323 -0.2447
   49CHL1  H21A 4785   0.226   5.627   4.819  0.0942 -0.1306 -0.4043
   49CHL1  H21B 4786   0.272   5.661   4.667  1.6067 -0.2104  1.6184
   49CHL1  H21C 4787   0.087   5.623   4.699  0.1372  1.0653 -0.6470
   49CHL1   C22 4788   0.072   5.877   4.860 -0.1066  0.0475 -0.3658
   49CHL1  H22A 4789   0.074   5.988   4.868  1.7557 -0.0063  0.4526
   49CHL1  H22B 4790  -0.028   5.840   4.829 -0.1889 -0.0546  0.0123
   49CHL1   C23 4791   0.104   5.818   4.998 -0.5794  0.1893  0.1239
   49CHL1  H23A 4792   0.119   5.708   4.987  2.5685  0.1466  3.0085
   49CHL1  H23B 4793   0.201   5.866   5.025 -1.9051  2.4167  1.2327
   49CHL1   C24 4794   0.003   5.832   5.112 -0.3971  0.6660 -0.3212
   49CHL1  H24A 4795  -0.018   5.938   5.138 -1.2318  0.4658 -0.1525
   49CHL1  H24B 4796  -0.092   5.792   5.070  0.0386 -0.9232  0.1374
   49CHL1   C25 4797   0.032   5.750   5.235  0.1538  0.0653 -0.5539
   49CHL1   H25 4798   0.088   5.660   5.203  0.3001 -0.4136  0.9946
   49CHL1   C26 4799   0.120   5.836   5.328 -0.4239  0.2456 -0.6027
   49CHL1  H26A 4800   0.195   5.897   5.273  3.0712 -1.1273  2.2518
   49CHL1  H26B 4801   0.058   5.904   5.390 -1.1752 -1.7490  0.9541
   49CHL1  H26C 4802   0.171   5.772   5.403  1.8088  0.6277 -1.7181
   49CHL1   C27 4803  -0.090   5.713   5.322  0.6720  0.4461  0.3148
   49CHL1  H27A 4804  -0.139   5.802   5.366 -0.3522 -0.2565  0.6364
   49CHL1  H27B 4805  -0.169   5.659   5.266  0.6085  0.6342  0.2218
   49CHL1  H27C 4806  -0.057   5.648   5.406  0.1291  0.7938  0.8079
   50CHL1    C3 4807   6.281   2.234   3.656 -0.3740  0.5439  0.3532
   50CHL1    H3 4808   6.179   2.195   3.673  0.3321 -1.2419  0.7090
   50CHL1    O3 4809   6.294   2.242   3.516  0.5012  0.0535  0.1092
   50CHL1   H3' 4810   6.276   2.155   3.481 -4.2679 -0.1195  2.2316
   50CHL1    C4 4811   6.304   2.367   3.723 -0.3622 -0.1471 -0.2323
   50CHL1   H4A 4812   6.403   2.396   3.684 -0.9620  0.2131 -1.5348
   50CHL1   H4B 4813   6.234   2.442   3.680  0.3258  0.3801 -0.4388
   50CHL1    C5 4814   6.303   2.366   3.879  1.3112  0.9513  0.4603
   50CHL1    C6 4815   6.223   2.452   3.952  0.2674 -0.1971  0.3401
   50CHL1    H6 4816   6.163   2.529   3.902  0.8526  0.0760  0.0499
   50CHL1    C7 4817   6.204   2.457   4.098  0.3893  0.7979 -0.7688
   50CHL1   H7A 4818   6.204   2.560   4.139  1.4988  0.6969 -0.4922
   50CHL1   H7B 4819   6.110   2.403   4.124  1.1234 -0.1837 -0.0566
   50CHL1    C8 4820   6.308   2.369   4.171  0.3313 -0.2799  0.4372
   50CHL1    H8 4821   6.406   2.422   4.169  0.1351  0.0804  0.1261
   50CHL1   C14 4822   6.275   2.342   4.322 -0.3751  0.2293 -0.3055
   50CHL1   H14 4823   6.189   2.272   4.325  0.8894 -1.3871 -0.6838
   50CHL1   C15 4824   6.223   2.460   4.404 -0.0068  0.2962  0.1145
   50CHL1  H15A 4825   6.278   2.556   4.390  2.2743 -0.8816  0.4699
   50CHL1  H15B 4826   6.119   2.496   4.392  0.1238  0.6957  0.1573
   50CHL1   C16 4827   6.243   2.407   4.549 -0.9941  0.4844  0.3547
   50CHL1  H16A 4828   6.314   2.473   4.605 -0.0686 -0.8492  0.8079
   50CHL1  H16B 4829   6.155   2.382   4.612 -0.3960 -1.3795  0.5162
   50CHL1   C17 4830   6.322   2.269   4.537 -1.1321  0.0784 -0.2954
   50CHL1   H17 4831   6.237   2.198   4.523 -3.2141  2.1875  0.7975
   50CHL1   C13 4832   6.385   2.270   4.394 -0.1105 -0.1081  0.4548
   50CHL1   C18 4833   6.509   2.358   4.400  0.2251 -1.0733  0.1552
   50CHL1  H18A 4834   6.592   2.302   4.448  1.9040 -0.2275 -1.6282
   50CHL1  H18B 4835   6.540   2.386   4.297 -0.7924  1.0376  0.3724
   50CHL1  H18C 4836   6.486   2.455   4.450 -1.2017 -0.5779 -1.3538
   50CHL1   C12 4837   6.402   2.140   4.325 -0.1346  0.9301 -0.4911
   50CHL1  H12A 4838   6.485   2.085   4.374  0.1739  0.7385 -1.2223
   50CHL1  H12B 4839   6.310   2.080   4.343 -0.0414  0.7117 -0.7326
   50CHL1   C11 4840   6.435   2.154   4.174 -0.3036 -0.4301 -0.2944
   50CHL1  H11A 4841   6.539   2.192   4.167 -0.6399  1.0539  1.7512
   50CHL1  H11B 4842   6.444   2.053   4.128 -1.9536  0.4813 -2.8122
   50CHL1    C9 4843   6.330   2.239   4.093  0.1683  0.0087 -0.5766
   50CHL1    H9 4844   6.230   2.190   4.090 -0.2419  0.4153  2.8533
   50CHL1   C10 4845   6.371   2.255   3.952 -0.6587  0.2841 -0.0698
   50CHL1   C19 4846   6.518   2.302   3.946 -0.2213  0.0412 -0.4914
   50CHL1  H19A 4847   6.588   2.225   3.985  2.8356  2.0911 -1.5234
   50CHL1  H19B 4848   6.559   2.314   3.843 -0.0507  0.7345 -0.3527
   50CHL1  H19C 4849   6.536   2.398   3.999 -3.0684  0.8916 -0.9350
   50CHL1    C1 4850   6.358   2.123   3.869  0.2457 -0.0508  0.4725
   50CHL1   H1A 4851   6.421   2.039   3.906  0.8583 -0.1477 -0.7385
   50CHL1   H1B 4852   6.250   2.098   3.879 -0.0401  1.1046  0.3364
   50CHL1    C2 4853   6.374   2.132   3.714  0.6456  0.3489 -0.2717
   50CHL1   H2A 4854   6.352   2.038   3.661  0.5921 -0.0989  0.5281
   50CHL1   H2B 4855   6.479   2.161   3.691  1.0631 -1.3740 -0.6353
   50CHL1   C20 4856   6.402   2.231   4.666  0.3261 -0.0323 -0.3793
   50CHL1   H20 4857   6.507   2.268   4.659  1.5767 -3.3242 -0.7200
   50CHL1   C21 4858   6.405   2.078   4.662  0.7409 -0.2858  0.4082
   50CHL1  H21A 4859   6.454   2.051   4.567 -0.4903 -0.5417 -0.1797
   50CHL1  H21B 4860   6.305   2.028   4.669  0.6478 -0.1623 -0.0229
   50CHL1  H21C 4861   6.470   2.037   4.743 -0.6878 -0.7737  1.3607
   50CHL1   C22 4862   6.342   2.276   4.802  0.1024 -0.0888 -0.7067
   50CHL1  H22A 4863   6.346   2.387   4.802 -1.4592  0.0028  0.4276
   50CHL1  H22B 4864   6.234   2.250   4.810  0.4266 -1.3617 -0.3398
   50CHL1   C23 4865   6.415   2.226   4.926  0.6284 -0.4724  0.3575
   50CHL1  H23A 4866   6.406   2.117   4.945  1.0914 -0.4942  0.4660
   50CHL1  H23B 4867   6.522   2.243   4.899  0.5955 -2.4328 -1.2514
   50CHL1   C24 4868   6.361   2.293   5.054 -0.1629  0.4026  0.4887
   50CHL1  H24A 4869   6.365   2.404   5.055 -2.7483  0.5740 -0.9508
   50CHL1  H24B 4870   6.253   2.277   5.035 -0.0946 -0.1000  0.5055
   50CHL1   C25 4871   6.416   2.241   5.185  0.9275 -0.6646 -0.5012
   50CHL1   H25 4872   6.404   2.130   5.183 -0.0846 -0.6404  1.4606
   50CHL1   C26 4873   6.563   2.265   5.210  1.0302  0.1432  0.3726
   50CHL1  H26A 4874   6.598   2.368   5.184  0.2948 -0.1770 -2.1406
   50CHL1  H26B 4875   6.589   2.237   5.315  2.3508 -3.1077 -0.7208
   50CHL1  H26C 4876   6.625   2.195   5.151 -0.0692 -0.5967  0.0655
   50CHL1   C27 4877   6.330   2.296   5.302  0.3650  0.4181 -0.0668
   50CHL1  H27A 4878   6.231   2.258   5.269 -0.0278  0.0005  1.5063
   50CHL1  H27B 4879   6.347   2.262   5.406 -1.8566  3.4417  1.4500
   50CHL1  H27C 4880   6.314   2.406   5.296 -2.5644  0.0118 -1.5866
   51CHL1    C3 4881   5.798   4.418   3.870  0.6264 -0.3267 -0.0878
   51CHL1    H3 4882   5.726   4.333   3.868  0.6469 -0.4001  1.1628
   51CHL1    O3 4883   5.863   4.417   3.739 -0.1855  0.4871 -0.5200
   51CHL1   H3' 4884   5.940   4.471   3.761 -0.1460  0.3641 -0.3598
   51CHL1    C4 4885   5.739   4.554   3.903 -0.2526 -0.8513  0.7546
   51CHL1   H4A 4886   5.815   4.633   3.884 -1.2967 -0.0625 -0.2797
   51CHL1   H4B 4887   5.653   4.576   3.836  0.1401 -1.0905  0.1701
   51CHL1    C5 4888   5.703   4.575   4.046  1.0342  0.2598  0.0560
   51CHL1    C6 4889   5.591   4.634   4.082  0.0647  1.2957  1.1181
   51CHL1    H6 4890   5.534   4.679   3.999  1.3218 -0.5440 -0.8400
   51CHL1    C7 4891   5.552   4.664   4.224 -0.7595  0.4250 -0.4163
   51CHL1   H7A 4892   5.526   4.772   4.228  0.4965  0.7420 -0.4595
   51CHL1   H7B 4893   5.466   4.606   4.263  0.9153 -1.3473  0.8215
   51CHL1    C8 4894   5.656   4.643   4.337 -0.2624 -0.1284  0.0514
   51CHL1    H8 4895   5.724   4.731   4.342  0.9815 -1.0647  4.7296
   51CHL1   C14 4896   5.596   4.625   4.478 -0.3173 -0.0298  0.2662
   51CHL1   H14 4897   5.543   4.528   4.481  1.6670 -1.1661  0.3245
   51CHL1   C15 4898   5.493   4.729   4.520 -0.7495  0.1495 -0.2135
   51CHL1  H15A 4899   5.529   4.833   4.501  0.6290 -0.4643 -1.1754
   51CHL1  H15B 4900   5.398   4.724   4.462 -0.3309  0.6187 -0.9686
   51CHL1   C16 4901   5.479   4.694   4.671 -0.1776 -0.4074  0.7722
   51CHL1  H16A 4902   5.486   4.794   4.719 -2.4909  0.6592 -0.9132
   51CHL1  H16B 4903   5.382   4.645   4.693  0.1704  0.1364  4.0456
   51CHL1   C17 4904   5.605   4.608   4.711  0.4035 -0.0652  0.4841
   51CHL1   H17 4905   5.573   4.502   4.720 -1.6667  0.6251  2.1663
   51CHL1   C13 4906   5.696   4.611   4.590  0.3504 -0.1891 -0.1375
   51CHL1   C18 4907   5.772   4.746   4.609 -0.9768  0.5788  0.3633
   51CHL1  H18A 4908   5.847   4.732   4.690  2.6823 -2.4765 -3.1636
   51CHL1  H18B 4909   5.834   4.774   4.522 -0.0345  0.3227  0.9395
   51CHL1  H18C 4910   5.710   4.830   4.647 -0.5946  0.8059  0.4899
   51CHL1   C12 4911   5.780   4.488   4.561  0.2517 -0.0852  0.2162
   51CHL1  H12A 4912   5.862   4.482   4.636  0.1618 -0.8977  0.2594
   51CHL1  H12B 4913   5.723   4.392   4.566  0.2469 -0.3278 -2.9196
   51CHL1   C11 4914   5.846   4.503   4.418  0.0547  0.4217  0.5942
   51CHL1  H11A 4915   5.919   4.587   4.427  2.4048 -1.5223  0.5849
   51CHL1  H11B 4916   5.914   4.417   4.406  0.7739  0.5505  3.1832
   51CHL1    C9 4917   5.744   4.527   4.306 -0.2637 -0.0780  0.4754
   51CHL1    H9 4918   5.666   4.448   4.314 -1.4046  0.9650  0.1255
   51CHL1   C10 4919   5.803   4.527   4.159  0.1308  0.2628 -0.1494
   51CHL1   C19 4920   5.928   4.622   4.159 -0.1483  0.3209  0.6087
   51CHL1  H19A 4921   5.913   4.708   4.227 -3.5220  3.0197 -3.0310
   51CHL1  H19B 4922   6.022   4.564   4.166  0.0415  0.6857  1.1426
   51CHL1  H19C 4923   5.938   4.675   4.062  1.6602 -1.7528 -0.4233
   51CHL1    C1 4924   5.845   4.385   4.115 -0.1940  0.2315  0.0808
   51CHL1   H1A 4925   5.922   4.341   4.182 -0.3296 -0.1165  0.0114
   51CHL1   H1B 4926   5.752   4.326   4.129  0.2638 -0.1020  2.0442
   51CHL1    C2 4927   5.903   4.379   3.973  0.0261 -0.0541 -0.5987
   51CHL1   H2A 4928   5.939   4.276   3.955 -1.4133 -0.2678 -2.5946
   51CHL1   H2B 4929   5.985   4.451   3.954 -0.1650  0.2718 -0.2219
   51CHL1   C20 4930   5.658   4.635   4.853 -0.3765  0.0014  0.2493
   51CHL1   H20 4931   5.731   4.718   4.858  0.1882 -0.4337 -0.4292
   51CHL1   C21 4932   5.747   4.512   4.899  0.1547  0.2567 -0.0734
   51CHL1  H21A 4933   5.684   4.420   4.899  0.5120 -0.0518  2.1864
   51CHL1  H21B 4934   5.778   4.530   5.004  0.8204  0.4084 -0.2972
   51CHL1  H21C 4935   5.838   4.499   4.837  0.4894 -1.5101  0.7231
   51CHL1   C22 4936   5.554   4.659   4.959 -0.5374  0.2098  0.0139
   51CHL1  H22A 4937   5.476   4.729   4.923 -0.7453  0.0104  0.0710
   51CHL1  H22B 4938   5.498   4.563   4.969 -1.8197  1.1442  2.8241
   51CHL1   C23 4939   5.598   4.694   5.104  0.5179  0.7724  0.2267
   51CHL1  H23A 4940   5.683   4.628   5.130  0.7570  1.1552  0.4189
   51CHL1  H23B 4941   5.642   4.796   5.098  1.8432  0.1485 -1.5170
   51CHL1   C24 4942   5.497   4.672   5.219 -0.2797 -0.2752  0.4781
   51CHL1  H24A 4943   5.401   4.717   5.186  0.4759 -0.3085 -1.8761
   51CHL1  H24B 4944   5.478   4.563   5.229 -1.9465  0.0675  1.5613
   51CHL1   C25 4945   5.537   4.733   5.357  0.5366  0.4763  0.1888
   51CHL1   H25 4946   5.542   4.843   5.346 -0.5367  0.4435 -0.8373
   51CHL1   C26 4947   5.439   4.701   5.475 -0.1145 -0.3684  0.8398
   51CHL1  H26A 4948   5.486   4.732   5.571  1.9996  2.3195 -0.8825
   51CHL1  H26B 4949   5.334   4.733   5.462 -0.8407 -2.1776  1.9605
   51CHL1  H26C 4950   5.424   4.593   5.492 -0.9420 -0.6464 -1.3889
   51CHL1   C27 4951   5.673   4.687   5.419 -0.1757  0.5803  0.2189
   51CHL1  H27A 4952   5.676   4.577   5.436  1.2041  0.7741  1.4209
   51CHL1  H27B 4953   5.749   4.715   5.343 -1.4619  0.7500 -1.0334
   51CHL1  H27C 4954   5.693   4.745   5.512  1.1409 -0.8044  0.8559
   52CHL1    C3 4955   5.702   4.906   3.781 -1.0832  0.8788 -0.3200
   52CHL1    H3 4956   5.651   4.817   3.824 -1.0758  0.5921 -0.8988
   52CHL1    O3 4957   5.742   4.881   3.643  0.4232  0.3018 -0.6377
   52CHL1   H3' 4958   5.835   4.897   3.630  0.1348  1.7250 -1.1315
   52CHL1    C4 4959   5.619   5.037   3.777 -0.8152 -0.2698  0.1890
   52CHL1   H4A 4960   5.672   5.119   3.724 -0.1848  1.4976  3.3515
   52CHL1   H4B 4961   5.534   5.010   3.710  0.1035  0.2856 -1.2516
   52CHL1    C5 4962   5.591   5.077   3.915  0.6781  0.3341  0.4693
   52CHL1    C6 4963   5.462   5.091   3.963 -0.1299 -1.2026 -0.3017
   52CHL1    H6 4964   5.376   5.086   3.894 -0.8206 -1.0185  0.5385
   52CHL1    C7 4965   5.431   5.118   4.104  0.2154  0.2597 -0.1382
   52CHL1   H7A 4966   5.346   5.189   4.108  0.2491  0.3151 -0.4222
   52CHL1   H7B 4967   5.392   5.021   4.142  0.1816 -0.8938 -2.8688
   52CHL1    C8 4968   5.549   5.155   4.201 -0.0485  0.9804 -0.1542
   52CHL1    H8 4969   5.586   5.258   4.184  1.0879  0.7440  0.7989
   52CHL1   C14 4970   5.505   5.138   4.347  0.4503  0.0894  0.3371
   52CHL1   H14 4971   5.481   5.030   4.352  0.8147  0.0360  1.0199
   52CHL1   C15 4972   5.386   5.222   4.385 -0.0056 -0.4914 -0.4308
   52CHL1  H15A 4973   5.395   5.327   4.350 -0.3582 -0.1721  0.4038
   52CHL1  H15B 4974   5.286   5.183   4.353  0.9818 -3.2277 -0.4786
   52CHL1   C16 4975   5.387   5.206   4.539 -0.3476  0.7142 -0.0697
   52CHL1  H16A 4976   5.389   5.305   4.591 -0.3340  0.3543  0.6258
   52CHL1  H16B 4977   5.302   5.149   4.582 -0.7492  0.8133 -0.7129
   52CHL1   C17 4978   5.522   5.127   4.576 -0.3722 -0.0965  0.3732
   52CHL1   H17 4979   5.511   5.016   4.574  0.5646 -0.1915 -2.0797
   52CHL1   C13 4980   5.606   5.161   4.455 -0.3303  0.2454  0.7460
   52CHL1   C18 4981   5.653   5.310   4.464  0.2452  0.6127 -0.0087
   52CHL1  H18A 4982   5.731   5.318   4.542  0.6292  0.4445 -0.3707
   52CHL1  H18B 4983   5.676   5.355   4.365 -0.3701  2.0848  0.4910
   52CHL1  H18C 4984   5.571   5.380   4.491 -0.5690  0.0150 -0.8354
   52CHL1   C12 4985   5.728   5.073   4.417  0.4965  0.1576  0.0887
   52CHL1  H12A 4986   5.821   5.089   4.476 -0.1390  0.5892  1.0089
   52CHL1  H12B 4987   5.693   4.968   4.423  0.8095  0.0644  0.3064
   52CHL1   C11 4988   5.780   5.097   4.273  0.8634 -0.1310  0.0311
   52CHL1  H11A 4989   5.819   5.200   4.265 -0.6069  0.3237 -2.0380
   52CHL1  H11B 4990   5.865   5.025   4.270  0.5053 -0.5768  0.4903
   52CHL1    C9 4991   5.669   5.068   4.169  0.1428 -0.7572 -0.7880
   52CHL1    H9 4992   5.629   4.965   4.187 -0.4125 -0.2923  0.7387
   52CHL1   C10 4993   5.715   5.075   4.018  0.8709  1.2769  0.0059
   52CHL1   C19 4994   5.785   5.213   3.994  0.6854 -0.2128 -0.0952
   52CHL1  H19A 4995   5.828   5.221   3.892  0.1119  1.7541 -0.2270
   52CHL1  H19B 4996   5.724   5.305   4.003  2.0764  0.6339  0.9412
   52CHL1  H19C 4997   5.867   5.236   4.065  0.2368  2.4591 -0.3652
   52CHL1    C1 4998   5.820   4.951   3.996  0.2421 -0.6164  0.1862
   52CHL1   H1A 4999   5.916   4.976   4.047  0.3193 -3.4473  1.6465
   52CHL1   H1B 5000   5.771   4.870   4.054 -0.3980  0.3016  0.9363
   52CHL1    C2 5001   5.840   4.915   3.850 -0.3542  0.0313  0.1112
   52CHL1   H2A 5002   5.882   4.816   3.825 -1.1170 -0.0878 -0.7559
   52CHL1   H2B 5003   5.887   5.005   3.805 -0.2220  0.8229  1.7571
   52CHL1   C20 5004   5.575   5.165   4.718  0.1488 -0.1797  0.0863
   52CHL1   H20 5005   5.578   5.275   4.727 -2.2513 -0.2041  1.9432
   52CHL1   C21 5006   5.710   5.099   4.739  0.2223 -0.4117 -0.3560
   52CHL1  H21A 5007   5.707   4.990   4.763  0.4417 -0.2117  0.6289
   52CHL1  H21B 5008   5.760   5.147   4.825  2.3747  0.1462 -1.8426
   52CHL1  H21C 5009   5.794   5.107   4.667 -0.5625 -1.4402 -1.4290
   52CHL1   C22 5010   5.472   5.130   4.827 -0.2707  0.1096 -0.1210
   52CHL1  H22A 5011   5.376   5.181   4.805 -0.5775 -0.6310 -0.5594
   52CHL1  H22B 5012   5.443   5.023   4.814  1.6475 -0.5446  0.5512
   52CHL1   C23 5013   5.510   5.169   4.969 -1.1476 -0.1143  0.5427
   52CHL1  H23A 5014   5.604   5.118   4.999  0.4376  2.7947  0.8814
   52CHL1  H23B 5015   5.521   5.279   4.982  1.8740 -0.1718 -0.8313
   52CHL1   C24 5016   5.406   5.125   5.072 -0.6193  0.2743 -1.1816
   52CHL1  H24A 5017   5.306   5.158   5.037 -1.6099 -1.6958 -0.3960
   52CHL1  H24B 5018   5.390   5.016   5.085 -2.4215  0.6860  0.4771
   52CHL1   C25 5019   5.417   5.187   5.209 -0.2135 -0.0878 -0.8082
   52CHL1   H25 5020   5.524   5.191   5.238 -0.9542  1.2470  2.1601
   52CHL1   C26 5021   5.370   5.333   5.204  0.4439 -0.4529 -0.5714
   52CHL1  H26A 5022   5.374   5.387   5.301 -0.6075  1.6973 -1.6796
   52CHL1  H26B 5023   5.427   5.385   5.125 -0.0581 -1.3288 -1.5327
   52CHL1  H26C 5024   5.265   5.338   5.167  0.1961  2.0647  0.2729
   52CHL1   C27 5025   5.326   5.113   5.316  0.5650 -0.5418 -0.0196
   52CHL1  H27A 5026   5.316   5.163   5.415 -1.5274 -0.3419 -0.2954
   52CHL1  H27B 5027   5.224   5.103   5.275 -1.0850 -1.3990  3.8833
   52CHL1  H27C 5028   5.358   5.007   5.326  2.0128 -0.1529 -0.2573
   53CHL1    C3 5029   5.325   4.405   3.723 -0.5106 -0.7032  0.2962
   53CHL1    H3 5030   5.411   4.465   3.759 -1.4023  0.8749 -0.1313
   53CHL1    O3 5031   5.307   4.415   3.580  0.0703  0.1965 -0.5120
   53CHL1   H3' 5032   5.230   4.363   3.553  0.1849  0.5750 -1.6461
   53CHL1    C4 5033   5.350   4.263   3.761  0.2255 -0.0222  0.8815
   53CHL1   H4A 5034   5.257   4.209   3.734  0.4282  0.4277 -0.7619
   53CHL1   H4B 5035   5.435   4.224   3.701 -1.5926 -1.9726 -0.5702
   53CHL1    C5 5036   5.363   4.248   3.907  0.6368  0.5149 -1.0734
   53CHL1    C6 5037   5.476   4.196   3.952 -0.4371  0.7882 -0.3188
   53CHL1    H6 5038   5.559   4.160   3.890  0.6812  0.7339  1.1521
   53CHL1    C7 5039   5.497   4.174   4.101  0.4590 -0.2488  0.0131
   53CHL1   H7A 5040   5.540   4.076   4.129 -1.7553 -0.8906  1.5136
   53CHL1   H7B 5041   5.566   4.252   4.139  3.0745 -1.7065 -1.5062
   53CHL1    C8 5042   5.374   4.187   4.200 -0.1468  0.2206  0.6084
   53CHL1    H8 5043   5.315   4.094   4.192  0.8803 -0.2946 -1.6519
   53CHL1   C14 5044   5.419   4.208   4.347  0.7431  0.0316 -0.2317
   53CHL1   H14 5045   5.483   4.299   4.351  0.5287  0.2139 -0.8524
   53CHL1   C15 5046   5.488   4.093   4.416  0.3407  0.2404 -0.3614
   53CHL1  H15A 5047   5.436   4.001   4.383 -2.9410  2.0183 -0.5874
   53CHL1  H15B 5048   5.597   4.092   4.393  0.5048  1.6556  0.2676
   53CHL1   C16 5049   5.465   4.118   4.568  0.1863 -0.1957  0.0196
   53CHL1  H16A 5050   5.404   4.036   4.611  2.2854 -0.6862  2.2840
   53CHL1  H16B 5051   5.555   4.138   4.630  0.2364  0.4438 -0.2488
   53CHL1   C17 5052   5.372   4.244   4.570 -0.3398 -0.4369  0.4881
   53CHL1   H17 5053   5.441   4.329   4.551 -0.7485 -0.4656 -1.2978
   53CHL1   C13 5054   5.297   4.241   4.436  0.3782 -0.3809 -0.0789
   53CHL1   C18 5055   5.185   4.127   4.439  1.1749  0.3275  0.0211
   53CHL1  H18A 5056   5.165   4.102   4.333  0.4670  1.0139 -0.0179
   53CHL1  H18B 5057   5.215   4.028   4.479 -1.6832 -1.4365 -1.7927
   53CHL1  H18C 5058   5.094   4.154   4.498  1.2889 -2.4311  1.5943
   53CHL1   C12 5059   5.250   4.379   4.389 -0.6548  0.4768  0.3629
   53CHL1  H12A 5060   5.177   4.434   4.451  0.2768  1.6247  0.4786
   53CHL1  H12B 5061   5.342   4.442   4.395 -0.4959  0.1001  3.3902
   53CHL1   C11 5062   5.191   4.355   4.248 -0.3102 -0.1874 -0.4693
   53CHL1  H11A 5063   5.104   4.287   4.257 -1.1711  0.7702 -1.2993
   53CHL1  H11B 5064   5.157   4.455   4.213  3.4671  1.6783  0.5827
   53CHL1    C9 5065   5.298   4.312   4.148 -0.4677  0.0644 -0.4832
   53CHL1    H9 5066   5.370   4.395   4.157 -2.4902  1.6998  5.9481
   53CHL1   C10 5067   5.248   4.300   3.993  0.0085  0.5412  0.2314
   53CHL1   C19 5068   5.126   4.206   3.990 -0.4084 -0.2466 -0.6990
   53CHL1  H19A 5069   5.080   4.184   3.891 -0.4928 -1.2432 -0.4474
   53CHL1  H19B 5070   5.137   4.111   4.048 -1.4801  1.4564  2.5572
   53CHL1  H19C 5071   5.041   4.254   4.045  0.4386  0.9708 -0.4159
   53CHL1    C1 5072   5.211   4.444   3.946 -0.3020 -0.1000  0.0887
   53CHL1   H1A 5073   5.122   4.475   4.004  1.0367 -0.7150  2.6413
   53CHL1   H1B 5074   5.292   4.516   3.971  0.6887 -1.8487  2.2488
   53CHL1    C2 5075   5.198   4.454   3.796 -0.2190  0.0433  0.7437
   53CHL1   H2A 5076   5.186   4.561   3.768  1.2527  0.2740  0.8820
   53CHL1   H2B 5077   5.116   4.392   3.754 -1.7463  2.9296 -0.8541
   53CHL1   C20 5078   5.293   4.256   4.701 -0.4718 -0.0118  0.1690
   53CHL1   H20 5079   5.233   4.162   4.706  0.1723 -0.5588 -1.4800
   53CHL1   C21 5080   5.195   4.367   4.696  0.1226  0.3823  0.2294
   53CHL1  H21A 5081   5.246   4.462   4.668 -2.6794  2.0711  0.4645
   53CHL1  H21B 5082   5.149   4.372   4.797  1.1673 -2.8508  0.9885
   53CHL1  H21C 5083   5.106   4.350   4.632 -0.8465 -0.8913  1.8257
   53CHL1   C22 5084   5.389   4.263   4.824 -0.2977 -0.7600  1.1532
   53CHL1  H22A 5085   5.475   4.195   4.807  0.8567  1.2988 -2.2996
   53CHL1  H22B 5086   5.433   4.364   4.833  1.6771 -1.3894 -0.5194
   53CHL1   C23 5087   5.311   4.230   4.953  0.4263  0.2503 -0.2516
   53CHL1  H23A 5088   5.278   4.326   4.996  2.2823  0.5355  0.6570
   53CHL1  H23B 5089   5.218   4.171   4.940  1.8297 -1.7269 -2.0973
   53CHL1   C24 5090   5.392   4.151   5.058 -0.7274  0.1792  0.9212
   53CHL1  H24A 5091   5.432   4.060   5.009  0.6106  0.4714  1.4204
   53CHL1  H24B 5092   5.487   4.204   5.078 -0.0436 -1.3149  1.7858
   53CHL1   C25 5093   5.317   4.114   5.182 -1.2478  0.5259  0.1923
   53CHL1   H25 5094   5.222   4.063   5.154 -1.1683  0.9115 -0.8086
   53CHL1   C26 5095   5.410   4.025   5.271 -0.1052 -0.2072  0.6708
   53CHL1  H26A 5096   5.505   4.075   5.300 -0.1829  0.0571  0.4784
   53CHL1  H26B 5097   5.356   4.003   5.365 -0.0444 -1.2644  0.4661
   53CHL1  H26C 5098   5.440   3.931   5.221 -2.7646  0.2514 -2.0516
   53CHL1   C27 5099   5.267   4.230   5.259  0.2723  0.0781  0.0983
   53CHL1  H27A 5100   5.224   4.202   5.357  1.1799  1.9860  1.0964
   53CHL1  H27B 5101   5.354   4.294   5.284  0.1125  0.5238 -0.4695
   53CHL1  H27C 5102   5.188   4.290   5.209  0.0314 -0.6585 -0.4325
   54CHL1    C3 5103   5.287   6.139   3.901 -0.4141  0.9095  0.0608
   54CHL1    H3 5104   5.391   6.172   3.924 -0.2023 -0.1667  0.7346
   54CHL1    O3 5105   5.270   6.147   3.762  0.0490 -0.7207  0.4175
   54CHL1   H3' 5106   5.178   6.122   3.746  0.5622 -1.8817 -0.9860
   54CHL1    C4 5107   5.288   5.991   3.943  0.6816 -0.0832  0.2237
   54CHL1   H4A 5108   5.185   5.956   3.921  0.7742 -0.1344 -0.1524
   54CHL1   H4B 5109   5.357   5.928   3.882 -0.6973 -1.3130 -0.1047
   54CHL1    C5 5110   5.317   5.973   4.092  0.2401 -0.5563  0.3629
   54CHL1    C6 5111   5.414   5.897   4.141 -0.0657 -0.4568 -1.1375
   54CHL1    H6 5112   5.488   5.851   4.074  1.2313  0.1668 -0.1786
   54CHL1    C7 5113   5.437   5.869   4.288  0.0256 -0.1588 -0.0104
   54CHL1   H7A 5114   5.446   5.759   4.300  1.7976 -0.0189  0.1251
   54CHL1   H7B 5115   5.533   5.911   4.326 -0.8506  0.6562  1.4139
   54CHL1    C8 5116   5.318   5.921   4.377  0.0060  0.2999 -0.9382
   54CHL1    H8 5117   5.237   5.847   4.363 -0.4202  1.0655 -2.9737
   54CHL1   C14 5118   5.358   5.924   4.525 -0.4531  0.2699 -0.1917
   54CHL1   H14 5119   5.439   5.999   4.543  2.3125 -2.8828  1.6485
   54CHL1   C15 5120   5.430   5.799   4.588  0.1690  0.5442  0.2796
   54CHL1  H15A 5121   5.379   5.707   4.553 -1.0570  0.6624  1.6535
   54CHL1  H15B 5122   5.528   5.771   4.545  0.1274 -2.3901  1.8536
   54CHL1   C16 5123   5.424   5.827   4.742 -0.5109 -0.5919 -0.8089
   54CHL1  H16A 5124   5.377   5.737   4.786 -1.4491  0.1199 -0.3268
   54CHL1  H16B 5125   5.523   5.841   4.790 -0.9400 -0.2712 -0.0027
   54CHL1   C17 5126   5.326   5.948   4.757  0.0760 -0.3241  0.2741
   54CHL1   H17 5127   5.385   6.041   4.746  0.7573 -0.7900 -0.0882
   54CHL1   C13 5128   5.245   5.955   4.624  0.3552  0.2888 -0.3001
   54CHL1   C18 5129   5.137   5.848   4.612 -0.3222 -0.3242 -0.4288
   54CHL1  H18A 5130   5.087   5.848   4.512  0.8947  0.6708 -1.0615
   54CHL1  H18B 5131   5.181   5.749   4.634  3.0744  0.8228 -1.3781
   54CHL1  H18C 5132   5.055   5.870   4.683  1.4167  1.8971  1.0347
   54CHL1   C12 5133   5.191   6.095   4.592 -0.6395  0.1270  0.0576
   54CHL1  H12A 5134   5.106   6.115   4.661  0.7905 -3.3511  3.1840
   54CHL1  H12B 5135   5.270   6.171   4.611 -0.4889 -0.1168  0.4098
   54CHL1   C11 5136   5.154   6.106   4.443  0.0916 -0.4430  0.5599
   54CHL1  H11A 5137   5.063   6.043   4.437  0.7901 -1.5198  1.1007
   54CHL1  H11B 5138   5.130   6.211   4.414  0.0849 -1.6196 -4.7609
   54CHL1    C9 5139   5.259   6.055   4.340 -0.1066 -0.3466  0.0883
   54CHL1    H9 5140   5.332   6.136   4.359 -2.5638  1.6740  1.5140
   54CHL1   C10 5141   5.220   6.055   4.194 -0.2012  0.6781 -0.0849
   54CHL1   C19 5142   5.081   5.984   4.177 -0.2759 -0.5070  0.1192
   54CHL1  H19A 5143   5.093   5.884   4.224 -0.6991 -0.8495 -0.5018
   54CHL1  H19B 5144   5.005   6.041   4.235  0.3338  1.1839 -0.6797
   54CHL1  H19C 5145   5.050   5.968   4.072  0.4578  2.3099 -0.6231
   54CHL1    C1 5146   5.222   6.198   4.134  0.3912 -0.1681  0.7128
   54CHL1   H1A 5147   5.150   6.265   4.187 -0.8520 -0.1772 -0.8870
   54CHL1   H1B 5148   5.324   6.238   4.148  0.5951 -0.5491  0.3207
   54CHL1    C2 5149   5.190   6.218   3.985  0.1922  0.2706 -0.5606
   54CHL1   H2A 5150   5.212   6.323   3.959  1.4460  0.2572  0.3279
   54CHL1   H2B 5151   5.084   6.191   3.966  0.3358  0.5441 -1.8557
   54CHL1   C20 5152   5.246   5.939   4.890  0.1458 -0.6987 -0.0193
   54CHL1   H20 5153   5.184   5.847   4.882  2.1946 -2.2370  1.0282
   54CHL1   C21 5154   5.150   6.059   4.907 -0.4450  0.3360  0.0982
   54CHL1  H21A 5155   5.103   6.047   5.007  0.4275  0.3682  0.5236
   54CHL1  H21B 5156   5.066   6.057   4.834 -0.0254  0.5166 -0.3955
   54CHL1  H21C 5157   5.197   6.159   4.905 -0.2576  0.2587  0.5606
   54CHL1   C22 5158   5.329   5.918   5.023 -0.1856  0.2912  0.3022
   54CHL1  H22A 5159   5.431   5.889   4.989 -0.3361 -0.8906  0.8216
   54CHL1  H22B 5160   5.337   6.014   5.079 -3.3307  1.2887 -0.7323
   54CHL1   C23 5161   5.285   5.817   5.123 -0.3611  0.3207 -0.5763
   54CHL1  H23A 5162   5.261   5.726   5.064  1.1977 -0.6951  0.3014
   54CHL1  H23B 5163   5.368   5.783   5.188 -3.3378 -1.7386  2.4333
   54CHL1   C24 5164   5.167   5.863   5.211  0.1858 -0.1638  0.3645
   54CHL1  H24A 5165   5.190   5.963   5.254  1.4925 -0.3581  0.1637
   54CHL1  H24B 5166   5.073   5.870   5.153  0.8338  0.6641 -0.6151
   54CHL1   C25 5167   5.140   5.781   5.339 -0.0564  0.4463 -0.2270
   54CHL1   H25 5168   5.224   5.812   5.404 -0.3739  2.0012 -0.5261
   54CHL1   C26 5169   5.022   5.835   5.418 -0.1224 -0.0456  0.0269
   54CHL1  H26A 5170   4.919   5.826   5.376 -1.8702  2.5961  3.2658
   54CHL1  H26B 5171   5.015   5.788   5.519 -0.1275  0.3079  0.1934
   54CHL1  H26C 5172   5.044   5.942   5.438 -0.6208  0.8168 -3.4149
   54CHL1   C27 5173   5.148   5.625   5.319  0.0893  0.2991  0.1215
   54CHL1  H27A 5174   5.066   5.591   5.252  0.3031  0.7125 -0.3553
   54CHL1  H27B 5175   5.246   5.603   5.270  1.1481  0.2752  2.1601
   54CHL1  H27C 5176   5.140   5.580   5.420  0.0757  0.9066  0.3965
   55CHL1    C3 5177   2.089   4.060   3.545  0.2472  0.2331 -0.4796
   55CHL1    H3 5178   2.098   3.952   3.570  0.7174  0.5868  0.9139
   55CHL1    O3 5179   2.108   4.076   3.404 -0.6527 -0.1264 -0.5711
   55CHL1   H3' 5180   2.137   4.167   3.396  1.5276 -0.5102  1.8305
   55CHL1    C4 5181   1.956   4.111   3.606  0.0790 -0.0567 -0.7654
   55CHL1   H4A 5182   1.949   4.221   3.591 -0.1919 -0.3531 -3.1770
   55CHL1   H4B 5183   1.881   4.056   3.546  0.9860 -0.5436 -1.4669
   55CHL1    C5 5184   1.953   4.083   3.754 -0.1752 -0.2021  0.7119
   55CHL1    C6 5185   1.861   4.007   3.817 -0.1444  0.2841  0.3039
   55CHL1    H6 5186   1.770   3.969   3.768 -0.1577  0.4367  0.2111
   55CHL1    C7 5187   1.856   4.000   3.966 -0.3513  0.1418  0.3608
   55CHL1   H7A 5188   1.750   4.010   3.997  0.1284 -2.1805  3.0767
   55CHL1   H7B 5189   1.891   3.898   3.992  0.0440 -0.2594 -1.5658
   55CHL1    C8 5190   1.936   4.111   4.041  0.4455 -0.8503  0.7350
   55CHL1    H8 5191   1.890   4.211   4.031 -2.2957 -2.0014  1.0088
   55CHL1   C14 5192   1.939   4.083   4.185  0.1169  0.0891  0.5796
   55CHL1   H14 5193   1.985   3.982   4.189 -1.1081 -0.5004  0.2763
   55CHL1   C15 5194   1.799   4.080   4.258  0.4563  0.4345 -0.9836
   55CHL1  H15A 5195   1.736   4.168   4.234 -0.9706 -0.0024  0.9943
   55CHL1  H15B 5196   1.740   3.991   4.227 -0.9079  0.8892  0.1756
   55CHL1   C16 5197   1.852   4.076   4.408  0.0237  0.4026 -0.4851
   55CHL1  H16A 5198   1.786   4.139   4.470 -0.4237 -0.1874 -0.3547
   55CHL1  H16B 5199   1.835   3.972   4.443 -0.2636 -0.0773 -1.9833
   55CHL1   C17 5200   2.004   4.108   4.416  0.3790 -0.7385  0.2655
   55CHL1   H17 5201   2.065   4.016   4.423  2.1395  0.3803  0.2207
   55CHL1   C13 5202   2.034   4.163   4.273 -0.4993 -0.0742  0.1890
   55CHL1   C18 5203   1.991   4.315   4.256  0.3076  0.2245  0.2768
   55CHL1  H18A 5204   2.067   4.384   4.298  0.5587  1.1802 -1.6392
   55CHL1  H18B 5205   1.986   4.342   4.149 -1.0160  1.0037  0.5044
   55CHL1  H18C 5206   1.896   4.332   4.312  0.2013  0.7479 -0.0555
   55CHL1   C12 5207   2.179   4.150   4.227  0.3809  0.3084  0.4476
   55CHL1  H12A 5208   2.245   4.222   4.281  1.4390 -1.2667  1.3216
   55CHL1  H12B 5209   2.217   4.047   4.244  0.4052  0.3928  0.9369
   55CHL1   C11 5210   2.195   4.166   4.075 -0.6089 -0.1290 -0.4975
   55CHL1  H11A 5211   2.200   4.276   4.059 -0.8924 -0.0648 -0.1483
   55CHL1  H11B 5212   2.296   4.143   4.035 -0.4307  1.4079 -1.0106
   55CHL1    C9 5213   2.079   4.103   3.985 -0.0059 -0.2624 -0.8311
   55CHL1    H9 5214   2.106   3.995   3.993  3.3184  0.3794 -1.8919
   55CHL1   C10 5215   2.076   4.149   3.831  0.4155  0.3954  0.1775
   55CHL1   C19 5216   2.053   4.303   3.835 -0.8598 -0.7316 -0.5361
   55CHL1  H19A 5217   1.958   4.339   3.880 -0.0676  1.2450 -0.3480
   55CHL1  H19B 5218   2.132   4.353   3.895 -0.6523 -0.2784 -1.1705
   55CHL1  H19C 5219   2.059   4.350   3.734  3.5135 -1.6293 -0.8700
   55CHL1    C1 5220   2.208   4.115   3.765  0.3577 -0.2156  0.4819
   55CHL1   H1A 5221   2.288   4.178   3.809  3.4146 -1.6954 -2.4885
   55CHL1   H1B 5222   2.213   4.010   3.801 -1.0957  0.4753  2.9760
   55CHL1    C2 5223   2.210   4.131   3.616 -0.0232 -0.5840 -0.2425
   55CHL1   H2A 5224   2.311   4.099   3.582  1.4928  0.9968  2.4493
   55CHL1   H2B 5225   2.196   4.237   3.585  0.9535 -0.7438 -1.3187
   55CHL1   C20 5226   2.049   4.191   4.545 -0.2628  0.4834  0.0826
   55CHL1   H20 5227   2.031   4.298   4.520 -1.1785 -0.1513 -2.3198
   55CHL1   C21 5228   2.201   4.182   4.569  0.4052  0.9881 -0.4636
   55CHL1  H21A 5229   2.240   4.237   4.481 -0.0590  1.3972 -0.4180
   55CHL1  H21B 5230   2.237   4.077   4.572  0.0301  0.8842  1.1436
   55CHL1  H21C 5231   2.226   4.231   4.665  1.6045 -0.7218  0.1501
   55CHL1   C22 5232   1.976   4.150   4.677 -0.0164  0.0381 -0.5340
   55CHL1  H22A 5233   2.028   4.205   4.758 -0.2983  1.0178 -0.9957
   55CHL1  H22B 5234   1.872   4.189   4.677  0.4646  1.3583 -0.2853
   55CHL1   C23 5235   1.982   4.006   4.723  0.0613 -0.4276 -0.0206
   55CHL1  H23A 5236   1.928   3.948   4.645 -2.5389 -0.5828  1.7593
   55CHL1  H23B 5237   2.084   3.962   4.719  0.1463 -0.3311  0.9338
   55CHL1   C24 5238   1.917   3.994   4.860 -0.0923 -0.0413 -0.2160
   55CHL1  H24A 5239   1.982   4.046   4.934  0.1233 -0.1927 -0.3016
   55CHL1  H24B 5240   1.819   4.047   4.865  0.3627  0.8536 -0.5248
   55CHL1   C25 5241   1.905   3.851   4.916 -0.8256 -0.5928  0.1414
   55CHL1   H25 5242   1.992   3.795   4.877  0.6971  2.1730 -0.7564
   55CHL1   C26 5243   1.918   3.850   5.069 -0.0041 -0.2883 -0.3419
   55CHL1  H26A 5244   1.828   3.892   5.120 -1.0477 -0.0762 -2.2830
   55CHL1  H26B 5245   1.938   3.744   5.099 -0.0760 -0.0132  0.7351
   55CHL1  H26C 5246   2.008   3.904   5.106 -1.2842  0.8999  1.1716
   55CHL1   C27 5247   1.765   3.802   4.871 -0.9581 -0.1480  0.3130
   55CHL1  H27A 5248   1.779   3.693   4.887  0.4454  0.1443  1.3006
   55CHL1  H27B 5249   1.682   3.844   4.932 -1.6993 -1.0123 -0.0656
   55CHL1  H27C 5250   1.758   3.818   4.762 -1.4506 -1.2782  0.1568
   56CHL1    C3 5251   2.920   2.359   3.477  0.1708 -0.3079  0.0872
   56CHL1    H3 5252   2.862   2.452   3.496 -0.1630  0.0107 -2.1853
   56CHL1    O3 5253   2.933   2.342   3.337  0.4409  0.3267  0.3893
   56CHL1   H3' 5254   2.998   2.271   3.335  1.1296  0.9576 -0.2959
   56CHL1    C4 5255   3.058   2.379   3.542  0.4600  0.5556 -0.0803
   56CHL1   H4A 5256   3.127   2.295   3.516  1.5737  0.8700  1.7453
   56CHL1   H4B 5257   3.098   2.472   3.496 -0.5892  0.1040 -2.0225
   56CHL1    C5 5258   3.051   2.384   3.688  0.4848 -0.1679  0.2899
   56CHL1    C6 5259   3.102   2.487   3.751  0.0955 -0.1533 -0.0512
   56CHL1    H6 5260   3.174   2.555   3.704  1.7132 -2.0402 -0.4306
   56CHL1    C7 5261   3.105   2.504   3.901 -0.1196 -0.0201 -0.4490
   56CHL1   H7A 5262   3.205   2.527   3.943 -0.5030 -0.9030  1.0079
   56CHL1   H7B 5263   3.035   2.586   3.927 -0.9201 -0.2556 -1.7467
   56CHL1    C8 5264   3.055   2.379   3.977  0.5626 -0.6076  0.2021
   56CHL1    H8 5265   3.130   2.296   3.980  0.9818 -0.2357  0.1119
   56CHL1   C14 5266   3.022   2.415   4.119 -0.1381 -0.4619  0.0422
   56CHL1   H14 5267   2.941   2.490   4.115 -2.0568 -2.3399  1.5697
   56CHL1   C15 5268   3.137   2.480   4.198  0.2118 -0.3142 -0.2072
   56CHL1  H15A 5269   3.238   2.435   4.184  1.1559  1.9164 -0.9166
   56CHL1  H15B 5270   3.140   2.588   4.175  1.9397 -0.4450 -0.7245
   56CHL1   C16 5271   3.087   2.442   4.346 -0.1232 -0.3384  0.2069
   56CHL1  H16A 5272   3.172   2.387   4.391 -0.8326 -1.0886  0.6610
   56CHL1  H16B 5273   3.084   2.535   4.406  3.0908  0.7340 -1.0893
   56CHL1   C17 5274   2.951   2.371   4.334  0.1474 -0.1463 -0.4236
   56CHL1   H17 5275   2.876   2.452   4.318  1.1377  0.9040  0.0533
   56CHL1   C13 5276   2.963   2.302   4.203  0.3193  0.3730  0.5106
   56CHL1   C18 5277   3.062   2.177   4.222 -0.0312 -0.2096 -0.0651
   56CHL1  H18A 5278   3.154   2.207   4.277 -0.2751  2.6153 -0.9871
   56CHL1  H18B 5279   3.002   2.096   4.267 -0.8999 -0.5637 -1.8013
   56CHL1  H18C 5280   3.090   2.130   4.126 -1.6765  0.1651 -0.7714
   56CHL1   C12 5281   2.833   2.265   4.137  0.4969 -0.6402 -0.1043
   56CHL1  H12A 5282   2.774   2.188   4.191 -0.3077  0.0254 -0.0189
   56CHL1  H12B 5283   2.763   2.351   4.144  0.2888 -0.9196  1.7682
   56CHL1   C11 5284   2.855   2.222   3.994  0.0907 -0.6349 -0.7353
   56CHL1  H11A 5285   2.893   2.118   3.993  2.7728  0.2022  1.4174
   56CHL1  H11B 5286   2.760   2.215   3.937  1.0014 -0.3646 -2.3686
   56CHL1    C9 5287   2.926   2.322   3.904  0.0309  0.2732  0.1087
   56CHL1    H9 5288   2.850   2.403   3.902 -2.7611 -2.1617  0.8205
   56CHL1   C10 5289   2.959   2.275   3.759 -0.5237 -0.4854  0.4900
   56CHL1   C19 5290   3.050   2.148   3.767  0.2980 -0.5084 -0.3179
   56CHL1  H19A 5291   3.141   2.163   3.829 -0.5337 -0.4379  0.9063
   56CHL1  H19B 5292   2.998   2.070   3.827  1.0860  0.3690  1.5905
   56CHL1  H19C 5293   3.064   2.096   3.669 -1.1105 -1.4516 -0.0447
   56CHL1    C1 5294   2.828   2.242   3.682 -0.2415  0.4177  0.5924
   56CHL1   H1A 5295   2.798   2.141   3.718  1.3581 -1.0877 -2.0216
   56CHL1   H1B 5296   2.754   2.321   3.709 -0.2226 -0.7293  4.7162
   56CHL1    C2 5297   2.844   2.234   3.529 -0.8469  0.1399  1.0911
   56CHL1   H2A 5298   2.747   2.227   3.475  0.8519  0.2424 -2.2010
   56CHL1   H2B 5299   2.914   2.151   3.505  1.2268  2.1619 -0.2140
   56CHL1   C20 5300   2.907   2.296   4.468 -0.1346  0.2925 -0.5710
   56CHL1   H20 5301   2.973   2.207   4.470  1.5107  1.4468 -0.9223
   56CHL1   C21 5302   2.760   2.253   4.461  0.9505 -0.3633  0.3357
   56CHL1  H21A 5303   2.746   2.156   4.407 -1.8842 -0.0298  0.3280
   56CHL1  H21B 5304   2.701   2.338   4.420  2.5961  2.2210  2.9349
   56CHL1  H21C 5305   2.727   2.245   4.567  1.5866 -0.9214  0.5022
   56CHL1   C22 5306   2.944   2.360   4.605  0.9778  0.8697  0.5475
   56CHL1  H22A 5307   3.051   2.389   4.618  1.5942 -1.6086  1.7134
   56CHL1  H22B 5308   2.883   2.447   4.638  0.2233  0.5136  0.1115
   56CHL1   C23 5309   2.937   2.250   4.721  0.0740  0.3132  0.0849
   56CHL1  H23A 5310   2.835   2.206   4.726  0.0392  0.1882 -1.3183
   56CHL1  H23B 5311   3.011   2.175   4.685 -0.2670 -0.4328  0.9054
   56CHL1   C24 5312   2.971   2.297   4.862  0.1123 -0.1364 -0.7761
   56CHL1  H24A 5313   3.076   2.331   4.872 -1.2048  4.4927 -0.2765
   56CHL1  H24B 5314   2.897   2.379   4.880  0.3836 -0.1566  0.5029
   56CHL1   C25 5315   2.953   2.192   4.967  0.4344 -0.0338  0.2608
   56CHL1   H25 5316   3.030   2.113   4.949  0.7485  0.5599 -1.0816
   56CHL1   C26 5317   2.973   2.253   5.106  0.1050 -0.1248  0.1178
   56CHL1  H26A 5318   2.890   2.323   5.128  1.5836  1.4488  0.9325
   56CHL1  H26B 5319   2.967   2.171   5.180 -1.5949 -1.7450 -1.7103
   56CHL1  H26C 5320   3.066   2.313   5.117  1.2683 -2.1212  1.8813
   56CHL1   C27 5321   2.818   2.110   4.960  0.2513  0.7318 -0.1115
   56CHL1  H27A 5322   2.803   2.053   4.866  3.5861 -1.5226  0.5279
   56CHL1  H27B 5323   2.813   2.041   5.047 -0.4815  1.5760  0.5317
   56CHL1  H27C 5324   2.730   2.177   4.967 -0.4730 -0.1737 -0.2832
   57CHL1    C3 5325   2.947   1.339   3.746 -0.2268 -0.7262  0.0481
   57CHL1    H3 5326   3.027   1.414   3.766 -0.2881 -1.1881  2.2953
   57CHL1    O3 5327   2.942   1.306   3.609  0.0348 -0.0688 -0.1791
   57CHL1   H3' 5328   2.850   1.322   3.586  0.0668  0.0009 -0.2601
   57CHL1    C4 5329   2.972   1.209   3.820 -0.0080  0.9675 -0.1457
   57CHL1   H4A 5330   2.893   1.135   3.792  0.2252  1.0690 -1.0976
   57CHL1   H4B 5331   3.062   1.158   3.780 -0.2145  0.8243 -0.4442
   57CHL1    C5 5332   2.980   1.220   3.971  0.5367  0.2917 -0.2368
   57CHL1    C6 5333   3.096   1.189   4.029 -0.2820  0.0969  0.2052
   57CHL1    H6 5334   3.182   1.158   3.967 -0.0160  1.7375 -0.2923
   57CHL1    C7 5335   3.103   1.185   4.181  0.6602  0.4358  0.7911
   57CHL1   H7A 5336   3.158   1.097   4.221  0.1614 -0.6084 -0.7384
   57CHL1   H7B 5337   3.155   1.280   4.208  4.7315 -1.2757 -0.1977
   57CHL1    C8 5338   2.970   1.204   4.255 -0.5080  0.2212  0.3493
   57CHL1    H8 5339   2.923   1.103   4.261 -0.2659  0.0398 -0.7202
   57CHL1   C14 5340   2.995   1.259   4.392  1.0414 -0.2653  0.5109
   57CHL1   H14 5341   3.028   1.365   4.383 -1.6215  0.5082 -1.5397
   57CHL1   C15 5342   3.110   1.199   4.482  0.0996  0.7067 -0.2804
   57CHL1  H15A 5343   3.112   1.091   4.457 -0.3146  0.1141  1.9673
   57CHL1  H15B 5344   3.204   1.250   4.453 -0.0798  1.1392 -0.1046
   57CHL1   C16 5345   3.069   1.219   4.626  0.6295  0.2371 -0.2139
   57CHL1  H16A 5346   3.056   1.116   4.665  1.8219  0.0139 -0.3859
   57CHL1  H16B 5347   3.146   1.274   4.685 -2.2140  2.4116  1.8292
   57CHL1   C17 5348   2.938   1.303   4.618  0.6647 -0.2187  0.1569
   57CHL1   H17 5349   2.966   1.410   4.604  0.2656 -0.2138 -0.6939
   57CHL1   C13 5350   2.874   1.266   4.479  0.1890 -0.5164 -0.1875
   57CHL1   C18 5351   2.820   1.116   4.493 -0.6762 -0.1112  0.3190
   57CHL1  H18A 5352   2.750   1.080   4.415 -1.3315  0.4586  0.6235
   57CHL1  H18B 5353   2.900   1.040   4.495 -0.2716  0.3065  0.0830
   57CHL1  H18C 5354   2.774   1.099   4.593  1.1220 -1.6723  0.9490
   57CHL1   C12 5355   2.774   1.360   4.410  0.1953  0.2096  0.1396
   57CHL1  H12A 5356   2.676   1.359   4.461 -0.4530 -0.7559 -1.0660
   57CHL1  H12B 5357   2.810   1.464   4.418  0.5085  0.1130  0.0228
   57CHL1   C11 5358   2.757   1.320   4.264  0.3826 -0.2836 -0.1263
   57CHL1  H11A 5359   2.696   1.227   4.269 -0.7704  0.4485 -0.3324
   57CHL1  H11B 5360   2.690   1.391   4.212  0.0984 -0.8859 -0.5891
   57CHL1    C9 5361   2.880   1.300   4.176  0.3368 -0.2326 -0.7147
   57CHL1    H9 5362   2.932   1.398   4.170  1.4956 -0.1222  4.9548
   57CHL1   C10 5363   2.848   1.273   4.024  0.0049  0.5269  0.2528
   57CHL1   C19 5364   2.728   1.177   4.006  0.3294  0.2759  0.0808
   57CHL1  H19A 5365   2.635   1.227   4.042 -0.3253 -2.3070  2.3265
   57CHL1  H19B 5366   2.712   1.149   3.900 -0.4090  0.0516  0.2502
   57CHL1  H19C 5367   2.745   1.088   4.071 -0.2239 -0.0155 -0.1722
   57CHL1    C1 5368   2.817   1.406   3.950  0.5942 -0.5596  0.2811
   57CHL1   H1A 5369   2.714   1.445   3.971  0.6749  0.5836 -1.2448
   57CHL1   H1B 5370   2.884   1.491   3.976  0.0623 -0.8967  3.1235
   57CHL1    C2 5371   2.817   1.401   3.795 -0.8619  0.0526 -0.1301
   57CHL1   H2A 5372   2.803   1.498   3.744 -0.2810 -0.7724 -1.9177
   57CHL1   H2B 5373   2.737   1.331   3.762 -0.9396 -0.8626  1.8239
   57CHL1   C20 5374   2.856   1.291   4.748 -0.4330  0.1933 -0.0121
   57CHL1   H20 5375   2.834   1.183   4.762 -1.6726  0.3073 -0.9151
   57CHL1   C21 5376   2.722   1.372   4.735 -0.3411 -0.1478 -0.4308
   57CHL1  H21A 5377   2.743   1.474   4.696  0.1604  0.1306  0.5248
   57CHL1  H21B 5378   2.674   1.373   4.835  1.3535 -0.1935  0.4210
   57CHL1  H21C 5379   2.661   1.319   4.659  1.4078 -1.5651 -0.9228
   57CHL1   C22 5380   2.927   1.352   4.874 -0.4819  0.6986 -0.5884
   57CHL1  H22A 5381   3.032   1.315   4.880 -0.6691  0.2970  0.5043
   57CHL1  H22B 5382   2.933   1.462   4.863 -1.1197  0.5647 -2.7098
   57CHL1   C23 5383   2.862   1.333   5.011 -0.4201  1.0121  0.9280
   57CHL1  H23A 5384   2.928   1.376   5.090 -0.6353  2.0886  0.5384
   57CHL1  H23B 5385   2.766   1.388   5.011 -0.6076  0.6921  1.4081
   57CHL1   C24 5386   2.846   1.183   5.055  0.3310  0.2345  0.2135
   57CHL1  H24A 5387   2.804   1.126   4.969 -2.4691 -1.4236  2.5068
   57CHL1  H24B 5388   2.947   1.141   5.074 -0.2442 -1.0284  0.6235
   57CHL1   C25 5389   2.771   1.159   5.187  0.9748  0.2847  0.3668
   57CHL1   H25 5390   2.776   1.244   5.259  2.8812  2.3507 -1.9836
   57CHL1   C26 5391   2.619   1.117   5.170 -1.1855  0.0236 -0.1093
   57CHL1  H26A 5392   2.560   1.199   5.124 -0.4321 -0.6220 -2.3362
   57CHL1  H26B 5393   2.601   1.034   5.098 -1.2780 -2.8933  2.9985
   57CHL1  H26C 5394   2.577   1.108   5.273  0.8476  0.6610  0.8255
   57CHL1   C27 5395   2.841   1.045   5.259  0.1521 -0.8138  0.0730
   57CHL1  H27A 5396   2.939   1.081   5.295  0.4493 -0.6391 -0.8707
   57CHL1  H27B 5397   2.784   1.010   5.348  2.6640  0.2454  2.2222
   57CHL1  H27C 5398   2.854   0.957   5.192  1.1141 -0.6922  0.0968
   58CHL1    C3 5399   1.329   3.862   3.792 -0.1608  0.3867  0.0892
   58CHL1    H3 5400   1.437   3.877   3.772 -0.4303  1.7840 -0.4280
   58CHL1    O3 5401   1.258   3.794   3.689 -0.6140  0.4416 -0.0385
   58CHL1   H3' 5402   1.276   3.700   3.701  0.9732  0.8070  0.6119
   58CHL1    C4 5403   1.320   3.762   3.908  0.0442 -0.3699  0.2006
   58CHL1   H4A 5404   1.214   3.733   3.918 -0.0687 -0.2134 -0.5007
   58CHL1   H4B 5405   1.374   3.669   3.879 -0.3036 -0.5158  0.0207
   58CHL1    C5 5406   1.362   3.824   4.039 -0.1087 -0.2008  0.5326
   58CHL1    C6 5407   1.449   3.758   4.118  0.0944 -0.0656 -0.1437
   58CHL1    H6 5408   1.499   3.668   4.077 -1.4133 -1.2883  0.6041
   58CHL1    C7 5409   1.486   3.806   4.256 -0.4945 -0.0440 -0.5854
   58CHL1   H7A 5410   1.467   3.717   4.320 -0.3244  0.9100  0.8525
   58CHL1   H7B 5411   1.593   3.833   4.268 -0.4299 -0.7480  0.6486
   58CHL1    C8 5412   1.391   3.915   4.306  0.5369 -0.1598  0.4875
   58CHL1    H8 5413   1.293   3.868   4.326 -0.7791 -0.0746 -4.5089
   58CHL1   C14 5414   1.436   3.979   4.441  0.3533 -0.0057 -0.2945
   58CHL1   H14 5415   1.520   4.036   4.396 -0.6089  1.1501 -0.6852
   58CHL1   C15 5416   1.488   3.895   4.553  0.2260 -0.7029 -0.2923
   58CHL1  H15A 5417   1.404   3.833   4.591 -0.1333 -0.1000 -0.0759
   58CHL1  H15B 5418   1.590   3.859   4.531  0.8767  1.1577 -0.5626
   58CHL1   C16 5419   1.511   3.999   4.663 -0.0719  0.2537  0.1313
   58CHL1  H16A 5420   1.464   3.962   4.757 -0.9670  3.6540  1.1616
   58CHL1  H16B 5421   1.620   4.016   4.675 -0.1619  0.5449  0.5721
   58CHL1   C17 5422   1.440   4.125   4.624 -0.4353  0.3964 -0.1074
   58CHL1   H17 5423   1.512   4.194   4.576 -1.1304  0.0137 -1.7822
   58CHL1   C13 5424   1.348   4.085   4.498  0.0717  0.0594  0.5279
   58CHL1   C18 5425   1.216   4.019   4.551  0.3453 -0.4953 -0.1255
   58CHL1  H18A 5426   1.150   4.106   4.570  0.9838  0.4714 -2.1030
   58CHL1  H18B 5427   1.161   3.964   4.471 -0.0599  1.2892 -1.1151
   58CHL1  H18C 5428   1.224   3.959   4.644 -1.1890 -2.1588 -1.0063
   58CHL1   C12 5429   1.323   4.191   4.391 -0.5367 -0.2481 -0.3002
   58CHL1  H12A 5430   1.243   4.253   4.436 -0.7459 -1.5066  1.1514
   58CHL1  H12B 5431   1.412   4.254   4.370 -0.3886 -0.1291  0.6638
   58CHL1   C11 5432   1.271   4.141   4.259 -0.1707  0.5751 -0.4763
   58CHL1  H11A 5433   1.168   4.110   4.287 -0.2813 -0.1156 -1.5737
   58CHL1  H11B 5434   1.256   4.227   4.191 -0.9971  1.1124  0.3654
   58CHL1    C9 5435   1.358   4.024   4.199  0.3098 -0.2809 -0.1012
   58CHL1    H9 5436   1.458   4.058   4.165  0.9916 -1.1519  0.9802
   58CHL1   C10 5437   1.300   3.961   4.070  0.3262 -0.5398  0.3662
   58CHL1   C19 5438   1.154   3.944   4.094  0.4675  0.4236 -0.3375
   58CHL1  H19A 5439   1.100   3.861   4.043  1.3235 -0.2276 -0.2078
   58CHL1  H19B 5440   1.120   3.927   4.198 -0.1086  0.4855 -0.5097
   58CHL1  H19C 5441   1.100   4.038   4.071 -1.1295 -0.3321  0.1460
   58CHL1    C1 5442   1.324   4.065   3.948 -0.2924 -0.4790  0.6272
   58CHL1   H1A 5443   1.277   4.162   3.975  0.3970 -0.3746  1.5098
   58CHL1   H1B 5444   1.430   4.099   3.936 -0.6620  0.7058  0.5912
   58CHL1    C2 5445   1.268   4.005   3.820  0.8175 -0.3455  0.4737
   58CHL1   H2A 5446   1.303   4.075   3.741  3.6936  0.1383  2.0400
   58CHL1   H2B 5447   1.158   4.006   3.828  0.7768 -0.1642 -0.0501
   58CHL1   C20 5448   1.379   4.202   4.746 -0.2236  0.8838  0.0986
   58CHL1   H20 5449   1.304   4.136   4.794  0.1111  0.0165 -0.5316
   58CHL1   C21 5450   1.309   4.333   4.705  0.1569 -0.6075 -0.1936
   58CHL1  H21A 5451   1.224   4.323   4.633 -1.4235 -0.7121  1.6058
   58CHL1  H21B 5452   1.382   4.403   4.659 -0.3690  0.1039  0.0367
   58CHL1  H21C 5453   1.258   4.384   4.789  0.1227 -0.0020 -0.5737
   58CHL1   C22 5454   1.477   4.222   4.862  0.0248 -0.2135 -0.2448
   58CHL1  H22A 5455   1.521   4.122   4.879 -1.1659 -0.9553 -1.3934
   58CHL1  H22B 5456   1.557   4.295   4.835 -2.0024  1.4896 -1.9845
   58CHL1   C23 5457   1.421   4.257   4.998  0.6841 -0.4696  0.4887
   58CHL1  H23A 5458   1.387   4.362   4.995  0.1515 -0.6675 -0.7390
   58CHL1  H23B 5459   1.332   4.192   5.013  1.2479 -1.6245 -0.9608
   58CHL1   C24 5460   1.520   4.231   5.107 -0.2645 -0.8042 -0.6559
   58CHL1  H24A 5461   1.621   4.236   5.059  0.5686 -0.4130  1.0736
   58CHL1  H24B 5462   1.498   4.305   5.186 -0.1054 -0.9105 -0.5126
   58CHL1   C25 5463   1.497   4.094   5.178  0.5336 -0.3207 -0.1604
   58CHL1   H25 5464   1.493   4.026   5.090  2.7825  0.1700 -0.7102
   58CHL1   C26 5465   1.620   4.053   5.260 -1.4677  0.0821 -0.0367
   58CHL1  H26A 5466   1.607   3.950   5.299  2.3996  0.3401  2.4505
   58CHL1  H26B 5467   1.718   4.067   5.211  0.3199 -1.3502  2.8567
   58CHL1  H26C 5468   1.622   4.118   5.350 -0.2653  0.2545 -0.1794
   58CHL1   C27 5469   1.369   4.085   5.266 -0.3453  0.2580  0.4573
   58CHL1  H27A 5470   1.349   3.982   5.301  0.0369  0.3634  1.0011
   58CHL1  H27B 5471   1.389   4.143   5.359  0.5532  1.5089 -0.4667
   58CHL1  H27C 5472   1.279   4.118   5.210  0.1465 -0.5980 -0.9016
   59CHL1    C3 5473   5.949   0.643   3.735  0.8868 -0.4430 -0.2429
   59CHL1    H3 5474   6.059   0.638   3.753  0.7904  0.6662  0.7424
   59CHL1    O3 5475   5.911   0.646   3.601 -0.0025  0.1006  0.2329
   59CHL1   H3' 5476   5.817   0.627   3.598  0.3186 -1.6500  0.0120
   59CHL1    C4 5477   5.887   0.523   3.797  0.9409  0.6487  0.8508
   59CHL1   H4A 5478   5.779   0.504   3.781  1.2420 -2.5987  1.8866
   59CHL1   H4B 5479   5.922   0.430   3.747 -1.2389 -0.6426  1.5876
   59CHL1    C5 5480   5.929   0.519   3.946  0.1857  0.0586  0.3575
   59CHL1    C6 5481   6.001   0.414   3.992 -0.6399 -0.5406 -0.2764
   59CHL1    H6 5482   6.031   0.331   3.926  0.5564  1.2356 -2.0817
   59CHL1    C7 5483   6.032   0.404   4.139  0.2852 -0.3051  0.0821
   59CHL1   H7A 5484   6.002   0.300   4.165 -1.3462 -0.6875 -2.9698
   59CHL1   H7B 5485   6.143   0.407   4.149  0.0982 -0.3529  3.3577
   59CHL1    C8 5486   5.942   0.489   4.232 -0.0387  0.8579  0.2914
   59CHL1    H8 5487   5.843   0.438   4.232  0.1735  0.3330 -2.1549
   59CHL1   C14 5488   5.995   0.488   4.372  0.7525 -0.4005  0.8612
   59CHL1   H14 5489   6.095   0.535   4.366  1.0794 -0.7631  3.0233
   59CHL1   C15 5490   6.018   0.350   4.439  0.6346 -0.0172 -0.2824
   59CHL1  H15A 5491   5.933   0.287   4.406  0.7452 -0.0838 -0.4376
   59CHL1  H15B 5492   6.112   0.294   4.420  0.6875  0.9268 -3.2914
   59CHL1   C16 5493   6.018   0.382   4.588  0.8195 -0.3475  0.6481
   59CHL1  H16A 5494   5.939   0.321   4.637  1.2907 -0.8489  0.7933
   59CHL1  H16B 5495   6.110   0.349   4.642  0.8065 -0.5226  0.5661
   59CHL1   C17 5496   5.996   0.534   4.602 -0.8107 -0.1668 -0.2362
   59CHL1   H17 5497   6.100   0.573   4.602 -1.1369  0.8528  2.1968
   59CHL1   C13 5498   5.922   0.583   4.464  0.0946 -0.3065 -0.0205
   59CHL1   C18 5499   5.770   0.536   4.473 -0.6247 -1.7458  0.5041
   59CHL1  H18A 5500   5.757   0.442   4.531 -1.9027 -1.2443  1.0671
   59CHL1  H18B 5501   5.706   0.623   4.498  0.9639 -0.0619 -0.9523
   59CHL1  H18C 5502   5.727   0.517   4.372 -0.5847  0.4258  0.0141
   59CHL1   C12 5503   5.935   0.726   4.418  0.3973 -0.2851  0.2112
   59CHL1  H12A 5504   5.895   0.796   4.495  1.1189  1.8390 -1.2374
   59CHL1  H12B 5505   6.037   0.765   4.398 -0.4644  1.6722 -0.6952
   59CHL1   C11 5506   5.875   0.739   4.273  1.3125  0.0672  0.9765
   59CHL1  H11A 5507   5.771   0.700   4.281  1.3998 -0.6276 -0.8626
   59CHL1  H11B 5508   5.877   0.844   4.239  1.7466  0.0916  1.0796
   59CHL1    C9 5509   5.938   0.631   4.179  0.1173 -0.8932 -0.2726
   59CHL1    H9 5510   6.042   0.664   4.163  0.2252 -1.3332 -0.4820
   59CHL1   C10 5511   5.874   0.640   4.032  0.1156  0.1148 -0.1690
   59CHL1   C19 5512   5.718   0.632   4.042 -0.5858 -0.0732 -0.5108
   59CHL1  H19A 5513   5.685   0.558   4.117  0.3745  1.2028  1.2229
   59CHL1  H19B 5514   5.691   0.733   4.081 -0.6738  0.1636 -1.1672
   59CHL1  H19C 5515   5.678   0.624   3.938 -0.0451 -0.8946 -0.6647
   59CHL1    C1 5516   5.911   0.771   3.960 -0.5775 -0.0621  0.7614
   59CHL1   H1A 5517   5.851   0.851   4.009  0.5808  0.9402  0.6178
   59CHL1   H1B 5518   6.017   0.792   3.987 -0.5033  0.6672 -0.0655
   59CHL1    C2 5519   5.896   0.767   3.804  0.5604  0.0831 -0.7511
   59CHL1   H2A 5520   5.941   0.855   3.754 -0.7343  0.4274 -1.3608
   59CHL1   H2B 5521   5.786   0.780   3.806  0.6551  1.0345 -1.1806
   59CHL1   C20 5522   5.917   0.562   4.731  0.8307  0.8499  0.2246
   59CHL1   H20 5523   5.829   0.496   4.742 -0.1032  1.9879 -0.1881
   59CHL1   C21 5524   5.864   0.707   4.745  0.2026  0.4640  0.4268
   59CHL1  H21A 5525   5.783   0.727   4.671 -0.5525  0.5903  1.2740
   59CHL1  H21B 5526   5.945   0.779   4.722 -1.3812  1.6923 -1.8034
   59CHL1  H21C 5527   5.824   0.721   4.848  1.5943 -0.2519  1.0849
   59CHL1   C22 5528   6.000   0.530   4.853  0.2556  0.4820 -0.2104
   59CHL1  H22A 5529   6.090   0.468   4.833  2.5404  2.2369  3.6077
   59CHL1  H22B 5530   6.042   0.627   4.888  0.7322  0.1806  0.0480
   59CHL1   C23 5531   5.909   0.458   4.954 -0.2763 -0.0645 -0.4163
   59CHL1  H23A 5532   5.803   0.492   4.961 -0.7952 -1.8922  1.5582
   59CHL1  H23B 5533   5.905   0.351   4.922 -0.7844 -0.9142  2.2516
   59CHL1   C24 5534   5.976   0.467   5.097 -0.3343  0.1555 -0.0951
   59CHL1  H24A 5535   6.084   0.446   5.081 -0.3508 -0.6930  0.8060
   59CHL1  H24B 5536   5.978   0.571   5.135  0.8253  0.6008 -1.3023
   59CHL1   C25 5537   5.918   0.354   5.188  0.2043 -0.4032  0.2447
   59CHL1   H25 5538   5.932   0.256   5.137 -0.5464 -0.3764 -0.0246
   59CHL1   C26 5539   5.984   0.343   5.321 -0.4943 -0.0132  0.3111
   59CHL1  H26A 5540   5.925   0.271   5.381  0.5622 -0.1154  1.2595
   59CHL1  H26B 5541   6.090   0.309   5.325 -0.0639  1.1955 -0.3262
   59CHL1  H26C 5542   5.983   0.443   5.370  0.1761  0.1928 -0.0791
   59CHL1   C27 5543   5.767   0.373   5.199 -0.9642 -0.1815  0.2537
   59CHL1  H27A 5544   5.739   0.466   5.253  1.5958  1.3273 -0.8100
   59CHL1  H27B 5545   5.708   0.369   5.105 -0.6840 -2.2424  0.1084
   59CHL1  H27C 5546   5.729   0.288   5.260  0.4581  0.4582  2.1376
   60CHL1    C3 5547   0.336   6.465   3.685 -0.4083 -0.2466  0.0351
   60CHL1    H3 5548   0.231   6.437   3.709 -0.8274  1.0138 -0.2999
   60CHL1    O3 5549   0.348   6.479   3.540  0.3155  0.6237 -0.7282
   60CHL1   H3' 5550   0.417   6.546   3.534  1.5588 -0.4794  0.4031
   60CHL1    C4 5551   0.365   6.602   3.757  0.2844 -0.2347  0.4063
   60CHL1   H4A 5552   0.469   6.642   3.745  0.9832 -2.2006 -0.4522
   60CHL1   H4B 5553   0.298   6.670   3.701  0.1209 -0.0987  0.7632
   60CHL1    C5 5554   0.341   6.591   3.909  0.1611  0.2791 -0.2025
   60CHL1    C6 5555   0.244   6.662   3.969 -0.3168 -0.1176 -0.4634
   60CHL1    H6 5556   0.182   6.723   3.902  0.2589  0.0054 -0.8876
   60CHL1    C7 5557   0.222   6.649   4.113 -1.2693 -0.0264 -0.2333
   60CHL1   H7A 5558   0.224   6.753   4.151  0.2302 -0.2088  0.2672
   60CHL1   H7B 5559   0.120   6.610   4.130 -1.1328 -0.5597 -0.6041
   60CHL1    C8 5560   0.338   6.572   4.186  0.9630  0.1263 -0.0813
   60CHL1    H8 5561   0.426   6.639   4.183  1.2025 -0.2077 -0.7001
   60CHL1   C14 5562   0.295   6.546   4.335 -1.0072 -0.0859  0.1383
   60CHL1   H14 5563   0.209   6.477   4.324 -0.1842 -1.2387  0.6911
   60CHL1   C15 5564   0.241   6.664   4.420 -0.2973  0.2655  1.4649
   60CHL1  H15A 5565   0.305   6.752   4.399  1.0757 -1.0595 -0.2706
   60CHL1  H15B 5566   0.138   6.697   4.393 -0.0155  0.2068  0.2273
   60CHL1   C16 5567   0.263   6.626   4.561 -0.0960  0.3168  0.0746
   60CHL1  H16A 5568   0.332   6.692   4.617 -0.9139  0.1365  1.3414
   60CHL1  H16B 5569   0.169   6.636   4.620 -0.5759 -1.4773 -0.3480
   60CHL1   C17 5570   0.314   6.477   4.552  0.2002  0.1912 -0.6860
   60CHL1   H17 5571   0.227   6.408   4.538  0.4167 -0.1160 -0.5340
   60CHL1   C13 5572   0.396   6.475   4.418  0.1326 -1.1518  0.6838
   60CHL1   C18 5573   0.519   6.559   4.445  0.0965  1.1311 -0.4833
   60CHL1  H18A 5574   0.499   6.664   4.473  1.8966  1.0035  1.5911
   60CHL1  H18B 5575   0.586   6.506   4.516 -1.8539 -0.6890  0.1402
   60CHL1  H18C 5576   0.570   6.574   4.348  0.9307  1.4661 -0.0080
   60CHL1   C12 5577   0.433   6.341   4.353 -0.2749 -0.2904 -0.4544
   60CHL1  H12A 5578   0.519   6.296   4.406  0.7854 -0.0069 -1.8653
   60CHL1  H12B 5579   0.353   6.264   4.343 -0.1380 -0.1754 -3.3505
   60CHL1   C11 5580   0.472   6.361   4.202  0.3317  0.1577  0.2972
   60CHL1  H11A 5581   0.578   6.393   4.188 -0.0619  0.5262 -2.3097
   60CHL1  H11B 5582   0.470   6.257   4.164  1.9395  0.8125 -1.7885
   60CHL1    C9 5583   0.371   6.442   4.121  0.0121 -0.6465 -0.1154
   60CHL1    H9 5584   0.285   6.372   4.112 -1.2263  0.8527 -0.5025
   60CHL1   C10 5585   0.420   6.474   3.972  0.1717  0.2331  0.2829
   60CHL1   C19 5586   0.576   6.516   3.972  0.7327  0.8137  0.1874
   60CHL1  H19A 5587   0.650   6.435   3.984  0.1624  0.4363  1.3429
   60CHL1  H19B 5588   0.598   6.562   3.874 -1.2044  1.5279  0.0301
   60CHL1  H19C 5589   0.581   6.598   4.047 -3.8246  1.3422  0.2257
   60CHL1    C1 5590   0.416   6.344   3.888  0.6091 -0.1620  0.2151
   60CHL1   H1A 5591   0.488   6.268   3.928  0.8521 -0.6040 -1.0156
   60CHL1   H1B 5592   0.311   6.307   3.892  0.0543  1.1633 -1.1027
   60CHL1    C2 5593   0.439   6.362   3.737 -0.0995 -0.6605 -0.1173
   60CHL1   H2A 5594   0.424   6.268   3.681 -1.2473 -2.1138  2.4606
   60CHL1   H2B 5595   0.541   6.400   3.713 -0.3435 -0.2140 -0.4808
   60CHL1   C20 5596   0.373   6.428   4.684 -0.4312  0.8619  0.5795
   60CHL1   H20 5597   0.464   6.488   4.703  0.8161 -0.3492 -1.1882
   60CHL1   C21 5598   0.411   6.275   4.685  0.0965  0.7839 -0.2179
   60CHL1  H21A 5599   0.318   6.221   4.658  0.4907  0.3925 -0.7974
   60CHL1  H21B 5600   0.443   6.248   4.788 -1.5837 -0.1740  0.0871
   60CHL1  H21C 5601   0.484   6.253   4.604 -0.8802  0.7456 -1.1154
   60CHL1   C22 5602   0.273   6.452   4.809 -1.0697  0.6177 -0.2534
   60CHL1  H22A 5603   0.332   6.431   4.901 -1.0279  1.1173 -0.1582
   60CHL1  H22B 5604   0.249   6.561   4.819  0.4247  0.8428  1.4525
   60CHL1   C23 5605   0.155   6.360   4.827  0.6149  0.2434  0.6396
   60CHL1  H23A 5606   0.082   6.369   4.744 -0.8183 -0.6547  1.7478
   60CHL1  H23B 5607   0.189   6.255   4.835  2.0229  0.7639  1.9148
   60CHL1   C24 5608   0.075   6.404   4.947 -0.4378 -0.2299 -0.6155
   60CHL1  H24A 5609   0.098   6.512   4.953 -0.7419 -0.1077 -1.4942
   60CHL1  H24B 5610  -0.033   6.398   4.921 -0.1898 -2.9841 -1.3498
   60CHL1   C25 5611   0.093   6.341   5.084 -0.0081 -0.6566 -0.2172
   60CHL1   H25 5612   0.200   6.354   5.110  0.4650 -2.5850 -1.0153
   60CHL1   C26 5613  -0.001   6.408   5.192 -0.1515  0.3571 -0.0197
   60CHL1  H26A 5614   0.021   6.365   5.291  0.0555  0.4558 -0.0213
   60CHL1  H26B 5615   0.012   6.518   5.199 -2.0789  0.6850 -0.8967
   60CHL1  H26C 5616  -0.104   6.379   5.162  0.2190 -0.5749 -0.4382
   60CHL1   C27 5617   0.055   6.188   5.084 -0.2544  0.0250 -0.9593
   60CHL1  H27A 5618   0.009   6.176   5.185  0.7097 -1.8395 -0.6895
   60CHL1  H27B 5619  -0.019   6.167   5.005 -0.3628  0.9724 -1.1283
   60CHL1  H27C 5620   0.146   6.124   5.088  0.6211  1.2616 -0.0604
   61CHL1    C3 5621   2.462   3.157   3.531 -0.0172  0.9235  0.3823
   61CHL1    H3 5622   2.413   3.066   3.570  1.4125  0.2760  0.7397
   61CHL1    O3 5623   2.453   3.188   3.390  0.0517 -0.2241 -0.7250
   61CHL1   H3' 5624   2.472   3.103   3.350 -0.6073 -1.6261  1.7790
   61CHL1    C4 5625   2.398   3.276   3.601 -0.0172 -0.2089  0.4292
   61CHL1   H4A 5626   2.438   3.375   3.569 -2.7700  0.9112  0.1647
   61CHL1   H4B 5627   2.291   3.276   3.571  0.6446 -0.7470 -2.1662
   61CHL1    C5 5628   2.417   3.277   3.750 -0.0523  1.2998 -0.2999
   61CHL1    C6 5629   2.310   3.289   3.833 -0.2033  0.1726 -0.8203
   61CHL1    H6 5630   2.209   3.280   3.791 -0.9837 -0.2966  1.0695
   61CHL1    C7 5631   2.325   3.281   3.984  0.0919 -0.1826 -0.4948
   61CHL1   H7A 5632   2.272   3.368   4.029 -2.3195 -1.8651  0.1360
   61CHL1   H7B 5633   2.274   3.188   4.016  1.2744  0.3678  3.4694
   61CHL1    C8 5634   2.468   3.295   4.038  0.2919  0.1934 -0.6753
   61CHL1    H8 5635   2.486   3.405   4.042  0.0424  0.2010  0.3465
   61CHL1   C14 5636   2.478   3.254   4.188 -0.6303 -0.2716  0.0809
   61CHL1   H14 5637   2.466   3.144   4.180 -0.8198 -0.2510  0.0614
   61CHL1   C15 5638   2.366   3.307   4.279  0.2391 -0.0057  0.7022
   61CHL1  H15A 5639   2.363   3.418   4.280  0.6953  0.0506 -0.7128
   61CHL1  H15B 5640   2.270   3.259   4.251  1.4647 -2.0942 -0.1985
   61CHL1   C16 5641   2.419   3.272   4.413 -0.7321 -0.1689 -0.7483
   61CHL1  H16A 5642   2.403   3.355   4.485 -0.2816 -1.6320  1.1389
   61CHL1  H16B 5643   2.363   3.187   4.458  0.1703 -0.3153  0.1604
   61CHL1   C17 5644   2.571   3.234   4.401 -0.2241  0.0023  0.5636
   61CHL1   H17 5645   2.578   3.123   4.409 -2.3652 -0.0987  1.9678
   61CHL1   C13 5646   2.609   3.275   4.258 -0.2905  0.1566  0.2074
   61CHL1   C18 5647   2.645   3.423   4.261  0.0126 -0.5018  0.3365
   61CHL1  H18A 5648   2.658   3.464   4.158 -0.9708 -0.4831  0.2092
   61CHL1  H18B 5649   2.572   3.487   4.314  2.5314  2.0096  1.0241
   61CHL1  H18C 5650   2.742   3.418   4.314 -0.0245 -2.3581  0.3069
   61CHL1   C12 5651   2.704   3.193   4.168  0.1256 -0.3608  1.0232
   61CHL1  H12A 5652   2.809   3.206   4.203  0.0128  2.2882  0.5959
   61CHL1  H12B 5653   2.676   3.086   4.178 -2.1924  0.3056  2.3269
   61CHL1   C11 5654   2.704   3.227   4.011  0.1219  0.2033 -0.4150
   61CHL1  H11A 5655   2.754   3.326   4.005  2.4510 -0.7739  1.3542
   61CHL1  H11B 5656   2.772   3.148   3.972  1.8659  1.3655  0.1192
   61CHL1    C9 5657   2.569   3.221   3.947  0.3310  0.9172 -0.1496
   61CHL1    H9 5658   2.545   3.113   3.949  2.1183  0.5077  0.6283
   61CHL1   C10 5659   2.559   3.267   3.801 -0.0169 -0.5349 -0.2111
   61CHL1   C19 5660   2.629   3.403   3.776  0.7573 -0.0588 -1.1962
   61CHL1  H19A 5661   2.619   3.436   3.670  2.5894  1.4829 -0.9445
   61CHL1  H19B 5662   2.587   3.473   3.852 -1.9872 -1.7064 -1.0445
   61CHL1  H19C 5663   2.739   3.394   3.789  0.9544  0.3597 -2.4563
   61CHL1    C1 5664   2.635   3.164   3.718  0.3848 -0.4229 -0.6383
   61CHL1   H1A 5665   2.745   3.171   3.733  0.5201 -1.5375 -1.0149
   61CHL1   H1B 5666   2.619   3.065   3.766 -0.5260 -0.0145 -0.0725
   61CHL1    C2 5667   2.614   3.167   3.565  0.3519 -0.5659 -0.1069
   61CHL1   H2A 5668   2.676   3.086   3.521  2.5956  0.0409  1.6907
   61CHL1   H2B 5669   2.652   3.266   3.530  1.1612  0.4249  3.1472
   61CHL1   C20 5670   2.661   3.281   4.519  1.3249 -0.1845  0.1307
   61CHL1   H20 5671   2.666   3.392   4.521  0.2500 -0.1376  1.1259
   61CHL1   C21 5672   2.803   3.217   4.499  0.0317 -0.3369  0.5959
   61CHL1  H21A 5673   2.870   3.279   4.563  2.2042 -1.6532 -0.3061
   61CHL1  H21B 5674   2.846   3.241   4.399 -1.4064 -1.2763 -0.2923
   61CHL1  H21C 5675   2.796   3.108   4.515 -0.7727 -0.1928  1.2953
   61CHL1   C22 5676   2.611   3.233   4.655 -0.9930  0.5072  0.0975
   61CHL1  H22A 5677   2.506   3.266   4.671 -0.6908  0.8454  1.4686
   61CHL1  H22B 5678   2.608   3.122   4.659 -1.4975  0.5124 -0.0419
   61CHL1   C23 5679   2.697   3.285   4.777  0.1510  0.5246  0.5021
   61CHL1  H23A 5680   2.663   3.238   4.872 -1.0989  0.7625  0.1855
   61CHL1  H23B 5681   2.804   3.263   4.758 -0.3065  0.0212 -1.8093
   61CHL1   C24 5682   2.672   3.435   4.803  0.1017 -0.0775  0.5102
   61CHL1  H24A 5683   2.710   3.492   4.715 -0.1756 -0.9901 -0.2215
   61CHL1  H24B 5684   2.562   3.446   4.813  0.4369  2.5606  2.1414
   61CHL1   C25 5685   2.739   3.484   4.928  0.0034 -0.2816 -0.9472
   61CHL1   H25 5686   2.821   3.418   4.963  0.0510 -0.3430 -1.1751
   61CHL1   C26 5687   2.804   3.622   4.908 -0.1236  0.5133  0.4872
   61CHL1  H26A 5688   2.857   3.659   4.999 -0.7556  1.1260  0.6224
   61CHL1  H26B 5689   2.876   3.626   4.824 -1.0863 -3.4645 -0.7359
   61CHL1  H26C 5690   2.721   3.695   4.892  1.6357  2.3274 -0.7076
   61CHL1   C27 5691   2.640   3.479   5.054  0.0382 -0.3719 -0.0325
   61CHL1  H27A 5692   2.598   3.377   5.062  1.7916 -1.0945  0.6199
   61CHL1  H27B 5693   2.709   3.497   5.140  0.8528  1.3297 -0.9962
   61CHL1  H27C 5694   2.567   3.560   5.037 -1.0210 -1.8776 -3.3628
   62CHL1    C3 5695   5.292   1.991   3.731 -0.1068  0.4279  0.8704
   62CHL1    H3 5696   5.315   1.886   3.760 -2.5414  0.1084  1.9256
   62CHL1    O3 5697   5.262   1.997   3.595 -0.3143 -0.1205  0.2984
   62CHL1   H3' 5698   5.240   2.089   3.579  1.0462  0.1724  0.0001
   62CHL1    C4 5699   5.174   2.047   3.813  0.1938 -0.0685 -0.3885
   62CHL1   H4A 5700   5.148   2.148   3.776  0.2692 -0.2824 -1.0284
   62CHL1   H4B 5701   5.092   1.982   3.774  0.7204 -0.3203 -1.0979
   62CHL1    C5 5702   5.202   2.041   3.960 -0.4049  0.1302 -0.2790
   62CHL1    C6 5703   5.111   1.981   4.042 -0.2644 -0.6477 -0.4179
   62CHL1    H6 5704   5.014   1.945   4.005  0.1948 -0.2319 -2.1308
   62CHL1    C7 5705   5.123   1.977   4.194 -0.1437 -0.2294 -0.4235
   62CHL1   H7A 5706   5.043   2.016   4.260 -0.2392  0.3146 -0.8535
   62CHL1   H7B 5707   5.139   1.871   4.225  2.3847  0.2579  0.1787
   62CHL1    C8 5708   5.238   2.063   4.249 -0.3179  0.0842  0.6020
   62CHL1    H8 5709   5.195   2.166   4.253 -1.1031 -0.2014 -0.2136
   62CHL1   C14 5710   5.273   2.017   4.387  0.3148  0.8903  0.7719
   62CHL1   H14 5711   5.316   1.915   4.373 -1.9329  0.2314 -2.4768
   62CHL1   C15 5712   5.166   2.006   4.490  0.4954  0.2516  0.0605
   62CHL1  H15A 5713   5.096   2.092   4.499 -0.1449 -0.4542  2.9727
   62CHL1  H15B 5714   5.095   1.922   4.476 -1.1427  1.5821  0.0047
   62CHL1   C16 5715   5.239   1.997   4.631  0.6442  0.5504  0.4126
   62CHL1  H16A 5716   5.196   2.077   4.696 -0.0444  1.3651 -0.9917
   62CHL1  H16B 5717   5.220   1.909   4.696 -2.4658  1.3313  0.7274
   62CHL1   C17 5718   5.392   2.024   4.595  0.0074 -0.9173  0.2035
   62CHL1   H17 5719   5.439   1.927   4.569  1.9507  0.3896 -1.5338
   62CHL1   C13 5720   5.391   2.096   4.454  0.6462  0.1718 -0.0807
   62CHL1   C18 5721   5.353   2.247   4.465 -0.3312 -0.3110 -0.8561
   62CHL1  H18A 5722   5.252   2.240   4.509  1.0578 -3.1122  2.3921
   62CHL1  H18B 5723   5.414   2.296   4.544 -3.3355  2.4948 -0.0396
   62CHL1  H18C 5724   5.352   2.299   4.367  0.9124  0.3009 -0.5682
   62CHL1   C12 5725   5.512   2.077   4.365  0.2180 -0.6860 -0.3658
   62CHL1  H12A 5726   5.596   2.141   4.400  0.9745 -2.0045  0.3179
   62CHL1  H12B 5727   5.547   1.972   4.375 -2.9708 -1.9612 -1.2964
   62CHL1   C11 5728   5.487   2.116   4.220 -0.2230  0.6415  0.5898
   62CHL1  H11A 5729   5.465   2.225   4.216 -0.2388  0.6489  0.8548
   62CHL1  H11B 5730   5.569   2.091   4.149 -1.9289 -2.5416 -0.4618
   62CHL1    C9 5731   5.360   2.051   4.158  0.4050 -0.0002  0.1876
   62CHL1    H9 5732   5.381   1.942   4.153 -1.7077 -0.4284 -0.7050
   62CHL1   C10 5733   5.333   2.106   4.014  0.3610 -1.2258  1.0346
   62CHL1   C19 5734   5.318   2.255   4.008  0.6811  0.1916 -0.1784
   62CHL1  H19A 5735   5.414   2.306   4.030  0.8203 -0.5084  0.8982
   62CHL1  H19B 5736   5.299   2.299   3.907  2.7577  3.6387  0.7530
   62CHL1  H19C 5737   5.241   2.282   4.084  0.2904 -1.8359  0.1995
   62CHL1    C1 5738   5.450   2.061   3.921 -0.1531  0.0156 -0.3783
   62CHL1   H1A 5739   5.539   2.122   3.945  0.9402 -1.9691  0.9327
   62CHL1   H1B 5740   5.461   1.954   3.950 -2.3058  0.3000  1.8662
   62CHL1    C2 5741   5.421   2.070   3.771  0.2600 -0.2770  0.3719
   62CHL1   H2A 5742   5.501   2.027   3.707 -0.5107 -0.1455 -0.7183
   62CHL1   H2B 5743   5.415   2.175   3.736  0.0724 -0.8724 -1.5343
   62CHL1   C20 5744   5.476   2.072   4.720  0.6972  0.4557  0.0060
   62CHL1   H20 5745   5.431   2.171   4.744 -0.8156 -0.3446  0.5470
   62CHL1   C21 5746   5.617   2.094   4.670  0.0080  0.7525 -0.0796
   62CHL1  H21A 5747   5.690   2.124   4.749  1.4014 -2.0128 -0.2127
   62CHL1  H21B 5748   5.610   2.183   4.603  1.3187  0.3311 -0.7973
   62CHL1  H21C 5749   5.659   2.005   4.619  0.0481  0.9224 -0.3459
   62CHL1   C22 5750   5.472   1.972   4.834  0.5463  0.1404 -0.5489
   62CHL1  H22A 5751   5.369   1.942   4.860  1.5702 -1.0321  2.6112
   62CHL1  H22B 5752   5.530   1.880   4.810 -0.5417 -0.7107  0.0078
   62CHL1   C23 5753   5.540   2.030   4.965 -0.4795 -0.5645  0.7375
   62CHL1  H23A 5754   5.650   2.035   4.949 -0.4317  0.8117  1.3545
   62CHL1  H23B 5755   5.508   2.131   4.999 -0.4546 -0.4064  0.2979
   62CHL1   C24 5756   5.517   1.944   5.095 -0.0808  1.2903  1.1441
   62CHL1  H24A 5757   5.407   1.954   5.107 -0.5917 -0.7697 -1.0149
   62CHL1  H24B 5758   5.538   1.838   5.068  2.5056  2.4171 -1.9337
   62CHL1   C25 5759   5.597   1.984   5.220  0.0591  0.3113  0.5925
   62CHL1   H25 5760   5.610   2.094   5.226 -2.9147  0.8451 -0.6129
   62CHL1   C26 5761   5.520   1.950   5.342  0.0107  0.4365 -1.2157
   62CHL1  H26A 5762   5.569   1.963   5.441 -2.0917 -0.0265 -0.0533
   62CHL1  H26B 5763   5.425   2.006   5.346 -1.2388 -1.6300 -0.2128
   62CHL1  H26C 5764   5.491   1.843   5.347 -2.0164  0.9690 -1.0596
   62CHL1   C27 5765   5.733   1.915   5.217 -0.2526  0.6259  0.9845
   62CHL1  H27A 5766   5.797   1.968   5.291  2.2180  1.0807 -1.3267
   62CHL1  H27B 5767   5.724   1.805   5.228 -2.1229  0.6826  0.2987
   62CHL1  H27C 5768   5.768   1.925   5.112  1.5636  0.3067  1.5196
   63CHL1    C3 5769   1.281   0.436   3.507  0.1375 -0.3944  0.4689
   63CHL1    H3 5770   1.252   0.330   3.523  1.3997 -0.7674  0.3680
   63CHL1    O3 5771   1.316   0.451   3.369 -0.3924  0.0261  0.0548
   63CHL1   H3' 5772   1.346   0.542   3.363  3.0113 -0.8895  0.9207
   63CHL1    C4 5773   1.169   0.535   3.543  0.5142  0.5957 -0.4737
   63CHL1   H4A 5774   1.215   0.632   3.516  1.0184  0.4890 -0.0152
   63CHL1   H4B 5775   1.077   0.525   3.482 -1.6177 -0.1812  2.5899
   63CHL1    C5 5776   1.132   0.535   3.691 -0.1463 -0.8166 -0.1355
   63CHL1    C6 5777   1.006   0.513   3.732  0.0515 -0.1489 -0.0038
   63CHL1    H6 5778   0.931   0.485   3.656  0.6692 -0.0513 -0.6684
   63CHL1    C7 5779   0.953   0.526   3.876 -0.3405  0.5605  0.1196
   63CHL1   H7A 5780   0.875   0.603   3.894  0.1007  1.3217 -1.0927
   63CHL1   H7B 5781   0.900   0.433   3.904 -0.3063  0.2345 -0.8611
   63CHL1    C8 5782   1.066   0.575   3.977 -0.0606  0.5396 -0.5266
   63CHL1    H8 5783   1.077   0.685   3.965  0.5939  0.3903 -1.4078
   63CHL1   C14 5784   1.029   0.543   4.121  0.5086  0.4118  0.1256
   63CHL1   H14 5785   1.031   0.432   4.118 -0.2484  0.4129 -0.6241
   63CHL1   C15 5786   0.882   0.584   4.170  0.9112  0.2748 -0.2923
   63CHL1  H15A 5787   0.861   0.687   4.135 -0.0864  0.2772  0.2882
   63CHL1  H15B 5788   0.807   0.513   4.130 -0.1408  0.4141  1.3767
   63CHL1   C16 5789   0.902   0.585   4.326 -0.4996 -0.2660 -0.1462
   63CHL1  H16A 5790   0.887   0.691   4.358 -0.6299 -0.1170 -0.6865
   63CHL1  H16B 5791   0.825   0.524   4.378 -0.6931  0.7875  0.8451
   63CHL1   C17 5792   1.048   0.539   4.353  0.4955 -0.3294 -0.3494
   63CHL1   H17 5793   1.051   0.428   4.345  2.5009 -0.3096 -0.3216
   63CHL1   C13 5794   1.120   0.592   4.228  0.5877  0.6643  0.4420
   63CHL1   C18 5795   1.121   0.746   4.229 -0.1789  0.2512 -0.1841
   63CHL1  H18A 5796   1.025   0.801   4.235 -0.7222 -0.7604  0.7947
   63CHL1  H18B 5797   1.192   0.775   4.309 -0.4953 -4.6613  2.2596
   63CHL1  H18C 5798   1.175   0.769   4.135  1.9680 -1.0926  0.6429
   63CHL1   C12 5799   1.262   0.531   4.200  0.6316 -0.3534  0.1906
   63CHL1  H12A 5800   1.346   0.576   4.258  1.4980 -0.6783 -0.7841
   63CHL1  H12B 5801   1.258   0.425   4.232 -1.3080 -0.8216 -1.4145
   63CHL1   C11 5802   1.308   0.551   4.052 -0.6214 -0.1916 -0.3999
   63CHL1  H11A 5803   1.340   0.655   4.031  2.4726 -0.3437  2.6308
   63CHL1  H11B 5804   1.393   0.482   4.034 -1.2880 -1.1452  0.0472
   63CHL1    C9 5805   1.201   0.520   3.942 -0.1881  0.1792  0.0984
   63CHL1    H9 5806   1.194   0.410   3.952 -1.1917  0.4174  2.7378
   63CHL1   C10 5807   1.249   0.562   3.799 -0.2055 -0.2043 -0.0054
   63CHL1   C19 5808   1.281   0.712   3.779 -0.0183 -0.3398 -0.5729
   63CHL1  H19A 5809   1.193   0.776   3.802 -0.2577  0.1530 -2.6434
   63CHL1  H19B 5810   1.368   0.736   3.843  0.0067 -1.9263  0.0338
   63CHL1  H19C 5811   1.319   0.743   3.679 -1.0671  1.2614 -0.5084
   63CHL1    C1 5812   1.364   0.470   3.753  0.6320  0.2185 -0.2815
   63CHL1   H1A 5813   1.454   0.496   3.813  1.0253  1.8733 -1.5219
   63CHL1   H1B 5814   1.332   0.367   3.780 -0.3415  0.0180 -2.0289
   63CHL1    C2 5815   1.406   0.461   3.603  0.0720 -0.3002  0.3911
   63CHL1   H2A 5816   1.472   0.373   3.588  0.7362  0.4711 -1.4874
   63CHL1   H2B 5817   1.460   0.551   3.570 -1.1391  0.3902  0.2278
   63CHL1   C20 5818   1.101   0.585   4.494  0.3374 -0.8035  0.5764
   63CHL1   H20 5819   1.081   0.693   4.512  0.2224 -1.0613  2.1718
   63CHL1   C21 5820   1.248   0.541   4.512 -0.2575  0.1394  0.2507
   63CHL1  H21A 5821   1.321   0.613   4.470  0.3893  0.4790  1.8912
   63CHL1  H21B 5822   1.267   0.436   4.478  1.6199  0.0645  1.4289
   63CHL1  H21C 5823   1.261   0.527   4.621 -0.5627 -0.2790  0.2394
   63CHL1   C22 5824   1.000   0.522   4.596 -0.4463 -0.4041  0.2499
   63CHL1  H22A 5825   0.897   0.526   4.556  0.4895  3.5812 -2.4409
   63CHL1  H22B 5826   1.028   0.415   4.608  0.6674 -0.2505 -0.7674
   63CHL1   C23 5827   0.985   0.595   4.734 -0.7957  0.0627 -0.8419
   63CHL1  H23A 5828   0.912   0.538   4.796  0.2846 -0.3441  0.0813
   63CHL1  H23B 5829   1.084   0.595   4.783 -0.9436 -0.4108 -0.5440
   63CHL1   C24 5830   0.941   0.751   4.739 -0.1333 -0.1186 -0.1529
   63CHL1  H24A 5831   1.025   0.810   4.697  1.7234 -0.7367  2.4344
   63CHL1  H24B 5832   0.851   0.758   4.675 -1.2043 -1.5640  1.1160
   63CHL1   C25 5833   0.893   0.796   4.882  0.7442  0.3238  0.5081
   63CHL1   H25 5834   0.832   0.714   4.925  2.1024 -0.8219  0.2877
   63CHL1   C26 5835   1.019   0.811   4.962 -0.3570 -0.0536 -0.2056
   63CHL1  H26A 5836   1.072   0.714   4.956 -0.8438 -0.2685 -1.2305
   63CHL1  H26B 5837   1.087   0.890   4.925 -1.4307  0.9257 -0.1607
   63CHL1  H26C 5838   0.994   0.836   5.068 -1.8979  1.4241 -0.8720
   63CHL1   C27 5839   0.812   0.924   4.860  0.0499  0.4050 -0.3269
   63CHL1  H27A 5840   0.765   0.958   4.955 -1.2567 -0.6646 -0.5518
   63CHL1  H27B 5841   0.862   1.017   4.825 -1.9046  2.4899  1.9781
   63CHL1  H27C 5842   0.734   0.906   4.783 -2.0107  3.0589  0.9318
   64CHL1    C3 5843   5.147   5.104   3.701  0.6218 -0.9044  0.2979
   64CHL1    H3 5844   5.249   5.140   3.723 -0.3100  2.1310  0.0967
   64CHL1    O3 5845   5.132   5.117   3.560 -0.5056  0.1277 -0.4274
   64CHL1   H3' 5846   5.040   5.098   3.543 -0.6420  2.0215 -2.1088
   64CHL1    C4 5847   5.126   4.955   3.738 -0.1379 -0.1817  0.2661
   64CHL1   H4A 5848   5.046   4.906   3.679 -0.2650  0.3659 -0.0216
   64CHL1   H4B 5849   5.221   4.915   3.697  0.6259  1.2446  0.5707
   64CHL1    C5 5850   5.119   4.944   3.889 -0.3436 -0.5681 -0.5707
   64CHL1    C6 5851   5.201   4.852   3.948  0.5283  0.4616  0.6414
   64CHL1    H6 5852   5.270   4.792   3.886 -0.2020  1.3529 -1.1023
   64CHL1    C7 5853   5.197   4.814   4.088  0.4386  0.4602 -0.3880
   64CHL1   H7A 5854   5.203   4.705   4.112 -0.6111  0.9769  2.5290
   64CHL1   H7B 5855   5.276   4.862   4.149 -0.4433  2.4230 -0.7370
   64CHL1    C8 5856   5.061   4.868   4.159 -0.0271  0.8127 -0.0698
   64CHL1    H8 5857   4.979   4.801   4.125  1.6920 -2.3055  1.3857
   64CHL1   C14 5858   5.075   4.847   4.309  0.5158  0.7300  0.0652
   64CHL1   H14 5859   5.169   4.896   4.342  1.0918 -0.8081  0.8332
   64CHL1   C15 5860   5.100   4.707   4.354 -0.2969 -0.2581  0.3524
   64CHL1  H15A 5861   5.021   4.646   4.304  0.9703 -0.8612 -0.9794
   64CHL1  H15B 5862   5.200   4.666   4.326 -0.7782 -1.3154  0.1213
   64CHL1   C16 5863   5.078   4.708   4.503  0.0276 -0.7530  0.2520
   64CHL1  H16A 5864   5.002   4.631   4.526 -1.7604  0.5958 -0.8210
   64CHL1  H16B 5865   5.169   4.688   4.563  0.1300  1.5863  0.9935
   64CHL1   C17 5866   5.010   4.848   4.540  0.2680 -0.5501 -0.0433
   64CHL1   H17 5867   5.088   4.923   4.566  0.9713 -1.8341  1.7788
   64CHL1   C13 5868   4.962   4.898   4.403 -0.0465 -0.4085  0.5574
   64CHL1   C18 5869   4.826   4.825   4.359  0.2641  0.1793 -0.0494
   64CHL1  H18A 5870   4.817   4.830   4.248 -0.5806 -0.4228 -0.0170
   64CHL1  H18B 5871   4.826   4.716   4.379  0.8607 -0.4991 -3.1894
   64CHL1  H18C 5872   4.746   4.887   4.405  0.9045  0.2352  1.0093
   64CHL1   C12 5873   4.958   5.047   4.380  0.6191  0.3990  0.0329
   64CHL1  H12A 5874   4.871   5.097   4.428 -0.5976  2.0423 -3.5303
   64CHL1  H12B 5875   5.052   5.095   4.412  0.1850  0.0783  1.8647
   64CHL1   C11 5876   4.930   5.078   4.228 -0.1329 -0.2815 -0.0304
   64CHL1  H11A 5877   4.831   5.042   4.193 -0.8552  1.0008  0.6419
   64CHL1  H11B 5878   4.924   5.189   4.222  0.0833 -0.2047  0.9898
   64CHL1    C9 5879   5.038   5.016   4.129 -0.2351  0.1046 -0.1010
   64CHL1    H9 5880   5.125   5.073   4.167  0.7589 -1.9356  0.8212
   64CHL1   C10 5881   5.025   5.033   3.974 -0.1587 -0.3214  0.5855
   64CHL1   C19 5882   4.879   4.989   3.933  0.2309 -0.1020 -0.3141
   64CHL1  H19A 5883   4.806   5.048   3.992  0.8117  0.4153 -0.1000
   64CHL1  H19B 5884   4.859   5.011   3.826  0.7951  0.3867 -0.3255
   64CHL1  H19C 5885   4.856   4.882   3.952 -0.3388 -0.1195 -1.0298
   64CHL1    C1 5886   5.060   5.173   3.921  0.1030  0.1277 -0.2670
   64CHL1   H1A 5887   4.992   5.244   3.972 -1.5947 -1.2416 -0.5349
   64CHL1   H1B 5888   5.159   5.202   3.964 -0.0782  0.5380 -0.1206
   64CHL1    C2 5889   5.050   5.200   3.769 -0.5823  0.3317 -0.0747
   64CHL1   H2A 5890   5.072   5.309   3.755  0.3078  0.4530  1.9449
   64CHL1   H2B 5891   4.949   5.181   3.726  0.5839 -0.5430 -2.6549
   64CHL1   C20 5892   4.911   4.846   4.657 -0.1086 -0.0330 -0.5414
   64CHL1   H20 5893   4.820   4.793   4.622  0.1976 -0.4212 -0.7556
   64CHL1   C21 5894   4.864   4.988   4.694 -0.1312 -0.9216  0.3214
   64CHL1  H21A 5895   4.938   5.068   4.716 -2.4764  0.9950  1.9215
   64CHL1  H21B 5896   4.816   4.975   4.793  0.6954  1.2395  1.0677
   64CHL1  H21C 5897   4.785   5.021   4.622  0.1485 -1.2754 -0.1497
   64CHL1   C22 5898   4.951   4.770   4.785  0.5145  0.4173 -0.1989
   64CHL1  H22A 5899   4.874   4.779   4.864  2.0489  0.9251  1.3251
   64CHL1  H22B 5900   4.964   4.662   4.762  1.2333  0.2744  0.7554
   64CHL1   C23 5901   5.084   4.811   4.841 -0.2745 -0.1163 -0.1503
   64CHL1  H23A 5902   5.153   4.824   4.756 -0.5747 -1.0746 -0.5495
   64CHL1  H23B 5903   5.050   4.905   4.889 -0.0916 -0.1921  0.1324
   64CHL1   C24 5904   5.137   4.715   4.942 -0.6673 -0.2495  0.4942
   64CHL1  H24A 5905   5.164   4.618   4.896  1.4221  0.0141  1.0935
   64CHL1  H24B 5906   5.231   4.753   4.986 -0.5110 -2.0362  1.8255
   64CHL1   C25 5907   5.035   4.680   5.061 -0.1574  0.0401  0.3705
   64CHL1   H25 5908   4.940   4.653   5.010  1.2178  0.3939 -2.5753
   64CHL1   C26 5909   5.093   4.561   5.134 -0.3635 -0.3846  0.2457
   64CHL1  H26A 5910   5.117   4.475   5.067  1.7792 -1.1704  1.9003
   64CHL1  H26B 5911   5.182   4.595   5.191 -0.5369  1.2356 -0.4065
   64CHL1  H26C 5912   5.021   4.515   5.205 -1.4296  0.5567 -0.2003
   64CHL1   C27 5913   5.005   4.796   5.158  0.1712  0.1131 -0.1268
   64CHL1  H27A 5914   4.919   4.781   5.226  0.8799  0.0540  0.7689
   64CHL1  H27B 5915   5.100   4.823   5.209  0.1329 -1.0581  0.6184
   64CHL1  H27C 5916   4.967   4.881   5.097  0.4709  0.3390  0.0009
   65CHL1    C3 5917   4.133   2.360   3.527  0.1660  0.0651 -0.4796
   65CHL1    H3 5918   4.090   2.463   3.525 -0.9103 -0.3776 -1.1548
   65CHL1    O3 5919   4.106   2.291   3.410  0.3330 -0.5051 -0.6825
   65CHL1   H3' 5920   4.011   2.296   3.398  0.1770 -0.9085  0.2346
   65CHL1    C4 5921   4.285   2.359   3.551  0.1021 -0.0205 -0.5854
   65CHL1   H4A 5922   4.315   2.253   3.563 -1.0017 -0.1314  1.6953
   65CHL1   H4B 5923   4.339   2.414   3.472 -0.0752  2.1640  0.7268
   65CHL1    C5 5924   4.320   2.416   3.687 -0.9444 -0.2315  0.4614
   65CHL1    C6 5925   4.400   2.521   3.693  0.0387  0.6431 -0.2788
   65CHL1    H6 5926   4.439   2.568   3.601 -1.3825 -0.1935 -1.3402
   65CHL1    C7 5927   4.436   2.581   3.819 -0.0334 -0.4623 -1.0357
   65CHL1   H7A 5928   4.543   2.609   3.828 -0.1100 -0.4151 -0.1299
   65CHL1   H7B 5929   4.387   2.681   3.828  0.1235 -0.4442 -0.3015
   65CHL1    C8 5930   4.385   2.500   3.947 -0.6009 -0.0301  1.1773
   65CHL1    H8 5931   4.450   2.411   3.958  1.9812  1.5256 -0.5345
   65CHL1   C14 5932   4.399   2.572   4.073  0.3631 -0.0779  1.0200
   65CHL1   H14 5933   4.334   2.660   4.055 -1.4349 -1.4682  0.4421
   65CHL1   C15 5934   4.535   2.637   4.090  0.5671 -0.1723 -0.0896
   65CHL1  H15A 5935   4.610   2.558   4.065 -2.3199 -3.1048 -0.1486
   65CHL1  H15B 5936   4.561   2.727   4.030  0.0298  0.7586  1.0271
   65CHL1   C16 5937   4.535   2.675   4.235  0.3721 -0.2132 -0.4484
   65CHL1  H16A 5938   4.614   2.618   4.288  0.9554  2.1278  1.3239
   65CHL1  H16B 5939   4.544   2.783   4.258  0.1051 -0.5779  1.5382
   65CHL1   C17 5940   4.398   2.624   4.300 -0.4419  0.5720  0.4948
   65CHL1   H17 5941   4.325   2.705   4.278 -0.8040  0.1053 -0.0510
   65CHL1   C13 5942   4.358   2.512   4.199  0.7364  0.8557 -0.7560
   65CHL1   C18 5943   4.442   2.381   4.242 -0.2204 -0.3522 -0.5426
   65CHL1  H18A 5944   4.404   2.332   4.334  2.4339 -0.3841  0.6276
   65CHL1  H18B 5945   4.429   2.310   4.158 -2.5118 -0.4027 -0.2205
   65CHL1  H18C 5946   4.550   2.407   4.247 -0.2184 -0.4560 -0.0411
   65CHL1   C12 5947   4.218   2.468   4.187  0.5994 -0.8758  0.1777
   65CHL1  H12A 5948   4.193   2.409   4.277  2.1567 -0.2596  1.0408
   65CHL1  H12B 5949   4.158   2.562   4.185  0.2455 -0.6551  5.9382
   65CHL1   C11 5950   4.198   2.381   4.059 -0.1268 -0.0544  0.0897
   65CHL1  H11A 5951   4.250   2.284   4.073 -0.4812 -0.0871  1.2107
   65CHL1  H11B 5952   4.087   2.370   4.052 -0.2347  0.4125  1.0561
   65CHL1    C9 5953   4.249   2.445   3.927 -0.7444 -0.6518  0.0007
   65CHL1    H9 5954   4.182   2.530   3.899  0.8005  0.0497 -1.8006
   65CHL1   C10 5955   4.238   2.358   3.801  0.8646  0.2627 -0.4597
   65CHL1   C19 5956   4.304   2.216   3.822  0.1721  0.2608 -0.6952
   65CHL1  H19A 5957   4.297   2.142   3.739  1.3111 -2.2870  1.3120
   65CHL1  H19B 5958   4.411   2.223   3.851 -0.2271  0.3942  0.8595
   65CHL1  H19C 5959   4.246   2.172   3.906  0.8121  0.5622 -0.0906
   65CHL1    C1 5960   4.088   2.339   3.778  0.4141  0.6678  0.6599
   65CHL1   H1A 5961   4.038   2.280   3.858 -0.8249  0.7064 -0.0557
   65CHL1   H1B 5962   4.042   2.440   3.774  0.3843  0.6509 -2.6415
   65CHL1    C2 5963   4.068   2.275   3.641  0.6700  0.2126 -0.0566
   65CHL1   H2A 5964   3.960   2.262   3.617  1.2948 -3.2930 -1.6214
   65CHL1   H2B 5965   4.098   2.169   3.636  2.4571  0.5917  1.6337
   65CHL1   C20 5966   4.418   2.585   4.453 -0.4822  0.6530 -0.2746
   65CHL1   H20 5967   4.487   2.497   4.453 -0.9363  0.2532  1.5638
   65CHL1   C21 5968   4.278   2.543   4.512  0.8057  0.0966 -0.4539
   65CHL1  H21A 5969   4.251   2.443   4.469 -1.9577  0.2406  0.7340
   65CHL1  H21B 5970   4.197   2.610   4.474 -1.3281 -1.7766  0.5479
   65CHL1  H21C 5971   4.281   2.531   4.622 -3.4358  1.0502 -0.0472
   65CHL1   C22 5972   4.490   2.700   4.529 -0.5432  0.5461  0.1486
   65CHL1  H22A 5973   4.498   2.652   4.629 -3.4524 -1.5081 -0.4429
   65CHL1  H22B 5974   4.594   2.708   4.493 -0.4725 -2.6378 -0.7456
   65CHL1   C23 5975   4.408   2.830   4.523 -0.4649 -0.3485  0.4299
   65CHL1  H23A 5976   4.487   2.905   4.500  0.0491 -0.5302  1.4981
   65CHL1  H23B 5977   4.351   2.848   4.430 -1.7052  2.3960  1.6036
   65CHL1   C24 5978   4.339   2.861   4.661  0.1673 -0.6027  0.0616
   65CHL1  H24A 5979   4.262   2.936   4.632 -0.0302 -0.7940  0.0900
   65CHL1  H24B 5980   4.282   2.775   4.702 -1.5722  1.0650  1.3039
   65CHL1   C25 5981   4.426   2.905   4.781  0.1776  0.0467 -0.1661
   65CHL1   H25 5982   4.511   2.834   4.769  0.4039  0.1998  0.5003
   65CHL1   C26 5983   4.489   3.043   4.766 -0.0533  0.3109 -0.1504
   65CHL1  H26A 5984   4.410   3.120   4.776 -0.1178  0.0903  1.2379
   65CHL1  H26B 5985   4.572   3.044   4.840  0.5516 -0.5398 -0.8070
   65CHL1  H26C 5986   4.524   3.049   4.661 -0.4834  0.5134 -0.2855
   65CHL1   C27 5987   4.363   2.874   4.923 -0.0253 -0.0594  0.4331
   65CHL1  H27A 5988   4.328   2.768   4.929 -0.4948  0.0970  0.5076
   65CHL1  H27B 5989   4.439   2.895   5.002  1.5611 -0.1265 -1.0245
   65CHL1  H27C 5990   4.271   2.936   4.928 -2.4431 -3.3044 -0.6233
   66CHL1    C3 5991   3.914   3.527   3.350 -0.2348 -0.0629 -0.5950
   66CHL1    H3 5992   3.965   3.623   3.373 -0.5198 -0.0087 -0.1860
   66CHL1    O3 5993   3.931   3.494   3.216 -0.3160  0.0882 -0.4040
   66CHL1   H3' 5994   4.022   3.511   3.190  0.5281 -0.8011  1.7491
   66CHL1    C4 5995   3.975   3.416   3.438 -0.1917 -0.7361  0.5315
   66CHL1   H4A 5996   3.925   3.322   3.408 -4.0283  1.3751 -0.3066
   66CHL1   H4B 5997   4.082   3.409   3.409 -0.1420  0.5861  0.3662
   66CHL1    C5 5998   3.959   3.442   3.589 -0.7172  0.0106 -0.0322
   66CHL1    C6 5999   4.066   3.445   3.673  0.1486 -0.5355  0.6665
   66CHL1    H6 6000   4.163   3.420   3.627 -0.4975  0.2315 -1.2513
   66CHL1    C7 6001   4.058   3.457   3.819 -0.3758 -0.3990 -0.5742
   66CHL1   H7A 6002   4.119   3.376   3.865  0.4142 -0.3152 -1.4311
   66CHL1   H7B 6003   4.094   3.555   3.856 -0.8633  0.1225 -1.4410
   66CHL1    C8 6004   3.915   3.435   3.872  0.4741 -0.2101 -0.9691
   66CHL1    H8 6005   3.890   3.327   3.868  0.7740 -0.2945 -0.6623
   66CHL1   C14 6006   3.901   3.487   4.020 -0.1660  0.3227 -0.3211
   66CHL1   H14 6007   3.937   3.592   4.016  2.7591 -0.4903  1.4611
   66CHL1   C15 6008   4.002   3.424   4.116 -0.9307 -0.1576 -0.6796
   66CHL1  H15A 6009   4.005   3.315   4.095  2.3603 -0.5052  0.8024
   66CHL1  H15B 6010   4.106   3.463   4.118 -1.6736  2.3735  3.7976
   66CHL1   C16 6011   3.943   3.450   4.258  0.7056 -0.3106 -0.3467
   66CHL1  H16A 6012   3.924   3.347   4.292 -1.1886  0.0206 -0.2998
   66CHL1  H16B 6013   4.008   3.503   4.331  0.2615 -0.2166 -0.0137
   66CHL1   C17 6014   3.808   3.525   4.231 -0.6243 -0.6660 -0.0868
   66CHL1   H17 6015   3.832   3.633   4.235 -1.7571 -0.4309  1.1508
   66CHL1   C13 6016   3.766   3.478   4.088 -0.0558  0.3218  0.4948
   66CHL1   C18 6017   3.712   3.336   4.098  0.1580  0.7447 -0.2992
   66CHL1  H18A 6018   3.667   3.312   3.999 -3.0516  2.8542  0.4947
   66CHL1  H18B 6019   3.799   3.272   4.125 -1.0314  0.1916  2.6749
   66CHL1  H18C 6020   3.637   3.313   4.177 -0.2022 -1.9397 -1.3102
   66CHL1   C12 6021   3.682   3.575   4.009 -0.5291 -0.0347 -0.0821
   66CHL1  H12A 6022   3.580   3.576   4.055 -0.1307  0.8431  0.8153
   66CHL1  H12B 6023   3.712   3.682   4.014 -2.6106  0.6775 -1.3873
   66CHL1   C11 6024   3.678   3.539   3.859 -1.0147  0.2496  0.0964
   66CHL1  H11A 6025   3.630   3.439   3.859  1.5117 -1.0805  1.9072
   66CHL1  H11B 6026   3.617   3.620   3.813  0.1751  1.2744  0.2807
   66CHL1    C9 6027   3.818   3.521   3.797  0.1432 -0.1405  0.0920
   66CHL1    H9 6028   3.860   3.623   3.805  0.6887 -0.4962  2.3031
   66CHL1   C10 6029   3.823   3.476   3.645  0.6032 -0.5243  0.7848
   66CHL1   C19 6030   3.733   3.349   3.627  0.2621  0.0418 -0.1295
   66CHL1  H19A 6031   3.631   3.383   3.657  0.5517  0.9123 -0.1071
   66CHL1  H19B 6032   3.713   3.313   3.524 -0.7607 -1.6090  0.6044
   66CHL1  H19C 6033   3.756   3.272   3.703  1.3848 -0.1819 -0.6735
   66CHL1    C1 6034   3.768   3.592   3.545  0.0447  0.1094 -0.5277
   66CHL1   H1A 6035   3.662   3.608   3.572  1.1173  0.8032  3.9532
   66CHL1   H1B 6036   3.824   3.686   3.566 -0.2745  0.1181  0.2818
   66CHL1    C2 6037   3.769   3.548   3.399 -0.4265  0.4707  0.1963
   66CHL1   H2A 6038   3.714   3.624   3.340 -3.0671 -1.4349  0.0200
   66CHL1   H2B 6039   3.706   3.459   3.379  1.3866 -0.9220  0.3857
   66CHL1   C20 6040   3.717   3.498   4.357 -0.2117  0.0640  0.8959
   66CHL1   H20 6041   3.675   3.395   4.356 -1.6845  0.6337 -0.4640
   66CHL1   C21 6042   3.583   3.574   4.346 -0.0342  0.3366  0.4187
   66CHL1  H21A 6043   3.606   3.681   4.326 -0.1526  0.2793 -0.0269
   66CHL1  H21B 6044   3.519   3.571   4.437 -1.2453  1.5614 -0.3491
   66CHL1  H21C 6045   3.525   3.534   4.260  1.6782 -1.2798 -0.0542
   66CHL1   C22 6046   3.792   3.520   4.492 -0.2345 -0.7144  0.7361
   66CHL1  H22A 6047   3.888   3.467   4.506 -1.0630 -2.2593  0.8309
   66CHL1  H22B 6048   3.825   3.625   4.507  2.1653 -1.3738  0.4960
   66CHL1   C23 6049   3.703   3.497   4.617  0.0268  0.3714  0.4927
   66CHL1  H23A 6050   3.624   3.575   4.622  0.4668  0.7748  1.6602
   66CHL1  H23B 6051   3.650   3.401   4.602 -0.6396  0.4499  2.2005
   66CHL1   C24 6052   3.787   3.497   4.744  0.6458 -0.3408  0.4488
   66CHL1  H24A 6053   3.862   3.415   4.755 -0.4622 -1.4278  0.1013
   66CHL1  H24B 6054   3.831   3.598   4.758  0.0450 -0.3355  2.6933
   66CHL1   C25 6055   3.716   3.487   4.879 -0.3309 -0.5759  1.5127
   66CHL1   H25 6056   3.640   3.567   4.864  1.7491  1.1867 -0.2375
   66CHL1   C26 6057   3.662   3.353   4.884  0.1581  0.0631 -0.0242
   66CHL1  H26A 6058   3.736   3.270   4.886  0.3007  0.1935  0.0958
   66CHL1  H26B 6059   3.613   3.339   4.983  0.3629  0.4542  0.1327
   66CHL1  H26C 6060   3.587   3.332   4.804  1.6923 -1.1771 -1.2139
   66CHL1   C27 6061   3.801   3.514   4.998 -0.4583 -0.0727 -0.9345
   66CHL1  H27A 6062   3.878   3.434   5.003 -0.9553 -0.4577  1.4302
   66CHL1  H27B 6063   3.749   3.508   5.096  0.2330  2.4997 -0.3366
   66CHL1  H27C 6064   3.842   3.617   4.992 -2.9604  0.9887 -1.2265
   67CHL1    C3 6065   6.261   6.674   3.914  1.2263  0.5153 -0.6026
   67CHL1    H3 6066   6.349   6.687   3.982  1.0632  0.3680 -0.3614
   67CHL1    O3 6067   6.302   6.666   3.781  0.1100 -0.4049 -0.4646
   67CHL1   H3' 6068   6.231   6.634   3.726 -0.8587  0.4184  0.2762
   67CHL1    C4 6069   6.190   6.541   3.956 -0.5019 -0.6013  1.6308
   67CHL1   H4A 6070   6.099   6.533   3.893  0.0400 -1.4590  0.9464
   67CHL1   H4B 6071   6.256   6.457   3.925 -0.1630  0.0482  0.5574
   67CHL1    C5 6072   6.151   6.540   4.103 -0.6693  0.5038  0.4272
   67CHL1    C6 6073   6.210   6.444   4.181  0.2516 -0.4508  0.0846
   67CHL1    H6 6074   6.266   6.360   4.138  0.3785 -0.4166  0.1818
   67CHL1    C7 6075   6.187   6.438   4.330  0.6004 -0.1168 -0.0170
   67CHL1   H7A 6076   6.163   6.336   4.366  2.8314 -0.8570 -0.4562
   67CHL1   H7B 6077   6.278   6.459   4.390  1.6282 -0.2051 -1.4702
   67CHL1    C8 6078   6.081   6.548   4.378 -0.1997 -0.2326 -0.5247
   67CHL1    H8 6079   5.984   6.498   4.361 -0.5912  0.8431 -1.5532
   67CHL1   C14 6080   6.098   6.580   4.527  0.8557  0.4979  0.2649
   67CHL1   H14 6081   6.195   6.634   4.531  1.4537 -0.5260 -0.0048
   67CHL1   C15 6082   6.107   6.452   4.611 -0.3410  0.0805 -0.3060
   67CHL1  H15A 6083   6.030   6.379   4.577 -0.0063  0.3373 -1.6571
   67CHL1  H15B 6084   6.207   6.404   4.609  0.4490  1.6931 -0.4760
   67CHL1   C16 6085   6.072   6.504   4.750  0.5256 -0.3176  0.3221
   67CHL1  H16A 6086   5.976   6.460   4.786 -0.2756  0.1456 -1.1873
   67CHL1  H16B 6087   6.150   6.483   4.827  1.8466  0.0436 -0.8826
   67CHL1   C17 6088   6.045   6.661   4.743  0.1032 -0.0592 -0.8325
   67CHL1   H17 6089   6.145   6.709   4.744 -0.0516  0.2654 -0.4111
   67CHL1   C13 6090   6.001   6.678   4.593  0.2538 -0.0338  0.0869
   67CHL1   C18 6091   5.853   6.637   4.575 -0.5663 -0.1608 -0.0161
   67CHL1  H18A 6092   5.782   6.713   4.613 -3.1700 -1.8213 -1.3078
   67CHL1  H18B 6093   5.836   6.621   4.467 -1.4886 -0.0540  0.1102
   67CHL1  H18C 6094   5.836   6.544   4.634 -0.3838 -1.3404 -1.7525
   67CHL1   C12 6095   6.019   6.811   4.519  0.2723 -0.4318  0.3927
   67CHL1  H12A 6096   5.941   6.874   4.567 -0.2032 -1.2976  0.7740
   67CHL1  H12B 6097   6.121   6.849   4.537 -0.4443  1.0095  1.5912
   67CHL1   C11 6098   6.006   6.797   4.363 -0.0080  0.8855 -0.2545
   67CHL1  H11A 6099   5.897   6.793   4.345 -0.6039  2.3584  2.4300
   67CHL1  H11B 6100   6.030   6.891   4.309  0.3016  2.5760  2.5642
   67CHL1    C9 6101   6.090   6.679   4.302  0.4208  0.2182  0.1208
   67CHL1    H9 6102   6.194   6.715   4.312  1.2666 -2.1571  0.6780
   67CHL1   C10 6103   6.075   6.663   4.151 -0.1072  0.3607 -0.5493
   67CHL1   C19 6104   5.924   6.635   4.108  0.4429 -0.5522 -0.5031
   67CHL1  H19A 6105   5.872   6.554   4.164 -0.8369  1.6675  1.7632
   67CHL1  H19B 6106   5.862   6.718   4.150  1.2806  0.1591 -0.6475
   67CHL1  H19C 6107   5.914   6.621   3.998  0.8718 -4.7962 -0.1732
   67CHL1    C1 6108   6.136   6.798   4.087  0.0784 -0.3196 -0.7724
   67CHL1   H1A 6109   6.055   6.874   4.091  1.0500  0.7793 -1.3231
   67CHL1   H1B 6110   6.226   6.840   4.138  0.5412 -0.9874 -1.0240
   67CHL1    C2 6111   6.168   6.791   3.939 -0.8140 -0.3208 -0.3898
   67CHL1   H2A 6112   6.233   6.879   3.921  0.2434 -1.0511 -0.1813
   67CHL1   H2B 6113   6.087   6.788   3.862  0.6089  1.7590 -2.0757
   67CHL1   C20 6114   5.959   6.714   4.865 -0.1102 -0.0323 -0.2241
   67CHL1   H20 6115   5.862   6.664   4.844  1.2674 -2.5180 -1.1593
   67CHL1   C21 6116   5.940   6.867   4.851 -0.0066 -0.0523 -0.8691
   67CHL1  H21A 6117   5.873   6.893   4.935 -0.0326 -1.4730 -0.4303
   67CHL1  H21B 6118   5.892   6.903   4.758 -1.9446 -0.7265 -0.1726
   67CHL1  H21C 6119   6.040   6.912   4.866  0.2627 -0.5591 -1.1058
   67CHL1   C22 6120   6.013   6.673   5.008 -0.4332 -1.4704  0.0480
   67CHL1  H22A 6121   5.935   6.708   5.080 -0.2133 -1.6214  0.3645
   67CHL1  H22B 6122   6.017   6.562   5.000 -2.0558 -1.5205 -0.5260
   67CHL1   C23 6123   6.153   6.722   5.047 -0.5160  0.4545  0.1492
   67CHL1  H23A 6124   6.218   6.701   4.960 -1.6040 -0.8118 -0.3935
   67CHL1  H23B 6125   6.144   6.830   5.071 -1.6759  0.4562 -0.2451
   67CHL1   C24 6126   6.213   6.654   5.171  0.6784  0.5598  1.0556
   67CHL1  H24A 6127   6.222   6.545   5.147 -2.0201  0.5618 -0.4518
   67CHL1  H24B 6128   6.313   6.700   5.183  0.6374  0.8307  0.4080
   67CHL1   C25 6129   6.119   6.662   5.292 -0.0610 -0.1569 -0.4456
   67CHL1   H25 6130   6.021   6.615   5.270 -0.6709  0.5136  0.7371
   67CHL1   C26 6131   6.180   6.578   5.405  0.3789  0.4449 -0.1105
   67CHL1  H26A 6132   6.139   6.605   5.504 -0.4028 -0.2336 -0.2354
   67CHL1  H26B 6133   6.152   6.474   5.378  0.8012  0.3839 -0.3256
   67CHL1  H26C 6134   6.289   6.598   5.402  0.9261 -2.1648 -2.8174
   67CHL1   C27 6135   6.100   6.806   5.339  0.5130 -0.5381  0.7468
   67CHL1  H27A 6136   6.053   6.811   5.440 -0.9107 -2.7356  0.2455
   67CHL1  H27B 6137   6.201   6.854   5.337 -0.5686  1.9587  1.6002
   67CHL1  H27C 6138   6.039   6.873   5.275  1.7662 -1.7089 -1.7777
   68CHL1    C3 6139   4.799   0.657   3.532 -0.3381  0.2442 -0.3030
   68CHL1    H3 6140   4.726   0.740   3.545 -0.4394  0.1047  0.0132
   68CHL1    O3 6141   4.832   0.630   3.393 -0.2176  0.5909  0.3967
   68CHL1   H3' 6142   4.890   0.556   3.374  0.1260  1.0116 -0.2040
   68CHL1    C4 6143   4.939   0.683   3.602  0.5410  0.0003 -0.6275
   68CHL1   H4A 6144   5.003   0.601   3.562 -0.9402 -0.6426 -1.8328
   68CHL1   H4B 6145   4.972   0.778   3.556 -1.2385  1.5002  1.0571
   68CHL1    C5 6146   4.913   0.687   3.749 -0.4983 -0.4632  0.1779
   68CHL1    C6 6147   4.950   0.795   3.814 -0.2712  0.4253 -0.6663
   68CHL1    H6 6148   4.996   0.875   3.754 -2.6452  0.0520 -3.1861
   68CHL1    C7 6149   4.949   0.821   3.963  0.0828  0.0040 -0.4169
   68CHL1   H7A 6150   5.049   0.856   3.995 -0.9290  2.1012  0.6654
   68CHL1   H7B 6151   4.877   0.900   3.992 -0.4081 -0.5749 -0.0201
   68CHL1    C8 6152   4.908   0.690   4.043 -0.2304  0.4017 -0.3980
   68CHL1    H8 6153   4.998   0.626   4.059  0.3528  1.6594  1.7527
   68CHL1   C14 6154   4.864   0.719   4.187  0.3252 -0.1882  0.4002
   68CHL1   H14 6155   4.776   0.783   4.166  1.1747  0.6215 -0.8659
   68CHL1   C15 6156   4.949   0.813   4.279  0.0690 -0.2879 -0.3019
   68CHL1  H15A 6157   5.054   0.779   4.272 -0.3658 -1.5120 -1.1743
   68CHL1  H15B 6158   4.940   0.918   4.243 -1.5821  0.1030  1.0681
   68CHL1   C16 6159   4.876   0.805   4.414 -0.5454 -0.2206  0.3912
   68CHL1  H16A 6160   4.951   0.778   4.492  0.2761  1.0222  0.0529
   68CHL1  H16B 6161   4.838   0.904   4.445 -1.0935 -0.1701 -0.4109
   68CHL1   C17 6162   4.775   0.689   4.399  0.3985 -0.1984 -1.4942
   68CHL1   H17 6163   4.692   0.753   4.363  1.0957  1.4503 -0.2865
   68CHL1   C13 6164   4.811   0.607   4.272  0.0404  0.2261 -0.2699
   68CHL1   C18 6165   4.919   0.507   4.310 -0.2183  0.1855  0.1803
   68CHL1  H18A 6166   5.001   0.555   4.368 -0.8576  1.5025  0.0427
   68CHL1  H18B 6167   4.874   0.423   4.367 -1.1530 -1.0078 -2.1969
   68CHL1  H18C 6168   4.968   0.475   4.216 -2.0424  2.1414 -1.5564
   68CHL1   C12 6169   4.693   0.543   4.195 -0.2353 -0.2583  0.9272
   68CHL1  H12A 6170   4.659   0.451   4.246  2.5310 -1.4107  0.8404
   68CHL1  H12B 6171   4.611   0.617   4.183 -0.3841 -0.5458  0.1396
   68CHL1   C11 6172   4.729   0.500   4.052 -0.1241  0.6735  0.2514
   68CHL1  H11A 6173   4.792   0.410   4.068 -0.3663  0.4507 -0.0426
   68CHL1  H11B 6174   4.640   0.474   3.991  1.5433 -0.8168 -1.7139
   68CHL1    C9 6175   4.805   0.604   3.969  0.4970  0.1821 -0.3560
   68CHL1    H9 6176   4.723   0.676   3.946 -0.3743 -0.2709  1.1962
   68CHL1   C10 6177   4.840   0.564   3.819 -0.2977  0.1760  0.6698
   68CHL1   C19 6178   4.936   0.448   3.823  0.5071 -0.3880  0.4033
   68CHL1  H19A 6179   4.976   0.413   3.725 -0.9749  1.7487 -1.0378
   68CHL1  H19B 6180   5.031   0.469   3.876  1.7215 -1.7009 -1.1447
   68CHL1  H19C 6181   4.888   0.354   3.858 -1.9615 -0.1363 -1.9973
   68CHL1    C1 6182   4.712   0.546   3.735  0.3001 -0.3992  0.2738
   68CHL1   H1A 6183   4.656   0.460   3.777  2.6036 -2.2670 -0.2480
   68CHL1   H1B 6184   4.649   0.636   3.742  1.4040  0.3188  1.2943
   68CHL1    C2 6185   4.738   0.527   3.584  0.1102 -0.1045  0.1368
   68CHL1   H2A 6186   4.646   0.506   3.525  0.6757  2.1910 -1.7309
   68CHL1   H2B 6187   4.813   0.446   3.569  0.3893  0.2329 -0.3245
   68CHL1   C20 6188   4.734   0.629   4.538 -0.1434 -0.2758 -0.1585
   68CHL1   H20 6189   4.818   0.563   4.566  0.0764 -0.5997 -1.5183
   68CHL1   C21 6190   4.622   0.530   4.518 -0.2305  0.1239  0.2466
   68CHL1  H21A 6191   4.591   0.497   4.619 -0.5830  1.6222  0.6573
   68CHL1  H21B 6192   4.653   0.441   4.459 -2.8116 -1.1074  0.6058
   68CHL1  H21C 6193   4.538   0.574   4.461  0.3464  0.1890 -0.5667
   68CHL1   C22 6194   4.697   0.727   4.656 -0.1343  0.1679 -0.4696
   68CHL1  H22A 6195   4.748   0.823   4.632  0.4332 -0.5041 -2.1508
   68CHL1  H22B 6196   4.593   0.767   4.649 -0.2664  0.0673  0.7904
   68CHL1   C23 6197   4.732   0.665   4.793  0.3630  0.3767 -0.0097
   68CHL1  H23A 6198   4.659   0.592   4.834  0.3382  0.1782 -0.4064
   68CHL1  H23B 6199   4.829   0.612   4.785 -0.4057 -0.8911 -1.2751
   68CHL1   C24 6200   4.748   0.781   4.888 -0.6450 -0.6083  0.4230
   68CHL1  H24A 6201   4.841   0.827   4.850 -2.1440 -0.9814 -4.3413
   68CHL1  H24B 6202   4.672   0.862   4.874 -0.5841 -0.0935  2.6319
   68CHL1   C25 6203   4.761   0.744   5.032 -0.3490  0.1089  0.1571
   68CHL1   H25 6204   4.683   0.667   5.052  1.2967 -1.5893  0.2743
   68CHL1   C26 6205   4.900   0.678   5.062  0.3280  0.2331  0.1071
   68CHL1  H26A 6206   4.911   0.637   5.165 -1.1383 -2.2105 -0.6150
   68CHL1  H26B 6207   4.918   0.593   4.993 -1.8789 -0.2538  0.0365
   68CHL1  H26C 6208   4.978   0.753   5.040 -2.3107  2.8710 -0.9983
   68CHL1   C27 6209   4.740   0.862   5.127  0.3673  0.1192 -0.7657
   68CHL1  H27A 6210   4.803   0.952   5.114  1.7365 -0.4783  1.3734
   68CHL1  H27B 6211   4.636   0.901   5.116  0.8526  1.2133 -1.7555
   68CHL1  H27C 6212   4.747   0.815   5.227 -0.2782 -1.7024 -1.5193
   69CHL1    C3 6213   1.806   0.711   3.768  1.7483 -0.1130  0.1078
   69CHL1    H3 6214   1.885   0.636   3.786  1.6280 -0.5423 -1.0628
   69CHL1    O3 6215   1.793   0.742   3.635  0.6932  0.0332 -0.3102
   69CHL1   H3' 6216   1.878   0.778   3.611  0.6894  0.4448  0.2855
   69CHL1    C4 6217   1.670   0.645   3.817  0.2729 -0.5006  0.2737
   69CHL1   H4A 6218   1.598   0.727   3.795  3.0612  1.3439 -2.9114
   69CHL1   H4B 6219   1.667   0.561   3.744  1.3168  0.0151 -0.3889
   69CHL1    C5 6220   1.682   0.614   3.965 -0.8294  0.7340  0.5681
   69CHL1    C6 6221   1.668   0.489   4.008 -0.7252  0.3542 -0.6301
   69CHL1    H6 6222   1.650   0.406   3.938  2.4476 -0.7224 -0.3714
   69CHL1    C7 6223   1.677   0.455   4.151 -0.7078 -0.2946  0.0235
   69CHL1   H7A 6224   1.591   0.388   4.172  0.9539 -2.0886  1.3796
   69CHL1   H7B 6225   1.766   0.389   4.153  0.1061  0.7850  1.3594
   69CHL1    C8 6226   1.685   0.570   4.251 -0.0063 -0.3258 -0.3058
   69CHL1    H8 6227   1.581   0.604   4.269  1.0536  2.6218  0.7744
   69CHL1   C14 6228   1.741   0.524   4.385  0.0376 -0.6883 -0.6937
   69CHL1   H14 6229   1.846   0.496   4.359  0.6443 -0.5336  1.4336
   69CHL1   C15 6230   1.684   0.406   4.466 -0.1071  0.8820  0.5065
   69CHL1  H15A 6231   1.573   0.402   4.478 -0.1015 -3.7578  1.1063
   69CHL1  H15B 6232   1.718   0.308   4.427 -1.6191  1.6291 -3.0040
   69CHL1   C16 6233   1.752   0.414   4.601 -0.7324  0.0256 -0.3303
   69CHL1  H16A 6234   1.674   0.417   4.680  0.1356  2.9176  0.5379
   69CHL1  H16B 6235   1.821   0.329   4.618 -0.9685 -0.2196 -0.5863
   69CHL1   C17 6236   1.822   0.551   4.602 -0.5884  0.1236  0.1321
   69CHL1   H17 6237   1.926   0.551   4.563  0.0420  1.1061  1.7189
   69CHL1   C13 6238   1.751   0.640   4.489  0.1419 -0.1691  0.2629
   69CHL1   C18 6239   1.608   0.693   4.534  0.7349  0.0488  0.0183
   69CHL1  H18A 6240   1.550   0.613   4.585 -1.7156  0.7433 -1.5056
   69CHL1  H18B 6241   1.611   0.773   4.611  2.6431  1.0365 -1.0096
   69CHL1  H18C 6242   1.546   0.736   4.453  0.6324  1.7050  0.9442
   69CHL1   C12 6243   1.833   0.751   4.435  0.3568 -0.6761  0.2714
   69CHL1  H12A 6244   1.846   0.832   4.510 -0.6922  2.5656 -2.7946
   69CHL1  H12B 6245   1.934   0.706   4.422  1.3664  1.0971  1.5188
   69CHL1   C11 6246   1.777   0.807   4.299  0.2972  0.0650 -0.3087
   69CHL1  H11A 6247   1.673   0.837   4.324 -0.2196 -2.5721  1.0374
   69CHL1  H11B 6248   1.841   0.887   4.256 -1.5363  1.8078  0.0502
   69CHL1    C9 6249   1.762   0.687   4.197 -0.0223 -0.7818  0.0540
   69CHL1    H9 6250   1.861   0.639   4.180 -0.8565 -1.9784 -1.7103
   69CHL1   C10 6251   1.716   0.737   4.054  0.3736  0.0240  0.5227
   69CHL1   C19 6252   1.601   0.840   4.064 -0.3774 -0.2771 -0.2579
   69CHL1  H19A 6253   1.509   0.797   4.110  0.4046 -0.4256  1.2158
   69CHL1  H19B 6254   1.640   0.930   4.116 -0.2128 -0.1225 -0.6502
   69CHL1  H19C 6255   1.565   0.870   3.964  0.4214 -0.1973 -0.5281
   69CHL1    C1 6256   1.842   0.806   3.998  0.0860 -0.2745 -0.0682
   69CHL1   H1A 6257   1.887   0.886   4.061  0.5432  1.1078 -2.0481
   69CHL1   H1B 6258   1.914   0.722   4.006 -2.0443 -2.3362 -1.2617
   69CHL1    C2 6259   1.840   0.840   3.849 -0.0512  0.2956  0.4156
   69CHL1   H2A 6260   1.940   0.878   3.817 -0.2795  0.7007  0.1697
   69CHL1   H2B 6261   1.765   0.921   3.836 -0.3596  0.1523  1.2600
   69CHL1   C20 6262   1.844   0.623   4.736 -0.0831 -0.3932  0.1351
   69CHL1   H20 6263   1.851   0.733   4.718  0.2798 -0.1138  1.8123
   69CHL1   C21 6264   1.980   0.568   4.791  0.6582  0.1395  0.0894
   69CHL1  H21A 6265   1.974   0.457   4.793  2.3832 -0.0080 -0.9540
   69CHL1  H21B 6266   1.990   0.621   4.889 -2.2438  2.5637 -0.7765
   69CHL1  H21C 6267   2.068   0.596   4.729  1.5326 -0.4644  1.0192
   69CHL1   C22 6268   1.732   0.601   4.843 -1.0459 -0.4791 -0.0299
   69CHL1  H22A 6269   1.630   0.605   4.800 -0.6590  0.8784 -0.8963
   69CHL1  H22B 6270   1.748   0.495   4.874  1.6647 -0.9911 -2.6509
   69CHL1   C23 6271   1.738   0.693   4.961 -0.2512 -0.2609 -0.5544
   69CHL1  H23A 6272   1.820   0.675   5.034 -1.5441 -0.7764  0.8397
   69CHL1  H23B 6273   1.750   0.799   4.931 -0.3724 -0.1316 -0.1575
   69CHL1   C24 6274   1.609   0.660   5.050  0.2414 -0.1193 -0.1742
   69CHL1  H24A 6275   1.528   0.669   4.975  0.1983  1.2363  0.0075
   69CHL1  H24B 6276   1.615   0.554   5.084 -2.1576 -0.3630 -0.3373
   69CHL1   C25 6277   1.581   0.758   5.163  0.1201 -0.5579 -0.4873
   69CHL1   H25 6278   1.586   0.864   5.130  1.0912 -0.1505  0.8928
   69CHL1   C26 6279   1.444   0.739   5.222  0.3122  0.1281  0.1778
   69CHL1  H26A 6280   1.427   0.806   5.309  4.4441  0.1330  1.2024
   69CHL1  H26B 6281   1.367   0.750   5.142  0.4728 -1.0750 -0.1594
   69CHL1  H26C 6282   1.419   0.634   5.246 -1.1970  0.2471 -0.7702
   69CHL1   C27 6283   1.682   0.757   5.281  0.5084  0.1466 -0.0977
   69CHL1  H27A 6284   1.629   0.797   5.370 -1.1304 -0.8745 -0.5659
   69CHL1  H27B 6285   1.712   0.654   5.310  1.6043 -0.0864 -1.9219
   69CHL1  H27C 6286   1.778   0.810   5.263 -0.2439  2.0122  0.9864
   70CHL1    C3 6287   0.179   2.398   3.559 -0.0649 -0.1562  0.1957
   70CHL1    H3 6288   0.142   2.302   3.601 -2.3168  0.9958  1.0333
   70CHL1    O3 6289   0.161   2.397   3.421  0.7377 -0.1221  0.1441
   70CHL1   H3' 6290   0.074   2.360   3.405 -0.1875  1.5739  0.9525
   70CHL1    C4 6291   0.087   2.510   3.625  0.3225  0.0743  0.7827
   70CHL1   H4A 6292   0.094   2.606   3.569 -0.9739 -0.8176 -1.0020
   70CHL1   H4B 6293  -0.017   2.475   3.611 -0.4286  1.5962  2.2043
   70CHL1    C5 6294   0.123   2.526   3.770  0.0959  0.1394  0.6655
   70CHL1    C6 6295   0.018   2.513   3.859 -0.4027 -0.6764 -0.3591
   70CHL1    H6 6296  -0.085   2.497   3.826 -0.0082 -2.2583 -0.8867
   70CHL1    C7 6297   0.042   2.538   4.008  0.4776  0.3420 -0.2471
   70CHL1   H7A 6298  -0.042   2.591   4.058  1.8351  4.2645 -1.7482
   70CHL1   H7B 6299   0.047   2.446   4.071  1.4662  1.9042  2.1044
   70CHL1    C8 6300   0.173   2.610   4.040 -0.0912  0.2289  0.5317
   70CHL1    H8 6301   0.160   2.718   4.019  0.5065  0.1275 -0.4035
   70CHL1   C14 6302   0.204   2.599   4.187  0.2430  0.8619 -0.1307
   70CHL1   H14 6303   0.201   2.496   4.227 -0.5556  1.1681  0.6314
   70CHL1   C15 6304   0.094   2.659   4.281 -0.0888  0.1700  0.0679
   70CHL1  H15A 6305   0.058   2.759   4.248  0.2223 -0.3092 -1.8453
   70CHL1  H15B 6306   0.007   2.591   4.287  0.3145 -0.4152 -0.6102
   70CHL1   C16 6307   0.165   2.673   4.416 -0.5377  0.1457 -0.0983
   70CHL1  H16A 6308   0.154   2.775   4.457  2.4092 -0.2090  1.8816
   70CHL1  H16B 6309   0.127   2.600   4.491 -0.7671  0.1534 -0.2070
   70CHL1   C17 6310   0.320   2.644   4.389 -0.0187  0.0273 -0.8079
   70CHL1   H17 6311   0.332   2.534   4.401 -0.4526 -0.0942 -1.4371
   70CHL1   C13 6312   0.339   2.662   4.235 -0.1366  0.7450  0.2826
   70CHL1   C18 6313   0.336   2.809   4.194  0.1849 -0.6186 -0.0886
   70CHL1  H18A 6314   0.291   2.839   4.097 -1.5125  3.1618  1.6640
   70CHL1  H18B 6315   0.267   2.865   4.261  0.6695  1.5095 -1.2688
   70CHL1  H18C 6316   0.440   2.847   4.202  0.4208 -1.0797 -0.9068
   70CHL1   C12 6317   0.449   2.581   4.160  0.7354 -0.6443 -0.2251
   70CHL1  H12A 6318   0.545   2.636   4.171  1.0499 -1.2369  0.0277
   70CHL1  H12B 6319   0.458   2.473   4.186  0.9267 -0.0812  2.3763
   70CHL1   C11 6320   0.429   2.588   4.009 -0.2156  0.0153  0.3110
   70CHL1  H11A 6321   0.442   2.695   3.984  0.1862 -0.2892 -0.8540
   70CHL1  H11B 6322   0.512   2.532   3.960 -0.4437  0.3947 -0.5346
   70CHL1    C9 6323   0.286   2.550   3.958 -0.1428  0.6111 -0.3971
   70CHL1    H9 6324   0.269   2.442   3.978 -0.1269  0.6267 -0.2967
   70CHL1   C10 6325   0.269   2.557   3.799 -0.5406 -0.9158 -0.1122
   70CHL1   C19 6326   0.313   2.700   3.750  0.3011 -0.3904  0.0740
   70CHL1  H19A 6327   0.289   2.702   3.642  2.1554 -1.1978 -0.4010
   70CHL1  H19B 6328   0.265   2.782   3.807 -1.6162 -0.4661 -1.3595
   70CHL1  H19C 6329   0.424   2.703   3.760  0.5751 -0.8268 -2.3231
   70CHL1    C1 6330   0.349   2.443   3.738 -0.4606  0.5363  0.0121
   70CHL1   H1A 6331   0.459   2.457   3.750 -0.7419  2.2189  0.9663
   70CHL1   H1B 6332   0.320   2.348   3.787  0.7493 -1.6901 -3.2431
   70CHL1    C2 6333   0.329   2.430   3.587  0.2873 -0.1867 -0.4950
   70CHL1   H2A 6334   0.408   2.358   3.556  1.1259 -0.7880  2.7141
   70CHL1   H2B 6335   0.360   2.529   3.546 -0.0192  0.0980 -0.0488
   70CHL1   C20 6336   0.412   2.718   4.483 -0.4107  0.2965 -0.1900
   70CHL1   H20 6337   0.403   2.826   4.459 -3.0176  0.0648 -0.5578
   70CHL1   C21 6338   0.560   2.682   4.454 -0.5364  0.0531  0.3163
   70CHL1  H21A 6339   0.602   2.717   4.357  0.3680 -1.0814  0.2683
   70CHL1  H21B 6340   0.569   2.572   4.468  1.7645  0.3690  1.8714
   70CHL1  H21C 6341   0.622   2.721   4.537  1.7842 -0.6648 -0.9618
   70CHL1   C22 6342   0.377   2.694   4.633 -0.3532 -0.1146  0.2946
   70CHL1  H22A 6343   0.347   2.591   4.659  0.7928  0.0017  2.2860
   70CHL1  H22B 6344   0.476   2.694   4.682 -1.0553  0.1253  1.7721
   70CHL1   C23 6345   0.302   2.802   4.711  0.0567 -0.2809 -0.2076
   70CHL1  H23A 6346   0.345   2.904   4.694  2.9204 -1.3788 -0.2302
   70CHL1  H23B 6347   0.197   2.797   4.677 -0.1280 -4.2224  0.4794
   70CHL1   C24 6348   0.311   2.782   4.860 -0.4764  0.5177 -0.4663
   70CHL1  H24A 6349   0.258   2.686   4.881  2.0814 -0.7306  0.7772
   70CHL1  H24B 6350   0.415   2.757   4.893 -1.0848 -0.7125  0.6541
   70CHL1   C25 6351   0.261   2.901   4.962  0.2544 -1.1529  0.0951
   70CHL1   H25 6352   0.334   2.984   4.947  0.3997 -0.9685  1.6384
   70CHL1   C26 6353   0.122   2.966   4.935  0.1162 -0.1876 -0.3499
   70CHL1  H26A 6354   0.048   2.896   4.979  0.2039 -0.7483 -1.0519
   70CHL1  H26B 6355   0.113   3.062   4.989  1.9529  0.9458 -1.8886
   70CHL1  H26C 6356   0.099   2.977   4.826 -0.5135 -0.6616 -0.2668
   70CHL1   C27 6357   0.273   2.865   5.111  1.0191 -0.0898 -0.2693
   70CHL1  H27A 6358   0.238   2.937   5.188  1.0529 -1.9941  1.6175
   70CHL1  H27B 6359   0.214   2.771   5.127 -1.0613  1.3736  1.2110
   70CHL1  H27C 6360   0.381   2.851   5.134  1.2914  1.0966 -0.7709
   71CHL1    C3 6361   2.544   0.757   3.660 -0.4200  0.3472  0.1820
   71CHL1    H3 6362   2.485   0.665   3.641  0.1002 -0.9886  4.0881
   71CHL1    O3 6363   2.594   0.831   3.546  0.3016  0.1942  0.3283
   71CHL1   H3' 6364   2.643   0.904   3.584  0.4048  0.1149  0.3492
   71CHL1    C4 6365   2.460   0.847   3.750 -0.2804  0.1225 -0.1116
   71CHL1   H4A 6366   2.516   0.941   3.767  1.6893 -0.8656 -0.8091
   71CHL1   H4B 6367   2.367   0.868   3.693  0.5335  1.0801 -1.1162
   71CHL1    C5 6368   2.420   0.792   3.887  0.3525 -0.4256 -0.4707
   71CHL1    C6 6369   2.291   0.787   3.929 -0.8581  0.3823 -0.8203
   71CHL1    H6 6370   2.212   0.837   3.870  0.5605  0.2365 -2.9370
   71CHL1    C7 6371   2.250   0.721   4.058  1.3491 -0.3828 -0.0713
   71CHL1   H7A 6372   2.169   0.782   4.102  0.3821 -1.7309  0.0658
   71CHL1   H7B 6373   2.202   0.624   4.035  2.3254 -1.1609  1.0187
   71CHL1    C8 6374   2.362   0.696   4.154  0.0683  0.2302  0.3054
   71CHL1    H8 6375   2.400   0.790   4.199 -0.5925  1.0467 -0.7803
   71CHL1   C14 6376   2.313   0.598   4.267  0.5266  0.7430  0.1869
   71CHL1   H14 6377   2.289   0.506   4.210  0.6619  1.2949 -0.7928
   71CHL1   C15 6378   2.188   0.633   4.355 -0.4232  0.6020  0.1084
   71CHL1  H15A 6379   2.209   0.742   4.368  1.2979  0.3386 -0.1895
   71CHL1  H15B 6380   2.091   0.619   4.303  0.4244 -0.1580 -1.3370
   71CHL1   C16 6381   2.218   0.546   4.479  0.5086  0.3406  0.1338
   71CHL1  H16A 6382   2.222   0.615   4.566  0.9906  2.2167 -1.2910
   71CHL1  H16B 6383   2.137   0.471   4.491  1.5900 -0.8114  0.3804
   71CHL1   C17 6384   2.353   0.470   4.458 -0.1090 -0.0703  0.0545
   71CHL1   H17 6385   2.317   0.376   4.411 -0.4010  0.1632 -0.1918
   71CHL1   C13 6386   2.432   0.550   4.358 -0.4669 -0.4523  0.2611
   71CHL1   C18 6387   2.500   0.670   4.432 -0.4947 -0.2888  0.0482
   71CHL1  H18A 6388   2.415   0.721   4.483  0.3573 -1.6962  3.1679
   71CHL1  H18B 6389   2.571   0.629   4.508  0.4978 -2.6200 -1.9988
   71CHL1  H18C 6390   2.561   0.733   4.364 -1.5360  0.7635  0.0553
   71CHL1   C12 6391   2.545   0.476   4.274  0.1974  0.0567 -0.2694
   71CHL1  H12A 6392   2.637   0.443   4.328 -0.1055  0.0372  0.2416
   71CHL1  H12B 6393   2.507   0.377   4.241  1.0994 -0.6599  0.7150
   71CHL1   C11 6394   2.590   0.559   4.152  0.4148 -0.4576  0.3658
   71CHL1  H11A 6395   2.655   0.634   4.202 -0.5516  2.6677 -2.6565
   71CHL1  H11B 6396   2.644   0.491   4.083 -1.4832  0.1514 -1.8435
   71CHL1    C9 6397   2.484   0.641   4.068  0.3444  0.0362 -0.9421
   71CHL1    H9 6398   2.428   0.560   4.017 -0.9016  0.1970  0.1166
   71CHL1   C10 6399   2.535   0.723   3.956  0.0364 -0.1800  0.6446
   71CHL1   C19 6400   2.626   0.839   4.015 -0.1223  0.3822  0.3865
   71CHL1  H19A 6401   2.707   0.798   4.078 -0.4678 -0.7756  0.1018
   71CHL1  H19B 6402   2.668   0.902   3.934 -1.5993 -0.8279 -1.4079
   71CHL1  H19C 6403   2.566   0.909   4.076 -1.3200 -0.9012  0.7409
   71CHL1    C1 6404   2.622   0.635   3.866 -1.2657 -0.2803  0.2702
   71CHL1   H1A 6405   2.716   0.605   3.917 -1.2883  1.1185  1.1789
   71CHL1   H1B 6406   2.570   0.541   3.837  1.2074 -1.2626 -1.2342
   71CHL1    C2 6407   2.670   0.704   3.733  0.2317 -0.2020  0.2639
   71CHL1   H2A 6408   2.735   0.634   3.676  0.3757 -0.3289  0.5821
   71CHL1   H2B 6409   2.742   0.786   3.758  0.9136 -0.8448  0.4365
   71CHL1   C20 6410   2.424   0.438   4.599 -0.1673 -0.6564 -0.7981
   71CHL1   H20 6411   2.446   0.534   4.652 -0.7679 -0.7930 -0.2852
   71CHL1   C21 6412   2.550   0.357   4.574 -0.1160 -0.3034  0.0172
   71CHL1  H21A 6413   2.523   0.272   4.507 -0.3210 -0.7302  0.6409
   71CHL1  H21B 6414   2.607   0.320   4.661 -0.0116  1.2917  0.6556
   71CHL1  H21C 6415   2.618   0.425   4.517 -3.9415  1.6745 -2.6703
   71CHL1   C22 6416   2.321   0.357   4.686 -0.1865  0.5652 -0.9167
   71CHL1  H22A 6417   2.228   0.418   4.692  0.1063  0.9146  2.9051
   71CHL1  H22B 6418   2.308   0.261   4.632 -0.5429 -0.4304  0.8636
   71CHL1   C23 6419   2.371   0.329   4.824 -0.1863 -1.0053 -0.4603
   71CHL1  H23A 6420   2.300   0.260   4.875 -0.9410 -1.1986 -1.7402
   71CHL1  H23B 6421   2.464   0.268   4.829  0.9056  0.6331  0.1449
   71CHL1   C24 6422   2.376   0.457   4.922 -0.2869 -0.1046  0.1641
   71CHL1  H24A 6423   2.469   0.504   4.885  0.6406 -0.4487  1.9667
   71CHL1  H24B 6424   2.296   0.521   4.878  0.7025  0.1277 -1.3549
   71CHL1   C25 6425   2.383   0.427   5.068  0.0933 -0.7638 -0.4377
   71CHL1   H25 6426   2.306   0.350   5.089  0.3176 -0.7373  0.5076
   71CHL1   C26 6427   2.522   0.373   5.114 -0.0696 -0.0431 -0.2952
   71CHL1  H26A 6428   2.524   0.347   5.221 -0.3941 -1.9562 -0.7156
   71CHL1  H26B 6429   2.525   0.274   5.064  0.8333  0.1075 -0.5527
   71CHL1  H26C 6430   2.605   0.441   5.085  0.6525 -1.3578 -1.4850
   71CHL1   C27 6431   2.350   0.555   5.151 -0.0447  0.0136  0.6866
   71CHL1  H27A 6432   2.343   0.526   5.258 -0.5251 -1.3400  0.3103
   71CHL1  H27B 6433   2.426   0.633   5.132 -0.3892  0.0297 -0.7768
   71CHL1  H27C 6434   2.253   0.602   5.122  1.2706  1.9361 -0.8904
   72CHL1    C3 6435   2.567   5.129   3.555 -0.2285  0.3294 -0.0251
   72CHL1    H3 6436   2.617   5.190   3.634  0.5204 -0.9423  0.5165
   72CHL1    O3 6437   2.581   5.198   3.432  0.1319 -0.4569 -0.5986
   72CHL1   H3' 6438   2.548   5.285   3.455  1.1273  0.3337 -1.9766
   72CHL1    C4 6439   2.636   4.991   3.557  0.3969 -0.1305 -0.8194
   72CHL1   H4A 6440   2.603   4.918   3.480  2.2210 -1.0067 -0.8184
   72CHL1   H4B 6441   2.742   5.006   3.527  0.0250  0.5782 -1.8070
   72CHL1    C5 6442   2.626   4.920   3.693 -0.3790 -0.3086  0.2663
   72CHL1    C6 6443   2.733   4.876   3.762 -0.4092 -0.0025 -0.3361
   72CHL1    H6 6444   2.831   4.889   3.713 -0.2156  1.1972  0.3500
   72CHL1    C7 6445   2.723   4.789   3.889  0.2211  0.3067  1.2209
   72CHL1   H7A 6446   2.786   4.702   3.861 -1.9987 -1.0413  0.1244
   72CHL1   H7B 6447   2.758   4.846   3.978 -0.1584  0.8025  1.0631
   72CHL1    C8 6448   2.577   4.742   3.933  0.2261  0.0818 -0.0123
   72CHL1    H8 6449   2.539   4.661   3.867 -1.0035 -1.3173  2.2897
   72CHL1   C14 6450   2.570   4.705   4.076 -0.1886 -0.9002  0.2877
   72CHL1   H14 6451   2.593   4.802   4.126  0.9801 -0.1737 -1.5613
   72CHL1   C15 6452   2.667   4.603   4.133 -0.2065 -0.2893 -0.5616
   72CHL1  H15A 6453   2.678   4.517   4.064  0.1030  0.2403 -1.1783
   72CHL1  H15B 6454   2.761   4.659   4.152 -0.9846  0.6540  0.7322
   72CHL1   C16 6455   2.608   4.552   4.262 -1.0863  0.3064 -0.8174
   72CHL1  H16A 6456   2.595   4.444   4.243  1.1034  0.1703 -1.7667
   72CHL1  H16B 6457   2.671   4.568   4.352  1.1943 -1.2942 -2.0381
   72CHL1   C17 6458   2.471   4.623   4.265 -0.3074  0.0023 -0.4510
   72CHL1   H17 6459   2.493   4.721   4.312  0.7725  0.2590 -1.4242
   72CHL1   C13 6460   2.434   4.662   4.118  0.4414 -0.3864  0.3346
   72CHL1   C18 6461   2.373   4.545   4.039 -0.2355  0.6170  0.3451
   72CHL1  H18A 6462   2.272   4.527   4.081 -0.5913  0.7728 -0.4164
   72CHL1  H18B 6463   2.364   4.561   3.929 -1.4178 -1.7971  0.0217
   72CHL1  H18C 6464   2.439   4.457   4.056 -0.5332  0.5824  1.3478
   72CHL1   C12 6465   2.341   4.785   4.106  0.0619  0.3753  0.2297
   72CHL1  H12A 6466   2.235   4.753   4.117 -0.6138  1.8971 -1.2737
   72CHL1  H12B 6467   2.381   4.853   4.184  0.8385  0.3436 -0.1313
   72CHL1   C11 6468   2.338   4.844   3.962  0.0197  0.3634  0.4628
   72CHL1  H11A 6469   2.285   4.770   3.899  1.1609  0.6171 -0.8222
   72CHL1  H11B 6470   2.285   4.941   3.969 -0.1554  0.1550  3.0053
   72CHL1    C9 6471   2.483   4.863   3.907 -0.3948 -0.2109 -0.2577
   72CHL1    H9 6472   2.524   4.956   3.953 -1.8914  1.5877 -2.3352
   72CHL1   C10 6473   2.483   4.906   3.750  0.8425  1.0244 -0.2406
   72CHL1   C19 6474   2.404   4.802   3.668 -0.0829  0.2743  0.4193
   72CHL1  H19A 6475   2.414   4.821   3.559 -4.6584 -0.1390 -0.3103
   72CHL1  H19B 6476   2.434   4.696   3.681  0.1850  0.5069  1.7581
   72CHL1  H19C 6477   2.295   4.801   3.690 -0.1094 -3.3089  0.7985
   72CHL1    C1 6478   2.412   5.050   3.735 -0.1587 -0.2364  1.2250
   72CHL1   H1A 6479   2.308   5.047   3.772 -1.1152 -0.5230 -1.2626
   72CHL1   H1B 6480   2.460   5.127   3.799 -0.2353  0.1424  0.8301
   72CHL1    C2 6481   2.422   5.106   3.591  0.5136 -0.1366  0.3644
   72CHL1   H2A 6482   2.356   5.194   3.575  1.2843  0.4757  0.4998
   72CHL1   H2B 6483   2.379   5.029   3.523 -0.0719  0.2110  0.3376
   72CHL1   C20 6484   2.371   4.539   4.346 -0.8528  0.3757 -0.2330
   72CHL1   H20 6485   2.352   4.448   4.286 -1.1983 -0.0184  0.4586
   72CHL1   C21 6486   2.236   4.611   4.370 -0.5082  0.0157  0.4809
   72CHL1  H21A 6487   2.168   4.548   4.432 -1.8609 -1.1066 -1.9818
   72CHL1  H21B 6488   2.192   4.623   4.269  2.2234 -1.5468 -1.0108
   72CHL1  H21C 6489   2.254   4.704   4.428 -0.5838 -0.1769  0.8174
   72CHL1   C22 6490   2.433   4.490   4.482 -0.1641  0.2731  0.1903
   72CHL1  H22A 6491   2.354   4.426   4.526 -0.3938  0.7120  0.4264
   72CHL1  H22B 6492   2.510   4.411   4.473 -1.9930 -1.8068  1.6666
   72CHL1   C23 6493   2.476   4.601   4.579 -0.2656 -0.9686 -0.2193
   72CHL1  H23A 6494   2.560   4.666   4.546  0.2019 -0.5887  1.6193
   72CHL1  H23B 6495   2.393   4.672   4.597  0.6631 -0.5748  3.1877
   72CHL1   C24 6496   2.507   4.538   4.714  0.8277  0.3915  0.1009
   72CHL1  H24A 6497   2.414   4.487   4.747  1.1921 -0.5861 -0.3454
   72CHL1  H24B 6498   2.587   4.464   4.692 -0.2297 -0.1181 -2.3250
   72CHL1   C25 6499   2.543   4.649   4.819  0.2502 -0.0005 -0.2804
   72CHL1   H25 6500   2.619   4.715   4.772  2.4750 -1.0468  1.6261
   72CHL1   C26 6501   2.416   4.741   4.857  0.0155 -0.1354 -0.4008
   72CHL1  H26A 6502   2.377   4.783   4.762  1.2799  0.6330 -0.6051
   72CHL1  H26B 6503   2.336   4.676   4.899  1.9486 -1.0982  2.0004
   72CHL1  H26C 6504   2.455   4.823   4.922  1.0451 -0.6510 -0.3542
   72CHL1   C27 6505   2.605   4.582   4.943 -0.3973 -0.1928  0.0440
   72CHL1  H27A 6506   2.649   4.669   4.996  0.3124 -2.0994  2.7880
   72CHL1  H27B 6507   2.544   4.521   5.013 -0.5440 -0.4433 -0.2978
   72CHL1  H27C 6508   2.696   4.522   4.920  1.3116  1.4556  2.1301
   73CHL1    C3 6509   3.982   1.347   3.332 -0.2523  0.4248 -0.0861
   73CHL1    H3 6510   4.075   1.407   3.333  0.0448  0.0013  1.5931
   73CHL1    O3 6511   3.949   1.313   3.199  0.3145 -0.2128  0.7284
   73CHL1   H3' 6512   4.035   1.308   3.158  0.7045 -2.3611  1.6712
   73CHL1    C4 6513   4.003   1.213   3.407  0.5210 -0.1264  0.6198
   73CHL1   H4A 6514   3.906   1.158   3.399  0.4082  0.2799 -1.2295
   73CHL1   H4B 6515   4.091   1.165   3.359  1.5098  2.8860 -0.7746
   73CHL1    C5 6516   4.026   1.231   3.552 -0.3274 -0.0050 -1.4100
   73CHL1    C6 6517   4.137   1.182   3.614 -0.3953  0.2140  0.3463
   73CHL1    H6 6518   4.210   1.131   3.550 -2.2271 -1.9700 -0.1526
   73CHL1    C7 6519   4.164   1.186   3.760  0.0463 -0.8015  0.1503
   73CHL1   H7A 6520   4.210   1.092   3.798 -1.9136 -1.9888 -0.2766
   73CHL1   H7B 6521   4.237   1.268   3.778 -2.4259  1.6494 -0.2992
   73CHL1    C8 6522   4.035   1.214   3.840 -0.5606 -0.2837 -0.6283
   73CHL1    H8 6523   3.969   1.126   3.827 -1.1741 -0.0257  0.6298
   73CHL1   C14 6524   4.078   1.254   3.979 -0.2904 -0.4029 -0.1663
   73CHL1   H14 6525   4.142   1.345   3.974 -0.2002 -0.4538  0.0682
   73CHL1   C15 6526   4.163   1.157   4.066 -1.1208 -0.6890 -0.4152
   73CHL1  H15A 6527   4.123   1.054   4.070  0.1526 -1.1646  1.5052
   73CHL1  H15B 6528   4.268   1.155   4.031 -0.9727  1.7843 -0.2934
   73CHL1   C16 6529   4.157   1.223   4.207  0.6157 -0.2711 -0.0764
   73CHL1  H16A 6530   4.133   1.141   4.278 -1.0575  1.4124  1.4182
   73CHL1  H16B 6531   4.250   1.277   4.234 -0.8819  2.2672  0.4053
   73CHL1   C17 6532   4.038   1.328   4.202 -0.2783 -0.2319  0.5919
   73CHL1   H17 6533   4.082   1.429   4.192  0.2742 -0.4351  0.9130
   73CHL1   C13 6534   3.961   1.296   4.069 -0.0128  0.1037  0.1969
   73CHL1   C18 6535   3.865   1.174   4.089 -0.2997 -0.7621  0.8753
   73CHL1  H18A 6536   3.923   1.084   4.121 -1.4966 -1.6697  0.5455
   73CHL1  H18B 6537   3.782   1.206   4.155 -3.2243 -0.6072 -2.5906
   73CHL1  H18C 6538   3.821   1.138   3.993  1.0225  1.2457 -0.5564
   73CHL1   C12 6539   3.885   1.412   4.004 -0.4397  0.5814  0.6180
   73CHL1  H12A 6540   3.794   1.439   4.060 -1.9844 -1.5797 -0.6940
   73CHL1  H12B 6541   3.966   1.489   4.005  0.3561 -0.2387  0.4014
   73CHL1   C11 6542   3.837   1.380   3.869  0.4180  0.2636  0.0787
   73CHL1  H11A 6543   3.750   1.311   3.871  1.8550 -1.8436 -2.6745
   73CHL1  H11B 6544   3.799   1.468   3.813  2.0028  1.2860  0.5385
   73CHL1    C9 6545   3.956   1.336   3.773 -1.4384  0.1290  0.1204
   73CHL1    H9 6546   4.031   1.417   3.758 -0.1471 -0.7822  1.4078
   73CHL1   C10 6547   3.916   1.311   3.629  0.4087  0.1790 -0.3664
   73CHL1   C19 6548   3.784   1.222   3.622 -0.3828  0.0861  0.2732
   73CHL1  H19A 6549   3.697   1.274   3.667  0.4472  0.5045  1.4693
   73CHL1  H19B 6550   3.763   1.189   3.519  1.1183  1.0722 -0.3966
   73CHL1  H19C 6551   3.795   1.128   3.681  0.1812 -2.0447 -2.9964
   73CHL1    C1 6552   3.904   1.441   3.547 -0.0126 -0.4923  0.6358
   73CHL1   H1A 6553   3.827   1.504   3.597 -0.3928  1.1290 -1.8394
   73CHL1   H1B 6554   4.000   1.498   3.549 -1.1520  1.5673 -0.3461
   73CHL1    C2 6555   3.867   1.423   3.400 -0.2113  0.4995 -0.6930
   73CHL1   H2A 6556   3.843   1.519   3.349 -0.5252  0.3683 -0.7937
   73CHL1   H2B 6557   3.777   1.359   3.387 -1.5630  2.2677 -0.4689
   73CHL1   C20 6558   3.957   1.333   4.330  0.0513  0.1026  0.3473
   73CHL1   H20 6559   3.920   1.231   4.353 -2.0546 -0.4220 -4.2187
   73CHL1   C21 6560   3.827   1.429   4.324  0.3489 -0.4988  0.1429
   73CHL1  H21A 6561   3.749   1.373   4.268 -1.4700  2.5491 -0.6236
   73CHL1  H21B 6562   3.853   1.525   4.276  2.2106 -0.0177  1.9431
   73CHL1  H21C 6563   3.789   1.443   4.427  0.1340 -0.5494  0.0707
   73CHL1   C22 6564   4.038   1.392   4.445 -0.4940  0.3963  0.0068
   73CHL1  H22A 6565   4.137   1.342   4.449  0.2880  1.8630 -0.5941
   73CHL1  H22B 6566   4.038   1.501   4.428  1.1179  0.4933  0.4859
   73CHL1   C23 6567   3.982   1.370   4.591 -0.0476 -0.2112 -0.1899
   73CHL1  H23A 6568   4.011   1.453   4.660 -2.6036  0.4177  0.2343
   73CHL1  H23B 6569   3.872   1.385   4.597  0.0445  1.1362 -1.4184
   73CHL1   C24 6570   4.020   1.223   4.637 -0.2174 -0.3716  0.1422
   73CHL1  H24A 6571   3.998   1.164   4.546 -0.7896  2.4054 -1.6600
   73CHL1  H24B 6572   4.130   1.232   4.655 -0.3964 -0.6756  1.4838
   73CHL1   C25 6573   3.965   1.178   4.774  0.8342 -0.0465 -0.2614
   73CHL1   H25 6574   4.009   1.081   4.804 -0.9125 -0.3188  1.6535
   73CHL1   C26 6575   4.003   1.277   4.882  0.3504  0.3824  0.6331
   73CHL1  H26A 6576   3.991   1.237   4.985  0.1133 -1.1802  0.0270
   73CHL1  H26B 6577   4.114   1.284   4.878  0.3179  0.5249 -0.0427
   73CHL1  H26C 6578   3.970   1.382   4.870 -2.3874 -0.6503 -2.3308
   73CHL1   C27 6579   3.813   1.145   4.771 -0.0718 -0.2302 -0.7909
   73CHL1  H27A 6580   3.790   1.050   4.718 -1.6918  0.1033 -0.7437
   73CHL1  H27B 6581   3.760   1.123   4.866 -1.0373  1.5247 -0.8634
   73CHL1  H27C 6582   3.756   1.223   4.715  0.6372  0.6103 -0.3616
   74CHL1    C3 6583   4.561   5.435   3.730 -0.2846 -0.0749  0.5667
   74CHL1    H3 6584   4.572   5.543   3.756 -0.9136  0.8422 -2.5380
   74CHL1    O3 6585   4.588   5.424   3.591  0.0552  0.1618  0.0790
   74CHL1   H3' 6586   4.582   5.330   3.574  0.1123 -0.3897  2.6167
   74CHL1    C4 6587   4.671   5.360   3.816 -0.2720  0.6430  0.2684
   74CHL1   H4A 6588   4.677   5.255   3.780  1.8635 -0.3225  3.0636
   74CHL1   H4B 6589   4.773   5.399   3.798 -0.1982  0.6415  0.6802
   74CHL1    C5 6590   4.636   5.360   3.963 -0.1933  0.6222 -0.4249
   74CHL1    C6 6591   4.714   5.415   4.058  0.2821  0.3485  0.3226
   74CHL1    H6 6592   4.815   5.439   4.020 -0.3586 -1.5247 -2.8792
   74CHL1    C7 6593   4.684   5.411   4.211  0.0743 -0.6875 -0.3456
   74CHL1   H7A 6594   4.775   5.385   4.269  0.6522 -0.5228 -1.1574
   74CHL1   H7B 6595   4.656   5.512   4.247 -0.3202 -0.8475 -0.2049
   74CHL1    C8 6596   4.565   5.326   4.245 -1.0465 -0.5841  0.3682
   74CHL1    H8 6597   4.602   5.222   4.254  2.0721  0.3433 -0.5919
   74CHL1   C14 6598   4.522   5.368   4.384 -0.5478 -0.9236  0.5441
   74CHL1   H14 6599   4.493   5.475   4.384  3.8781  0.5317 -1.2589
   74CHL1   C15 6600   4.627   5.375   4.497  0.2957  0.1971  0.7623
   74CHL1  H15A 6601   4.702   5.294   4.484  0.5472  0.6094 -0.4302
   74CHL1  H15B 6602   4.679   5.473   4.503 -1.8907  1.4072  0.7900
   74CHL1   C16 6603   4.548   5.358   4.623  0.4160 -0.1723 -0.1456
   74CHL1  H16A 6604   4.574   5.257   4.662 -0.3925 -1.0777 -1.8418
   74CHL1  H16B 6605   4.560   5.443   4.693 -1.0196 -0.2940  0.2777
   74CHL1   C17 6606   4.396   5.344   4.580  0.8397 -0.1722 -0.3368
   74CHL1   H17 6607   4.370   5.451   4.565 -0.5677  0.0348  2.8123
   74CHL1   C13 6608   4.401   5.280   4.439 -0.8775 -0.1852  0.8571
   74CHL1   C18 6609   4.449   5.126   4.459 -0.2486  0.3526  0.3717
   74CHL1  H18A 6610   4.378   5.069   4.523  0.6042  0.5069  1.4924
   74CHL1  H18B 6611   4.470   5.073   4.364  2.1548  1.6168  0.1164
   74CHL1  H18C 6612   4.534   5.127   4.531  0.4939  0.4777 -0.4853
   74CHL1   C12 6613   4.284   5.294   4.336 -0.1678 -0.0661  0.4328
   74CHL1  H12A 6614   4.196   5.241   4.377 -1.1208  0.9287 -0.2901
   74CHL1  H12B 6615   4.248   5.398   4.322 -1.0550 -0.5489 -0.9601
   74CHL1   C11 6616   4.328   5.251   4.193  0.1926 -0.8058  0.0588
   74CHL1  H11A 6617   4.356   5.144   4.181 -0.3774 -1.1758  1.8218
   74CHL1  H11B 6618   4.251   5.282   4.119 -0.4812  1.6642  1.6732
   74CHL1    C9 6619   4.453   5.337   4.147 -0.3605 -0.1024 -0.0238
   74CHL1    H9 6620   4.422   5.443   4.146 -1.1612 -0.2801 -3.0014
   74CHL1   C10 6621   4.492   5.305   4.002  0.2207 -0.2759  0.4894
   74CHL1   C19 6622   4.486   5.151   3.970  0.0908  0.4491 -0.4236
   74CHL1  H19A 6623   4.383   5.112   3.982  0.7516 -2.0742 -2.0389
   74CHL1  H19B 6624   4.512   5.121   3.866  1.4980 -0.5454  0.1697
   74CHL1  H19C 6625   4.559   5.098   4.036  1.0258  1.1726 -0.8466
   74CHL1    C1 6626   4.387   5.376   3.907 -0.8039  0.7836 -0.6683
   74CHL1   H1A 6627   4.289   5.325   3.916 -0.7155  0.5943 -0.7545
   74CHL1   H1B 6628   4.360   5.481   3.928  1.2260  1.0649  0.8783
   74CHL1    C2 6629   4.420   5.380   3.758 -0.3201 -0.0261  0.5205
   74CHL1   H2A 6630   4.339   5.439   3.710  0.4250  0.3294 -0.3241
   74CHL1   H2B 6631   4.412   5.276   3.718 -1.3849  0.0243  0.5653
   74CHL1   C20 6632   4.319   5.278   4.694  0.2443  0.2249  0.8827
   74CHL1   H20 6633   4.362   5.176   4.707  1.8204  0.7895  0.3426
   74CHL1   C21 6634   4.171   5.248   4.662 -0.6325  0.1831 -0.2390
   74CHL1  H21A 6635   4.125   5.203   4.753  1.6823 -1.4339  0.2133
   74CHL1  H21B 6636   4.182   5.162   4.593 -2.1499 -1.8428  1.8716
   74CHL1  H21C 6637   4.113   5.335   4.623 -1.2797  0.4529  1.2506
   74CHL1   C22 6638   4.340   5.344   4.836 -0.1089  0.4698 -0.5324
   74CHL1  H22A 6639   4.448   5.335   4.860  0.1595  1.7864 -1.1013
   74CHL1  H22B 6640   4.320   5.454   4.834 -1.8656  0.1703 -0.2946
   74CHL1   C23 6641   4.262   5.279   4.956 -0.6373 -0.8010  0.3737
   74CHL1  H23A 6642   4.152   5.288   4.940 -0.5490  0.3488  0.3599
   74CHL1  H23B 6643   4.301   5.175   4.967  0.1508 -0.3345  2.6135
   74CHL1   C24 6644   4.289   5.341   5.093 -1.0219 -0.5589 -0.0838
   74CHL1  H24A 6645   4.399   5.332   5.104 -1.1865 -2.2266  0.4660
   74CHL1  H24B 6646   4.269   5.450   5.082 -0.2907 -0.6073 -2.2990
   74CHL1   C25 6647   4.207   5.296   5.207 -0.0766  0.4234 -0.2163
   74CHL1   H25 6648   4.106   5.336   5.188  0.8245  3.3507  0.7269
   74CHL1   C26 6649   4.204   5.137   5.212  0.9344  0.0918  0.7979
   74CHL1  H26A 6650   4.166   5.097   5.115 -3.2264  0.1355  2.2118
   74CHL1  H26B 6651   4.305   5.099   5.239  0.0935 -1.0202  2.5331
   74CHL1  H26C 6652   4.129   5.090   5.278 -0.0853 -1.8153 -1.5429
   74CHL1   C27 6653   4.260   5.356   5.336 -0.1385 -0.2276  0.2908
   74CHL1  H27A 6654   4.198   5.303   5.411 -0.4565 -0.1472  0.0821
   74CHL1  H27B 6655   4.366   5.338   5.365 -0.5382  1.9651  3.7988
   74CHL1  H27C 6656   4.252   5.466   5.345  2.2682 -0.0455  0.9453
   75CHL1    C3 6657   4.677   6.261   3.755  0.1181  0.3132  0.2121
   75CHL1    H3 6658   4.707   6.159   3.787 -0.0020 -0.7349 -2.7021
   75CHL1    O3 6659   4.669   6.269   3.613  0.0155 -0.4819 -0.0224
   75CHL1   H3' 6660   4.577   6.259   3.588  0.1020 -0.6215 -0.2939
   75CHL1    C4 6661   4.540   6.309   3.818  0.0744 -0.0662  0.1093
   75CHL1   H4A 6662   4.512   6.406   3.771  0.6568  0.6364  1.1764
   75CHL1   H4B 6663   4.464   6.234   3.787 -2.2641  1.8937  0.7563
   75CHL1    C5 6664   4.547   6.315   3.970 -0.2203  0.5759  0.3174
   75CHL1    C6 6665   4.466   6.241   4.044  0.4830 -0.5820 -0.3538
   75CHL1    H6 6666   4.383   6.181   4.005 -0.0922 -0.7945  1.1518
   75CHL1    C7 6667   4.476   6.224   4.196  0.0607  0.2618  0.5593
   75CHL1   H7A 6668   4.377   6.225   4.247  0.0677 -0.9156  0.6195
   75CHL1   H7B 6669   4.525   6.130   4.226  0.5996 -0.1683 -1.5357
   75CHL1    C8 6670   4.563   6.328   4.264 -0.9672 -0.1825 -0.2855
   75CHL1    H8 6671   4.512   6.426   4.257  2.0328  1.5538  0.3844
   75CHL1   C14 6672   4.595   6.290   4.412 -0.2000 -0.4959 -0.4671
   75CHL1   H14 6673   4.656   6.197   4.402 -1.8975 -1.6200 -0.7590
   75CHL1   C15 6674   4.468   6.269   4.503 -0.2293 -0.4448 -0.7100
   75CHL1  H15A 6675   4.400   6.351   4.472  2.6356  2.3032 -0.2588
   75CHL1  H15B 6676   4.425   6.169   4.483 -0.6508  0.0978 -2.6395
   75CHL1   C16 6677   4.537   6.280   4.642 -0.4794  0.4669 -0.5730
   75CHL1  H16A 6678   4.483   6.358   4.698 -1.6023 -1.5544  1.3043
   75CHL1  H16B 6679   4.544   6.183   4.696 -0.2537 -0.2225 -1.7982
   75CHL1   C17 6680   4.688   6.327   4.623  0.0103  0.2344 -0.6047
   75CHL1   H17 6681   4.758   6.241   4.621  1.6782  1.5590 -0.3985
   75CHL1   C13 6682   4.684   6.392   4.485  0.2772 -0.1617 -0.0213
   75CHL1   C18 6683   4.598   6.525   4.502 -0.1395 -0.5108 -0.2698
   75CHL1  H18A 6684   4.559   6.575   4.411  2.0020 -0.6859 -1.3457
   75CHL1  H18B 6685   4.514   6.516   4.574 -0.7064 -0.4960 -0.9316
   75CHL1  H18C 6686   4.668   6.596   4.551 -0.9608  0.8982 -1.0811
   75CHL1   C12 6687   4.807   6.409   4.402  0.8856 -0.1764 -0.8784
   75CHL1  H12A 6688   4.859   6.494   4.450 -1.1620  0.8374 -0.3542
   75CHL1  H12B 6689   4.855   6.309   4.411 -2.6215 -1.8624  1.8079
   75CHL1   C11 6690   4.780   6.450   4.257  0.9691  0.7065  0.6032
   75CHL1  H11A 6691   4.722   6.544   4.261  0.6676  0.5189  0.6856
   75CHL1  H11B 6692   4.870   6.471   4.196 -0.2368 -0.0876 -1.5901
   75CHL1    C9 6693   4.689   6.353   4.181  0.3153  0.9106  0.1727
   75CHL1    H9 6694   4.743   6.256   4.178 -1.5043 -0.1223 -1.5868
   75CHL1   C10 6695   4.665   6.389   4.035  0.7895 -0.6181 -0.4639
   75CHL1   C19 6696   4.638   6.541   4.022  0.2175 -0.4523  0.3250
   75CHL1  H19A 6697   4.545   6.567   4.077  1.5120 -0.1844  2.5367
   75CHL1  H19B 6698   4.715   6.610   4.063 -1.6140  0.3374  2.6675
   75CHL1  H19C 6699   4.632   6.563   3.914  0.3445 -0.5798  0.2913
   75CHL1    C1 6700   4.801   6.362   3.961  0.2585 -0.7400  0.2543
   75CHL1   H1A 6701   4.883   6.431   3.991 -0.3055  0.4743 -0.8673
   75CHL1   H1B 6702   4.829   6.259   3.991 -0.0590 -0.3311  2.0364
   75CHL1    C2 6703   4.791   6.360   3.803  0.2636  0.0048 -0.7542
   75CHL1   H2A 6704   4.890   6.326   3.766  0.3083  1.6179 -2.2641
   75CHL1   H2B 6705   4.776   6.465   3.768  1.5422  1.0406  1.5464
   75CHL1   C20 6706   4.731   6.410   4.743  0.8245 -0.4079  0.2962
   75CHL1   H20 6707   4.664   6.499   4.749 -2.1262 -2.3052 -1.6986
   75CHL1   C21 6708   4.879   6.447   4.741  0.1391  0.3243 -0.6391
   75CHL1  H21A 6709   4.894   6.521   4.660  0.0853  0.2024 -0.7606
   75CHL1  H21B 6710   4.921   6.351   4.705 -2.2984 -0.4076 -1.7243
   75CHL1  H21C 6711   4.909   6.495   4.836  0.5815  0.4166 -0.8274
   75CHL1   C22 6712   4.708   6.323   4.869 -0.8122  0.5748  0.7206
   75CHL1  H22A 6713   4.734   6.386   4.956  1.7734  0.3111  0.2240
   75CHL1  H22B 6714   4.605   6.287   4.887 -0.3630 -0.6111  1.0034
   75CHL1   C23 6715   4.810   6.198   4.871  0.5129  0.2764 -0.8043
   75CHL1  H23A 6716   4.790   6.131   4.784 -2.1354  0.5963 -0.5411
   75CHL1  H23B 6717   4.915   6.232   4.874  0.6351 -0.1043  2.1374
   75CHL1   C24 6718   4.779   6.121   5.005 -0.1831 -0.2162  0.3508
   75CHL1  H24A 6719   4.696   6.050   4.982 -0.6249  0.4478 -0.1768
   75CHL1  H24B 6720   4.866   6.055   5.024  1.0901  1.1565 -0.4959
   75CHL1   C25 6721   4.759   6.195   5.137  0.3887 -0.3045  0.0402
   75CHL1   H25 6722   4.676   6.268   5.120 -0.5968 -1.5015 -0.4248
   75CHL1   C26 6723   4.727   6.098   5.247  0.2757  0.6673  0.1862
   75CHL1  H26A 6724   4.632   6.043   5.229  0.3118  1.1179 -1.5008
   75CHL1  H26B 6725   4.812   6.027   5.264  0.9805  0.6881 -2.7474
   75CHL1  H26C 6726   4.700   6.139   5.347 -2.1101 -1.2721  0.4249
   75CHL1   C27 6727   4.878   6.285   5.187  0.6315 -0.5380  0.4265
   75CHL1  H27A 6728   4.896   6.370   5.117 -1.8599  1.9281  2.5474
   75CHL1  H27B 6729   4.844   6.336   5.279  0.3933  1.3575 -0.6526
   75CHL1  H27C 6730   4.963   6.216   5.205  0.2956 -1.6697 -1.8821
   76CHL1    C3 6731   2.654   1.683   3.541  0.0673 -0.3550  0.3908
   76CHL1    H3 6732   2.733   1.614   3.579  2.0965  2.3291  1.3568
   76CHL1    O3 6733   2.670   1.678   3.406  0.0481 -0.1870  0.2723
   76CHL1   H3' 6734   2.611   1.608   3.380 -2.0652  1.7524 -0.4181
   76CHL1    C4 6735   2.513   1.648   3.583  0.6333  0.2955 -0.3589
   76CHL1   H4A 6736   2.433   1.717   3.549 -2.9370 -0.9733  4.3697
   76CHL1   H4B 6737   2.480   1.549   3.547  0.5803  0.3884 -0.5639
   76CHL1    C5 6738   2.501   1.646   3.737 -0.5115 -0.2266  0.8032
   76CHL1    C6 6739   2.456   1.539   3.804  0.1866 -0.1423  0.7877
   76CHL1    H6 6740   2.424   1.460   3.734  0.7707  0.1761  0.1465
   76CHL1    C7 6741   2.427   1.534   3.948  0.3503  0.3440  0.4909
   76CHL1   H7A 6742   2.322   1.501   3.964 -0.6233  1.0235 -3.2951
   76CHL1   H7B 6743   2.494   1.458   3.993 -1.2307 -0.9763  0.7008
   76CHL1    C8 6744   2.449   1.672   4.016  0.3339  0.8087 -0.1327
   76CHL1    H8 6745   2.356   1.733   4.001 -1.2464 -0.6078  2.9929
   76CHL1   C14 6746   2.482   1.649   4.159  0.0373 -0.0682  0.1520
   76CHL1   H14 6747   2.583   1.605   4.175  0.3419  0.8885  0.9427
   76CHL1   C15 6748   2.394   1.547   4.236 -0.0566 -0.5012 -0.1016
   76CHL1  H15A 6749   2.287   1.575   4.235 -0.3430 -1.3802  1.8846
   76CHL1  H15B 6750   2.413   1.448   4.190 -0.5438 -0.9124  0.5772
   76CHL1   C16 6751   2.439   1.569   4.382  0.0070  0.2731 -0.0322
   76CHL1  H16A 6752   2.355   1.573   4.455 -0.4465 -1.7314 -0.3848
   76CHL1  H16B 6753   2.506   1.485   4.413 -1.3584 -0.4972  0.9523
   76CHL1   C17 6754   2.530   1.705   4.382  0.5828 -0.2985 -0.5144
   76CHL1   H17 6755   2.636   1.678   4.368 -0.0493 -2.3746 -1.8452
   76CHL1   C13 6756   2.493   1.769   4.247  0.1059  0.3915  0.8520
   76CHL1   C18 6757   2.358   1.843   4.247  0.4522 -0.4165 -0.3368
   76CHL1  H18A 6758   2.272   1.795   4.297 -0.9417  0.9859 -1.3168
   76CHL1  H18B 6759   2.367   1.939   4.300  1.0297 -0.3819 -0.4878
   76CHL1  H18C 6760   2.325   1.884   4.149 -2.9535  1.9208  1.5970
   76CHL1   C12 6761   2.615   1.858   4.194  0.1025  0.0182  0.6354
   76CHL1  H12A 6762   2.612   1.960   4.236  0.0600  0.0964  0.4461
   76CHL1  H12B 6763   2.713   1.813   4.220  1.2669  2.0907  0.0923
   76CHL1   C11 6764   2.599   1.882   4.043 -0.1662 -0.4029  0.6450
   76CHL1  H11A 6765   2.524   1.963   4.027 -0.0805 -0.4815 -0.1649
   76CHL1  H11B 6766   2.686   1.935   4.000 -0.5034  0.0243  0.4775
   76CHL1    C9 6767   2.562   1.753   3.956 -0.2607  0.5028 -0.8315
   76CHL1    H9 6768   2.650   1.688   3.977 -1.6521 -1.3987 -0.7156
   76CHL1   C10 6769   2.550   1.771   3.805 -0.2204 -0.5805 -0.7429
   76CHL1   C19 6770   2.439   1.881   3.778 -0.4247 -0.3581  0.0251
   76CHL1  H19A 6771   2.423   1.905   3.671 -0.2811 -2.1511 -0.4230
   76CHL1  H19B 6772   2.345   1.848   3.826 -0.8445  0.6131 -0.0930
   76CHL1  H19C 6773   2.463   1.976   3.831 -0.1361 -0.2725 -0.2518
   76CHL1    C1 6774   2.685   1.823   3.743 -0.0715 -0.0856 -0.5232
   76CHL1   H1A 6775   2.693   1.929   3.776 -0.3893 -0.4454  0.7421
   76CHL1   H1B 6776   2.765   1.768   3.796  0.8805 -0.8236 -2.6016
   76CHL1    C2 6777   2.694   1.817   3.594  0.0401 -0.1086 -0.1665
   76CHL1   H2A 6778   2.801   1.832   3.567 -0.1889 -1.3549 -2.0071
   76CHL1   H2B 6779   2.633   1.891   3.539 -1.0394 -0.8780 -0.0434
   76CHL1   C20 6780   2.504   1.790   4.509 -1.2724 -0.3072  0.5504
   76CHL1   H20 6781   2.400   1.829   4.500 -1.6624 -1.2307  0.8963
   76CHL1   C21 6782   2.615   1.896   4.500  0.6437  0.2462  0.5298
   76CHL1  H21A 6783   2.634   1.931   4.604 -1.4291  2.1240  0.3474
   76CHL1  H21B 6784   2.580   1.983   4.442  0.5999 -0.3553 -0.3767
   76CHL1  H21C 6785   2.711   1.857   4.460  0.4220  0.0541  0.1773
   76CHL1   C22 6786   2.526   1.709   4.640  0.6631 -0.4342  0.2768
   76CHL1  H22A 6787   2.476   1.610   4.635 -1.1936  0.1691  3.4152
   76CHL1  H22B 6788   2.635   1.689   4.647  0.6695  0.0894  3.8575
   76CHL1   C23 6789   2.478   1.779   4.768 -0.0922 -0.2405  0.4466
   76CHL1  H23A 6790   2.518   1.882   4.780  1.5072 -1.1061  3.7739
   76CHL1  H23B 6791   2.369   1.796   4.774 -0.2953 -0.4180 -1.9586
   76CHL1   C24 6792   2.530   1.701   4.893 -0.1006 -0.4334 -0.2284
   76CHL1  H24A 6793   2.525   1.591   4.881 -1.5114 -0.7042  2.0434
   76CHL1  H24B 6794   2.637   1.727   4.893 -0.7420  2.6971 -1.9146
   76CHL1   C25 6795   2.482   1.732   5.029 -0.1809  0.0218 -0.5730
   76CHL1   H25 6796   2.372   1.722   5.040 -0.3093  2.4922  1.0154
   76CHL1   C26 6797   2.555   1.633   5.121 -0.0479  0.2649 -0.9260
   76CHL1  H26A 6798   2.584   1.541   5.066  1.6508 -0.6983  1.3938
   76CHL1  H26B 6799   2.649   1.673   5.166  0.7862 -3.0556  0.6016
   76CHL1  H26C 6800   2.490   1.607   5.207  0.0799 -0.7807 -1.1319
   76CHL1   C27 6801   2.509   1.880   5.071  0.0884  0.4395 -0.3026
   76CHL1  H27A 6802   2.460   1.905   5.167 -0.3268  1.3583 -0.7448
   76CHL1  H27B 6803   2.618   1.899   5.075  0.3102 -0.8865  0.7929
   76CHL1  H27C 6804   2.473   1.949   4.992  2.0363 -0.4229 -2.0364
   77SOPE     N 6805   4.626   5.667   7.814  0.3414  0.0374 -0.4126
   77SOPE   HN1 6806   4.681   5.749   7.781  0.9667  0.1019  0.7392
   77SOPE   HN2 6807   4.557   5.699   7.886  0.5552  0.5749 -0.4379
   77SOPE   HN3 6808   4.692   5.605   7.865 -1.9191 -1.4400  0.8936
   77SOPE   C12 6809   4.559   5.600   7.692  0.4263  0.5274  0.1750
   77SOPE  H12A 6810   4.537   5.497   7.728  2.2642  0.4789  1.2853
   77SOPE  H12B 6811   4.635   5.592   7.611 -0.6393  2.9092 -1.1628
   77SOPE   C11 6812   4.437   5.674   7.641 -0.1990  0.2499  0.2259
   77SOPE  H11A 6813   4.398   5.627   7.549 -0.0929 -3.1247  1.7579
   77SOPE  H11B 6814   4.475   5.773   7.607  0.1325 -0.2555 -0.8912
   77SOPE     P 6815   4.200   5.754   7.726 -0.2656  0.1039  0.2377
   77SOPE   O13 6816   4.207   5.884   7.795  0.1897  0.1845  0.6450
   77SOPE   O14 6817   4.092   5.664   7.771  0.6362  0.1224  0.5539
   77SOPE   O12 6818   4.342   5.679   7.747  0.3775  0.2131 -0.0556
   77SOPE   O11 6819   4.194   5.780   7.570  0.2945  0.7594  0.1649
   77SOPE    C1 6820   4.236   5.904   7.514  0.3804  0.1324  0.2303
   77SOPE    HA 6821   4.343   5.917   7.540  0.0969  0.7872  1.1031
   77SOPE    HB 6822   4.182   5.996   7.544 -1.2767  0.0097 -2.0622
   77SOPE    C2 6823   4.220   5.891   7.359  0.3000  0.3898 -0.3220
   77SOPE    HS 6824   4.111   5.903   7.342 -0.0212 -1.2165  0.3691
   77SOPE   O21 6825   4.277   5.766   7.318  0.5665  0.0141  0.0258
   77SOPE   C21 6826   4.193   5.666   7.307 -0.4007 -0.4679  1.2408
   77SOPE   O22 6827   4.072   5.678   7.307 -0.0035 -0.6858 -0.3793
   77SOPE   C22 6828   4.280   5.539   7.293  0.2845  0.4187 -0.4888
   77SOPE   H2R 6829   4.262   5.485   7.389 -0.3136  0.5570 -0.5193
   77SOPE   H2S 6830   4.386   5.564   7.272  0.7031 -1.0458 -0.2774
   77SOPE    C3 6831   4.283   6.006   7.282  0.3877 -0.6861  0.8254
   77SOPE    HX 6832   4.389   5.975   7.274 -0.3105 -2.6560 -2.4796
   77SOPE    HY 6833   4.275   6.103   7.336  1.8959 -0.8489  1.3797
   77SOPE   O31 6834   4.234   6.015   7.143  0.4371  0.3768 -0.0679
   77SOPE   C31 6835   4.115   6.081   7.129  0.4932 -0.6058  0.0557
   77SOPE   O32 6836   4.046   6.114   7.229  0.5263 -0.3276 -0.1151
   77SOPE   C32 6837   4.084   6.125   6.983 -0.1423  0.4987  0.8652
   77SOPE   H2X 6838   3.982   6.086   6.964 -0.3259  0.9899  0.8566
   77SOPE   H2Y 6839   4.157   6.077   6.914  0.8463  0.7774  1.7022
   77SOPE   C23 6840   4.242   5.447   7.174 -0.2526 -0.2609  0.3812
   77SOPE   H3R 6841   4.258   5.512   7.085 -1.9011  0.4321  0.5523
   77SOPE   H3S 6842   4.132   5.431   7.184 -0.9020  3.2954  0.3503
   77SOPE   C24 6843   4.299   5.299   7.174  0.0017 -0.2118 -0.2741
   77SOPE   H4R 6844   4.403   5.302   7.134 -0.0005  1.4395 -0.2178
   77SOPE   H4S 6845   4.311   5.261   7.278  2.8008  1.1642  0.0075
   77SOPE   C25 6846   4.209   5.188   7.109 -0.2631 -0.8072 -0.0539
   77SOPE   H5R 6847   4.235   5.095   7.164 -0.9498 -0.4807  0.8591
   77SOPE   H5S 6848   4.102   5.213   7.124  0.5364  2.0255  1.7986
   77SOPE   C26 6849   4.225   5.155   6.963 -0.8608 -0.2631 -0.0328
   77SOPE   H6R 6850   4.316   5.091   6.952 -1.2030 -0.2968 -5.1261
   77SOPE   H6S 6851   4.139   5.094   6.929  0.4602 -1.8293 -0.6834
   77SOPE   C27 6852   4.218   5.278   6.873 -0.3507 -0.2489  0.3323
   77SOPE   H7R 6853   4.120   5.330   6.880  0.4438  1.0943  2.2652
   77SOPE   H7S 6854   4.288   5.359   6.903  0.2647 -0.1891 -1.1660
   77SOPE   C28 6855   4.251   5.240   6.726 -0.6574  0.3323  0.8157
   77SOPE   H8R 6856   4.257   5.332   6.666 -0.8173  1.4078  2.3865
   77SOPE   H8S 6857   4.349   5.187   6.725 -0.3086  0.9539  1.1796
   77SOPE   C29 6858   4.138   5.152   6.677  0.0723 -0.1672  0.5582
   77SOPE   H91 6859   4.044   5.159   6.735 -0.5954  0.5239 -0.5822
   77SOPE  C210 6860   4.131   5.085   6.560 -1.1642  0.0478 -0.5644
   77SOPE  H101 6861   4.038   5.028   6.547 -0.8582 -0.9244  1.2658
   77SOPE  C211 6862   4.235   5.072   6.452 -0.1379 -0.0019  0.0715
   77SOPE  H11R 6863   4.245   4.964   6.428  1.5216  0.1916 -0.2151
   77SOPE  H11S 6864   4.329   5.112   6.496  0.7916 -0.2906 -1.5980
   77SOPE  C212 6865   4.182   5.151   6.334 -0.0023  0.4680 -0.1420
   77SOPE  H12R 6866   4.196   5.257   6.367  0.8670  0.6086 -0.9192
   77SOPE  H12S 6867   4.078   5.120   6.311 -0.2050  1.7137 -1.0215
   77SOPE  C213 6868   4.261   5.128   6.202 -0.4206 -0.0556  0.9035
   77SOPE  H13R 6869   4.283   5.019   6.201 -3.0638 -0.6573  0.7184
   77SOPE  H13S 6870   4.348   5.197   6.210 -2.4170  2.4648  2.5852
   77SOPE  C214 6871   4.175   5.160   6.087  0.0280  0.2938  0.3364
   77SOPE  H14R 6872   4.145   5.267   6.088 -1.7980 -0.1711 -0.2512
   77SOPE  H14S 6873   4.086   5.097   6.108 -0.1610  0.0811 -0.9715
   77SOPE  C215 6874   4.239   5.122   5.956 -0.5868 -0.2897  0.0829
   77SOPE  H15R 6875   4.266   5.014   5.965 -1.2255 -0.4395  0.1953
   77SOPE  H15S 6876   4.336   5.174   5.941 -0.6900  0.7812  2.5386
   77SOPE  C216 6877   4.158   5.143   5.830 -0.5600 -0.2472 -0.2740
   77SOPE  H16R 6878   4.116   5.245   5.816  2.2909  0.9298 -0.9248
   77SOPE  H16S 6879   4.080   5.064   5.827  1.2725 -2.1360 -0.4929
   77SOPE  C217 6880   4.242   5.098   5.706 -0.4994 -0.4315 -0.1548
   77SOPE  H17R 6881   4.176   5.091   5.617  0.7874  1.9394 -1.3943
   77SOPE  H17S 6882   4.299   5.004   5.724 -1.8413 -1.1641  0.3940
   77SOPE  C218 6883   4.336   5.213   5.667  0.3888  0.1966 -0.0697
   77SOPE  H18R 6884   4.291   5.314   5.662 -1.5355 -0.6156  0.0549
   77SOPE  H18S 6885   4.398   5.183   5.580  0.2142 -0.7471  0.1171
   77SOPE  H18T 6886   4.412   5.220   5.748 -1.8871 -0.2054  2.2515
   77SOPE   C33 6887   4.088   6.272   6.952  0.6839 -0.1708  0.9187
   77SOPE   H3X 6888   4.194   6.293   6.927  0.6018 -0.8125 -0.0166
   77SOPE   H3Y 6889   4.058   6.332   7.041 -0.4733  0.4811  0.1137
   77SOPE   C34 6890   4.003   6.316   6.829 -0.6844  0.3049  0.5869
   77SOPE   H4X 6891   3.996   6.427   6.833  1.7729  0.5750 -0.3169
   77SOPE   H4Y 6892   3.898   6.281   6.833 -0.5078 -0.8318 -2.2260
   77SOPE   C35 6893   4.066   6.280   6.691  0.3936  1.3720  0.1073
   77SOPE   H5X 6894   4.105   6.178   6.671 -1.2977  1.0938 -2.2558
   77SOPE   H5Y 6895   4.162   6.335   6.678  1.6119 -1.0609 -2.3011
   77SOPE   C36 6896   3.965   6.305   6.583  0.3912  0.0265 -0.2382
   77SOPE   H6X 6897   3.931   6.408   6.609 -1.2435 -1.0953  2.4418
   77SOPE   H6Y 6898   3.885   6.230   6.603  3.4188 -3.1163  0.9521
   77SOPE   C37 6899   4.039   6.293   6.445 -0.2082  0.1292 -0.7769
   77SOPE   H7X 6900   4.078   6.190   6.431 -0.2971  0.0901 -0.7345
   77SOPE   H7Y 6901   4.121   6.368   6.442 -0.6985  1.0320  3.0411
   77SOPE   C38 6902   3.945   6.322   6.327  0.2579  0.2195  0.7352
   77SOPE   H8X 6903   3.911   6.427   6.342 -0.7487 -0.1106  0.8335
   77SOPE   H8Y 6904   3.857   6.254   6.339  1.5778 -1.6862  0.0741
   77SOPE   C39 6905   4.027   6.304   6.206 -0.3384 -0.5305 -0.3778
   77SOPE   H9X 6906   4.075   6.203   6.213 -1.3085 -1.0323 -0.7113
   77SOPE   H9Y 6907   4.112   6.374   6.216  0.3826 -1.1744 -1.6617
   77SOPE  C310 6908   3.955   6.325   6.069 -0.1041 -0.1906 -0.7797
   77SOPE  H10X 6909   3.907   6.424   6.080 -0.0526 -0.4343  2.5661
   77SOPE  H10Y 6910   3.878   6.252   6.035  0.7466 -0.2257 -2.8167
   77SOPE  C311 6911   4.054   6.338   5.947 -0.2651 -0.1243 -0.2690
   77SOPE  H11X 6912   4.108   6.241   5.938  0.4629  0.3192 -0.7681
   77SOPE  H11Y 6913   4.127   6.413   5.984  1.1248 -2.0508  1.1256
   77SOPE  C312 6914   3.976   6.378   5.821 -0.7860  0.9881 -0.6217
   77SOPE  H12X 6915   3.912   6.465   5.845  2.0410  2.9981  0.1096
   77SOPE  H12Y 6916   3.917   6.285   5.802  0.6895 -0.2244  0.4600
   77SOPE  C313 6917   4.070   6.421   5.706 -0.2249 -0.1803  0.3791
   77SOPE  H13X 6918   4.137   6.333   5.695  0.3289  0.0656  1.6466
   77SOPE  H13Y 6919   4.141   6.502   5.735 -0.8820 -0.1839  2.0600
   77SOPE  C314 6920   3.998   6.449   5.573 -0.1573 -0.5605  0.0267
   77SOPE  H14X 6921   4.074   6.485   5.500 -1.1015 -2.6321 -2.0950
   77SOPE  H14Y 6922   3.911   6.517   5.580  1.5366  1.5906  1.2561
   77SOPE  C315 6923   3.941   6.327   5.507 -0.3286  0.1811  0.1519
   77SOPE  H15X 6924   3.854   6.291   5.565 -0.9946  1.7172  0.1607
   77SOPE  H15Y 6925   4.017   6.247   5.516 -1.4614 -1.4210 -2.7525
   77SOPE  C316 6926   3.901   6.328   5.359 -0.5409  0.0168  0.1208
   77SOPE  H16X 6927   3.823   6.407   5.349 -0.5241 -0.0064 -0.1907
   77SOPE  H16Y 6928   3.847   6.234   5.333  0.6023 -1.1368  1.7531
   77SOPE  C317 6929   4.012   6.345   5.259  0.3879  0.4400  0.2589
   77SOPE  H17X 6930   4.066   6.436   5.291 -0.1684  0.2147  1.9588
   77SOPE  H17Y 6931   3.969   6.355   5.157 -0.0698 -1.7900  0.1785
   77SOPE  C318 6932   4.113   6.234   5.246 -0.7704  0.2501 -0.0456
   77SOPE  H18X 6933   4.066   6.143   5.202 -0.5231 -1.0995  2.3305
   77SOPE  H18Y 6934   4.161   6.198   5.339  0.9415  2.4140  0.0015
   77SOPE  H18Z 6935   4.192   6.258   5.171 -0.0935 -0.2427  0.4975
   78SOPE     N 6936   4.508   4.106   7.727 -0.0005  0.1084 -0.0921
   78SOPE   HN1 6937   4.611   4.098   7.725  0.2554  2.6275 -1.7905
   78SOPE   HN2 6938   4.468   4.149   7.813  0.4026  0.9491 -0.3147
   78SOPE   HN3 6939   4.461   4.014   7.714 -1.9251  1.0255 -0.0962
   78SOPE   C12 6940   4.448   4.194   7.619 -0.2374  0.8383  0.2012
   78SOPE  H12A 6941   4.533   4.232   7.557 -1.0001  1.1496 -0.6650
   78SOPE  H12B 6942   4.402   4.288   7.656 -1.8884  0.3829 -0.6355
   78SOPE   C11 6943   4.354   4.109   7.528  0.4021  0.1308 -0.0375
   78SOPE  H11A 6944   4.415   4.052   7.455  0.0755 -0.7056  0.3341
   78SOPE  H11B 6945   4.284   4.187   7.493  0.9631  1.3077  1.3437
   78SOPE     P 6946   4.135   3.993   7.603  0.2974 -0.1993 -0.3178
   78SOPE   O13 6947   4.078   4.112   7.667  0.2475  0.3651  0.2382
   78SOPE   O14 6948   4.113   3.867   7.672  1.1772  0.9386 -0.5613
   78SOPE   O12 6949   4.288   4.021   7.611  0.3509  0.4173  0.7577
   78SOPE   O11 6950   4.086   3.986   7.454 -0.2594 -0.1961 -0.4626
   78SOPE    C1 6951   4.112   3.872   7.373  0.7066 -0.1603  0.0285
   78SOPE    HA 6952   4.037   3.796   7.402 -2.3570  2.7009  0.1461
   78SOPE    HB 6953   4.210   3.825   7.398  0.7199 -0.0720  0.1427
   78SOPE    C2 6954   4.109   3.903   7.220  0.1580  0.0877  0.2119
   78SOPE    HS 6955   4.153   3.820   7.159 -0.2194  1.7654 -2.5163
   78SOPE   O21 6956   4.175   4.027   7.188 -0.2743 -0.0986  0.6948
   78SOPE   C21 6957   4.305   4.024   7.189  0.2930  0.5315  0.0186
   78SOPE   O22 6958   4.373   3.926   7.211 -0.7251  0.5005 -0.4085
   78SOPE   C22 6959   4.359   4.175   7.165 -0.0147  0.5170 -0.2463
   78SOPE   H2R 6960   4.403   4.195   7.266  0.9937  0.6575 -0.6962
   78SOPE   H2S 6961   4.266   4.233   7.145 -0.8529 -1.1023 -1.2093
   78SOPE    C3 6962   3.967   3.928   7.165  0.0984 -0.2601 -0.7382
   78SOPE    HX 6963   3.933   4.009   7.232  0.9855  0.7057 -1.4164
   78SOPE    HY 6964   3.905   3.837   7.175 -1.5124  0.6004 -2.4037
   78SOPE   O31 6965   3.975   3.960   7.024 -0.1715  0.2606  0.1849
   78SOPE   C31 6966   3.920   4.074   6.986  0.4759 -0.1904 -0.4883
   78SOPE   O32 6967   3.854   4.144   7.062  0.1880 -0.1142  0.7323
   78SOPE   C32 6968   3.947   4.102   6.836 -0.2268  0.5187  0.6458
   78SOPE   H2X 6969   3.975   4.209   6.831 -0.1355  0.4487 -0.8261
   78SOPE   H2Y 6970   3.856   4.072   6.779  0.8527 -1.0919 -0.3467
   78SOPE   C23 6971   4.458   4.184   7.051 -0.2076 -0.2051  0.6655
   78SOPE   H3R 6972   4.535   4.109   7.080 -1.5525 -1.4799  1.0084
   78SOPE   H3S 6973   4.512   4.281   7.056  1.4511 -1.1469  2.5901
   78SOPE   C24 6974   4.415   4.152   6.910  0.1974 -0.1239  0.9655
   78SOPE   H4R 6975   4.362   4.055   6.915 -0.0151 -0.0747 -0.1340
   78SOPE   H4S 6976   4.343   4.228   6.874  1.8038  0.6967 -0.6668
   78SOPE   C25 6977   4.530   4.158   6.816  0.0350  0.3078 -0.4361
   78SOPE   H5R 6978   4.571   4.261   6.818  1.9337 -0.3579 -2.1206
   78SOPE   H5S 6979   4.608   4.084   6.843 -0.4625 -0.4492 -1.0383
   78SOPE   C26 6980   4.494   4.133   6.664  0.2677  0.4191 -0.2357
   78SOPE   H6R 6981   4.474   4.025   6.652 -0.5990  0.6644 -1.0584
   78SOPE   H6S 6982   4.409   4.196   6.631 -0.1883  1.3176  2.4135
   78SOPE   C27 6983   4.622   4.179   6.595 -0.6946 -0.7450  0.6874
   78SOPE   H7R 6984   4.651   4.283   6.622  0.7634 -1.3297  1.5143
   78SOPE   H7S 6985   4.709   4.115   6.623  0.8269  0.8772 -0.1388
   78SOPE   C28 6986   4.598   4.195   6.444  0.4483  0.0225 -0.0674
   78SOPE   H8R 6987   4.512   4.262   6.424 -1.2891 -1.7041  1.2039
   78SOPE   H8S 6988   4.678   4.247   6.388 -0.6251  0.1623 -1.5213
   78SOPE   C29 6989   4.566   4.060   6.378 -0.0076  1.1460 -0.1018
   78SOPE   H91 6990   4.479   4.007   6.417 -0.2435  1.3701 -0.3175
   78SOPE  C210 6991   4.639   3.991   6.285  0.0466  0.0961  0.3638
   78SOPE  H101 6992   4.601   3.896   6.242  3.0361 -0.2087 -1.9570
   78SOPE  C211 6993   4.762   4.034   6.205 -0.2231  0.1568 -0.1051
   78SOPE  H11R 6994   4.836   3.956   6.230  0.3902  1.3533  2.0580
   78SOPE  H11S 6995   4.802   4.133   6.236 -1.3481  0.9709 -1.1107
   78SOPE  C212 6996   4.739   4.028   6.051  0.5669 -0.4672 -1.1256
   78SOPE  H12R 6997   4.680   4.119   6.024  2.6142  0.3334 -3.1310
   78SOPE  H12S 6998   4.688   3.931   6.032 -3.5248  1.1651  0.2070
   78SOPE  C213 6999   4.870   4.040   5.971 -0.1584 -0.2227  0.3965
   78SOPE  H13R 7000   4.948   3.970   6.007  1.9419  2.5032  1.5720
   78SOPE  H13S 7001   4.923   4.138   5.964  1.6628 -1.2399 -1.1502
   78SOPE  C214 7002   4.848   4.010   5.817  0.4210  0.1381 -0.0973
   78SOPE  H14R 7003   4.761   4.065   5.775 -0.4665 -1.0236  0.1440
   78SOPE  H14S 7004   4.822   3.902   5.810  0.0870  0.0697  1.6795
   78SOPE  C215 7005   4.973   4.023   5.733  0.1599  0.1534 -0.5335
   78SOPE  H15R 7006   5.066   3.979   5.776  0.7763  1.5359 -0.3824
   78SOPE  H15S 7007   4.992   4.132   5.725 -1.0107  0.3574 -0.6015
   78SOPE  C216 7008   4.956   3.962   5.594  0.3665 -0.8949  0.1034
   78SOPE  H16R 7009   4.875   4.020   5.545  2.2365  0.4985 -1.5139
   78SOPE  H16S 7010   4.930   3.856   5.617 -0.0711 -0.8372 -0.1034
   78SOPE  C217 7011   5.077   3.961   5.506 -0.3945  0.6002 -0.2944
   78SOPE  H17R 7012   5.123   4.062   5.509  1.3478 -0.1818  0.9766
   78SOPE  H17S 7013   5.054   3.943   5.399 -0.1976  2.0526 -0.6059
   78SOPE  C218 7014   5.179   3.855   5.547 -0.7473  0.0449  0.6017
   78SOPE  H18R 7015   5.233   3.876   5.642  1.8096 -1.7093 -0.3612
   78SOPE  H18S 7016   5.243   3.817   5.465  0.2030  1.5062  0.6318
   78SOPE  H18T 7017   5.118   3.767   5.576  0.1630 -0.6403  0.4733
   78SOPE   C33 7018   4.054   4.006   6.778 -0.2756  0.3246  0.1733
   78SOPE   H3X 7019   4.025   3.899   6.768 -1.5520  0.6445  0.2653
   78SOPE   H3Y 7020   4.142   4.014   6.844 -0.4704 -1.0644  0.6220
   78SOPE   C34 7021   4.113   4.046   6.635 -0.2051  0.4073 -0.0116
   78SOPE   H4X 7022   4.043   4.007   6.559 -0.3193 -0.6777  0.6231
   78SOPE   H4Y 7023   4.212   3.998   6.624 -0.3677 -0.8152  2.7722
   78SOPE   C35 7024   4.130   4.198   6.610 -0.3808  1.0231 -0.8814
   78SOPE   H5X 7025   4.199   4.244   6.684  0.3130 -1.3584  0.0460
   78SOPE   H5Y 7026   4.034   4.254   6.615 -0.0717  1.5056 -0.0471
   78SOPE   C36 7027   4.185   4.212   6.460 -0.5209 -0.3335 -0.2023
   78SOPE   H6X 7028   4.279   4.152   6.454  0.3722  1.0460 -0.4889
   78SOPE   H6Y 7029   4.203   4.318   6.436  2.1209 -0.6547  0.0386
   78SOPE   C37 7030   4.096   4.153   6.349 -0.5727  0.0240 -0.4830
   78SOPE   H7X 7031   3.996   4.199   6.363  0.1153  1.5986 -0.5091
   78SOPE   H7Y 7032   4.098   4.042   6.359  3.1575  0.1426  2.1001
   78SOPE   C38 7033   4.138   4.192   6.205 -0.6854 -0.3279 -0.2913
   78SOPE   H8X 7034   4.144   4.303   6.197 -2.6767  0.1092  2.7234
   78SOPE   H8Y 7035   4.060   4.166   6.131 -0.8402 -0.1381 -0.1960
   78SOPE   C39 7036   4.273   4.123   6.162  0.8444 -0.6685 -0.9208
   78SOPE   H9X 7037   4.243   4.016   6.161 -0.5418 -0.3536  1.2144
   78SOPE   H9Y 7038   4.345   4.141   6.244 -0.4333 -0.4245  0.1875
   78SOPE  C310 7039   4.326   4.170   6.027  0.5154 -0.3497 -0.0820
   78SOPE  H10X 7040   4.422   4.116   6.012  0.4395 -0.2307 -1.0315
   78SOPE  H10Y 7041   4.341   4.280   6.020 -1.5215 -0.0434 -0.3876
   78SOPE  C311 7042   4.220   4.149   5.918 -0.0075  0.0896  1.2111
   78SOPE  H11X 7043   4.122   4.200   5.929 -0.9373 -1.5684  1.0290
   78SOPE  H11Y 7044   4.194   4.041   5.909  0.3971  0.1566 -1.9516
   78SOPE  C312 7045   4.275   4.213   5.787 -1.3316  0.6840  0.2802
   78SOPE  H12X 7046   4.272   4.323   5.797 -6.3513  0.9361 -1.2618
   78SOPE  H12Y 7047   4.205   4.173   5.711  0.3254 -1.1975 -0.3679
   78SOPE  C313 7048   4.417   4.163   5.747 -0.2265  0.4053  0.8230
   78SOPE  H13X 7049   4.438   4.054   5.742  0.5702  0.6190 -1.5693
   78SOPE  H13Y 7050   4.487   4.207   5.821  1.5865 -2.4680  0.9701
   78SOPE  C314 7051   4.441   4.222   5.605  0.5859  0.2801 -0.1306
   78SOPE  H14X 7052   4.430   4.332   5.602  0.1895  0.2200 -2.7641
   78SOPE  H14Y 7053   4.366   4.169   5.543  1.7801 -1.4561 -0.1513
   78SOPE  C315 7054   4.577   4.183   5.540  0.1698  0.4535 -0.8286
   78SOPE  H15X 7055   4.592   4.074   5.529  2.3846  0.6979 -0.7337
   78SOPE  H15Y 7056   4.662   4.210   5.607 -1.8416  0.1544  2.0507
   78SOPE  C316 7057   4.601   4.244   5.402 -0.6369  0.4967 -0.0346
   78SOPE  H16X 7058   4.611   4.354   5.414  4.3527  0.1669  0.9947
   78SOPE  H16Y 7059   4.518   4.213   5.334 -0.3622 -0.3225 -0.0099
   78SOPE  C317 7060   4.739   4.205   5.336  0.4158  0.4007 -0.1624
   78SOPE  H17X 7061   4.813   4.196   5.419 -0.4400  1.4161  0.7418
   78SOPE  H17Y 7062   4.764   4.296   5.276  0.8322  0.9178  0.7684
   78SOPE  C318 7063   4.717   4.079   5.253 -0.7627 -0.0816 -0.2569
   78SOPE  H18X 7064   4.816   4.057   5.207  0.2074 -0.9508  2.0554
   78SOPE  H18Y 7065   4.640   4.096   5.176 -1.4920  0.3393  0.5439
   78SOPE  H18Z 7066   4.678   3.994   5.313 -0.4558  0.0504  0.1406
   79SOPE     N 7067   4.404   0.914   7.774 -0.5178  0.0794 -0.3750
   79SOPE   HN1 7068   4.504   0.936   7.793 -0.4771 -0.5866  0.1794
   79SOPE   HN2 7069   4.341   0.997   7.762 -1.6068 -0.8503 -1.3198
   79SOPE   HN3 7070   4.374   0.864   7.860 -3.3916  2.1757  0.0010
   79SOPE   C12 7071   4.393   0.837   7.647  0.3430 -0.1305  0.3418
   79SOPE  H12A 7072   4.291   0.792   7.639  0.1581  0.4668 -0.8677
   79SOPE  H12B 7073   4.459   0.748   7.653  3.0112  1.7488  0.2606
   79SOPE   C11 7074   4.439   0.904   7.522  0.3908 -0.7392 -0.0492
   79SOPE  H11A 7075   4.358   0.974   7.493  0.8492  0.4727  1.4629
   79SOPE  H11B 7076   4.453   0.830   7.440  3.4732  0.0215 -0.3131
   79SOPE     P 7077   4.622   1.106   7.520 -0.4002 -0.1799 -0.4553
   79SOPE   O13 7078   4.716   1.153   7.624 -0.1090  0.1439  0.0190
   79SOPE   O14 7079   4.501   1.188   7.497  0.3076  0.2916  0.0146
   79SOPE   O12 7080   4.567   0.960   7.544 -0.5215  0.2336 -0.0569
   79SOPE   O11 7081   4.697   1.091   7.385 -0.1708 -0.2042  0.1811
   79SOPE    C1 7082   4.640   1.050   7.260  0.4655  0.5043 -0.1884
   79SOPE    HA 7083   4.549   0.988   7.271  1.6240 -1.2632 -0.1978
   79SOPE    HB 7084   4.713   0.988   7.204 -0.7326 -1.4603  0.3591
   79SOPE    C2 7085   4.612   1.174   7.177 -0.1667 -0.0861 -0.5000
   79SOPE    HS 7086   4.599   1.266   7.237 -1.3276  0.0827 -0.9753
   79SOPE   O21 7087   4.496   1.152   7.091  0.6106 -0.3237  0.2085
   79SOPE   C21 7088   4.411   1.258   7.086  0.2046 -0.5511 -1.1935
   79SOPE   O22 7089   4.415   1.354   7.167  0.0358 -0.0797 -0.0614
   79SOPE   C22 7090   4.328   1.247   6.954  0.3834  0.2597  0.1471
   79SOPE   H2R 7091   4.297   1.143   6.934 -0.1167  0.3797  0.2968
   79SOPE   H2S 7092   4.400   1.277   6.874 -0.2069  0.6017 -0.2653
   79SOPE    C3 7093   4.737   1.193   7.095  0.0659  0.6617  0.3758
   79SOPE    HX 7094   4.742   1.112   7.020  0.8420  0.1264  0.9923
   79SOPE    HY 7095   4.826   1.164   7.155 -0.6682 -3.1021 -0.1079
   79SOPE   O31 7096   4.758   1.328   7.036  0.5489  0.6001 -0.2617
   79SOPE   C31 7097   4.724   1.346   6.912  0.0314 -0.1996 -0.1026
   79SOPE   O32 7098   4.689   1.259   6.834 -0.6219 -0.1674  0.1574
   79SOPE   C32 7099   4.735   1.495   6.875 -0.3363  0.0380  0.6205
   79SOPE   H2X 7100   4.785   1.505   6.776 -0.9036 -1.9746  0.0872
   79SOPE   H2Y 7101   4.804   1.544   6.947  0.4037  0.9163 -0.6410
   79SOPE   C23 7102   4.209   1.341   6.951 -0.1448 -0.9743  0.5024
   79SOPE   H3R 7103   4.238   1.448   6.952 -0.5930 -0.8430  2.0724
   79SOPE   H3S 7104   4.148   1.330   7.044 -0.6352  0.0741  0.3205
   79SOPE   C24 7105   4.121   1.313   6.832  0.1803 -0.0082 -0.0204
   79SOPE   H4R 7106   4.126   1.204   6.812  3.8590 -0.6206  3.0072
   79SOPE   H4S 7107   4.015   1.344   6.839  0.3345  0.5204  0.0165
   79SOPE   C25 7108   4.157   1.403   6.719  0.4208  0.1746  0.0897
   79SOPE   H5R 7109   4.182   1.504   6.759  1.9485  0.0648 -0.5064
   79SOPE   H5S 7110   4.253   1.372   6.673 -0.5148 -3.3381  0.2133
   79SOPE   C26 7111   4.055   1.404   6.615  0.3500 -0.2828 -0.6387
   79SOPE   H6R 7112   4.039   1.300   6.581  0.1753 -0.9245  1.2445
   79SOPE   H6S 7113   3.960   1.431   6.665  1.2983  0.3089  0.9380
   79SOPE   C27 7114   4.096   1.492   6.495 -0.9764  0.2473  0.3069
   79SOPE   H7R 7115   4.149   1.584   6.528 -1.1939  0.9744 -1.3237
   79SOPE   H7S 7116   4.174   1.434   6.441 -0.6543  0.0656  0.9498
   79SOPE   C28 7117   3.985   1.551   6.397  0.3658  0.5084 -0.1055
   79SOPE   H8R 7118   3.905   1.609   6.449 -1.1564 -1.6765  0.1020
   79SOPE   H8S 7119   4.039   1.636   6.349 -0.1718  1.7566  1.3810
   79SOPE   C29 7120   3.925   1.455   6.297  0.4809  0.0792 -0.0828
   79SOPE   H91 7121   3.858   1.386   6.351 -0.3455  0.4789 -0.5794
   79SOPE  C210 7122   3.944   1.449   6.164  0.1455 -0.3024 -0.6177
   79SOPE  H101 7123   3.885   1.373   6.111 -0.0496 -1.5368  1.3017
   79SOPE  C211 7124   4.046   1.531   6.092  0.2616 -0.1396  0.5398
   79SOPE  H11R 7125   4.144   1.481   6.077  0.0519 -0.5400  0.4963
   79SOPE  H11S 7126   4.063   1.625   6.148 -1.5825 -1.0678  2.7882
   79SOPE  C212 7127   3.999   1.575   5.951  0.1493 -0.4323 -0.1072
   79SOPE  H12R 7128   4.057   1.661   5.911 -1.6711  0.6318 -0.6139
   79SOPE  H12S 7129   3.899   1.613   5.981  0.9943  3.4884 -1.6284
   79SOPE  C213 7130   4.004   1.467   5.841  0.2144 -0.7838 -0.4770
   79SOPE  H13R 7131   3.930   1.392   5.876 -1.2721  0.3622 -1.0371
   79SOPE  H13S 7132   4.094   1.404   5.830 -0.5158 -2.1525  1.0313
   79SOPE  C214 7133   3.951   1.527   5.711  0.1365 -0.3318  1.3323
   79SOPE  H14R 7134   4.029   1.581   5.653 -1.9430  0.1003 -1.2412
   79SOPE  H14S 7135   3.870   1.599   5.737  1.0314  1.9879 -1.7141
   79SOPE  C215 7136   3.910   1.420   5.601 -0.2903 -0.5983 -0.8223
   79SOPE  H15R 7137   3.832   1.352   5.641 -0.5226 -1.4296 -2.6222
   79SOPE  H15S 7138   3.995   1.359   5.564 -0.3126 -1.6501  0.7574
   79SOPE  C216 7139   3.846   1.485   5.478  0.0317 -0.3460  0.1425
   79SOPE  H16R 7140   3.923   1.539   5.418  0.1378  0.5804  1.0668
   79SOPE  H16S 7141   3.769   1.557   5.516 -2.4007 -1.1782 -2.8462
   79SOPE  C217 7142   3.780   1.383   5.389  0.4396 -0.1956 -0.6083
   79SOPE  H17R 7143   3.682   1.363   5.437 -0.7210  0.7384 -2.4523
   79SOPE  H17S 7144   3.848   1.297   5.405  0.8319  0.6439  3.2913
   79SOPE  C218 7145   3.759   1.428   5.250  0.0401 -0.0275  0.5045
   79SOPE  H18R 7146   3.859   1.431   5.202 -0.4238 -1.8834 -0.6476
   79SOPE  H18S 7147   3.702   1.524   5.245  0.2084  0.0914  0.8103
   79SOPE  H18T 7148   3.695   1.349   5.205  0.4933  0.5533 -1.2619
   79SOPE   C33 7149   4.605   1.569   6.880  0.0694  0.2612 -0.9466
   79SOPE   H3X 7150   4.647   1.672   6.875 -1.1002  0.9839  1.9863
   79SOPE   H3Y 7151   4.548   1.566   6.976 -0.4153 -0.7384 -1.2521
   79SOPE   C34 7152   4.506   1.559   6.758  0.1245  0.1441  0.4785
   79SOPE   H4X 7153   4.440   1.648   6.757 -0.4620 -0.2655 -1.8201
   79SOPE   H4Y 7154   4.439   1.470   6.753  1.4733 -1.0072  1.8003
   79SOPE   C35 7155   4.583   1.569   6.620  0.0988 -0.0516 -0.7655
   79SOPE   H5X 7156   4.618   1.467   6.590  1.0387 -0.1550  0.5849
   79SOPE   H5Y 7157   4.665   1.641   6.641 -1.3661  1.5967 -0.5624
   79SOPE   C36 7158   4.502   1.621   6.507 -0.6171  0.1000 -0.0458
   79SOPE   H6X 7159   4.448   1.712   6.540 -0.3676  0.4542 -0.6069
   79SOPE   H6Y 7160   4.437   1.534   6.483  2.5451 -2.3563 -0.3232
   79SOPE   C37 7161   4.587   1.653   6.384  0.3913  0.8508 -0.4047
   79SOPE   H7X 7162   4.630   1.552   6.368 -0.6707  0.3074  0.0896
   79SOPE   H7Y 7163   4.671   1.725   6.400  1.5533 -0.3707 -0.8466
   79SOPE   C38 7164   4.499   1.705   6.260 -0.0019  0.0040 -0.8616
   79SOPE   H8X 7165   4.438   1.789   6.297  1.7536  0.3070  1.6127
   79SOPE   H8Y 7166   4.427   1.623   6.239 -0.3965 -0.3023  1.4820
   79SOPE   C39 7167   4.584   1.747   6.142 -0.4621  0.5406 -0.3256
   79SOPE   H9X 7168   4.674   1.801   6.177  0.7938 -2.3512  1.1961
   79SOPE   H9Y 7169   4.535   1.819   6.074 -0.0858  1.8170  0.7086
   79SOPE  C310 7170   4.643   1.618   6.067 -0.8814 -0.3400 -0.7110
   79SOPE  H10X 7171   4.710   1.577   6.145 -0.8180  0.2016 -0.4733
   79SOPE  H10Y 7172   4.722   1.647   5.994 -0.0865  0.6693  0.4965
   79SOPE  C311 7173   4.552   1.510   6.016 -0.0607  0.0694 -0.2370
   79SOPE  H11X 7174   4.482   1.479   6.097  2.2260  0.4631  2.0261
   79SOPE  H11Y 7175   4.618   1.426   5.987  1.7324  0.9418  1.1274
   79SOPE  C312 7176   4.467   1.557   5.899  0.7337 -0.1133  0.3467
   79SOPE  H12X 7177   4.530   1.615   5.828  0.5528  1.2508  1.2743
   79SOPE  H12Y 7178   4.392   1.632   5.932  1.1942  0.7591 -0.5428
   79SOPE  C313 7179   4.413   1.435   5.812 -0.4436  0.6459 -0.3878
   79SOPE  H13X 7180   4.339   1.384   5.877 -0.5724  1.1016 -0.1741
   79SOPE  H13Y 7181   4.499   1.367   5.794 -0.6712 -0.1207  1.2242
   79SOPE  C314 7182   4.360   1.476   5.673  1.1090  0.0405  0.4754
   79SOPE  H14X 7183   4.441   1.520   5.612  0.1261 -1.2921 -1.8870
   79SOPE  H14Y 7184   4.282   1.555   5.681  0.4226 -0.4391 -1.0464
   79SOPE  C315 7185   4.307   1.354   5.588  0.5985 -0.0226 -0.5776
   79SOPE  H15X 7186   4.212   1.312   5.629  0.1625 -1.0307 -2.4851
   79SOPE  H15Y 7187   4.384   1.273   5.585 -0.6559 -1.2241 -1.6096
   79SOPE  C316 7188   4.286   1.398   5.445  0.5014 -0.0564  0.6177
   79SOPE  H16X 7189   4.376   1.444   5.399  0.1734  1.7863  1.7345
   79SOPE  H16Y 7190   4.210   1.478   5.448  0.9539  0.3790  0.6151
   79SOPE  C317 7191   4.232   1.287   5.357  0.4880  0.3830  0.0323
   79SOPE  H17X 7192   4.135   1.257   5.400  0.2472  0.2124 -0.6102
   79SOPE  H17Y 7193   4.294   1.196   5.364 -1.7974 -1.1137  2.5441
   79SOPE  C318 7194   4.190   1.329   5.217 -0.2678  0.4582 -0.4555
   79SOPE  H18X 7195   4.121   1.415   5.225  2.9520  3.0894  1.8832
   79SOPE  H18Y 7196   4.147   1.243   5.161  0.3099  1.5377 -2.7048
   79SOPE  H18Z 7197   4.273   1.357   5.149 -1.4045 -2.5121 -3.3782
   80SOPE     N 7198   2.293   3.317   7.100  1.0364  0.1159  0.0084
   80SOPE   HN1 7199   2.202   3.317   7.049  0.0043 -0.3813  1.7666
   80SOPE   HN2 7200   2.277   3.277   7.194 -0.1827  2.4589  0.8884
   80SOPE   HN3 7201   2.329   3.414   7.109  0.6308  0.1495  1.4640
   80SOPE   C12 7202   2.391   3.232   7.027 -0.3013 -0.9975 -0.3266
   80SOPE  H12A 7203   2.469   3.306   6.999 -0.6441 -0.2615  0.6260
   80SOPE  H12B 7204   2.340   3.189   6.938 -3.1379  0.0582  0.6899
   80SOPE   C11 7205   2.444   3.118   7.119  0.3454  0.5815  0.7342
   80SOPE  H11A 7206   2.489   3.041   7.054 -2.3558 -1.5328  1.1884
   80SOPE  H11B 7207   2.357   3.071   7.170 -0.4013  1.3969  0.2500
   80SOPE     P 7208   2.632   3.120   7.298  0.2150  0.3896  0.4161
   80SOPE   O13 7209   2.597   2.980   7.291  0.1975  0.1893  0.4310
   80SOPE   O14 7210   2.639   3.186   7.432 -0.9385  0.5415 -0.0103
   80SOPE   O12 7211   2.520   3.187   7.216 -0.0602 -0.1094 -0.0222
   80SOPE   O11 7212   2.765   3.144   7.224  0.0345 -0.5493  0.0672
   80SOPE    C1 7213   2.757   3.163   7.084  0.0795  0.1176  0.1855
   80SOPE    HA 7214   2.673   3.231   7.059  0.7983  0.8489 -0.3010
   80SOPE    HB 7215   2.742   3.064   7.037 -0.1574  0.4260 -0.3920
   80SOPE    C2 7216   2.878   3.235   7.035  0.4420  0.3774  0.2244
   80SOPE    HS 7217   2.866   3.250   6.925 -0.5542 -0.0512  0.2565
   80SOPE   O21 7218   2.996   3.155   7.061 -0.3078 -0.1296 -0.3998
   80SOPE   C21 7219   3.025   3.046   6.992  0.4975 -0.4320  0.3237
   80SOPE   O22 7220   2.959   3.001   6.899 -0.5406  0.2763  0.3122
   80SOPE   C22 7221   3.170   3.005   7.029  0.3421  1.0041 -0.7026
   80SOPE   H2R 7222   3.160   2.948   7.124  0.0779  0.2148 -1.1945
   80SOPE   H2S 7223   3.236   3.091   7.054 -0.5735  1.0984  1.6362
   80SOPE    C3 7224   2.897   3.367   7.121  0.0719  0.0324  0.6218
   80SOPE    HX 7225   2.948   3.345   7.218 -0.5573  1.6664  1.3687
   80SOPE    HY 7226   2.800   3.417   7.143 -0.7100 -1.0746 -0.2369
   80SOPE   O31 7227   2.977   3.459   7.046 -0.4265  0.0682  0.2383
   80SOPE   C31 7228   3.115   3.433   7.043  0.0946  0.1593  0.4917
   80SOPE   O32 7229   3.175   3.355   7.109 -0.1456 -0.3247  0.1283
   80SOPE   C32 7230   3.180   3.526   6.938 -0.7076 -0.5472 -0.8996
   80SOPE   H2X 7231   3.202   3.623   6.986  0.5665 -1.4566  0.4317
   80SOPE   H2Y 7232   3.108   3.535   6.853  0.9852  0.8408 -2.2628
   80SOPE   C23 7233   3.231   2.905   6.926  0.3697 -0.8677  0.1809
   80SOPE   H3R 7234   3.148   2.841   6.888  0.3063 -0.8489  0.2877
   80SOPE   H3S 7235   3.313   2.848   6.976  1.1541 -0.3729 -0.5128
   80SOPE   C24 7236   3.296   2.983   6.810 -0.0583  0.2569 -0.2871
   80SOPE   H4R 7237   3.234   3.063   6.765 -1.1824 -0.0744  0.6269
   80SOPE   H4S 7238   3.381   3.039   6.855  0.8330 -1.5146  0.3223
   80SOPE   C25 7239   3.343   2.884   6.699 -0.3743 -0.2884  0.3945
   80SOPE   H5R 7240   3.403   2.808   6.754  0.5788  0.0414 -0.1735
   80SOPE   H5S 7241   3.259   2.838   6.643 -1.1057  1.7294 -0.2541
   80SOPE   C26 7242   3.432   2.957   6.603  0.1567 -0.2018  0.3640
   80SOPE   H6R 7243   3.367   3.028   6.547 -2.1798 -3.5144 -1.4345
   80SOPE   H6S 7244   3.508   3.005   6.669 -0.8773  0.5021  1.0721
   80SOPE   C27 7245   3.494   2.854   6.518  0.2787 -0.5500 -0.4603
   80SOPE   H7R 7246   3.567   2.802   6.583  1.5980  0.7097 -0.8720
   80SOPE   H7S 7247   3.413   2.786   6.483  1.2284 -1.7169 -0.4237
   80SOPE   C28 7248   3.563   2.909   6.395  0.0554  0.2857 -0.6261
   80SOPE   H8R 7249   3.490   2.968   6.336  0.6154  0.3660 -1.2555
   80SOPE   H8S 7250   3.646   2.973   6.432  0.3630  0.6602 -1.9035
   80SOPE   C29 7251   3.628   2.800   6.315 -1.1232 -0.1429 -0.3172
   80SOPE   H91 7252   3.657   2.705   6.362  0.5072  1.0287  1.1975
   80SOPE  C210 7253   3.651   2.803   6.185 -0.3772 -0.0481  0.6349
   80SOPE  H101 7254   3.700   2.725   6.125 -2.1563 -0.1516 -0.7426
   80SOPE  C211 7255   3.617   2.927   6.100  0.5903 -0.4968 -0.8459
   80SOPE  H11R 7256   3.617   3.013   6.170  0.9153 -2.2118  1.3776
   80SOPE  H11S 7257   3.513   2.915   6.064 -0.0425 -0.6279  0.9570
   80SOPE  C212 7258   3.720   2.928   5.974  0.2523 -0.1831 -0.7820
   80SOPE  H12R 7259   3.822   2.910   6.013 -0.9659 -0.3394  2.6526
   80SOPE  H12S 7260   3.715   3.025   5.920  1.3482  0.5788  0.4369
   80SOPE  C213 7261   3.699   2.819   5.876 -0.0385  0.4494  0.3253
   80SOPE  H13R 7262   3.592   2.818   5.846 -0.1923 -3.5139  0.5649
   80SOPE  H13S 7263   3.712   2.726   5.935  3.4645  1.8959  2.1923
   80SOPE  C214 7264   3.808   2.818   5.770  0.0487 -0.8396 -0.9261
   80SOPE  H14R 7265   3.865   2.724   5.766  1.3299 -0.0344 -3.2284
   80SOPE  H14S 7266   3.876   2.904   5.790  0.7034 -1.2948 -1.1947
   80SOPE  C215 7267   3.756   2.851   5.631  0.0238  0.2325 -0.1116
   80SOPE  H15R 7268   3.709   2.951   5.642  1.4036  1.1700 -2.0463
   80SOPE  H15S 7269   3.679   2.773   5.610  1.0980 -0.7291 -0.6152
   80SOPE  C216 7270   3.855   2.879   5.517 -0.1671 -0.0520  0.3727
   80SOPE  H16R 7271   3.910   2.970   5.550  2.6476  0.3536 -4.4390
   80SOPE  H16S 7272   3.801   2.896   5.421  1.2841  1.0057 -0.3077
   80SOPE  C217 7273   3.953   2.774   5.483  0.1322  0.8130 -0.3791
   80SOPE  H17R 7274   3.996   2.733   5.577  2.1953 -0.4495 -1.7712
   80SOPE  H17S 7275   4.040   2.830   5.442 -0.4885  1.5255 -0.7272
   80SOPE  C218 7276   3.891   2.670   5.387 -0.0625  0.1946 -0.7122
   80SOPE  H18R 7277   3.824   2.722   5.315 -0.3814  1.2747  0.3358
   80SOPE  H18S 7278   3.823   2.607   5.449 -0.0505 -0.0439 -0.9383
   80SOPE  H18T 7279   3.969   2.607   5.339 -0.2009  0.0213 -0.7102
   80SOPE   C33 7280   3.314   3.459   6.870  0.1052 -0.1105 -0.8728
   80SOPE   H3X 7281   3.378   3.431   6.956  0.2111  1.0718 -0.5451
   80SOPE   H3Y 7282   3.371   3.536   6.812  1.1176 -0.7776 -0.7866
   80SOPE   C34 7283   3.293   3.344   6.776  0.5547  0.1940  0.2809
   80SOPE   H4X 7284   3.241   3.268   6.839  1.1855 -0.4080  0.0849
   80SOPE   H4Y 7285   3.385   3.289   6.746 -1.0258 -3.5517  1.6216
   80SOPE   C35 7286   3.208   3.373   6.645  0.5777  0.5666 -0.9546
   80SOPE   H5X 7287   3.122   3.436   6.678  0.7137 -0.6277  1.9935
   80SOPE   H5Y 7288   3.163   3.278   6.609 -1.1706  1.4922 -1.3151
   80SOPE   C36 7289   3.290   3.446   6.544  0.3664  0.3615  0.0189
   80SOPE   H6X 7290   3.351   3.527   6.589  0.5285  0.4920 -0.4365
   80SOPE   H6Y 7291   3.220   3.478   6.465 -1.7870 -0.1230  1.6274
   80SOPE   C37 7292   3.368   3.347   6.457  0.4427 -0.4186  0.0398
   80SOPE   H7X 7293   3.321   3.247   6.452 -0.2292 -0.2599  2.3177
   80SOPE   H7Y 7294   3.462   3.323   6.511  0.6054 -0.0312 -0.0616
   80SOPE   C38 7295   3.403   3.397   6.320 -0.1967  0.0694 -0.2096
   80SOPE   H8X 7296   3.468   3.486   6.329  0.4705 -0.3438 -0.7860
   80SOPE   H8Y 7297   3.309   3.410   6.262  0.3845  0.1410 -1.1661
   80SOPE   C39 7298   3.480   3.296   6.228 -0.0129 -0.4628 -0.2604
   80SOPE   H9X 7299   3.415   3.206   6.224  0.0645 -0.5364  0.0577
   80SOPE   H9Y 7300   3.577   3.276   6.278  0.3946 -2.5497 -1.7696
   80SOPE  C310 7301   3.489   3.345   6.086 -0.1136 -0.0631  0.2636
   80SOPE  H10X 7302   3.523   3.451   6.086  0.4772 -0.2180 -1.2490
   80SOPE  H10Y 7303   3.389   3.342   6.039 -0.2491 -0.9417  0.5842
   80SOPE  C311 7304   3.582   3.269   5.990 -0.4416  0.1724 -0.1695
   80SOPE  H11X 7305   3.552   3.162   5.994  1.4466 -0.3784  0.5308
   80SOPE  H11Y 7306   3.687   3.278   6.026 -0.6428  0.3632  0.3845
   80SOPE  C312 7307   3.571   3.327   5.854 -0.3687 -0.4002 -0.1222
   80SOPE  H12X 7308   3.557   3.437   5.851 -1.3004 -0.5254 -2.1389
   80SOPE  H12Y 7309   3.475   3.284   5.817 -1.1951  1.6048 -0.4436
   80SOPE  C313 7310   3.684   3.288   5.753 -0.3004 -0.0435 -0.0498
   80SOPE  H13X 7311   3.720   3.184   5.764  3.2449  1.1772  1.2815
   80SOPE  H13Y 7312   3.775   3.343   5.786 -1.8845  1.2493  2.4420
   80SOPE  C314 7313   3.652   3.315   5.603 -0.1148 -0.3308 -0.3999
   80SOPE  H14X 7314   3.611   3.417   5.586 -2.3651 -1.4719 -2.5680
   80SOPE  H14Y 7315   3.564   3.258   5.568 -0.4254  0.6458 -1.2596
   80SOPE  C315 7316   3.782   3.305   5.515  0.7827 -0.2894  0.2899
   80SOPE  H15X 7317   3.815   3.204   5.550 -0.8859 -1.0561 -0.2327
   80SOPE  H15Y 7318   3.858   3.380   5.546  0.7120  0.5612 -1.5194
   80SOPE  C316 7319   3.758   3.313   5.362 -0.5909  0.2510 -0.4425
   80SOPE  H16X 7320   3.743   3.419   5.335  1.3712  0.5418 -0.5144
   80SOPE  H16Y 7321   3.665   3.260   5.333 -0.5487  0.6058 -1.2620
   80SOPE  C317 7322   3.877   3.260   5.278 -0.3453  0.0782 -0.9291
   80SOPE  H17X 7323   3.833   3.236   5.179 -0.0824 -1.5327 -0.6892
   80SOPE  H17Y 7324   3.917   3.165   5.321 -0.3043 -0.4704 -2.1482
   80SOPE  C318 7325   3.976   3.371   5.275  0.5464 -0.5604 -0.2513
   80SOPE  H18X 7326   4.061   3.357   5.205  0.9339  1.5814 -0.2881
   80SOPE  H18Y 7327   4.010   3.395   5.378 -0.4011  1.6324 -0.3831
   80SOPE  H18Z 7328   3.926   3.464   5.240  0.7035 -0.3609  0.0412
   81SOPE     N 7329   6.082   1.495   7.967 -0.0153 -0.2580 -0.2987
   81SOPE   HN1 7330   5.996   1.440   7.991  1.2782 -1.3000  2.3078
   81SOPE   HN2 7331   6.152   1.501   8.044  2.8615  0.4749 -2.7906
   81SOPE   HN3 7332   6.038   1.589   7.961 -0.5604 -0.5331 -0.7609
   81SOPE   C12 7333   6.133   1.441   7.841 -0.8789 -0.3472  0.2335
   81SOPE  H12A 7334   6.202   1.515   7.795  0.2121 -1.4940 -0.0093
   81SOPE  H12B 7335   6.051   1.421   7.769  0.9254  0.4215 -2.1490
   81SOPE   C11 7336   6.214   1.315   7.871 -0.3616 -0.4763  0.1078
   81SOPE  H11A 7337   6.234   1.268   7.773 -0.5507 -2.8032  1.1191
   81SOPE  H11B 7338   6.150   1.242   7.926 -0.8255 -0.8700 -0.9290
   81SOPE     P 7339   6.440   1.249   7.979  0.2157  0.1237 -0.2325
   81SOPE   O13 7340   6.365   1.130   8.034  0.2727 -0.5270  0.1152
   81SOPE   O14 7341   6.537   1.311   8.070  0.1192 -0.6306 -0.5854
   81SOPE   O12 7342   6.337   1.353   7.932  0.4165  0.0190 -0.1516
   81SOPE   O11 7343   6.520   1.200   7.850  0.1656 -0.2905  0.2645
   81SOPE    C1 7344   6.546   1.297   7.750  0.5351  0.5152 -0.3409
   81SOPE    HA 7345   6.653   1.328   7.754  0.1123  1.9381  0.9138
   81SOPE    HB 7346   6.486   1.389   7.766 -0.8262 -0.4724  0.4723
   81SOPE    C2 7347   6.516   1.245   7.612 -0.2322 -0.2327  0.2535
   81SOPE    HS 7348   6.413   1.203   7.603  0.0161 -1.0406  1.0177
   81SOPE   O21 7349   6.617   1.146   7.577 -0.1986  0.1650 -0.0616
   81SOPE   C21 7350   6.573   1.020   7.555 -0.2471 -0.6891 -0.0911
   81SOPE   O22 7351   6.461   0.980   7.577  0.0626  0.3389 -0.1853
   81SOPE   C22 7352   6.675   0.938   7.479 -0.2942 -0.2774  0.1899
   81SOPE   H2R 7353   6.754   0.905   7.551  0.9813  0.7321 -0.7009
   81SOPE   H2S 7354   6.732   1.002   7.408  1.3771 -0.5508  1.2192
   81SOPE    C3 7355   6.532   1.361   7.502 -0.5302 -0.2944 -0.4359
   81SOPE    HX 7356   6.634   1.400   7.524 -1.9506  2.0473  2.7041
   81SOPE    HY 7357   6.461   1.445   7.517  0.6647  0.7797 -0.6820
   81SOPE   O31 7358   6.516   1.308   7.367 -0.0811 -0.0088  0.3652
   81SOPE   C31 7359   6.601   1.349   7.273  0.7528  0.3215  0.0669
   81SOPE   O32 7360   6.697   1.426   7.277  0.5749  0.5354 -0.2161
   81SOPE   C32 7361   6.556   1.280   7.146  0.7276  0.3718  0.0739
   81SOPE   H2X 7362   6.501   1.358   7.089 -0.0821 -0.0024  0.3237
   81SOPE   H2Y 7363   6.489   1.196   7.176  0.6097  0.0587 -1.0066
   81SOPE   C23 7364   6.626   0.809   7.411  0.2009  0.0322 -0.5362
   81SOPE   H3R 7365   6.571   0.742   7.480  0.0357 -2.7221 -3.1245
   81SOPE   H3S 7366   6.711   0.744   7.381 -0.2138 -0.8346  0.1270
   81SOPE   C24 7367   6.535   0.838   7.290  0.1870 -0.1462  1.2981
   81SOPE   H4R 7368   6.431   0.866   7.317  0.8059  1.7465  1.8529
   81SOPE   H4S 7369   6.573   0.935   7.251 -1.1855 -0.9239 -2.4144
   81SOPE   C25 7370   6.553   0.739   7.167  0.0585 -0.5250  0.3105
   81SOPE   H5R 7371   6.521   0.635   7.190 -0.1867 -0.9881 -1.8585
   81SOPE   H5S 7372   6.489   0.770   7.081 -0.9369 -0.4712  1.0565
   81SOPE   C26 7373   6.699   0.733   7.101  0.5403 -0.2128  0.1787
   81SOPE   H6R 7374   6.724   0.838   7.076  0.0697 -0.3842 -1.0829
   81SOPE   H6S 7375   6.762   0.701   7.187 -1.2360  0.2789  1.7491
   81SOPE   C27 7376   6.698   0.642   6.981 -1.1940 -0.1906  0.1501
   81SOPE   H7R 7377   6.690   0.537   7.018 -2.3830 -0.5464 -1.0404
   81SOPE   H7S 7378   6.610   0.670   6.919 -0.8671 -0.3444 -0.3899
   81SOPE   C28 7379   6.818   0.644   6.884 -0.2567  0.1560  0.2031
   81SOPE   H8R 7380   6.911   0.614   6.938 -0.2414 -0.4112 -0.1253
   81SOPE   H8S 7381   6.810   0.566   6.806 -0.7362  1.2373 -0.8618
   81SOPE   C29 7382   6.833   0.779   6.819 -0.0678 -0.2246  0.1462
   81SOPE   H91 7383   6.867   0.851   6.894  1.0937  0.7061 -1.2225
   81SOPE  C210 7384   6.837   0.820   6.686  0.1075  0.5489 -0.4841
   81SOPE  H101 7385   6.852   0.927   6.668 -1.3711  0.6679 -1.1281
   81SOPE  C211 7386   6.811   0.730   6.566 -0.0420  0.3549 -0.3095
   81SOPE  H11R 7387   6.749   0.772   6.484  0.3237 -0.6166 -1.1002
   81SOPE  H11S 7388   6.762   0.638   6.605  1.7570 -0.1654  0.8250
   81SOPE  C212 7389   6.945   0.691   6.497  1.0788  0.6273  0.1877
   81SOPE  H12R 7390   6.924   0.606   6.429  0.1442  0.0146  1.2137
   81SOPE  H12S 7391   7.006   0.653   6.581 -0.3878  0.1157  1.0619
   81SOPE  C213 7392   7.017   0.799   6.418  0.0385  0.4102  0.3534
   81SOPE  H13R 7393   7.050   0.869   6.498 -0.9620  0.2034  0.9581
   81SOPE  H13S 7394   6.950   0.858   6.352  1.5218 -0.5343 -2.1841
   81SOPE  C214 7395   7.147   0.757   6.349 -0.7675  0.4341 -0.2852
   81SOPE  H14R 7396   7.216   0.698   6.412 -0.8684 -1.1076 -1.5419
   81SOPE  H14S 7397   7.206   0.849   6.326  1.3934 -0.8315 -0.1099
   81SOPE  C215 7398   7.127   0.675   6.224  0.1062 -0.2731 -0.5545
   81SOPE  H15R 7399   7.038   0.723   6.177 -0.3495  0.7527  1.2557
   81SOPE  H15S 7400   7.084   0.575   6.249 -3.5396  1.3596  0.3513
   81SOPE  C216 7401   7.251   0.669   6.132  0.4456  0.2629 -1.0562
   81SOPE  H16R 7402   7.338   0.632   6.191 -1.3229 -1.9333  0.3279
   81SOPE  H16S 7403   7.293   0.763   6.090 -0.7449  0.7063 -1.3043
   81SOPE  C217 7404   7.228   0.568   6.019  0.3123  0.1681 -0.0551
   81SOPE  H17R 7405   7.146   0.609   5.956  1.0698  0.6575 -0.7417
   81SOPE  H17S 7406   7.194   0.468   6.054  1.0645 -0.6520 -1.5533
   81SOPE  C218 7407   7.354   0.544   5.930 -0.4577 -0.5571  0.1944
   81SOPE  H18R 7408   7.336   0.472   5.847  3.0768 -0.3729 -0.8685
   81SOPE  H18S 7409   7.439   0.508   5.992  1.4888  2.3085 -0.6176
   81SOPE  H18T 7410   7.395   0.634   5.880 -0.0447 -0.3801  0.8429
   81SOPE   C33 7411   6.669   1.221   7.054  1.0652  0.2471 -0.2327
   81SOPE   H3X 7412   6.763   1.199   7.108  2.0744  0.8495 -1.6754
   81SOPE   H3Y 7413   6.694   1.297   6.977  0.2952 -0.6987 -1.4620
   81SOPE   C34 7414   6.619   1.097   6.970 -0.7385 -0.3056  0.4031
   81SOPE   H4X 7415   6.567   1.017   7.027  0.4953 -0.4238  1.4141
   81SOPE   H4Y 7416   6.701   1.053   6.911 -2.1282 -0.2197 -1.7007
   81SOPE   C35 7417   6.513   1.153   6.870  0.8503 -0.7526 -0.1598
   81SOPE   H5X 7418   6.558   1.237   6.814 -0.7936 -0.2231 -0.7468
   81SOPE   H5Y 7419   6.433   1.200   6.930  0.9851 -1.5177  0.6388
   81SOPE   C36 7420   6.467   1.051   6.762  0.3156  0.4309 -1.1802
   81SOPE   H6X 7421   6.394   0.989   6.818 -0.2785  2.0335 -0.0718
   81SOPE   H6Y 7422   6.558   0.992   6.740  2.9603  2.2697  3.3120
   81SOPE   C37 7423   6.392   1.107   6.641 -1.2735 -0.3342  0.1671
   81SOPE   H7X 7424   6.464   1.169   6.583 -1.1663 -1.2744 -0.7436
   81SOPE   H7Y 7425   6.302   1.165   6.671 -0.9663 -0.0215  0.4944
   81SOPE   C38 7426   6.345   1.000   6.542  0.2197  0.1551 -0.5252
   81SOPE   H8X 7427   6.275   1.051   6.472  0.2563  1.9044  0.6517
   81SOPE   H8Y 7428   6.288   0.922   6.597  0.6917  1.3592  1.7828
   81SOPE   C39 7429   6.448   0.931   6.449  0.0309 -0.2060 -0.3068
   81SOPE   H9X 7430   6.511   0.864   6.513 -1.4523 -2.1213 -0.7639
   81SOPE   H9Y 7431   6.520   1.003   6.405  0.6706  1.4439  3.0707
   81SOPE  C310 7432   6.371   0.844   6.356  0.7469  0.1427  0.4601
   81SOPE  H10X 7433   6.339   0.906   6.269  2.3223  0.6623  0.2082
   81SOPE  H10Y 7434   6.276   0.804   6.395 -0.3393  0.5250 -1.6529
   81SOPE  C311 7435   6.458   0.738   6.297 -0.3420 -0.3284 -0.4793
   81SOPE  H11X 7436   6.386   0.665   6.255 -2.5136 -0.6396  3.2873
   81SOPE  H11Y 7437   6.519   0.688   6.375  2.4888  2.1150 -0.9453
   81SOPE  C312 7438   6.554   0.782   6.190  0.5533 -0.5274 -0.8590
   81SOPE  H12X 7439   6.635   0.849   6.225  0.3851  0.1986 -1.8112
   81SOPE  H12Y 7440   6.511   0.846   6.110  1.4117  0.4711 -0.5448
   81SOPE  C313 7441   6.602   0.672   6.102  0.2310  0.0293 -0.1550
   81SOPE  H13X 7442   6.522   0.606   6.064 -0.9113  2.5890 -2.4668
   81SOPE  H13Y 7443   6.670   0.602   6.156 -0.7469 -0.2669  0.7300
   81SOPE  C314 7444   6.680   0.717   5.980 -0.1898 -0.1227  0.6024
   81SOPE  H14X 7445   6.742   0.634   5.941  0.0839 -1.0573  2.8624
   81SOPE  H14Y 7446   6.755   0.794   6.007  1.1933 -1.2253  0.0109
   81SOPE  C315 7447   6.589   0.780   5.867 -0.4893  0.3430 -0.0826
   81SOPE  H15X 7448   6.540   0.875   5.897 -0.3732  0.7636 -1.1848
   81SOPE  H15Y 7449   6.513   0.707   5.830  1.7439 -1.0060 -2.3403
   81SOPE  C316 7450   6.674   0.811   5.739 -0.0946  0.7601 -0.7724
   81SOPE  H16X 7451   6.747   0.731   5.714 -0.1907 -0.6437  2.8593
   81SOPE  H16Y 7452   6.731   0.905   5.752  1.5232 -0.2814 -0.0436
   81SOPE  C317 7453   6.585   0.842   5.618 -0.4134  0.2120  0.5265
   81SOPE  H17X 7454   6.504   0.912   5.648 -0.0540  1.1191 -0.5248
   81SOPE  H17Y 7455   6.529   0.756   5.576 -1.1320  0.6634  0.5273
   81SOPE  C318 7456   6.666   0.892   5.503 -0.2229 -0.1709  0.2734
   81SOPE  H18X 7457   6.602   0.898   5.413 -0.2417  0.2751  0.3178
   81SOPE  H18Y 7458   6.750   0.824   5.476 -1.7621 -1.9657 -0.2303
   81SOPE  H18Z 7459   6.716   0.987   5.530 -1.1398 -0.0467  1.6262
   82SOPE     N 7460   2.368   6.777   7.596 -0.6384 -0.4428 -0.4157
   82SOPE   HN1 7461   2.384   6.859   7.535  0.6043 -1.1110 -1.0434
   82SOPE   HN2 7462   2.267   6.763   7.614 -0.8388  3.6107  2.8582
   82SOPE   HN3 7463   2.419   6.779   7.686 -0.8792 -0.3979 -0.2833
   82SOPE   C12 7464   2.433   6.658   7.525  0.1443 -0.3693  0.0761
   82SOPE  H12A 7465   2.443   6.582   7.605  1.0546 -0.5656 -0.2027
   82SOPE  H12B 7466   2.536   6.685   7.491 -0.2859  1.4324  0.1075
   82SOPE   C11 7467   2.357   6.598   7.405 -0.8583  0.2626  0.1512
   82SOPE  H11A 7468   2.430   6.526   7.364  1.4060  1.7234  1.3600
   82SOPE  H11B 7469   2.335   6.680   7.333  0.1645 -0.0239 -0.4979
   82SOPE     P 7470   2.101   6.607   7.463  0.1695 -0.2368  0.1787
   82SOPE   O13 7471   2.119   6.696   7.575 -0.1582  0.2014  0.3293
   82SOPE   O14 7472   1.993   6.499   7.472  0.3153 -0.1900  0.5301
   82SOPE   O12 7473   2.236   6.526   7.440  0.1544 -0.5704 -0.4419
   82SOPE   O11 7474   2.085   6.688   7.328  0.0445  0.4993 -0.1453
   82SOPE    C1 7475   2.100   6.629   7.199  0.2973  0.1780 -0.0378
   82SOPE    HA 7476   2.028   6.547   7.178 -2.4910  2.7060 -1.0466
   82SOPE    HB 7477   2.196   6.576   7.183 -1.0235 -1.8906 -1.6656
   82SOPE    C2 7478   2.098   6.735   7.080 -0.2333 -0.0702  0.1662
   82SOPE    HS 7479   1.991   6.764   7.074  0.1642  1.3365 -0.4563
   82SOPE   O21 7480   2.154   6.677   6.959  0.1783 -0.7512 -0.4482
   82SOPE   C21 7481   2.075   6.615   6.879  0.5674  0.0032 -0.2136
   82SOPE   O22 7482   1.955   6.590   6.890 -0.3674  0.1910 -0.1764
   82SOPE   C22 7483   2.146   6.592   6.746  0.6836  0.1064 -0.3284
   82SOPE   H2R 7484   2.215   6.509   6.774 -0.9138 -0.7395  1.3243
   82SOPE   H2S 7485   2.206   6.683   6.725 -1.9178  2.0608  0.2170
   82SOPE    C3 7486   2.170   6.868   7.107 -0.6439  1.0043  0.0600
   82SOPE    HX 7487   2.280   6.851   7.109 -0.1648  2.6705 -3.6449
   82SOPE    HY 7488   2.149   6.903   7.210  0.3207  1.3153  0.1612
   82SOPE   O31 7489   2.151   6.960   7.000  0.8812 -0.4151 -0.2462
   82SOPE   C31 7490   2.022   7.013   6.989  0.4994  0.3437 -0.7927
   82SOPE   O32 7491   1.928   6.986   7.058 -0.4843  0.1057  0.3576
   82SOPE   C32 7492   2.017   7.114   6.872 -0.2124 -0.1341  0.7669
   82SOPE   H2X 7493   2.103   7.179   6.895  0.4995  0.0915 -2.1104
   82SOPE   H2Y 7494   1.920   7.164   6.891 -0.0976  0.2742  0.3145
   82SOPE   C23 7495   2.059   6.560   6.623  0.7092 -0.4702 -0.1465
   82SOPE   H3R 7496   1.981   6.639   6.619 -1.0054 -2.1154 -2.9765
   82SOPE   H3S 7497   1.999   6.467   6.621 -0.3382  0.0153 -4.8388
   82SOPE   C24 7498   2.138   6.563   6.492  0.7685  0.0044 -0.9285
   82SOPE   H4R 7499   2.188   6.662   6.486 -2.4857  1.9980  1.3483
   82SOPE   H4S 7500   2.220   6.488   6.490  0.9069  0.1635 -1.3485
   82SOPE   C25 7501   2.043   6.543   6.370  0.3894 -0.0397 -1.1512
   82SOPE   H5R 7502   2.012   6.437   6.377  0.0176  0.1476  3.5569
   82SOPE   H5S 7503   1.946   6.595   6.382 -0.0206 -0.2573 -3.1830
   82SOPE   C26 7504   2.100   6.580   6.232 -0.2373 -0.3816 -0.0266
   82SOPE   H6R 7505   2.101   6.691   6.232 -0.2257 -0.3692 -1.1491
   82SOPE   H6S 7506   2.207   6.549   6.232 -0.5484 -1.5647 -1.3251
   82SOPE   C27 7507   2.015   6.525   6.118 -0.0148  0.3903 -0.9408
   82SOPE   H7R 7508   2.018   6.416   6.140 -1.0197  0.3617 -0.9179
   82SOPE   H7S 7509   1.908   6.555   6.124  0.6835  3.5585 -2.2471
   82SOPE   C28 7510   2.081   6.573   5.990  0.1130 -0.3259  0.1250
   82SOPE   H8R 7511   2.184   6.531   5.992  0.4437  0.3446 -1.2113
   82SOPE   H8S 7512   2.028   6.524   5.905 -0.1136  0.9075 -0.4749
   82SOPE   C29 7513   2.087   6.721   5.963  0.7857  0.4105 -0.2265
   82SOPE   H91 7514   2.154   6.778   6.028  0.8090  1.2979 -1.0091
   82SOPE  C210 7515   2.030   6.783   5.865  0.0642  0.7599  0.4897
   82SOPE  H101 7516   2.034   6.893   5.867 -0.1733  0.8395 -1.6169
   82SOPE  C211 7517   1.938   6.731   5.762  0.1551 -0.2716 -0.3218
   82SOPE  H11R 7518   1.845   6.790   5.775 -0.2405 -0.7830 -0.7559
   82SOPE  H11S 7519   1.905   6.625   5.768  0.4320 -0.2808  1.5523
   82SOPE  C212 7520   1.995   6.756   5.622  0.3466 -0.1207 -0.2120
   82SOPE  H12R 7521   2.056   6.668   5.591  0.0494 -0.5347  0.3492
   82SOPE  H12S 7522   2.060   6.845   5.626 -0.9385  0.8077  1.1889
   82SOPE  C213 7523   1.884   6.771   5.509  0.2040  0.7307 -0.1159
   82SOPE  H13R 7524   1.821   6.860   5.526 -1.1626 -0.3632  0.7400
   82SOPE  H13S 7525   1.814   6.685   5.505 -0.5201  1.1354  2.1410
   82SOPE  C214 7526   1.936   6.795   5.367 -0.0932  0.2117  0.2665
   82SOPE  H14R 7527   2.030   6.848   5.393  0.9000 -2.1316  1.7341
   82SOPE  H14S 7528   1.862   6.855   5.310  0.4895  2.1263  1.4301
   82SOPE  C215 7529   1.974   6.669   5.283  0.3934  0.2934  0.0753
   82SOPE  H15R 7530   1.903   6.587   5.306 -0.4071  0.4865 -1.5630
   82SOPE  H15S 7531   2.075   6.628   5.307 -0.2631 -1.0218  0.7107
   82SOPE  C216 7532   1.959   6.687   5.137 -1.0500  0.4070 -0.1585
   82SOPE  H16R 7533   2.047   6.751   5.114  0.4098 -0.8253  1.7547
   82SOPE  H16S 7534   1.867   6.745   5.113 -0.3811  1.2551 -0.7987
   82SOPE  C217 7535   1.976   6.556   5.059 -0.2009  0.2977  0.4281
   82SOPE  H17R 7536   2.052   6.487   5.101  0.0793  0.7265  0.6421
   82SOPE  H17S 7537   2.014   6.588   4.960  0.1924 -0.1475  0.4306
   82SOPE  C218 7538   1.848   6.480   5.032 -0.3003  0.6236 -0.4912
   82SOPE  H18R 7539   1.799   6.492   4.933  1.5735  0.3034 -1.4973
   82SOPE  H18S 7540   1.775   6.500   5.114 -0.5895  0.5236 -0.7227
   82SOPE  H18T 7541   1.872   6.372   5.031  1.1468  0.8765  1.3442
   82SOPE   C33 7542   2.007   7.039   6.737 -0.7555  0.7143  0.0844
   82SOPE   H3X 7543   1.917   6.975   6.731 -0.3198  0.0759  0.1900
   82SOPE   H3Y 7544   2.093   6.969   6.728  0.0584  1.6022  0.7783
   82SOPE   C34 7545   1.998   7.140   6.626 -0.2401 -0.0977  0.6572
   82SOPE   H4X 7546   2.091   7.195   6.601 -0.1256  0.2453  1.7982
   82SOPE   H4Y 7547   1.920   7.213   6.656 -1.5745 -1.0393 -0.3894
   82SOPE   C35 7548   1.960   7.074   6.490  0.8383  0.1803  1.0101
   82SOPE   H5X 7549   1.851   7.054   6.484  1.0036 -0.3486 -0.6145
   82SOPE   H5Y 7550   2.028   6.988   6.472  0.4709  0.6308 -3.5804
   82SOPE   C36 7551   1.979   7.179   6.380  0.3839  0.1989 -0.4713
   82SOPE   H6X 7552   2.083   7.217   6.379  0.6775 -0.4322  1.5439
   82SOPE   H6Y 7553   1.910   7.265   6.394  2.1964  1.3559  2.2485
   82SOPE   C37 7554   1.945   7.120   6.240 -0.5920 -0.5090  0.0017
   82SOPE   H7X 7555   1.853   7.058   6.238 -1.2504  0.4612 -1.1657
   82SOPE   H7Y 7556   2.028   7.053   6.209  1.4466  1.9029 -0.0985
   82SOPE   C38 7557   1.926   7.226   6.133  0.2939  0.6777 -0.5018
   82SOPE   H8X 7558   2.011   7.295   6.113 -0.1555  1.2994 -0.2850
   82SOPE   H8Y 7559   1.844   7.292   6.166 -0.2422  0.1535 -0.7731
   82SOPE   C39 7560   1.891   7.153   6.002  0.4856  0.5155 -0.7453
   82SOPE   H9X 7561   1.786   7.117   6.013  1.1523 -0.7207  3.1837
   82SOPE   H9Y 7562   1.946   7.057   5.999  1.2833  0.9455 -0.2000
   82SOPE  C310 7563   1.928   7.232   5.881 -0.5499 -0.2740  0.0862
   82SOPE  H10X 7564   2.036   7.254   5.891 -0.9653  1.6339  0.8513
   82SOPE  H10Y 7565   1.871   7.327   5.875  2.4026  1.5008 -3.0367
   82SOPE  C311 7566   1.894   7.159   5.752 -0.3441  0.1836  0.5448
   82SOPE  H11X 7567   1.784   7.145   5.747 -0.6026  1.4674  1.8953
   82SOPE  H11Y 7568   1.950   7.064   5.761  0.9247  0.9628  1.1222
   82SOPE  C312 7569   1.949   7.234   5.633  0.6406 -0.2308  0.0381
   82SOPE  H12X 7570   2.057   7.210   5.616  0.1011 -0.8982 -3.0387
   82SOPE  H12Y 7571   1.946   7.343   5.656  1.4095 -0.0171 -0.7785
   82SOPE  C313 7572   1.871   7.214   5.503 -0.2011 -0.0989  0.3575
   82SOPE  H13X 7573   1.804   7.302   5.492  1.9718  1.6578  0.5439
   82SOPE  H13Y 7574   1.807   7.123   5.503  0.0452 -0.2748  0.9024
   82SOPE  C314 7575   1.962   7.224   5.378  0.0936 -0.4687  0.6612
   82SOPE  H14X 7576   2.046   7.152   5.382  0.4761 -0.3099 -2.1451
   82SOPE  H14Y 7577   2.009   7.325   5.382 -2.2512  0.8455 -1.6730
   82SOPE  C315 7578   1.882   7.208   5.241 -0.2475  1.0079 -0.4662
   82SOPE  H15X 7579   1.840   7.303   5.199  1.1046  1.5256 -0.7096
   82SOPE  H15Y 7580   1.799   7.135   5.242  0.3460  0.3146 -1.0423
   82SOPE  C316 7581   1.976   7.154   5.138 -0.2534 -0.3969  0.0896
   82SOPE  H16X 7582   2.051   7.098   5.198 -1.3600 -0.6335  1.2867
   82SOPE  H16Y 7583   2.023   7.233   5.076 -0.7101  1.0730  1.5625
   82SOPE  C317 7584   1.927   7.047   5.044  0.1853  0.1065 -0.1844
   82SOPE  H17X 7585   1.843   7.089   4.985  0.0232 -0.3702 -0.2916
   82SOPE  H17Y 7586   1.891   6.961   5.104 -2.3164  1.7396  0.8112
   82SOPE  C318 7587   2.045   7.007   4.954 -0.6773 -1.1949 -0.2141
   82SOPE  H18X 7588   2.125   6.960   5.016 -2.4674 -2.0058  1.6199
   82SOPE  H18Y 7589   2.097   7.097   4.915  1.2133 -1.9125  0.5044
   82SOPE  H18Z 7590   2.022   6.939   4.869 -0.5380 -0.0320 -1.1943
   83SOPE     N 7591   4.287   5.168   2.959 -0.7803  0.7117  1.0980
   83SOPE   HN1 7592   4.245   5.196   2.867  0.7994  0.7701  0.3647
   83SOPE   HN2 7593   4.214   5.120   3.015 -3.1493  0.0581 -2.2174
   83SOPE   HN3 7594   4.316   5.253   3.011 -0.9380  0.7524  1.1216
   83SOPE   C12 7595   4.404   5.078   2.934  0.2267 -0.5586  0.3258
   83SOPE  H12A 7596   4.486   5.138   2.890 -1.6383  2.6255  0.8633
   83SOPE  H12B 7597   4.376   5.005   2.855  1.1861 -0.6544  0.0592
   83SOPE   C11 7598   4.450   5.018   3.073 -0.4601 -0.0035  0.1394
   83SOPE  H11A 7599   4.359   4.992   3.131 -0.0734 -0.3343  0.6133
   83SOPE  H11B 7600   4.514   5.090   3.128  2.3589 -1.7254 -0.6591
   83SOPE     P 7601   4.631   4.841   3.140 -0.1601  0.0245  0.2781
   83SOPE   O13 7602   4.730   4.951   3.155  0.4815 -0.0890  0.4973
   83SOPE   O14 7603   4.681   4.715   3.079 -0.3750 -0.3803  0.0552
   83SOPE   O12 7604   4.517   4.895   3.055  0.0513  0.6672  0.5999
   83SOPE   O11 7605   4.578   4.810   3.282 -0.0316  0.1715  0.1193
   83SOPE    C1 7606   4.431   4.798   3.304 -0.5013  0.8948 -0.2035
   83SOPE    HA 7607   4.380   4.780   3.207  1.7193 -1.3216 -1.0830
   83SOPE    HB 7608   4.398   4.894   3.348  2.9671  2.2889 -0.3054
   83SOPE    C2 7609   4.386   4.682   3.391  0.2896 -0.1524  0.0712
   83SOPE    HS 7610   4.276   4.671   3.394  0.1492  1.2338  2.2498
   83SOPE   O21 7611   4.433   4.705   3.527  0.5727  0.0387  0.1465
   83SOPE   C21 7612   4.354   4.789   3.597 -0.2533 -0.2077 -0.4687
   83SOPE   O22 7613   4.260   4.846   3.558  0.5444  0.0039  0.3833
   83SOPE   C22 7614   4.416   4.816   3.737 -0.3830 -0.2183  0.1891
   83SOPE   H2R 7615   4.384   4.921   3.756 -0.4632 -0.5282  1.9646
   83SOPE   H2S 7616   4.527   4.806   3.736 -0.5172 -2.2371 -1.0966
   83SOPE    C3 7617   4.451   4.549   3.343 -0.0993 -0.2624 -0.2538
   83SOPE    HX 7618   4.559   4.558   3.365  0.0398 -1.1285 -0.5583
   83SOPE    HY 7619   4.422   4.540   3.236  0.1212  1.3041 -0.4612
   83SOPE   O31 7620   4.390   4.435   3.400  0.3366 -0.1215 -0.1241
   83SOPE   C31 7621   4.460   4.333   3.439 -0.2980 -0.3751 -0.4188
   83SOPE   O32 7622   4.583   4.327   3.432  0.5936 -0.2967  0.7265
   83SOPE   C32 7623   4.375   4.219   3.499 -0.0172  0.7574 -0.4695
   83SOPE   H2X 7624   4.445   4.155   3.557 -1.5645  0.1150  0.7381
   83SOPE   H2Y 7625   4.322   4.155   3.425 -0.4852 -1.5550  1.7327
   83SOPE   C23 7626   4.371   4.722   3.848  0.4255  0.3965  0.5379
   83SOPE   H3R 7627   4.405   4.618   3.828  0.5638  0.6579 -0.7273
   83SOPE   H3S 7628   4.261   4.707   3.849  0.7423 -2.6233 -0.3696
   83SOPE   C24 7629   4.429   4.777   3.983 -0.3485  0.1373  0.5594
   83SOPE   H4R 7630   4.540   4.784   3.981 -0.3430  1.2689 -3.1256
   83SOPE   H4S 7631   4.397   4.883   3.983 -2.1161 -0.3298 -1.3967
   83SOPE   C25 7632   4.380   4.703   4.108 -0.2247 -0.1664  1.0801
   83SOPE   H5R 7633   4.273   4.724   4.126 -0.4232  1.8374 -1.7668
   83SOPE   H5S 7634   4.409   4.596   4.096 -0.2265 -0.0625  0.1100
   83SOPE   C26 7635   4.448   4.770   4.230  0.6370  0.3119 -0.4059
   83SOPE   H6R 7636   4.556   4.749   4.221  0.1164 -2.4985 -1.0740
   83SOPE   H6S 7637   4.429   4.879   4.225 -0.6429  0.2140  1.3727
   83SOPE   C27 7638   4.390   4.704   4.361  0.4568 -0.1209 -0.2118
   83SOPE   H7R 7639   4.282   4.728   4.356  0.2211 -1.1498 -0.3225
   83SOPE   H7S 7640   4.401   4.594   4.352 -1.6307 -0.2492 -2.3594
   83SOPE   C28 7641   4.456   4.751   4.496 -0.2198  0.6346 -0.1047
   83SOPE   H8R 7642   4.561   4.715   4.492  0.3679  2.2099  0.5866
   83SOPE   H8S 7643   4.451   4.862   4.497 -0.7470  0.6096  0.7311
   83SOPE   C29 7644   4.387   4.686   4.614 -0.3910 -0.0806 -0.3025
   83SOPE   H91 7645   4.365   4.580   4.597 -2.5928  0.4906 -1.3387
   83SOPE  C210 7646   4.353   4.751   4.732 -0.5886  0.4714 -0.0811
   83SOPE  H101 7647   4.300   4.689   4.805  1.1474 -0.9532  0.0233
   83SOPE  C211 7648   4.380   4.888   4.787 -0.5880 -0.4201 -0.3140
   83SOPE  H11R 7649   4.304   4.909   4.865 -0.0774  0.0836  0.0513
   83SOPE  H11S 7650   4.373   4.966   4.708  2.7314  1.6825  1.2593
   83SOPE  C212 7651   4.523   4.900   4.843  0.4128 -0.2206 -0.2384
   83SOPE  H12R 7652   4.592   4.862   4.765 -2.2318 -2.4492 -1.6897
   83SOPE  H12S 7653   4.532   4.841   4.937 -0.7717  1.9093  1.2989
   83SOPE  C213 7654   4.550   5.042   4.898  0.0323 -0.6155  0.4115
   83SOPE  H13R 7655   4.482   5.119   4.857  0.3209  0.7413  2.3768
   83SOPE  H13S 7656   4.655   5.072   4.876  0.6092 -2.1207  0.9813
   83SOPE  C214 7657   4.545   5.051   5.053  0.1911 -0.3345  0.4632
   83SOPE  H14R 7658   4.498   4.960   5.098  0.0617  0.3183  1.6937
   83SOPE  H14S 7659   4.481   5.139   5.077  1.3209  1.0857 -1.4148
   83SOPE  C215 7660   4.679   5.088   5.119 -0.8340  0.4525 -0.0950
   83SOPE  H15R 7661   4.754   5.010   5.093 -1.2520  0.6186 -1.9035
   83SOPE  H15S 7662   4.658   5.064   5.226 -0.8783  0.8190 -0.0205
   83SOPE  C216 7663   4.722   5.232   5.103 -0.0996  0.5098  0.5215
   83SOPE  H16R 7664   4.659   5.292   5.173 -2.8195 -0.3924 -1.0317
   83SOPE  H16S 7665   4.704   5.271   5.000  0.8947  2.9605  1.1939
   83SOPE  C217 7666   4.874   5.255   5.129  0.0119 -0.0148  0.2382
   83SOPE  H17R 7667   4.892   5.364   5.129 -0.2212  0.0248  0.4672
   83SOPE  H17S 7668   4.938   5.197   5.059 -0.1016  1.1233 -0.8209
   83SOPE  C218 7669   4.916   5.218   5.274  0.1146 -0.8625 -0.1732
   83SOPE  H18R 7670   4.893   5.111   5.296 -0.5596 -0.3326  1.9741
   83SOPE  H18S 7671   4.848   5.275   5.341  1.2191 -1.3027  1.3757
   83SOPE  H18T 7672   5.024   5.230   5.297  0.0292 -0.7149  0.1651
   83SOPE   C33 7673   4.280   4.256   3.614  0.3344 -0.8681  0.3286
   83SOPE   H3X 7674   4.209   4.172   3.628 -0.5745  0.0543  1.3699
   83SOPE   H3Y 7675   4.238   4.353   3.580 -1.9040 -2.5409 -2.0303
   83SOPE   C34 7676   4.354   4.265   3.743 -0.2228 -0.3486 -0.0044
   83SOPE   H4X 7677   4.438   4.338   3.744  1.5836 -2.2550 -1.8809
   83SOPE   H4Y 7678   4.385   4.162   3.769  0.2335 -0.0058  0.8255
   83SOPE   C35 7679   4.263   4.305   3.850  0.5546  0.3079 -0.6486
   83SOPE   H5X 7680   4.175   4.239   3.855  0.3094  0.4591 -2.2053
   83SOPE   H5Y 7681   4.224   4.406   3.826 -2.1338 -0.3632  0.5988
   83SOPE   C36 7682   4.335   4.304   3.993 -0.5092  0.2476  0.1736
   83SOPE   H6X 7683   4.438   4.343   3.979  0.2244 -1.2201  1.2172
   83SOPE   H6Y 7684   4.355   4.201   4.030  0.0382  0.1389 -0.4184
   83SOPE   C37 7685   4.245   4.375   4.094  0.5711  0.3411  0.7737
   83SOPE   H7X 7686   4.145   4.328   4.084  0.7369  0.1611 -0.0865
   83SOPE   H7Y 7687   4.236   4.486   4.087  0.6509  0.3199  0.3005
   83SOPE   C38 7688   4.297   4.361   4.240  0.3237 -0.2691 -0.4369
   83SOPE   H8X 7689   4.256   4.439   4.307  1.7197  0.8167 -0.8012
   83SOPE   H8Y 7690   4.404   4.387   4.222  0.3943 -1.7196 -2.3716
   83SOPE   C39 7691   4.291   4.216   4.306 -1.1375 -0.2134 -0.0736
   83SOPE   H9X 7692   4.328   4.146   4.227  0.9785  1.0137 -0.2409
   83SOPE   H9Y 7693   4.186   4.185   4.322 -1.1492 -0.0969  0.0778
   83SOPE  C310 7694   4.370   4.196   4.439 -0.5401  0.2180 -0.0370
   83SOPE  H10X 7695   4.480   4.204   4.430 -0.6092  0.1408 -1.1830
   83SOPE  H10Y 7696   4.358   4.087   4.458 -4.1602  0.7326  1.5473
   83SOPE  C311 7697   4.308   4.278   4.543 -0.1612 -0.6721 -0.2871
   83SOPE  H11X 7698   4.201   4.247   4.553  0.0676 -0.6858  4.2793
   83SOPE  H11Y 7699   4.314   4.388   4.526 -1.3739 -0.4215  0.6684
   83SOPE  C312 7700   4.353   4.236   4.680 -0.7153 -0.1087  0.5136
   83SOPE  H12X 7701   4.454   4.278   4.697 -0.2794 -1.0928  0.4398
   83SOPE  H12Y 7702   4.358   4.125   4.681 -0.6101 -0.1132  1.9240
   83SOPE  C313 7703   4.274   4.299   4.801 -0.1929 -0.1182 -0.7738
   83SOPE  H13X 7704   4.169   4.272   4.776 -0.0225 -0.2033 -1.4193
   83SOPE  H13Y 7705   4.280   4.409   4.791  1.8068 -0.1254  0.0109
   83SOPE  C314 7706   4.322   4.262   4.940 -1.0739 -0.1237  0.4795
   83SOPE  H14X 7707   4.269   4.317   5.021  2.6538 -0.8876  3.8064
   83SOPE  H14Y 7708   4.427   4.296   4.955 -0.6850  0.1095 -2.2572
   83SOPE  C315 7709   4.297   4.113   4.974 -0.0044  0.2862  0.2973
   83SOPE  H15X 7710   4.366   4.074   5.051  0.2682  1.2879  0.5771
   83SOPE  H15Y 7711   4.317   4.061   4.878 -0.6062 -0.6138  0.6485
   83SOPE  C316 7712   4.147   4.089   5.020  0.1690  0.4863 -0.3921
   83SOPE  H16X 7713   4.089   4.101   4.926  1.0713  0.5656 -0.9502
   83SOPE  H16Y 7714   4.118   4.167   5.094 -0.8114 -0.3250  0.1074
   83SOPE  C317 7715   4.137   3.950   5.090  0.1283 -0.0406 -0.1615
   83SOPE  H17X 7716   4.185   3.937   5.189 -1.4850 -0.5405  0.5914
   83SOPE  H17Y 7717   4.174   3.873   5.018  0.6237 -2.1385  2.1967
   83SOPE  C318 7718   3.993   3.907   5.121 -1.3190  0.5016  0.2261
   83SOPE  H18X 7719   3.956   3.960   5.211  0.9223 -0.6970  1.9591
   83SOPE  H18Y 7720   3.995   3.801   5.155 -0.1390  0.8177  1.2231
   83SOPE  H18Z 7721   3.929   3.921   5.031  0.1362  1.7093 -0.6609
   84SOPE     N 7722   4.611   3.313   2.815 -0.2120 -0.2085 -0.2485
   84SOPE   HN1 7723   4.514   3.351   2.809 -0.1549 -0.0531 -0.1976
   84SOPE   HN2 7724   4.638   3.295   2.716  1.0305  0.7567 -0.1063
   84SOPE   HN3 7725   4.610   3.219   2.859  1.4509 -0.4413 -0.6338
   84SOPE   C12 7726   4.695   3.424   2.873 -0.3636  0.8059 -0.2645
   84SOPE  H12A 7727   4.641   3.461   2.963 -0.6961  1.5251 -0.7510
   84SOPE  H12B 7728   4.691   3.505   2.798  1.1300  1.4668  0.3355
   84SOPE   C11 7729   4.836   3.377   2.903 -0.4297  0.1636  0.2753
   84SOPE  H11A 7730   4.882   3.461   2.959 -1.8702 -0.3156  2.3173
   84SOPE  H11B 7731   4.893   3.369   2.808 -0.8119 -1.2744  0.1442
   84SOPE     P 7732   4.969   3.196   3.018  0.4457  0.6076 -0.4128
   84SOPE   O13 7733   5.065   3.306   3.049 -0.1529 -0.5394  0.2673
   84SOPE   O14 7734   5.014   3.097   2.917  0.0296  0.2024 -0.0514
   84SOPE   O12 7735   4.823   3.255   2.981 -0.4093  0.0840  0.3780
   84SOPE   O11 7736   4.949   3.122   3.151 -0.1845 -0.0286 -0.5025
   84SOPE    C1 7737   4.828   3.102   3.216 -0.4688 -0.2774  0.2588
   84SOPE    HA 7738   4.830   3.006   3.271  1.1427 -0.1311  0.4970
   84SOPE    HB 7739   4.749   3.087   3.139 -1.2989 -0.0467  1.0411
   84SOPE    C2 7740   4.772   3.225   3.307 -0.1512 -0.8873 -0.5594
   84SOPE    HS 7741   4.774   3.315   3.242  1.8586 -0.4945 -0.0187
   84SOPE   O21 7742   4.864   3.234   3.414  0.2991  0.4472 -0.3062
   84SOPE   C21 7743   4.877   3.360   3.466  0.5105 -0.0813 -0.3679
   84SOPE   O22 7744   4.833   3.460   3.420  1.0403 -0.2604 -0.1253
   84SOPE   C22 7745   4.977   3.351   3.574  0.1649  0.3694 -0.4794
   84SOPE   H2R 7746   5.076   3.364   3.527 -0.3625  0.6106 -1.5502
   84SOPE   H2S 7747   4.983   3.248   3.615  0.0235  0.8227  0.7160
   84SOPE    C3 7748   4.625   3.190   3.353 -0.3993  0.2927 -0.3288
   84SOPE    HX 7749   4.629   3.096   3.412  3.4726  0.5319  0.0711
   84SOPE    HY 7750   4.561   3.158   3.268 -0.5730 -2.1380  0.6515
   84SOPE   O31 7751   4.564   3.301   3.424 -0.4735 -0.7693  0.1463
   84SOPE   C31 7752   4.511   3.395   3.350 -0.2124  0.4327 -0.0485
   84SOPE   O32 7753   4.509   3.398   3.227 -1.1402  0.2874 -0.0040
   84SOPE   C32 7754   4.453   3.495   3.452 -0.4964  0.2144  0.3456
   84SOPE   H2X 7755   4.377   3.447   3.517 -0.1842  0.2534  0.7442
   84SOPE   H2Y 7756   4.400   3.575   3.397  1.8449  1.3685 -0.3678
   84SOPE   C23 7757   4.941   3.449   3.688 -0.5088 -0.1509  0.2770
   84SOPE   H3R 7758   4.921   3.553   3.653  3.1869  1.7689  3.1413
   84SOPE   H3S 7759   5.030   3.453   3.754 -0.5888 -0.1213  0.3823
   84SOPE   C24 7760   4.825   3.391   3.768  0.0995  0.0030 -0.0481
   84SOPE   H4R 7761   4.740   3.370   3.700 -0.3067 -2.3133  1.0726
   84SOPE   H4S 7762   4.855   3.299   3.823  0.5221  0.6884  0.9081
   84SOPE   C25 7763   4.792   3.492   3.880 -0.4392 -0.2559 -0.0259
   84SOPE   H5R 7764   4.884   3.513   3.940  0.2132 -1.0182 -0.7390
   84SOPE   H5S 7765   4.766   3.594   3.846  1.6311  0.1295 -0.5689
   84SOPE   C26 7766   4.669   3.443   3.971 -0.8348  0.1118 -0.0373
   84SOPE   H6R 7767   4.587   3.434   3.896  0.5035  1.0420 -1.6610
   84SOPE   H6S 7768   4.680   3.343   4.018  1.9133  1.2475  1.9672
   84SOPE   C27 7769   4.629   3.546   4.076 -0.6777 -0.1906 -0.0924
   84SOPE   H7R 7770   4.604   3.641   4.023 -0.7925 -1.1816 -1.8881
   84SOPE   H7S 7771   4.535   3.513   4.125  0.2359  0.1148  1.9710
   84SOPE   C28 7772   4.731   3.578   4.189 -0.0943 -0.5923 -0.6431
   84SOPE   H8R 7773   4.802   3.655   4.151  1.7300 -1.0335  1.6036
   84SOPE   H8S 7774   4.686   3.647   4.264  0.6191 -2.2201  1.3914
   84SOPE   C29 7775   4.812   3.459   4.247  0.7925 -0.0757 -0.4041
   84SOPE   H91 7776   4.913   3.437   4.210  0.8455  0.6010 -0.6683
   84SOPE  C210 7777   4.763   3.382   4.346  0.9286 -0.3100 -0.7554
   84SOPE  H101 7778   4.824   3.299   4.383 -0.1497 -1.0978 -0.6910
   84SOPE  C211 7779   4.633   3.397   4.426  0.1190 -0.4386  0.5278
   84SOPE  H11R 7780   4.614   3.305   4.485  1.4185 -1.5280 -0.6672
   84SOPE  H11S 7781   4.551   3.405   4.351  0.2407 -1.9950  0.2010
   84SOPE  C212 7782   4.636   3.518   4.521  0.0570 -0.6925 -0.7534
   84SOPE  H12R 7783   4.535   3.532   4.566  0.3250  0.5749 -0.5017
   84SOPE  H12S 7784   4.662   3.614   4.471  0.0802  0.3219  1.0954
   84SOPE  C213 7785   4.738   3.513   4.643  0.2318 -0.3613 -0.1648
   84SOPE  H13R 7786   4.746   3.600   4.712  0.7462 -0.2624 -0.3418
   84SOPE  H13S 7787   4.841   3.507   4.601 -0.2251 -0.6770 -1.2569
   84SOPE  C214 7788   4.711   3.397   4.743  0.2985 -0.8595  0.4956
   84SOPE  H14R 7789   4.717   3.300   4.689 -2.2396 -0.8052 -0.0231
   84SOPE  H14S 7790   4.607   3.406   4.783  0.1691 -0.0716 -0.0034
   84SOPE  C215 7791   4.799   3.401   4.867 -0.2312 -0.5773  0.1978
   84SOPE  H15R 7792   4.772   3.498   4.914 -0.8315 -0.8028  0.3272
   84SOPE  H15S 7793   4.904   3.395   4.830 -0.2288 -1.4034  0.3046
   84SOPE  C216 7794   4.767   3.280   4.955 -1.0277 -0.1154 -0.4393
   84SOPE  H16R 7795   4.838   3.278   5.041  1.0143 -1.9172 -2.0657
   84SOPE  H16S 7796   4.780   3.184   4.901  0.9531 -0.7342  1.0066
   84SOPE  C217 7797   4.623   3.283   5.008 -0.4476 -0.8067 -0.1195
   84SOPE  H17R 7798   4.547   3.262   4.930 -1.2370  2.0711 -0.2443
   84SOPE  H17S 7799   4.600   3.384   5.048 -0.3711 -1.6292  2.1270
   84SOPE  C218 7800   4.604   3.178   5.120 -0.6528 -0.5025  0.4396
   84SOPE  H18R 7801   4.508   3.192   5.173 -1.1912 -0.3185 -0.5423
   84SOPE  H18S 7802   4.689   3.196   5.189  2.9703  0.8046 -3.7941
   84SOPE  H18T 7803   4.610   3.078   5.072 -2.2169  0.0820 -1.1037
   84SOPE   C33 7804   4.558   3.563   3.544 -0.0472 -0.1989 -0.0769
   84SOPE   H3X 7805   4.632   3.622   3.485  0.9763 -0.6181  0.7506
   84SOPE   H3Y 7806   4.615   3.479   3.590 -2.7961 -2.9370 -1.3115
   84SOPE   C34 7807   4.496   3.640   3.670 -0.8703  0.5644  0.2737
   84SOPE   H4X 7808   4.580   3.658   3.740 -0.5739  1.7929 -0.3666
   84SOPE   H4Y 7809   4.424   3.574   3.723 -1.1436  0.3493 -0.3456
   84SOPE   C35 7810   4.430   3.762   3.624  0.3277  0.0873  0.8072
   84SOPE   H5X 7811   4.345   3.733   3.558  1.2794 -2.6724  0.6536
   84SOPE   H5Y 7812   4.507   3.811   3.562 -1.8671  1.6602 -0.8581
   84SOPE   C36 7813   4.374   3.849   3.734  0.1771 -0.4612 -0.1171
   84SOPE   H6X 7814   4.285   3.903   3.695  0.4361  0.6768  0.8020
   84SOPE   H6Y 7815   4.458   3.919   3.755  0.0348 -0.6443  1.1563
   84SOPE   C37 7816   4.350   3.785   3.868 -0.4461 -0.0147  0.6848
   84SOPE   H7X 7817   4.438   3.733   3.912 -2.1747 -2.2900  1.6574
   84SOPE   H7Y 7818   4.275   3.703   3.869  0.6590 -1.0962 -0.1946
   84SOPE   C38 7819   4.307   3.887   3.977  0.1950  0.2945 -0.3159
   84SOPE   H8X 7820   4.197   3.905   3.972  0.2380  0.1829 -2.6648
   84SOPE   H8Y 7821   4.356   3.983   3.952 -2.0694  1.7121  0.4532
   84SOPE   C39 7822   4.361   3.859   4.113  0.3927  0.5416 -0.1931
   84SOPE   H9X 7823   4.358   3.959   4.160 -1.4168  0.2544  0.4020
   84SOPE   H9Y 7824   4.467   3.830   4.097  0.1299 -0.7830  0.3092
   84SOPE  C310 7825   4.285   3.757   4.194  0.5536 -0.2033 -0.2597
   84SOPE  H10X 7826   4.312   3.654   4.162 -0.7942 -1.1202  1.3503
   84SOPE  H10Y 7827   4.178   3.760   4.165 -0.3472 -1.0887  2.6322
   84SOPE  C311 7828   4.282   3.790   4.350  0.1081  0.6706  0.2668
   84SOPE  H11X 7829   4.235   3.708   4.408 -0.5227 -0.0418 -1.2161
   84SOPE  H11Y 7830   4.210   3.873   4.368  0.4933  0.7241  1.6913
   84SOPE  C312 7831   4.424   3.818   4.413  0.0747  0.5336  0.4147
   84SOPE  H12X 7832   4.457   3.915   4.370  1.7982 -0.5235 -0.7906
   84SOPE  H12Y 7833   4.504   3.751   4.376  0.9173  1.8340 -0.1982
   84SOPE  C313 7834   4.419   3.822   4.564  0.3668 -0.6709 -0.1112
   84SOPE  H13X 7835   4.367   3.729   4.595 -4.4674  2.0030  0.7575
   84SOPE  H13Y 7836   4.363   3.911   4.598  1.3248  0.2538 -0.8806
   84SOPE  C314 7837   4.563   3.839   4.621 -0.4279 -0.3877  0.0446
   84SOPE  H14X 7838   4.604   3.937   4.591 -2.1115  0.5174  0.5778
   84SOPE  H14Y 7839   4.632   3.755   4.598  3.3701  2.1035  1.3012
   84SOPE  C315 7840   4.567   3.837   4.772  0.5774 -0.7360  0.7607
   84SOPE  H15X 7841   4.536   3.735   4.804 -0.9344  0.1588  2.3743
   84SOPE  H15Y 7842   4.496   3.912   4.816  0.6977  0.7101 -1.3856
   84SOPE  C316 7843   4.704   3.865   4.820 -0.3970  0.0216 -0.3450
   84SOPE  H16X 7844   4.775   3.825   4.745  0.9455 -0.8218  1.2918
   84SOPE  H16Y 7845   4.731   3.810   4.913  0.9593  0.6421 -0.3463
   84SOPE  C317 7846   4.742   4.017   4.827  0.3779  0.2965  0.3229
   84SOPE  H17X 7847   4.676   4.064   4.903  0.4451 -0.7232  1.0316
   84SOPE  H17Y 7848   4.733   4.057   4.724  0.4065 -1.9870 -0.6304
   84SOPE  C318 7849   4.884   4.043   4.885  0.1165  0.5721  0.6814
   84SOPE  H18X 7850   4.908   4.151   4.890  0.7534  0.4812 -0.2144
   84SOPE  H18Y 7851   4.946   3.993   4.808  0.9845  0.4748  1.4251
   84SOPE  H18Z 7852   4.914   3.996   4.981 -0.0261  0.2975  0.5924
   85SOPE     N 7853   0.912   6.666   3.059 -0.3414 -0.3156  0.3050
   85SOPE   HN1 7854   0.918   6.688   2.957 -0.5178  0.5361  0.4764
   85SOPE   HN2 7855   0.966   6.578   3.076  1.5350  0.4037 -1.5498
   85SOPE   HN3 7856   0.811   6.653   3.080 -0.3439 -0.0921  0.4314
   85SOPE   C12 7857   0.974   6.781   3.130 -0.4726  0.7586 -0.1083
   85SOPE  H12A 7858   1.071   6.796   3.077 -0.2043  0.4874  0.2934
   85SOPE  H12B 7859   0.971   6.772   3.241  0.1594  1.0212 -0.0638
   85SOPE   C11 7860   0.905   6.908   3.086  0.5379  0.0315  0.1718
   85SOPE  H11A 7861   0.944   6.929   2.985  1.1019  0.5178  0.4854
   85SOPE  H11B 7862   0.937   6.994   3.149  2.1957 -0.8026  0.5103
   85SOPE     P 7863   0.678   7.030   3.077 -0.2226 -0.2213  0.1098
   85SOPE   O13 7864   0.547   7.017   3.008 -0.4342 -0.6669 -0.1277
   85SOPE   O14 7865   0.760   7.143   3.032  0.4074  0.1900 -1.3065
   85SOPE   O12 7866   0.759   6.892   3.063 -0.5398  0.4342  0.6146
   85SOPE   O11 7867   0.645   7.041   3.231  0.4858 -0.2397 -0.0588
   85SOPE    C1 7868   0.690   7.162   3.298 -0.0465  0.1590 -0.0826
   85SOPE    HA 7869   0.636   7.251   3.260  1.9041  0.8797 -1.3178
   85SOPE    HB 7870   0.798   7.182   3.281  0.3988 -1.7448  0.2585
   85SOPE    C2 7871   0.660   7.152   3.445  0.1081 -0.3739 -0.0304
   85SOPE    HS 7872   0.560   7.105   3.461 -0.6825  0.7517 -1.4141
   85SOPE   O21 7873   0.659   7.289   3.497 -0.2728  0.9631 -0.0045
   85SOPE   C21 7874   0.550   7.353   3.504 -0.1878 -0.4805  0.1846
   85SOPE   O22 7875   0.438   7.316   3.459 -0.7841 -0.1169 -0.5492
   85SOPE   C22 7876   0.565   7.470   3.593 -0.1130 -0.8102 -0.8688
   85SOPE   H2R 7877   0.591   7.554   3.525 -1.7731  1.0958  0.7092
   85SOPE   H2S 7878   0.650   7.451   3.662 -1.0924 -0.4646  0.4738
   85SOPE    C3 7879   0.761   7.068   3.529  0.0696 -0.2464  0.1653
   85SOPE    HX 7880   0.861   7.107   3.501 -0.3463  0.1221 -0.8500
   85SOPE    HY 7881   0.763   6.964   3.490  0.1839 -0.2076  0.0648
   85SOPE   O31 7882   0.737   7.087   3.669  0.6647  0.2942  0.2519
   85SOPE   C31 7883   0.652   7.005   3.718  0.5379 -0.8221 -0.1336
   85SOPE   O32 7884   0.588   6.917   3.662 -0.7268  0.1341  0.2341
   85SOPE   C32 7885   0.648   7.038   3.873 -0.7105  0.7054  0.6731
   85SOPE   H2X 7886   0.644   7.148   3.885  0.9554  1.2029 -2.1885
   85SOPE   H2Y 7887   0.738   6.990   3.918 -0.1402  0.6647 -0.4470
   85SOPE   C23 7888   0.438   7.529   3.664  0.9660  0.6522  0.2593
   85SOPE   H3R 7889   0.352   7.466   3.631  2.5362 -0.7562 -1.3983
   85SOPE   H3S 7890   0.418   7.632   3.628 -0.6865  0.7160  1.2760
   85SOPE   C24 7891   0.430   7.512   3.815 -0.1896  0.3195  0.1386
   85SOPE   H4R 7892   0.324   7.531   3.841 -0.9445 -1.5261 -1.3618
   85SOPE   H4S 7893   0.462   7.410   3.848  0.7657  0.0417 -1.5088
   85SOPE   C25 7894   0.512   7.611   3.885 -0.2345 -0.3274 -0.2025
   85SOPE   H5R 7895   0.613   7.618   3.838 -0.1751  1.7778  0.1558
   85SOPE   H5S 7896   0.471   7.715   3.885 -0.9354 -0.5972  0.5395
   85SOPE   C26 7897   0.559   7.562   4.029  0.6486 -0.4986 -0.7561
   85SOPE   H6R 7898   0.584   7.454   4.039  0.9048 -0.4754 -1.1174
   85SOPE   H6S 7899   0.654   7.609   4.062  1.9048 -3.7169  0.6936
   85SOPE   C27 7900   0.452   7.577   4.135  0.3111  0.5229 -0.3689
   85SOPE   H7R 7901   0.423   7.684   4.143  0.6425  0.5711  0.3262
   85SOPE   H7S 7902   0.367   7.523   4.090 -0.0427  0.5022  0.3110
   85SOPE   C28 7903   0.482   7.512   4.272 -0.2976  0.1105 -0.2199
   85SOPE   H8R 7904   0.392   7.534   4.333 -1.0888 -0.3774 -1.1744
   85SOPE   H8S 7905   0.504   7.405   4.256  0.7433  0.3536 -0.4893
   85SOPE   C29 7906   0.604   7.570   4.334 -0.5845  0.6623  0.8678
   85SOPE   H91 7907   0.691   7.571   4.266  1.9935 -0.1605  3.9418
   85SOPE  C210 7908   0.637   7.610   4.457 -0.6664  0.5437 -0.3592
   85SOPE  H101 7909   0.737   7.640   4.492 -0.9355  2.2667 -0.9800
   85SOPE  C211 7910   0.543   7.603   4.576 -0.5769 -0.1355  0.1641
   85SOPE  H11R 7911   0.442   7.587   4.532 -0.6041  1.8560 -0.6091
   85SOPE  H11S 7912   0.524   7.706   4.614  1.3897  0.0424  0.7792
   85SOPE  C212 7913   0.549   7.498   4.684 -0.5478  0.0070 -0.0093
   85SOPE  H12R 7914   0.461   7.526   4.745  1.8537  2.7426  2.5027
   85SOPE  H12S 7915   0.640   7.499   4.748  0.2691  1.2788 -1.1422
   85SOPE  C213 7916   0.522   7.360   4.634  0.2710 -0.0055  0.3067
   85SOPE  H13R 7917   0.615   7.320   4.588  0.4598  1.2671 -0.4553
   85SOPE  H13S 7918   0.442   7.363   4.557  1.7357 -1.2417 -1.3670
   85SOPE  C214 7919   0.481   7.262   4.744 -0.1600 -0.5696  0.1127
   85SOPE  H14R 7920   0.485   7.156   4.709  3.7682 -1.3281  2.1808
   85SOPE  H14S 7921   0.381   7.286   4.787 -0.3002 -1.0942  0.0900
   85SOPE  C215 7922   0.577   7.273   4.866 -0.3145  0.5793 -0.3220
   85SOPE  H15R 7923   0.520   7.343   4.932 -0.5163  0.5298 -0.4433
   85SOPE  H15S 7924   0.675   7.323   4.852  0.2039 -0.0331  0.9019
   85SOPE  C216 7925   0.603   7.144   4.949 -0.4043 -0.3217 -0.4917
   85SOPE  H16R 7926   0.668   7.080   4.887 -1.8015 -3.0501  0.6648
   85SOPE  H16S 7927   0.513   7.082   4.973  0.3817 -1.7875 -1.1934
   85SOPE  C217 7928   0.681   7.171   5.084  0.7581  0.2966  0.0971
   85SOPE  H17R 7929   0.629   7.246   5.148  0.2152 -0.3785  0.4512
   85SOPE  H17S 7930   0.785   7.205   5.062  0.2324 -0.2227 -4.0108
   85SOPE  C218 7931   0.693   7.037   5.156 -0.6958 -0.4775 -0.8965
   85SOPE  H18R 7932   0.591   7.002   5.183  0.2904 -1.2069  2.2771
   85SOPE  H18S 7933   0.740   7.058   5.254 -1.0884  0.8824 -0.9866
   85SOPE  H18T 7934   0.754   6.960   5.103  0.3456 -0.5553  0.3601
   85SOPE   C33 7935   0.526   6.966   3.940  0.0260 -0.1176 -0.5688
   85SOPE   H3X 7936   0.474   6.894   3.874  2.3547 -2.5186  0.0402
   85SOPE   H3Y 7937   0.454   7.048   3.962 -0.5914 -0.3529 -1.6206
   85SOPE   C34 7938   0.556   6.903   4.079 -0.1103 -0.4329 -0.4183
   85SOPE   H4X 7939   0.638   6.831   4.059  0.3965 -0.5703  1.8926
   85SOPE   H4Y 7940   0.482   6.827   4.112 -0.2297 -1.0973 -2.1115
   85SOPE   C35 7941   0.587   7.010   4.185 -0.0919  0.0128 -0.2501
   85SOPE   H5X 7942   0.506   7.086   4.187  0.8506  1.1108  2.7674
   85SOPE   H5Y 7943   0.677   7.068   4.156  0.3637 -0.0103  1.0539
   85SOPE   C36 7944   0.611   6.952   4.329  0.0832 -0.2253  0.0421
   85SOPE   H6X 7945   0.670   6.858   4.341  0.3596  0.1312  1.6816
   85SOPE   H6Y 7946   0.511   6.921   4.366 -0.1700  1.8899  1.2821
   85SOPE   C37 7947   0.672   7.052   4.429 -0.4965 -0.1415  0.2975
   85SOPE   H7X 7948   0.607   7.142   4.436 -0.1735  0.2135 -1.0181
   85SOPE   H7Y 7949   0.769   7.095   4.397  0.2875 -2.1891 -0.2635
   85SOPE   C38 7950   0.692   6.988   4.565  0.7131 -0.3045 -0.0530
   85SOPE   H8X 7951   0.593   6.940   4.586  1.1741 -0.9697  0.6468
   85SOPE   H8Y 7952   0.702   7.074   4.635  4.1014  0.9243 -1.8560
   85SOPE   C39 7953   0.806   6.892   4.586 -0.1733  0.2735 -0.0155
   85SOPE   H9X 7954   0.902   6.937   4.554  0.3914 -0.5817  0.4189
   85SOPE   H9Y 7955   0.791   6.810   4.513 -2.0717 -0.5261  1.1960
   85SOPE  C310 7956   0.817   6.841   4.727  0.1824  0.2248 -1.0415
   85SOPE  H10X 7957   0.814   6.930   4.794 -3.6019 -1.0945  0.8496
   85SOPE  H10Y 7958   0.912   6.784   4.739  0.4761  1.0794  1.3155
   85SOPE  C311 7959   0.694   6.756   4.772 -0.2554 -0.1409  0.4678
   85SOPE  H11X 7960   0.683   6.661   4.715 -1.9078 -0.4895  1.2985
   85SOPE  H11Y 7961   0.599   6.815   4.768 -0.3510 -0.3053  0.2841
   85SOPE  C312 7962   0.709   6.714   4.918  0.3161  0.2017 -0.5097
   85SOPE  H12X 7963   0.711   6.806   4.981 -0.9380  0.0995 -0.2910
   85SOPE  H12Y 7964   0.809   6.665   4.922 -0.0333 -0.9878 -3.6367
   85SOPE  C313 7965   0.596   6.628   4.968 -0.5280  0.7897  0.5928
   85SOPE  H13X 7966   0.601   6.539   4.901 -0.1702  1.3862 -0.1941
   85SOPE  H13Y 7967   0.501   6.685   4.961 -0.7299  0.4885  0.8770
   85SOPE  C314 7968   0.621   6.583   5.113 -0.0149  0.3376 -0.4787
   85SOPE  H14X 7969   0.624   6.666   5.188  1.2373 -2.0293  2.2751
   85SOPE  H14Y 7970   0.713   6.522   5.124 -0.6030 -0.3898  0.6242
   85SOPE  C315 7971   0.505   6.483   5.144 -0.5285 -0.1596 -0.2763
   85SOPE  H15X 7972   0.411   6.528   5.107 -0.3217  0.5864  0.0799
   85SOPE  H15Y 7973   0.477   6.476   5.252 -1.0388 -1.7487 -0.4962
   85SOPE  C316 7974   0.525   6.343   5.081 -0.3473 -0.0677 -0.0910
   85SOPE  H16X 7975   0.633   6.334   5.105 -0.1035  0.9733 -0.7338
   85SOPE  H16Y 7976   0.527   6.351   4.970 -0.4195  0.5535 -0.0554
   85SOPE  C317 7977   0.437   6.230   5.126 -0.6316  0.4581  0.0058
   85SOPE  H17X 7978   0.334   6.221   5.086  0.1059 -0.1397 -1.8448
   85SOPE  H17Y 7979   0.427   6.243   5.236 -0.4240  0.1875  0.0587
   85SOPE  C318 7980   0.496   6.092   5.078  0.0363  0.4690  0.3535
   85SOPE  H18X 7981   0.585   6.060   5.135  0.3761  0.4775 -0.1633
   85SOPE  H18Y 7982   0.526   6.104   4.972 -0.4461  2.1754  0.3762
   85SOPE  H18Z 7983   0.417   6.015   5.089 -0.7188  1.2833  0.8082
   86SOPE     N 7984   1.651   3.165   2.692 -0.7632  0.3558 -0.3163
   86SOPE   HN1 7985   1.576   3.222   2.646 -1.6865  0.0784  0.7997
   86SOPE   HN2 7986   1.643   3.178   2.795  0.2858 -0.7589 -0.0784
   86SOPE   HN3 7987   1.749   3.184   2.662  0.2831 -0.5931  2.2580
   86SOPE   C12 7988   1.611   3.026   2.664 -0.0224  1.0329 -0.1271
   86SOPE  H12A 7989   1.612   3.009   2.554  0.0880 -1.6673  0.2127
   86SOPE  H12B 7990   1.502   3.012   2.683  0.1657  0.6330  0.7309
   86SOPE   C11 7991   1.697   2.921   2.740 -1.4575 -0.2241 -0.5310
   86SOPE  H11A 7992   1.660   2.822   2.705  1.1273 -1.4542 -0.0497
   86SOPE  H11B 7993   1.690   2.930   2.850  1.4274 -0.5454 -0.2501
   86SOPE     P 7994   1.952   2.914   2.811  0.0612  0.0313 -0.1411
   86SOPE   O13 7995   2.033   3.037   2.821 -0.1319  0.0672 -0.1062
   86SOPE   O14 7996   2.029   2.799   2.761 -0.2657  0.4542 -0.4376
   86SOPE   O12 7997   1.835   2.945   2.708  0.1035 -0.0486  0.1326
   86SOPE   O11 7998   1.894   2.883   2.955 -0.1581  0.4953  0.1644
   86SOPE    C1 7999   1.830   2.754   2.981  0.1154 -0.0639  0.4841
   86SOPE    HA 8000   1.867   2.677   2.910 -1.4779 -0.7066  0.3203
   86SOPE    HB 8001   1.722   2.769   2.960  0.5607  0.2658 -1.8740
   86SOPE    C2 8002   1.870   2.698   3.117 -0.3425 -0.5795  0.3059
   86SOPE    HS 8003   1.802   2.750   3.188  0.9332 -0.7941  1.7412
   86SOPE   O21 8004   2.014   2.736   3.135 -0.5792  0.1393 -0.2587
   86SOPE   C21 8005   2.036   2.797   3.255 -0.1673  0.3977 -0.5738
   86SOPE   O22 8006   1.954   2.825   3.339 -0.2282  0.9449 -0.4434
   86SOPE   C22 8007   2.192   2.812   3.265  0.1418 -0.3007 -0.4257
   86SOPE   H2R 8008   2.225   2.899   3.204 -0.7514 -0.4581 -1.1589
   86SOPE   H2S 8009   2.228   2.718   3.219 -1.3403 -0.5480 -1.1555
   86SOPE    C3 8010   1.848   2.541   3.122 -0.2453 -0.6730  0.1068
   86SOPE    HX 8011   1.927   2.499   3.056 -1.6913 -1.2564 -1.3348
   86SOPE    HY 8012   1.752   2.515   3.072  0.8306 -1.1255 -1.8582
   86SOPE   O31 8013   1.854   2.489   3.253 -0.2409  0.5155  0.0349
   86SOPE   C31 8014   1.971   2.429   3.297 -0.2078 -0.7657 -0.4407
   86SOPE   O32 8015   2.070   2.407   3.230 -0.1689  0.5686  0.2442
   86SOPE   C32 8016   1.955   2.389   3.441  0.2066  0.5498 -0.8506
   86SOPE   H2X 8017   1.895   2.296   3.438  0.3327  0.4873 -2.4370
   86SOPE   H2Y 8018   1.900   2.472   3.492 -0.2533  0.2796 -0.8985
   86SOPE   C23 8019   2.244   2.806   3.410  0.1744  0.1740 -0.1551
   86SOPE   H3R 8020   2.172   2.759   3.480 -0.1464  0.2997 -0.3962
   86SOPE   H3S 8021   2.261   2.907   3.455  0.5580  1.5769 -3.1929
   86SOPE   C24 8022   2.376   2.724   3.423  0.6193  0.1958  0.3810
   86SOPE   H4R 8023   2.357   2.616   3.403 -2.0128  0.0147  3.1923
   86SOPE   H4S 8024   2.458   2.766   3.360 -0.0077  1.0308  0.0985
   86SOPE   C25 8025   2.435   2.717   3.563 -0.5290 -0.5631 -0.2269
   86SOPE   H5R 8026   2.465   2.819   3.594  1.1301 -0.6149 -1.5127
   86SOPE   H5S 8027   2.359   2.699   3.643  0.2597  0.2889  0.7400
   86SOPE   C26 8028   2.564   2.638   3.562  0.4610 -0.0544 -1.2920
   86SOPE   H6R 8029   2.546   2.541   3.512 -0.5469 -1.1709  1.0861
   86SOPE   H6S 8030   2.637   2.710   3.519  0.7236  0.9924  0.7428
   86SOPE   C27 8031   2.624   2.614   3.701 -0.5851 -0.0844 -0.7953
   86SOPE   H7R 8032   2.723   2.563   3.699  0.3412  1.6551 -1.2304
   86SOPE   H7S 8033   2.640   2.710   3.754  0.1583 -1.6319  1.9562
   86SOPE   C28 8034   2.530   2.524   3.788  0.2691 -0.0035  0.5988
   86SOPE   H8R 8035   2.425   2.561   3.777  0.8321  1.9000  1.2875
   86SOPE   H8S 8036   2.527   2.420   3.749 -2.0290  0.4098 -0.5192
   86SOPE   C29 8037   2.574   2.529   3.927 -0.6518  0.5208 -1.2125
   86SOPE   H91 8038   2.613   2.435   3.968  1.0787  1.6911 -0.0534
   86SOPE  C210 8039   2.588   2.634   4.012 -0.0180  0.2992 -0.1207
   86SOPE  H101 8040   2.627   2.623   4.114 -0.8377 -0.6345  0.1101
   86SOPE  C211 8041   2.546   2.780   3.994  0.3605  0.0927  0.9382
   86SOPE  H11R 8042   2.507   2.788   3.890 -0.0283 -2.2066  0.8550
   86SOPE  H11S 8043   2.641   2.837   4.001  0.0569  0.8782 -0.9233
   86SOPE  C212 8044   2.436   2.827   4.090 -0.5497  0.3367  0.1923
   86SOPE  H12R 8045   2.355   2.751   4.089 -0.2276 -0.0930  2.1560
   86SOPE  H12S 8046   2.391   2.921   4.050  1.0419  0.3096 -1.7854
   86SOPE  C213 8047   2.470   2.835   4.243  0.0837  0.6955 -0.7638
   86SOPE  H13R 8048   2.541   2.919   4.259  1.4765 -0.5201 -0.3392
   86SOPE  H13S 8049   2.525   2.745   4.278  0.7560  1.0707 -0.8256
   86SOPE  C214 8050   2.351   2.847   4.345  0.3389 -0.0527  0.8046
   86SOPE  H14R 8051   2.293   2.754   4.324  1.9302 -1.0813  0.7467
   86SOPE  H14S 8052   2.297   2.943   4.326  0.0024 -0.6370 -1.6066
   86SOPE  C215 8053   2.392   2.836   4.494  0.6466  0.7059 -0.4257
   86SOPE  H15R 8054   2.323   2.888   4.563  1.1080  1.4920 -0.5301
   86SOPE  H15S 8055   2.491   2.887   4.495  0.4048  1.2148  1.1499
   86SOPE  C216 8056   2.394   2.689   4.537 -0.3495  0.6187 -0.8561
   86SOPE  H16R 8057   2.499   2.653   4.533  0.2187  2.1429 -0.2299
   86SOPE  H16S 8058   2.329   2.634   4.466  1.2344 -0.2553 -1.6828
   86SOPE  C217 8059   2.356   2.673   4.686  0.0612 -0.4221  0.5243
   86SOPE  H17R 8060   2.250   2.706   4.700 -0.5303 -1.7315 -0.6288
   86SOPE  H17S 8061   2.419   2.750   4.737 -0.9921  1.3489 -0.7090
   86SOPE  C218 8062   2.366   2.540   4.763 -0.0871 -0.4482 -0.2951
   86SOPE  H18R 8063   2.335   2.562   4.867  1.2806 -0.9556  0.2376
   86SOPE  H18S 8064   2.464   2.490   4.776  0.9904  2.0094  2.0365
   86SOPE  H18T 8065   2.299   2.480   4.698 -1.3307  1.2202 -0.6287
   86SOPE   C33 8066   2.083   2.383   3.521 -0.2653 -0.0554 -0.5598
   86SOPE   H3X 8067   2.132   2.483   3.526 -0.5005  0.0101  0.7785
   86SOPE   H3Y 8068   2.146   2.304   3.474  0.6870 -1.6014  3.0270
   86SOPE   C34 8069   2.044   2.352   3.669  0.2516  1.2657 -0.5619
   86SOPE   H4X 8070   2.020   2.244   3.676 -1.8485  1.7218 -0.0553
   86SOPE   H4Y 8071   1.960   2.415   3.703 -1.0409  0.0942 -1.4819
   86SOPE   C35 8072   2.169   2.379   3.762 -0.4352  0.2914  0.1005
   86SOPE   H5X 8073   2.173   2.490   3.766  3.7416  0.2656  0.7686
   86SOPE   H5Y 8074   2.264   2.339   3.721 -0.4118  0.9042 -0.4521
   86SOPE   C36 8075   2.150   2.335   3.903 -0.5801  0.1060 -0.0150
   86SOPE   H6X 8076   2.141   2.224   3.912  0.3490  0.0901  0.9635
   86SOPE   H6Y 8077   2.069   2.382   3.962  0.7581  1.6269  0.6926
   86SOPE   C37 8078   2.277   2.366   3.987  0.0828  0.3377  0.5566
   86SOPE   H7X 8079   2.293   2.476   3.990  0.2570  0.3836 -1.0112
   86SOPE   H7Y 8080   2.370   2.323   3.942 -0.6888 -0.4812 -0.3082
   86SOPE   C38 8081   2.267   2.305   4.128 -0.3204  0.2523  0.0953
   86SOPE   H8X 8082   2.245   2.197   4.118 -1.8079  0.6678 -1.7890
   86SOPE   H8Y 8083   2.173   2.344   4.174 -1.1761  1.2747 -2.3459
   86SOPE   C39 8084   2.389   2.335   4.211 -0.5349 -0.0946 -0.1951
   86SOPE   H9X 8085   2.433   2.430   4.174  0.5353 -0.2517  0.6137
   86SOPE   H9Y 8086   2.466   2.256   4.191 -1.4990 -0.5355 -2.4397
   86SOPE  C310 8087   2.353   2.350   4.359  0.1662 -0.3486  0.2258
   86SOPE  H10X 8088   2.282   2.435   4.365 -0.1320 -0.6744  1.7132
   86SOPE  H10Y 8089   2.448   2.375   4.410 -0.3479  1.3581  0.4148
   86SOPE  C311 8090   2.296   2.220   4.427  0.2620 -0.2363  0.0738
   86SOPE  H11X 8091   2.329   2.122   4.387 -0.0699 -0.0983 -0.5414
   86SOPE  H11Y 8092   2.186   2.224   4.417  0.3386  1.1399 -0.4758
   86SOPE  C312 8093   2.324   2.207   4.573 -0.2568 -0.4121  0.1917
   86SOPE  H12X 8094   2.289   2.297   4.627 -0.5361  0.0636 -0.7590
   86SOPE  H12Y 8095   2.433   2.202   4.595  0.1754  0.6275 -1.5024
   86SOPE  C313 8096   2.250   2.090   4.633  0.2184 -0.3379 -0.0761
   86SOPE  H13X 8097   2.299   2.003   4.585  2.7267  1.8670 -1.7664
   86SOPE  H13Y 8098   2.141   2.087   4.609  0.5521  1.6126 -2.0870
   86SOPE  C314 8099   2.273   2.084   4.781  0.9769 -0.0933 -0.1839
   86SOPE  H14X 8100   2.377   2.097   4.820  0.5423  1.8155  0.4354
   86SOPE  H14Y 8101   2.245   1.984   4.818  0.1153  0.6570  1.2796
   86SOPE  C315 8102   2.194   2.182   4.869  0.7730 -0.6072  0.1193
   86SOPE  H15X 8103   2.084   2.164   4.867  0.4932  0.8683  0.5342
   86SOPE  H15Y 8104   2.200   2.284   4.825 -1.0240 -1.1748 -1.5522
   86SOPE  C316 8105   2.234   2.177   5.016 -0.0574  0.3681 -1.0613
   86SOPE  H16X 8106   2.333   2.226   5.027  0.2366  0.3333 -3.1211
   86SOPE  H16Y 8107   2.249   2.070   5.040 -0.1308  0.8724  1.4431
   86SOPE  C317 8108   2.136   2.242   5.114  0.6398 -0.6516 -0.2516
   86SOPE  H17X 8109   2.147   2.189   5.211  0.6469 -0.5791 -0.2130
   86SOPE  H17Y 8110   2.033   2.219   5.080  0.7137  0.8956 -1.6726
   86SOPE  C318 8111   2.140   2.391   5.112  0.0801 -0.1565 -0.2568
   86SOPE  H18X 8112   2.102   2.429   5.015  0.5784 -0.0150 -0.3985
   86SOPE  H18Y 8113   2.244   2.422   5.132 -0.2971  0.0840  1.5096
   86SOPE  H18Z 8114   2.087   2.436   5.198 -0.7864  0.7636 -1.2362
   87SOPE     N 8115   2.755   1.609   3.089 -0.2139 -0.7073  0.5838
   87SOPE   HN1 8116   2.803   1.563   3.010  0.3824  1.4507 -0.3655
   87SOPE   HN2 8117   2.748   1.710   3.066 -2.3475 -1.1338 -0.9442
   87SOPE   HN3 8118   2.808   1.594   3.177  1.8849 -0.2391 -0.5432
   87SOPE   C12 8119   2.610   1.558   3.088 -0.3831 -0.7209  0.0164
   87SOPE  H12A 8120   2.564   1.568   2.987 -0.9275  0.1020  0.3389
   87SOPE  H12B 8121   2.556   1.631   3.151  1.1463  0.2004  0.3103
   87SOPE   C11 8122   2.600   1.415   3.150 -0.2391  0.0725  0.3686
   87SOPE  H11A 8123   2.656   1.336   3.097  0.2785  0.2346  0.6687
   87SOPE  H11B 8124   2.495   1.379   3.147 -0.0382 -1.7034  5.4359
   87SOPE     P 8125   2.619   1.304   3.381  0.0997  0.2441  0.1052
   87SOPE   O13 8126   2.705   1.334   3.495 -0.6533 -0.3375 -0.2691
   87SOPE   O14 8127   2.639   1.175   3.307 -0.0095 -0.6436 -0.0142
   87SOPE   O12 8128   2.638   1.425   3.286 -0.1362 -0.1809  0.5408
   87SOPE   O11 8129   2.468   1.327   3.428  0.1523  0.3359  0.3999
   87SOPE    C1 8130   2.410   1.238   3.528  0.1228  0.5113 -0.1530
   87SOPE    HA 8131   2.458   1.241   3.628  0.2925 -0.8153 -0.1760
   87SOPE    HB 8132   2.433   1.136   3.491 -1.5296  0.5994 -1.5526
   87SOPE    C2 8133   2.264   1.252   3.543 -0.0962 -0.1447  0.9085
   87SOPE    HS 8134   2.215   1.230   3.446  1.5296  0.5872 -0.1031
   87SOPE   O21 8135   2.243   1.394   3.568  0.0118  0.0821  0.1290
   87SOPE   C21 8136   2.122   1.442   3.548  0.0845 -0.4226 -0.2070
   87SOPE   O22 8137   2.024   1.377   3.522  0.3757  0.9304  0.3295
   87SOPE   C22 8138   2.115   1.581   3.590 -0.1407  0.0364  0.5179
   87SOPE   H2R 8139   2.090   1.649   3.506 -1.3755 -0.9301  0.0759
   87SOPE   H2S 8140   2.214   1.624   3.618 -0.8213  1.2044  1.2357
   87SOPE    C3 8141   2.212   1.160   3.662  0.4092 -0.2912 -0.6088
   87SOPE    HX 8142   2.221   1.054   3.629 -2.0936 -0.5352 -0.6890
   87SOPE    HY 8143   2.103   1.178   3.671  1.0231  3.2316  2.1852
   87SOPE   O31 8144   2.272   1.192   3.787 -0.0889  0.1099 -0.0517
   87SOPE   C31 8145   2.216   1.145   3.895  0.0726  0.2113 -0.5835
   87SOPE   O32 8146   2.125   1.064   3.900 -0.8078 -0.3899 -0.5214
   87SOPE   C32 8147   2.280   1.221   4.007 -0.1048  0.2337 -0.1739
   87SOPE   H2X 8148   2.212   1.306   4.028 -0.5221 -0.4831  1.5202
   87SOPE   H2Y 8149   2.382   1.255   3.978  1.1926 -1.7724  1.7145
   87SOPE   C23 8150   2.015   1.608   3.696 -0.3247 -0.4879 -0.3604
   87SOPE   H3R 8151   1.915   1.562   3.677 -0.8983  0.0035  1.3085
   87SOPE   H3S 8152   1.996   1.717   3.690  0.8801 -0.1695  1.1527
   87SOPE   C24 8153   2.070   1.560   3.834 -0.4503  0.4414 -0.2396
   87SOPE   H4R 8154   2.108   1.458   3.814  1.1899  0.8461  0.6642
   87SOPE   H4S 8155   2.165   1.611   3.861  0.2515  0.1381 -2.0226
   87SOPE   C25 8156   1.968   1.553   3.945  0.7043 -0.0696  0.0096
   87SOPE   H5R 8157   1.874   1.513   3.903  1.1278 -3.2958  1.7936
   87SOPE   H5S 8158   1.985   1.481   4.028 -2.2322 -1.7565 -0.7165
   87SOPE   C26 8159   1.935   1.692   4.001  0.6395 -0.0538  0.1601
   87SOPE   H6R 8160   2.020   1.753   4.038 -1.6630  2.6868  1.3659
   87SOPE   H6S 8161   1.879   1.763   3.936  0.6317 -0.4969 -0.3181
   87SOPE   C27 8162   1.848   1.686   4.133  0.3988 -0.4935 -0.3307
   87SOPE   H7R 8163   1.812   1.792   4.136 -0.2884 -0.6676 -1.5614
   87SOPE   H7S 8164   1.747   1.639   4.127 -1.1985  2.4342  1.2328
   87SOPE   C28 8165   1.927   1.629   4.256  0.4699 -0.2711  0.0229
   87SOPE   H8R 8166   1.920   1.519   4.246 -0.1767 -0.2902  0.5992
   87SOPE   H8S 8167   2.035   1.652   4.248  0.6335 -1.4190 -1.3147
   87SOPE   C29 8168   1.864   1.677   4.385  0.2141 -0.4961 -0.6388
   87SOPE   H91 8169   1.755   1.684   4.370  0.2121  0.7752 -0.1669
   87SOPE  C210 8170   1.918   1.723   4.500 -0.2232  0.4865  0.4361
   87SOPE  H101 8171   1.856   1.742   4.589  0.7341  0.6594  1.0889
   87SOPE  C211 8172   2.070   1.730   4.519 -0.1310  0.3772  0.4360
   87SOPE  H11R 8173   2.086   1.835   4.551  1.6358 -0.0829  1.1704
   87SOPE  H11S 8174   2.135   1.704   4.433 -0.2207 -2.7726  1.2010
   87SOPE  C212 8175   2.130   1.644   4.634 -0.1915 -0.1974  0.0796
   87SOPE  H12R 8176   2.073   1.665   4.727 -1.1519 -0.5140 -0.4207
   87SOPE  H12S 8177   2.232   1.686   4.643  0.4473 -1.0997 -2.3336
   87SOPE  C213 8178   2.133   1.494   4.605 -0.3485 -0.1354  0.3184
   87SOPE  H13R 8179   2.150   1.495   4.495  0.0936 -0.0990  0.3825
   87SOPE  H13S 8180   2.033   1.457   4.634 -0.4461  0.6933  1.1163
   87SOPE  C214 8181   2.248   1.417   4.673  0.0055  0.2280 -0.6077
   87SOPE  H14R 8182   2.344   1.451   4.630 -0.2232  1.6827 -0.0468
   87SOPE  H14S 8183   2.235   1.309   4.650 -1.2777  0.1693  0.2103
   87SOPE  C215 8184   2.266   1.435   4.825  0.3946 -0.5639  0.3045
   87SOPE  H15R 8185   2.302   1.534   4.860  2.9178 -1.8218  1.5190
   87SOPE  H15S 8186   2.349   1.364   4.846 -0.3007 -0.7018  2.8702
   87SOPE  C216 8187   2.146   1.402   4.907  0.5005 -0.0564  0.5199
   87SOPE  H16R 8188   2.114   1.296   4.902  0.7911 -0.2541  2.1388
   87SOPE  H16S 8189   2.065   1.465   4.866  1.5675  1.1965  0.2617
   87SOPE  C217 8190   2.161   1.441   5.053  0.2843 -0.6141 -0.0525
   87SOPE  H17R 8191   2.180   1.549   5.071  0.2586 -0.7591  0.9281
   87SOPE  H17S 8192   2.244   1.381   5.097  0.9048 -1.4072 -2.1796
   87SOPE  C218 8193   2.029   1.435   5.131 -0.2073 -0.6268 -0.0644
   87SOPE  H18R 8194   1.975   1.339   5.117 -0.0013 -0.5320 -1.7900
   87SOPE  H18S 8195   1.973   1.519   5.083  1.0212  1.2329  1.5851
   87SOPE  H18T 8196   2.053   1.460   5.237  0.3429  0.3493 -0.4030
   87SOPE   C33 8197   2.290   1.128   4.131  0.0686 -0.3317  0.2612
   87SOPE   H3X 8198   2.338   1.034   4.095  0.1967  0.3769 -1.5038
   87SOPE   H3Y 8199   2.187   1.103   4.163 -1.2661  3.7458 -0.2971
   87SOPE   C34 8200   2.370   1.183   4.254 -0.2902 -0.4179  0.1118
   87SOPE   H4X 8201   2.325   1.279   4.290  0.5426 -0.0247  0.1402
   87SOPE   H4Y 8202   2.473   1.208   4.220 -0.5318  0.1489 -0.2160
   87SOPE   C35 8203   2.380   1.073   4.362 -0.2274  0.0566 -0.2835
   87SOPE   H5X 8204   2.434   0.986   4.319 -0.8899 -0.5978  0.1875
   87SOPE   H5Y 8205   2.271   1.052   4.371 -0.0330 -0.8612  0.0375
   87SOPE   C36 8206   2.452   1.119   4.486 -0.1049 -0.2185 -0.2118
   87SOPE   H6X 8207   2.393   1.206   4.522  0.4715  1.4192 -2.9252
   87SOPE   H6Y 8208   2.556   1.151   4.468 -0.0909  0.4107  0.8759
   87SOPE   C37 8209   2.452   1.003   4.585 -0.2094  0.0940 -0.3295
   87SOPE   H7X 8210   2.532   0.927   4.569 -1.2779 -1.3337  0.8068
   87SOPE   H7Y 8211   2.354   0.950   4.581  0.4964 -1.4693  1.3221
   87SOPE   C38 8212   2.470   1.062   4.724 -1.0500 -0.8886 -0.4789
   87SOPE   H8X 8213   2.400   1.146   4.746 -1.8548 -1.5706 -0.3936
   87SOPE   H8Y 8214   2.571   1.108   4.725 -0.5516 -1.9646 -0.4911
   87SOPE   C39 8215   2.444   0.949   4.829  0.2157 -0.0203 -0.1018
   87SOPE   H9X 8216   2.341   0.910   4.815 -1.3176  3.6965 -0.1965
   87SOPE   H9Y 8217   2.465   0.980   4.934  0.1985 -1.9504  0.5283
   87SOPE  C310 8218   2.538   0.828   4.817  0.4715  0.1357  0.7325
   87SOPE  H10X 8219   2.528   0.781   4.717  1.0054 -3.9641  2.4257
   87SOPE  H10Y 8220   2.503   0.751   4.888 -0.4935 -1.0414 -0.9626
   87SOPE  C311 8221   2.680   0.860   4.846 -1.1191 -0.2428  0.1470
   87SOPE  H11X 8222   2.695   0.877   4.954  0.0525  0.7875 -0.1547
   87SOPE  H11Y 8223   2.706   0.954   4.792 -3.7017  0.8722  0.7120
   87SOPE  C312 8224   2.782   0.754   4.808  0.1032 -0.1672 -0.2012
   87SOPE  H12X 8225   2.884   0.782   4.843  0.3036 -0.6777 -0.3628
   87SOPE  H12Y 8226   2.795   0.748   4.698 -0.9265 -1.8035 -0.2609
   87SOPE  C313 8227   2.744   0.620   4.854 -1.1257 -0.2801 -0.2093
   87SOPE  H13X 8228   2.653   0.583   4.803 -1.5493 -0.3025  0.5410
   87SOPE  H13Y 8229   2.737   0.630   4.965 -0.7565  1.1900 -0.2960
   87SOPE  C314 8230   2.860   0.521   4.839 -0.3249 -0.1640 -0.7727
   87SOPE  H14X 8231   2.941   0.538   4.913  0.4947  1.1704 -1.9386
   87SOPE  H14Y 8232   2.907   0.527   4.738  0.2212 -0.6118 -0.5538
   87SOPE  C315 8233   2.814   0.375   4.866 -0.1825  0.5264 -0.6131
   87SOPE  H15X 8234   2.705   0.355   4.851 -0.9537  2.5001  1.7783
   87SOPE  H15Y 8235   2.821   0.350   4.974 -1.2434  2.2487 -0.0997
   87SOPE  C316 8236   2.889   0.279   4.774 -1.0349  0.0085  0.0217
   87SOPE  H16X 8237   2.999   0.286   4.788 -0.9091 -2.1425  0.3454
   87SOPE  H16Y 8238   2.858   0.310   4.672 -1.5901  1.6981  0.6692
   87SOPE  C317 8239   2.845   0.130   4.795  0.6728 -0.2651 -0.6402
   87SOPE  H17X 8240   2.736   0.127   4.774  0.4829  0.6132  0.1249
   87SOPE  H17Y 8241   2.858   0.100   4.901  0.3779  1.3687 -0.1071
   87SOPE  C318 8242   2.933   0.050   4.707 -0.5586 -0.0378  0.3012
   87SOPE  H18X 8243   2.942   0.085   4.602 -2.2224 -1.5830 -0.4234
   87SOPE  H18Y 8244   2.900  -0.055   4.720 -0.3503  0.0316  1.5280
   87SOPE  H18Z 8245   3.034   0.052   4.753 -0.9638 -1.9389  1.4073
   88SOPE     N 8246   3.830   1.231   2.720 -0.2298 -0.0642 -0.8196
   88SOPE   HN1 8247   3.789   1.326   2.727  2.0042  1.0180 -1.7413
   88SOPE   HN2 8248   3.876   1.218   2.628 -0.8421  1.4999 -1.3651
   88SOPE   HN3 8249   3.752   1.162   2.730  0.5170 -0.8353 -0.2395
   88SOPE   C12 8250   3.938   1.197   2.822 -0.1140  0.0616 -0.2438
   88SOPE  H12A 8251   3.930   1.260   2.914 -2.7877  0.7016 -0.8328
   88SOPE  H12B 8252   4.029   1.230   2.767 -0.2823  0.1445 -0.4693
   88SOPE   C11 8253   3.936   1.046   2.863  0.2639 -0.4282  0.1292
   88SOPE  H11A 8254   4.018   1.030   2.936  0.3044  0.1621  0.2202
   88SOPE  H11B 8255   3.965   0.983   2.777  0.6398  1.7262 -1.3886
   88SOPE     P 8256   3.778   0.850   2.929  0.0355 -0.0707 -0.0299
   88SOPE   O13 8257   3.803   0.785   2.800  0.6664 -0.3952 -0.1779
   88SOPE   O14 8258   3.650   0.824   3.000  0.0442 -0.3406 -0.2409
   88SOPE   O12 8259   3.804   1.008   2.913 -0.5288 -0.0046 -0.5054
   88SOPE   O11 8260   3.899   0.804   3.024 -0.3091 -0.6392  0.8010
   88SOPE    C1 8261   3.904   0.859   3.154  0.1856 -0.4974 -0.8017
   88SOPE    HA 8262   3.821   0.825   3.220 -0.1910  2.3615  0.3294
   88SOPE    HB 8263   3.902   0.970   3.157  1.9093 -0.4662  0.6897
   88SOPE    C2 8264   4.034   0.825   3.225  0.5438  0.2347  0.0627
   88SOPE    HS 8265   4.053   0.715   3.217  1.9923  0.2746  2.0758
   88SOPE   O21 8266   4.022   0.864   3.364  0.1716  0.3667  0.1587
   88SOPE   C21 8267   3.966   0.769   3.450 -0.0757  0.4116  0.2880
   88SOPE   O22 8268   3.925   0.660   3.415 -0.3505  0.2691  0.0791
   88SOPE   C22 8269   3.993   0.820   3.592  0.0741 -0.2926 -0.4139
   88SOPE   H2R 8270   3.926   0.907   3.610 -0.0757 -0.5853  0.5035
   88SOPE   H2S 8271   4.098   0.852   3.609 -0.1986 -0.1372  1.1288
   88SOPE    C3 8272   4.163   0.886   3.159 -0.4379  0.6483  0.1521
   88SOPE    HX 8273   4.148   0.994   3.179  1.3413  0.9600 -0.0169
   88SOPE    HY 8274   4.162   0.857   3.052 -3.0539 -1.9102  0.7359
   88SOPE   O31 8275   4.277   0.833   3.224 -0.5053  0.9104 -0.3339
   88SOPE   C31 8276   4.376   0.922   3.266  0.4560 -0.1633  0.5831
   88SOPE   O32 8277   4.372   1.043   3.268  0.7727  0.6380  0.4853
   88SOPE   C32 8278   4.495   0.842   3.329 -0.2155 -0.2770 -0.6713
   88SOPE   H2X 8279   4.547   0.778   3.255  0.2722  0.0937 -0.6558
   88SOPE   H2Y 8280   4.445   0.783   3.409  0.3173  0.6790  0.3980
   88SOPE   C23 8281   3.964   0.717   3.711 -0.5463 -0.0575  0.1475
   88SOPE   H3R 8282   4.042   0.639   3.721  0.7441  1.2694  0.7868
   88SOPE   H3S 8283   3.860   0.680   3.695 -0.0060 -0.5928 -2.5262
   88SOPE   C24 8284   3.952   0.792   3.848 -0.5522  0.1785  0.0568
   88SOPE   H4R 8285   4.051   0.838   3.869 -0.3227 -0.5225  0.5428
   88SOPE   H4S 8286   3.882   0.877   3.834  1.4429  1.6875 -1.1730
   88SOPE   C25 8287   3.911   0.699   3.956  0.4838 -0.1392  0.8046
   88SOPE   H5R 8288   3.808   0.658   3.952 -0.3313  1.8495 -0.5576
   88SOPE   H5S 8289   3.973   0.607   3.954  0.2696 -0.3835 -3.4050
   88SOPE   C26 8290   3.940   0.765   4.097  0.1855  0.5101 -0.1784
   88SOPE   H6R 8291   4.048   0.788   4.114  0.6792 -1.2643 -0.6614
   88SOPE   H6S 8292   3.869   0.850   4.090 -0.9134 -0.3406  0.3369
   88SOPE   C27 8293   3.901   0.675   4.211  0.7910 -0.9039 -0.3088
   88SOPE   H7R 8294   3.791   0.664   4.220  0.2855  0.6343 -3.3185
   88SOPE   H7S 8295   3.934   0.574   4.179 -0.4095 -0.8505 -1.8551
   88SOPE   C28 8296   3.973   0.709   4.347  1.0719  0.0185  0.4503
   88SOPE   H8R 8297   3.957   0.621   4.413  0.7024 -0.3576 -0.1269
   88SOPE   H8S 8298   4.082   0.719   4.326  0.8623 -1.0244 -1.4025
   88SOPE   C29 8299   3.930   0.846   4.401  0.2334  0.5122  0.2811
   88SOPE   H91 8300   3.916   0.928   4.329  0.2979 -0.2771 -0.6505
   88SOPE  C210 8301   3.893   0.863   4.524  0.1315 -0.1456  0.2449
   88SOPE  H101 8302   3.866   0.964   4.557  0.6318 -0.3548  1.3578
   88SOPE  C211 8303   3.888   0.760   4.640  0.1210  0.4645  0.9561
   88SOPE  H11R 8304   3.867   0.809   4.737  0.8486  3.4048 -0.2494
   88SOPE  H11S 8305   3.978   0.694   4.640 -0.6012 -0.5464  1.1848
   88SOPE  C212 8306   3.771   0.654   4.630  0.4596  0.4714  0.5311
   88SOPE  H12R 8307   3.742   0.628   4.526 -2.5300 -0.7406  1.5543
   88SOPE  H12S 8308   3.677   0.706   4.656 -1.8908 -1.5937 -2.9702
   88SOPE  C213 8309   3.790   0.537   4.727 -1.1184 -0.2839  0.2208
   88SOPE  H13R 8310   3.878   0.562   4.790 -1.1664 -1.5257  0.8104
   88SOPE  H13S 8311   3.826   0.444   4.679  3.5673  1.3654  0.0370
   88SOPE  C214 8312   3.667   0.525   4.819  0.5039  0.2936 -0.6288
   88SOPE  H14R 8313   3.585   0.521   4.744 -0.9014 -0.0371  0.8527
   88SOPE  H14S 8314   3.670   0.620   4.876  0.1593 -1.0033  1.6759
   88SOPE  C215 8315   3.683   0.405   4.917  0.2005  0.8955  0.3949
   88SOPE  H15R 8316   3.765   0.430   4.987  0.1150  1.4080  0.3223
   88SOPE  H15S 8317   3.707   0.309   4.866  0.3178  1.5996 -0.9255
   88SOPE  C216 8318   3.555   0.398   4.997  0.2350  0.2731  0.2895
   88SOPE  H16R 8319   3.471   0.371   4.929  1.4845 -1.4190 -0.6484
   88SOPE  H16S 8320   3.532   0.497   5.041 -2.3670 -0.0309 -0.2454
   88SOPE  C217 8321   3.564   0.290   5.107 -0.2314 -0.3582  0.2834
   88SOPE  H17R 8322   3.576   0.185   5.073  0.8496  0.1478 -0.9293
   88SOPE  H17S 8323   3.457   0.299   5.137 -0.8411  0.2763 -1.9065
   88SOPE  C218 8324   3.654   0.328   5.227  0.0928  0.8252 -0.3178
   88SOPE  H18R 8325   3.763   0.318   5.209 -0.1865 -1.3437 -1.0973
   88SOPE  H18S 8326   3.625   0.263   5.312 -0.2543  0.3349 -0.7950
   88SOPE  H18T 8327   3.634   0.432   5.260 -0.1431  0.3156  1.1976
   88SOPE   C33 8328   4.614   0.932   3.387 -0.1000  0.4229  0.2724
   88SOPE   H3X 8329   4.627   1.004   3.303  0.4352 -1.5180 -1.3850
   88SOPE   H3Y 8330   4.701   0.863   3.378  1.1569  2.0024 -0.1711
   88SOPE   C34 8331   4.592   1.004   3.516  0.0720  0.1629 -0.1507
   88SOPE   H4X 8332   4.508   1.072   3.490  0.8385  1.3011  0.2735
   88SOPE   H4Y 8333   4.681   1.069   3.529 -0.7602  0.9816  1.6960
   88SOPE   C35 8334   4.554   0.910   3.635  0.3995  0.5647  0.0726
   88SOPE   H5X 8335   4.646   0.880   3.690 -0.7057  0.0812  1.7075
   88SOPE   H5Y 8336   4.519   0.816   3.587  2.1051 -0.3722  0.5976
   88SOPE   C36 8337   4.444   0.970   3.723 -0.1946  0.7308  0.3454
   88SOPE   H6X 8338   4.355   0.903   3.730 -0.1013  0.2088 -2.5021
   88SOPE   H6Y 8339   4.407   1.060   3.670 -0.0709 -0.2857 -1.5240
   88SOPE   C37 8340   4.480   1.004   3.870 -0.3410 -0.5076 -0.4364
   88SOPE   H7X 8341   4.399   1.067   3.912 -1.7835 -0.0181 -3.6437
   88SOPE   H7Y 8342   4.575   1.062   3.867  1.1661 -2.8685 -1.6250
   88SOPE   C38 8343   4.500   0.876   3.958  0.4666  0.1186 -0.1597
   88SOPE   H8X 8344   4.579   0.817   3.908  1.1806  1.0207 -0.1291
   88SOPE   H8Y 8345   4.413   0.807   3.971  1.7485 -1.8040 -1.3081
   88SOPE   C39 8346   4.561   0.904   4.098  0.0373  0.1855  0.8237
   88SOPE   H9X 8347   4.654   0.962   4.079  0.2719 -0.9348 -1.7833
   88SOPE   H9Y 8348   4.589   0.806   4.142 -1.2592  0.3110  1.9978
   88SOPE  C310 8349   4.470   0.974   4.196 -0.6619 -0.7136 -0.2143
   88SOPE  H10X 8350   4.387   0.908   4.227 -1.1970 -0.2893 -0.7279
   88SOPE  H10Y 8351   4.435   1.066   4.144 -1.1620  0.5616  2.2378
   88SOPE  C311 8352   4.552   1.020   4.322 -0.2395  0.0763  0.7669
   88SOPE  H11X 8353   4.553   1.131   4.329  0.3935  0.0581  0.9751
   88SOPE  H11Y 8354   4.656   0.983   4.334 -0.2292 -0.1003  0.1756
   88SOPE  C312 8355   4.480   0.964   4.451  0.0162 -0.2906  0.1602
   88SOPE  H12X 8356   4.537   0.981   4.545  0.7808 -0.8203 -0.1948
   88SOPE  H12Y 8357   4.468   0.854   4.441  2.2821 -0.9119  2.8270
   88SOPE  C313 8358   4.338   1.022   4.483 -0.0388 -0.4710  0.0856
   88SOPE  H13X 8359   4.281   1.002   4.390  0.1333  1.5729 -0.5194
   88SOPE  H13Y 8360   4.338   1.132   4.503 -1.4511 -0.1750 -1.3516
   88SOPE  C314 8361   4.277   0.936   4.599 -0.3599 -0.4460  0.7129
   88SOPE  H14X 8362   4.285   0.829   4.570 -2.6025 -0.6621  0.7374
   88SOPE  H14Y 8363   4.168   0.951   4.584 -0.1355 -0.7901 -1.5417
   88SOPE  C315 8364   4.322   0.957   4.749  0.3778  0.5799  0.4172
   88SOPE  H15X 8365   4.291   1.059   4.779  1.6429  1.2569 -0.4654
   88SOPE  H15Y 8366   4.433   0.954   4.743  0.3282 -1.7399 -0.7307
   88SOPE  C316 8367   4.282   0.848   4.856 -0.1315 -1.0071  0.1721
   88SOPE  H16X 8368   4.293   0.748   4.809  2.8564 -0.0187 -1.4504
   88SOPE  H16Y 8369   4.174   0.865   4.879  0.0593 -0.4328  0.6817
   88SOPE  C317 8370   4.361   0.857   4.982 -0.2057  0.6171  0.4984
   88SOPE  H17X 8371   4.467   0.862   4.947 -0.5586 -0.3181 -0.8059
   88SOPE  H17Y 8372   4.340   0.773   5.051  2.5502 -1.2359 -0.7475
   88SOPE  C318 8373   4.331   0.980   5.059 -0.2393  0.1088  0.1228
   88SOPE  H18X 8374   4.362   0.967   5.165 -0.2419  0.9116  0.2285
   88SOPE  H18Y 8375   4.221   0.989   5.064 -0.3896 -1.0955 -0.6143
   88SOPE  H18Z 8376   4.374   1.069   5.009 -4.2270  2.4383  0.4745
   89SAPC     N 8377   5.106   2.696   7.768  0.6362  0.1490  0.3767
   89SAPC   C12 8378   5.235   2.764   7.762 -0.2758 -0.1597 -0.2129
   89SAPC  H12A 8379   5.304   2.700   7.709 -0.0098  1.6730 -2.2332
   89SAPC  H12B 8380   5.271   2.791   7.860  2.7440  1.8375 -1.7309
   89SAPC   C13 8381   5.125   2.569   7.842 -0.6919  0.4994 -0.2453
   89SAPC  H13A 8382   5.189   2.501   7.788 -1.5309 -0.7928  0.3368
   89SAPC  H13B 8383   5.167   2.587   7.939 -1.2123  1.8611 -0.2504
   89SAPC  H13C 8384   5.031   2.515   7.850 -1.4464  1.2591 -2.9674
   89SAPC   C14 8385   5.005   2.772   7.853  0.1804 -0.4682  0.3601
   89SAPC  H14A 8386   5.034   2.777   7.957 -0.8770 -0.3734  0.6560
   89SAPC  H14B 8387   5.019   2.873   7.818  0.1301 -1.7268 -3.9411
   89SAPC  H14C 8388   4.905   2.734   7.834  0.3091 -1.2716  1.2323
   89SAPC   C15 8389   5.036   2.659   7.640 -0.4254 -0.0099 -0.1567
   89SAPC  H15A 8390   4.945   2.603   7.655 -0.3776  0.0438  0.3458
   89SAPC  H15B 8391   5.014   2.751   7.587  0.2509 -0.1541 -0.7038
   89SAPC  H15C 8392   5.097   2.608   7.567  0.4282  0.7287  0.0187
   89SAPC   C11 8393   5.239   2.895   7.674 -0.6910 -0.7752 -0.0172
   89SAPC  H11A 8394   5.206   2.868   7.572  0.6661 -0.5951 -0.5291
   89SAPC  H11B 8395   5.345   2.930   7.671 -0.9625  0.3469  1.6364
   89SAPC     P 8396   5.219   3.088   7.841  0.2355  0.2585 -0.0880
   89SAPC   O13 8397   5.128   3.127   7.956 -0.0030 -0.1339 -0.4658
   89SAPC   O14 8398   5.352   3.035   7.874 -0.2202 -0.0503  0.5529
   89SAPC   O12 8399   5.154   2.989   7.734 -0.3425 -0.2859  0.0763
   89SAPC   O11 8400   5.238   3.218   7.753  0.5011 -0.2900 -0.5609
   89SAPC    C1 8401   5.135   3.251   7.661 -0.4604 -0.1191  0.4926
   89SAPC    HA 8402   5.038   3.206   7.689 -2.3479  1.3355 -3.1283
   89SAPC    HB 8403   5.113   3.358   7.676  2.0497  0.3066  1.7035
   89SAPC    C2 8404   5.168   3.212   7.516  0.9025 -0.0196 -0.0434
   89SAPC    HS 8405   5.164   3.101   7.518 -1.3772 -0.0542  3.3019
   89SAPC   O21 8406   5.283   3.288   7.472  0.0293 -0.6802  0.5181
   89SAPC   C21 8407   5.365   3.220   7.397 -0.0740  0.5750 -0.0312
   89SAPC   O22 8408   5.358   3.098   7.377  0.6318 -0.4130 -0.2676
   89SAPC   C22 8409   5.471   3.310   7.339 -0.4372  0.2283  0.8144
   89SAPC   H2R 8410   5.440   3.414   7.359  2.6616  1.4132 -0.0268
   89SAPC   H2S 8411   5.560   3.299   7.404 -1.3752  1.2539  2.3366
   89SAPC    C3 8412   5.046   3.257   7.434  0.3613 -0.2732  0.9364
   89SAPC    HX 8413   5.048   3.368   7.430 -0.3967 -0.2878 -1.2175
   89SAPC    HY 8414   4.951   3.217   7.476 -0.2120  1.1266  1.0315
   89SAPC   O31 8415   5.054   3.216   7.291 -0.5023 -0.1529 -0.8132
   89SAPC   C31 8416   5.030   3.092   7.268 -0.0604  0.5842 -0.2216
   89SAPC   O32 8417   4.994   3.006   7.349 -0.2630 -0.9640  0.2923
   89SAPC   C32 8418   5.049   3.071   7.116  0.2712  0.0908 -0.0669
   89SAPC   H2X 8419   5.143   3.123   7.088  0.3877 -0.3220 -0.4518
   89SAPC   H2Y 8420   4.962   3.110   7.060 -0.0695 -0.6351 -0.0617
   89SAPC   C23 8421   5.477   3.295   7.182 -0.1225 -0.0750 -0.6688
   89SAPC   H3R 8422   5.429   3.200   7.148 -1.8642  1.4136 -2.7137
   89SAPC   H3S 8423   5.584   3.293   7.152  0.4419  0.4326  1.2185
   89SAPC   C24 8424   5.411   3.416   7.108  0.0665  0.0498  0.3222
   89SAPC   H4R 8425   5.452   3.418   7.005  4.8133  0.2388  1.9884
   89SAPC   H4S 8426   5.447   3.515   7.142 -1.5135  0.4054  1.0504
   89SAPC   C25 8427   5.261   3.419   7.116  0.3309  0.3375  0.8938
   89SAPC   H5R 8428   5.215   3.343   7.181 -2.1235  0.5388 -0.4849
   89SAPC   C26 8429   5.191   3.494   7.033 -0.1759 -0.1602  0.5741
   89SAPC   H6R 8430   5.082   3.482   7.040  0.0220 -1.4077  1.7488
   89SAPC   C27 8431   5.240   3.594   6.919 -0.8752  0.1337 -0.3329
   89SAPC   H7R 8432   5.204   3.548   6.825  1.0629  0.4334 -1.2592
   89SAPC   H7S 8433   5.349   3.578   6.908 -1.3803 -3.7285 -1.0259
   89SAPC   C28 8434   5.190   3.738   6.941 -0.4058  0.0625  0.0138
   89SAPC   H8R 8435   5.118   3.747   7.023  2.0531 -1.2872  2.4825
   89SAPC   C29 8436   5.210   3.843   6.857 -0.6118 -0.6273 -0.2601
   89SAPC   H9R 8437   5.174   3.943   6.887  1.5121 -0.5753  2.4186
   89SAPC  C210 8438   5.304   3.840   6.739 -0.0225  0.0725 -1.0642
   89SAPC  H10R 8439   5.237   3.801   6.659 -1.1488  1.2347 -0.7157
   89SAPC  H10S 8440   5.371   3.755   6.763 -0.4657 -0.7028 -2.4293
   89SAPC  C211 8441   5.387   3.951   6.702 -0.2948 -0.5705 -0.4044
   89SAPC  H11R 8442   5.356   4.047   6.745 -1.9376 -0.7846 -1.0293
   89SAPC  C212 8443   5.470   3.962   6.595  0.2689 -0.2158  0.0609
   89SAPC  H12R 8444   5.522   4.058   6.580 -0.3006  0.0424 -0.2975
   89SAPC  C213 8445   5.507   3.848   6.510  0.9422 -0.4595  0.1900
   89SAPC  H13R 8446   5.474   3.751   6.553 -0.9810  0.2614  0.4124
   89SAPC  H13S 8447   5.618   3.844   6.505  0.8668 -2.6383 -2.0167
   89SAPC  C214 8448   5.421   3.854   6.384 -0.7660  0.5738 -0.3336
   89SAPC  H14R 8449   5.313   3.838   6.396 -0.3159 -2.6935  0.5933
   89SAPC  C215 8450   5.462   3.864   6.255  0.0601  0.4438 -0.1061
   89SAPC  H15R 8451   5.389   3.867   6.173  0.7467  0.9716 -0.7191
   89SAPC  C216 8452   5.608   3.881   6.212 -0.1774 -0.5011  0.3470
   89SAPC  H16R 8453   5.687   3.868   6.290  2.0577 -0.6283 -1.7957
   89SAPC  H16S 8454   5.625   3.977   6.159 -0.2283 -0.9702 -0.5366
   89SAPC  C217 8455   5.644   3.762   6.114  0.2920  0.3543  0.1015
   89SAPC  H17R 8456   5.607   3.783   6.011  0.0019 -0.9133 -0.0701
   89SAPC  H17S 8457   5.588   3.675   6.156 -0.4444 -0.0516 -1.6479
   89SAPC  C218 8458   5.800   3.731   6.106  0.1374  0.0109 -0.0875
   89SAPC  H18R 8459   5.838   3.745   6.210  3.2168  0.1541 -1.1207
   89SAPC  H18S 8460   5.852   3.809   6.046  1.1802  0.8060  1.7353
   89SAPC  C219 8461   5.852   3.598   6.049  0.8441 -0.6207 -0.2993
   89SAPC  H19R 8462   5.962   3.600   6.034  0.5990  0.8865 -2.2519
   89SAPC  H19S 8463   5.814   3.596   5.944 -0.1447  0.9856  0.0004
   89SAPC  C220 8464   5.801   3.480   6.129 -0.6238  1.0149 -0.4531
   89SAPC  H20R 8465   5.809   3.382   6.078  2.0222 -1.3952  3.9760
   89SAPC  H20S 8466   5.702   3.503   6.173 -0.2644 -0.7587  1.4503
   89SAPC  H20T 8467   5.879   3.472   6.209  0.7446 -1.7812 -1.9243
   89SAPC   C33 8468   5.068   2.929   7.059 -0.4292 -0.1443 -0.8579
   89SAPC   H3X 8469   4.970   2.878   7.067 -0.8954  0.3802 -2.7871
   89SAPC   H3Y 8470   5.146   2.874   7.116 -0.2244  0.1311 -0.8697
   89SAPC   C34 8471   5.110   2.928   6.909  0.0011 -0.3579 -0.3557
   89SAPC   H4X 8472   5.200   2.991   6.896 -2.6884  3.6115 -1.5749
   89SAPC   H4Y 8473   5.033   2.985   6.852 -0.3966  1.0031  1.4408
   89SAPC   C35 8474   5.128   2.789   6.856 -0.1532 -0.5899  0.2334
   89SAPC   H5X 8475   5.053   2.726   6.909  1.4349 -0.7786  2.4086
   89SAPC   H5Y 8476   5.226   2.744   6.881  0.8397  0.9272 -0.7611
   89SAPC   C36 8477   5.108   2.784   6.703 -0.4931  0.4521 -0.2988
   89SAPC   H6X 8478   5.027   2.857   6.681 -0.7303  1.3618  3.0191
   89SAPC   H6Y 8479   5.065   2.682   6.687  1.1029 -0.2943  0.0060
   89SAPC   C37 8480   5.236   2.818   6.619  0.1088  0.1576  0.2180
   89SAPC   H7X 8481   5.329   2.787   6.671 -0.8158 -0.8871  1.2994
   89SAPC   H7Y 8482   5.243   2.929   6.614 -2.5659  0.3938  0.4309
   89SAPC   C38 8483   5.240   2.741   6.483 -0.2696 -0.1779 -1.0475
   89SAPC   H8X 8484   5.203   2.637   6.491 -0.8537  0.1904  2.3828
   89SAPC   H8Y 8485   5.343   2.742   6.441 -0.2830 -2.8772 -1.2888
   89SAPC   C39 8486   5.152   2.811   6.387 -0.2324  0.3258 -0.2478
   89SAPC   H9X 8487   5.195   2.913   6.378  0.5497  0.0808  0.4891
   89SAPC   H9Y 8488   5.051   2.820   6.431 -0.3757 -0.1066 -0.4811
   89SAPC  C310 8489   5.158   2.740   6.244 -0.0031  0.9686  0.1021
   89SAPC  H10X 8490   5.098   2.647   6.251  1.6625 -0.0983  0.5647
   89SAPC  H10Y 8491   5.260   2.711   6.212 -0.8987 -0.7294 -1.4223
   89SAPC  C311 8492   5.087   2.836   6.148 -0.0644 -0.3733  0.4742
   89SAPC  H11X 8493   5.132   2.937   6.153  0.9959 -0.8036 -0.0137
   89SAPC  H11Y 8494   4.988   2.855   6.194 -0.2818  0.8009 -0.4366
   89SAPC  C312 8495   5.090   2.776   6.007 -0.1086 -0.4158 -0.2720
   89SAPC  H12X 8496   5.044   2.675   6.003  1.5325 -1.2585  0.8575
   89SAPC  H12Y 8497   5.193   2.757   5.969 -0.2625 -0.1773 -0.8244
   89SAPC  C313 8498   5.022   2.867   5.915  0.1990 -0.2421 -0.3964
   89SAPC  H13X 8499   5.070   2.967   5.926 -0.1932 -0.0443 -0.4370
   89SAPC  H13Y 8500   4.918   2.881   5.951  0.7956  2.8003  0.4908
   89SAPC  C314 8501   5.026   2.819   5.767 -1.0987  0.2809  0.2842
   89SAPC  H14X 8502   4.931   2.855   5.723 -1.2855 -0.5470 -0.0128
   89SAPC  H14Y 8503   5.034   2.709   5.752  0.4158  0.3816  0.1455
   89SAPC  C315 8504   5.151   2.866   5.688  0.2241 -0.0063 -0.2586
   89SAPC  H15X 8505   5.245   2.820   5.725  0.4731  0.9312  0.3243
   89SAPC  H15Y 8506   5.169   2.975   5.701 -0.0237 -0.1258  1.2426
   89SAPC  C316 8507   5.122   2.832   5.536 -0.9205 -0.0231 -0.2742
   89SAPC  H16X 8508   5.212   2.856   5.475 -0.2864 -0.1234  0.5836
   89SAPC  H16Y 8509   5.050   2.914   5.519 -0.1412  0.9355  0.8905
   89SAPC  C317 8510   5.067   2.695   5.510 -0.6464 -0.5212  0.2143
   89SAPC  H17X 8511   4.962   2.695   5.545 -0.8697 -0.3915 -0.4507
   89SAPC  H17Y 8512   5.116   2.615   5.569  0.0267 -0.3375 -0.0880
   89SAPC  C318 8513   5.061   2.650   5.358  0.2262 -0.3164  0.0298
   89SAPC  H18X 8514   5.013   2.734   5.303 -0.0065 -1.4222 -1.5237
   89SAPC  H18Y 8515   5.002   2.557   5.347  1.5772 -1.3538  1.2103
   89SAPC  H18Z 8516   5.156   2.628   5.306  1.4320 -1.1704  2.4416
   90SAPC     N 8517   2.939   0.868   7.526  0.1134 -0.8683 -1.1479
   90SAPC   C12 8518   3.020   0.921   7.647 -0.2326 -0.1397 -0.3223
   90SAPC  H12A 8519   3.004   0.840   7.717  1.4667  0.3820  0.7351
   90SAPC  H12B 8520   2.982   1.017   7.676  3.3881  1.5326 -0.5924
   90SAPC   C13 8521   2.793   0.874   7.552 -0.6904  0.2498  0.3358
   90SAPC  H13A 8522   2.746   0.954   7.608 -0.1135 -2.1913  4.7924
   90SAPC  H13B 8523   2.727   0.878   7.466 -0.6947  2.0475  0.3690
   90SAPC  H13C 8524   2.767   0.780   7.598 -1.4918  0.4846  0.3814
   90SAPC   C14 8525   2.968   0.959   7.407  0.0134 -0.1587  0.7463
   90SAPC  H14A 8526   2.918   0.925   7.317  1.4071  2.4360 -1.1450
   90SAPC  H14B 8527   2.935   1.059   7.432 -0.9985 -0.5504  1.0182
   90SAPC  H14C 8528   3.072   0.979   7.388  0.0071  0.2405  1.1008
   90SAPC   C15 8529   2.989   0.732   7.498  0.5210  0.4174  0.3922
   90SAPC  H15A 8530   3.097   0.733   7.493  0.7030 -0.6808  2.8594
   90SAPC  H15B 8531   2.964   0.654   7.569  1.8872  0.9264  1.4752
   90SAPC  H15C 8532   2.951   0.704   7.400  0.7395  2.0542 -0.1882
   90SAPC   C11 8533   3.170   0.942   7.634  0.3268 -0.6393  0.2285
   90SAPC  H11A 8534   3.210   0.955   7.737 -1.1556 -1.9328  1.0258
   90SAPC  H11B 8535   3.187   1.036   7.578  1.0105  0.0837  1.5909
   90SAPC     P 8536   3.316   0.729   7.649  0.1815  0.0242  0.0145
   90SAPC   O13 8537   3.447   0.778   7.698  0.5564  0.4575 -0.1069
   90SAPC   O14 8538   3.217   0.677   7.751 -0.3888  0.1033 -0.4814
   90SAPC   O12 8539   3.247   0.847   7.565 -0.4108  0.5361  1.0474
   90SAPC   O11 8540   3.337   0.616   7.540 -0.1193 -0.3121 -0.2490
   90SAPC    C1 8541   3.443   0.626   7.443 -0.4739  0.1799  0.7236
   90SAPC    HA 8542   3.495   0.723   7.425  1.6552 -1.4131 -2.6713
   90SAPC    HB 8543   3.525   0.554   7.464 -0.4970 -0.7435 -1.9253
   90SAPC    C2 8544   3.386   0.581   7.304 -0.4095 -0.0406  0.2522
   90SAPC    HS 8545   3.404   0.472   7.292 -0.3796 -0.1199  0.9559
   90SAPC   O21 8546   3.456   0.642   7.186 -0.4177 -0.0566 -0.3685
   90SAPC   C21 8547   3.588   0.610   7.179 -1.0472 -0.9354  0.7167
   90SAPC   O22 8548   3.647   0.536   7.257  0.0798  0.3365 -0.3319
   90SAPC   C22 8549   3.652   0.686   7.066 -0.0025  0.2384  0.2862
   90SAPC   H2R 8550   3.588   0.772   7.036  1.0594  0.5983 -1.0516
   90SAPC   H2S 8551   3.750   0.730   7.097 -0.4177  1.1302  0.3720
   90SAPC    C3 8552   3.238   0.634   7.285  0.3362  0.3055  0.3280
   90SAPC    HX 8553   3.240   0.742   7.311 -0.5302 -0.0872  2.2057
   90SAPC    HY 8554   3.181   0.579   7.364  0.8375  0.5672  0.8819
   90SAPC   O31 8555   3.187   0.609   7.156 -0.1505 -0.3340 -0.1641
   90SAPC   C31 8556   3.121   0.494   7.134  0.1890 -0.4237  1.1537
   90SAPC   O32 8557   3.100   0.408   7.216  0.2773  0.0667  0.2749
   90SAPC   C32 8558   3.069   0.492   6.989 -0.7454  0.4406  0.4059
   90SAPC   H2X 8559   3.138   0.551   6.925 -0.5852 -1.6462 -1.4576
   90SAPC   H2Y 8560   2.966   0.533   6.980 -1.7339 -1.4263  2.4101
   90SAPC   C23 8561   3.671   0.596   6.941 -0.3632  0.0227  0.2875
   90SAPC   H3R 8562   3.728   0.507   6.974  1.0453  0.5910 -0.5364
   90SAPC   H3S 8563   3.737   0.634   6.861 -1.7738  0.6797 -0.6050
   90SAPC   C24 8564   3.543   0.549   6.877 -0.1664  0.1583 -0.8065
   90SAPC   H4R 8565   3.472   0.509   6.952  2.0081 -3.2101 -0.3702
   90SAPC   H4S 8566   3.568   0.469   6.804  0.5919  0.3776 -0.7970
   90SAPC   C25 8567   3.479   0.659   6.806 -0.4204  0.0765 -0.3976
   90SAPC   H5R 8568   3.463   0.754   6.860  1.4876  0.4939 -0.4878
   90SAPC   C26 8569   3.440   0.674   6.681 -0.4934 -0.0602  0.9021
   90SAPC   H6R 8570   3.406   0.766   6.631  2.6904  0.6103 -0.2845
   90SAPC   C27 8571   3.449   0.558   6.582 -0.0103 -0.5942  0.1600
   90SAPC   H7R 8572   3.532   0.488   6.606  0.5420 -0.9590 -2.5673
   90SAPC   H7S 8573   3.473   0.597   6.481  3.3599 -0.7611  0.7725
   90SAPC   C28 8574   3.315   0.484   6.586 -0.3076  1.3291  0.7482
   90SAPC   H8R 8575   3.285   0.454   6.687 -0.3168 -0.8520  0.1423
   90SAPC   C29 8576   3.235   0.452   6.480  0.1066  0.4957 -1.2732
   90SAPC   H9R 8577   3.137   0.404   6.496  0.0160  0.7205 -1.1529
   90SAPC  C210 8578   3.256   0.473   6.330 -0.5999  0.4147  0.0536
   90SAPC  H10R 8579   3.288   0.375   6.290  1.0743  0.5312  1.0302
   90SAPC  H10S 8580   3.349   0.531   6.316 -0.1048 -0.0741  1.1981
   90SAPC  C211 8581   3.136   0.524   6.254 -0.9759  1.0917  0.0395
   90SAPC  H11R 8582   3.042   0.530   6.312  0.1185  0.5732  1.9487
   90SAPC  C212 8583   3.135   0.557   6.126  0.7433 -0.6598  0.4081
   90SAPC  H12R 8584   3.035   0.587   6.089  0.8092  2.2708  2.2881
   90SAPC  C213 8585   3.246   0.549   6.027 -0.3583  0.1782  0.0696
   90SAPC  H13R 8586   3.341   0.549   6.084  0.2330 -1.3464 -0.8645
   90SAPC  H13S 8587   3.247   0.645   5.972  0.7763  0.5965  0.7757
   90SAPC  C214 8588   3.241   0.421   5.952 -0.0016 -0.7589 -0.3847
   90SAPC  H14R 8589   3.176   0.343   5.996 -1.4772  1.1234  0.9068
   90SAPC  C215 8590   3.308   0.392   5.842  0.5918  0.5504  0.4046
   90SAPC  H15R 8591   3.280   0.299   5.790  1.1921 -0.7617  2.3231
   90SAPC  C216 8592   3.403   0.488   5.761 -0.5694  0.4875 -0.5593
   90SAPC  H16R 8593   3.502   0.440   5.742  0.1503  0.9569  1.6259
   90SAPC  H16S 8594   3.426   0.575   5.826 -1.1283 -0.7141  1.3250
   90SAPC  C217 8595   3.328   0.538   5.638  0.0089  0.3544  0.4690
   90SAPC  H17R 8596   3.225   0.571   5.661 -0.4278  0.2124 -1.1487
   90SAPC  H17S 8597   3.302   0.453   5.571  3.1113 -1.5252  1.4452
   90SAPC  C218 8598   3.401   0.659   5.571 -0.8429  0.7724  1.0172
   90SAPC  H18R 8599   3.503   0.628   5.540 -1.5743 -0.8876  0.1576
   90SAPC  H18S 8600   3.405   0.732   5.654  1.1823  0.9390  0.8294
   90SAPC  C219 8601   3.324   0.718   5.447  0.4194  0.2589 -0.6427
   90SAPC  H19R 8602   3.318   0.646   5.363  1.0113  1.4063 -1.6935
   90SAPC  H19S 8603   3.396   0.789   5.402  2.2451 -2.5300 -2.4458
   90SAPC  C220 8604   3.180   0.767   5.468  0.0662  0.6769  0.1971
   90SAPC  H20R 8605   3.122   0.683   5.512 -2.1818  1.1220 -1.6760
   90SAPC  H20S 8606   3.130   0.790   5.371  1.6132  1.5873 -0.4100
   90SAPC  H20T 8607   3.182   0.859   5.532  0.2287 -0.0736  1.2997
   90SAPC   C33 8608   3.043   0.349   6.940  0.1559 -0.3557 -0.3064
   90SAPC   H3X 8609   2.975   0.290   7.005 -1.7202  1.3918 -0.5653
   90SAPC   H3Y 8610   3.140   0.297   6.923  0.5377 -0.4907  1.9843
   90SAPC   C34 8611   2.973   0.346   6.803 -0.6938  0.5366  0.2225
   90SAPC   H4X 8612   3.035   0.415   6.742 -1.0494  1.6734  1.1128
   90SAPC   H4Y 8613   2.876   0.400   6.811 -0.5922  0.7671 -0.0975
   90SAPC   C35 8614   2.958   0.208   6.740 -0.4835 -0.7601 -0.2883
   90SAPC   H5X 8615   2.901   0.142   6.808  1.6983 -2.1222  0.3234
   90SAPC   H5Y 8616   3.061   0.167   6.734 -0.9218 -1.7299 -2.0887
   90SAPC   C36 8617   2.905   0.222   6.593  0.4116 -0.8996 -0.4412
   90SAPC   H6X 8618   2.981   0.279   6.535  1.0708 -0.7336  0.5619
   90SAPC   H6Y 8619   2.815   0.282   6.618  0.9688  0.9124 -2.4491
   90SAPC   C37 8620   2.873   0.101   6.520 -0.2293  0.3150  0.5601
   90SAPC   H7X 8621   2.818   0.029   6.584 -0.7696  0.3210  0.1122
   90SAPC   H7Y 8622   2.962   0.045   6.483  0.5947  2.4330 -0.8105
   90SAPC   C38 8623   2.804   0.125   6.391  0.4948  0.0053 -0.6783
   90SAPC   H8X 8624   2.713   0.181   6.418  1.4210  2.5170 -2.4083
   90SAPC   H8Y 8625   2.778   0.032   6.335  0.2393 -0.1749 -0.2637
   90SAPC   C39 8626   2.891   0.211   6.291 -0.3247  0.2885 -0.2809
   90SAPC   H9X 8627   2.993   0.168   6.285 -1.2569 -1.8446 -2.8688
   90SAPC   H9Y 8628   2.897   0.316   6.326  2.2409 -0.5617  2.2633
   90SAPC  C310 8629   2.819   0.208   6.154  0.1447  0.1710 -0.1259
   90SAPC  H10X 8630   2.719   0.252   6.178 -1.2357 -1.3286 -2.6856
   90SAPC  H10Y 8631   2.807   0.107   6.109  0.5919 -0.4990  1.1976
   90SAPC  C311 8632   2.890   0.291   6.054  0.1059  0.9545  0.1177
   90SAPC  H11X 8633   2.994   0.252   6.042 -0.6556 -1.6126  1.0754
   90SAPC  H11Y 8634   2.897   0.394   6.093  0.1883  1.2516 -0.6730
   90SAPC  C312 8635   2.820   0.298   5.913 -1.1890 -0.2967 -0.2504
   90SAPC  H12X 8636   2.714   0.328   5.928 -0.4787  1.9519  0.7859
   90SAPC  H12Y 8637   2.827   0.192   5.881  2.4135 -0.2015 -0.2253
   90SAPC  C313 8638   2.894   0.389   5.814  0.8035 -0.2526  0.6629
   90SAPC  H13X 8639   3.003   0.375   5.832  0.7643 -1.2919  0.1310
   90SAPC  H13Y 8640   2.868   0.496   5.832  1.7036  0.6142 -2.5677
   90SAPC  C314 8641   2.858   0.354   5.671 -0.7101 -0.5840 -0.2447
   90SAPC  H14X 8642   2.749   0.339   5.661 -0.6540 -2.5140  1.4085
   90SAPC  H14Y 8643   2.907   0.255   5.656 -0.3189 -0.4225 -0.0552
   90SAPC  C315 8644   2.914   0.469   5.585 -0.9975 -0.0451 -0.1188
   90SAPC  H15X 8645   3.022   0.483   5.606 -1.2660 -0.3464  1.6445
   90SAPC  H15Y 8646   2.873   0.571   5.604  1.7662  0.7913  1.8991
   90SAPC  C316 8647   2.907   0.451   5.430  1.1727  0.1253 -0.1087
   90SAPC  H16X 8648   2.937   0.541   5.373 -1.2608  1.8248  1.1197
   90SAPC  H16Y 8649   2.799   0.440   5.405  1.3697 -1.2362 -0.4447
   90SAPC  C317 8650   2.985   0.325   5.390 -0.4828  0.2712 -0.6123
   90SAPC  H17X 8651   2.920   0.238   5.419 -0.6765  0.2718 -1.0351
   90SAPC  H17Y 8652   3.083   0.332   5.441 -1.4728 -0.1123  1.4818
   90SAPC  C318 8653   3.019   0.316   5.244 -0.1246 -0.5038  0.4141
   90SAPC  H18X 8654   3.113   0.374   5.232 -0.8724  0.7391  0.3805
   90SAPC  H18Y 8655   2.942   0.359   5.176  0.0262 -0.2827  0.3825
   90SAPC  H18Z 8656   3.034   0.212   5.210 -2.1058 -0.7292  0.1495
   91SAPC     N 8657   0.057   1.710   8.122 -0.2492 -0.1143 -0.0802
   91SAPC   C12 8658  -0.033   1.745   8.003  0.5927  0.1451 -0.2754
   91SAPC  H12A 8659  -0.126   1.793   8.031  0.2689  0.6528 -2.1058
   91SAPC  H12B 8660  -0.066   1.649   7.967 -0.4223  0.5067 -0.3517
   91SAPC   C13 8661   0.163   1.625   8.063 -0.9194  0.1140  0.3916
   91SAPC  H13A 8662   0.241   1.596   8.132 -0.8595 -1.4908 -0.3213
   91SAPC  H13B 8663   0.137   1.543   7.998  0.9127 -1.6216  1.7263
   91SAPC  H13C 8664   0.211   1.697   7.999 -1.7188  1.0780  0.8466
   91SAPC   C14 8665   0.098   1.838   8.189  0.1839 -0.0027 -0.1754
   91SAPC  H14A 8666   0.182   1.821   8.255  0.7905  1.6392 -0.4547
   91SAPC  H14B 8667   0.140   1.908   8.119  0.1274  0.0206 -0.1865
   91SAPC  H14C 8668   0.016   1.900   8.223 -1.3391 -0.7933 -2.2322
   91SAPC   C15 8669  -0.019   1.610   8.214 -0.7932  0.2669 -0.0047
   91SAPC  H15A 8670  -0.106   1.657   8.257 -1.3924 -0.6107 -0.2246
   91SAPC  H15B 8671  -0.052   1.518   8.168 -1.7059  1.1491 -1.1838
   91SAPC  H15C 8672   0.041   1.581   8.299  1.0438 -1.2552 -1.7218
   91SAPC   C11 8673   0.034   1.810   7.871  0.5512  0.8216 -0.0007
   91SAPC  H11A 8674   0.094   1.896   7.909  0.8883  0.3109  0.6547
   91SAPC  H11B 8675  -0.048   1.851   7.809 -0.1441  0.5415  0.7053
   91SAPC     P 8676   0.052   1.590   7.707  0.3743 -0.3426 -0.5854
   91SAPC   O13 8677   0.078   1.466   7.784  0.5947  0.0613  0.6201
   91SAPC   O14 8678  -0.090   1.620   7.680 -0.6885 -0.3732  0.5310
   91SAPC   O12 8679   0.114   1.721   7.792 -0.3929 -0.1283  0.3946
   91SAPC   O11 8680   0.125   1.583   7.567 -0.8141 -0.0618  0.0868
   91SAPC    C1 8681   0.198   1.693   7.524  0.0591  0.0736  0.4063
   91SAPC    HA 8682   0.169   1.794   7.560 -2.4015 -0.0774 -0.9330
   91SAPC    HB 8683   0.304   1.683   7.555  1.2861  0.7231 -3.0897
   91SAPC    C2 8684   0.175   1.729   7.373 -0.0966  0.7031 -0.4069
   91SAPC    HS 8685   0.076   1.779   7.367 -0.0906  1.5191  3.3953
   91SAPC   O21 8686   0.173   1.610   7.295 -0.1950 -0.1608 -0.2572
   91SAPC   C21 8687   0.126   1.615   7.173  0.3339  0.0916  0.1030
   91SAPC   O22 8688   0.053   1.698   7.118  0.4531 -0.4354 -0.3470
   91SAPC   C22 8689   0.166   1.492   7.105 -0.4335 -0.0914  0.4985
   91SAPC   H2R 8690   0.251   1.434   7.147 -0.1724 -1.1226 -1.3479
   91SAPC   H2S 8691   0.082   1.420   7.103 -0.2204 -0.3190 -0.5608
   91SAPC    C3 8692   0.277   1.836   7.329  0.2540  0.7308  0.1618
   91SAPC    HX 8693   0.371   1.778   7.317  0.1326  0.1717  1.7507
   91SAPC    HY 8694   0.295   1.913   7.407  1.3483  1.8689 -1.1572
   91SAPC   O31 8695   0.236   1.890   7.196 -0.4635 -0.0852 -0.5991
   91SAPC   C31 8696   0.152   1.990   7.202 -0.6332 -0.4001 -0.0517
   91SAPC   O32 8697   0.098   2.036   7.301  0.0619  0.2957  0.4316
   91SAPC   C32 8698   0.110   2.037   7.070 -0.0966 -0.7192  0.0239
   91SAPC   H2X 8699   0.017   2.092   7.094 -1.3405 -1.3770 -2.9188
   91SAPC   H2Y 8700   0.088   1.957   6.997 -1.5443  1.2952 -1.8682
   91SAPC   C23 8701   0.210   1.502   6.951  0.2982  0.0619 -0.1325
   91SAPC   H3R 8702   0.299   1.565   6.930  1.7863 -2.2103 -1.1054
   91SAPC   H3S 8703   0.129   1.542   6.886 -0.5207 -0.6739  0.4146
   91SAPC   C24 8704   0.242   1.360   6.892  0.1162 -0.3917  0.3355
   91SAPC   H4R 8705   0.323   1.309   6.948 -0.6619 -0.9461  0.9684
   91SAPC   H4S 8706   0.292   1.374   6.793  0.1167  0.4093  0.4425
   91SAPC   C25 8707   0.120   1.273   6.866 -0.5637  0.8927  0.2776
   91SAPC   H5R 8708   0.089   1.201   6.944  0.0389 -0.2834 -0.5257
   91SAPC   C26 8709   0.051   1.262   6.752 -0.4682 -0.4101  0.0530
   91SAPC   H6R 8710  -0.015   1.174   6.761  1.1023 -1.4615  2.4464
   91SAPC   C27 8711   0.078   1.327   6.619  0.2834  0.1939 -0.5444
   91SAPC   H7R 8712   0.153   1.409   6.626  0.8063 -0.3160 -0.1390
   91SAPC   H7S 8713  -0.022   1.365   6.588 -0.9160 -3.0098 -0.9146
   91SAPC   C28 8714   0.137   1.228   6.524 -0.9191 -0.2858 -0.5922
   91SAPC   H8R 8715   0.234   1.186   6.555 -0.1507 -0.0186 -2.4883
   91SAPC   C29 8716   0.091   1.206   6.403  1.0029  0.4733 -0.4104
   91SAPC   H9R 8717   0.147   1.144   6.331 -0.4046 -1.5409  0.1389
   91SAPC  C210 8718  -0.034   1.269   6.346  0.4752 -0.2745  0.1172
   91SAPC  H10R 8719  -0.057   1.369   6.390  1.5872  0.0386 -0.0014
   91SAPC  H10S 8720  -0.116   1.206   6.388  1.3568 -1.4675  0.0939
   91SAPC  C211 8721  -0.043   1.295   6.198  0.6087  0.4063  0.1048
   91SAPC  H11R 8722   0.035   1.360   6.154 -1.2327  3.2838  0.8325
   91SAPC  C212 8723  -0.130   1.245   6.109  0.8111 -0.4481  0.0481
   91SAPC  H12R 8724  -0.119   1.280   6.005 -0.3390  0.6804  0.2949
   91SAPC  C213 8725  -0.252   1.144   6.134 -0.0776  0.2481  0.2511
   91SAPC  H13R 8726  -0.213   1.069   6.205  1.4524 -0.2169 -1.0181
   91SAPC  H13S 8727  -0.278   1.088   6.041  0.9974 -2.3564  1.4257
   91SAPC  C214 8728  -0.383   1.195   6.194 -0.6232  0.4685 -0.0931
   91SAPC  H14R 8729  -0.373   1.204   6.303 -1.0470  2.0922 -0.1519
   91SAPC  C215 8730  -0.499   1.212   6.136  1.2715 -0.5651  0.2601
   91SAPC  H15R 8731  -0.585   1.259   6.187  0.9185 -1.4044  0.4684
   91SAPC  C216 8732  -0.524   1.190   5.990  0.6483  0.2805  0.1737
   91SAPC  H16R 8733  -0.429   1.176   5.933 -0.3226 -4.2009 -0.7259
   91SAPC  H16S 8734  -0.570   1.279   5.941  1.8359 -0.0843 -1.7107
   91SAPC  C217 8735  -0.611   1.061   5.970  0.5169  0.2218  0.0660
   91SAPC  H17R 8736  -0.687   1.069   6.050  1.9024 -0.8633  1.5482
   91SAPC  H17S 8737  -0.549   0.974   6.002 -2.0914 -1.7427  0.0301
   91SAPC  C218 8738  -0.684   1.042   5.830 -0.7141  0.2665 -0.0223
   91SAPC  H18R 8739  -0.740   1.134   5.802 -2.3103 -0.7437 -0.2848
   91SAPC  H18S 8740  -0.764   0.966   5.846 -2.1071  2.0792  2.2512
   91SAPC  C219 8741  -0.587   1.000   5.721 -0.7677  0.2134  0.0325
   91SAPC  H19R 8742  -0.542   0.900   5.741 -4.2230 -1.2273  1.4838
   91SAPC  H19S 8743  -0.505   1.075   5.716 -1.2205  0.6875 -0.3947
   91SAPC  C220 8744  -0.650   0.987   5.581  0.2825 -1.1611  0.1433
   91SAPC  H20R 8745  -0.569   0.976   5.505  0.6147 -1.6733  0.5750
   91SAPC  H20S 8746  -0.701   1.079   5.545 -3.3536 -2.6434  1.1270
   91SAPC  H20T 8747  -0.729   0.910   5.587 -0.4746 -0.3335  1.0825
   91SAPC   C33 8748   0.217   2.122   7.000 -0.7352 -0.2216  0.3195
   91SAPC   H3X 8749   0.310   2.062   6.997 -0.8323 -0.3385 -0.5279
   91SAPC   H3Y 8750   0.251   2.201   7.071  1.0542  0.4035 -1.1521
   91SAPC   C34 8751   0.174   2.166   6.859 -0.2003  0.1260 -0.5774
   91SAPC   H4X 8752   0.233   2.259   6.850  0.0127  0.4171  2.7663
   91SAPC   H4Y 8753   0.067   2.196   6.857  0.5053  2.9687 -0.0727
   91SAPC   C35 8754   0.210   2.069   6.747  0.2813 -0.5864 -0.5199
   91SAPC   H5X 8755   0.131   1.991   6.751 -1.4944  1.1515 -0.0941
   91SAPC   H5Y 8756   0.310   2.028   6.774 -0.3551 -1.1615  1.1384
   91SAPC   C36 8757   0.196   2.126   6.604  0.6012 -0.3981  0.3120
   91SAPC   H6X 8758   0.279   2.199   6.595 -0.8905  1.3168 -0.0677
   91SAPC   H6Y 8759   0.097   2.173   6.582  1.3313  0.3605 -1.6250
   91SAPC   C37 8760   0.223   2.022   6.493 -0.0057 -0.3709  0.4202
   91SAPC   H7X 8761   0.174   1.925   6.518  1.9605 -1.2827  0.9224
   91SAPC   H7Y 8762   0.330   1.992   6.497 -0.2884 -1.4928 -0.0554
   91SAPC   C38 8763   0.183   2.076   6.360  0.1644  0.1185 -0.1926
   91SAPC   H8X 8764   0.234   2.175   6.354  1.1342 -0.3766 -0.4178
   91SAPC   H8Y 8765   0.074   2.087   6.343  0.1870 -1.9233 -2.2679
   91SAPC   C39 8766   0.232   1.983   6.250  0.5508 -0.3333 -0.1960
   91SAPC   H9X 8767   0.199   1.880   6.276  0.9037 -0.4932 -0.3824
   91SAPC   H9Y 8768   0.342   1.980   6.261  0.4560 -3.0207  0.9488
   91SAPC  C310 8769   0.184   2.018   6.110  0.0747 -0.2700 -0.1184
   91SAPC  H10X 8770   0.200   2.125   6.086 -1.1247 -0.7603 -3.7579
   91SAPC  H10Y 8771   0.078   1.986   6.100 -0.8593  2.3366  0.7750
   91SAPC  C311 8772   0.263   1.940   6.008 -0.2115  0.4200 -0.0582
   91SAPC  H11X 8773   0.240   1.832   6.021 -1.2083  0.2983 -2.3429
   91SAPC  H11Y 8774   0.373   1.948   6.022  0.1249  0.5318 -2.4033
   91SAPC  C312 8775   0.253   1.994   5.864  0.0923 -0.3113 -0.1940
   91SAPC  H12X 8776   0.292   2.098   5.863  0.6476 -0.4912  1.1385
   91SAPC  H12Y 8777   0.145   1.994   5.837  0.2602  0.2135 -0.8641
   91SAPC  C313 8778   0.330   1.906   5.763 -0.4111  0.1061 -0.0467
   91SAPC  H13X 8779   0.277   1.808   5.751  1.1256 -0.9040  1.0406
   91SAPC  H13Y 8780   0.430   1.876   5.801 -0.5931 -0.3499  0.0768
   91SAPC  C314 8781   0.363   1.970   5.632  0.5510  0.0292 -0.1345
   91SAPC  H14X 8782   0.406   1.892   5.568 -0.7104 -1.3537  0.6306
   91SAPC  H14Y 8783   0.442   2.047   5.639 -0.2768  1.3085 -3.3329
   91SAPC  C315 8784   0.236   2.029   5.567  0.5998  0.4736 -0.5220
   91SAPC  H15X 8785   0.258   2.069   5.466 -0.5730 -1.3472 -1.5785
   91SAPC  H15Y 8786   0.209   2.111   5.636  2.2427 -0.6124  1.5366
   91SAPC  C316 8787   0.113   1.930   5.534 -0.6387 -0.0116  0.0274
   91SAPC  H16X 8788   0.058   1.901   5.626 -2.2321 -1.1905 -1.2353
   91SAPC  H16Y 8789   0.162   1.844   5.483  0.5273  1.7501 -2.0090
   91SAPC  C317 8790   0.012   1.996   5.443 -0.1874  0.3944 -0.4428
   91SAPC  H17X 8791   0.071   2.048   5.364 -0.6240 -0.4238 -1.3357
   91SAPC  H17Y 8792  -0.046   2.070   5.503  0.1993 -1.1799  2.0100
   91SAPC  C318 8793  -0.086   1.890   5.394 -0.1783 -0.2263  0.0223
   91SAPC  H18X 8794  -0.158   1.929   5.318  0.5291 -0.3467 -0.7236
   91SAPC  H18Y 8795  -0.133   1.839   5.481  0.7788 -2.6835 -0.7992
   91SAPC  H18Z 8796  -0.033   1.810   5.338 -1.1645  0.7705 -2.4990
   92SAPC     N 8797   0.361   4.411   7.612  0.0367 -0.2321 -0.1292
   92SAPC   C12 8798   0.286   4.487   7.501  0.3516 -0.4238 -0.1151
   92SAPC  H12A 8799   0.294   4.589   7.535  1.5862 -0.2764 -0.8127
   92SAPC  H12B 8800   0.180   4.467   7.506  0.4965 -0.9480  1.3584
   92SAPC   C13 8801   0.501   4.461   7.617 -0.3374  0.1095 -0.0789
   92SAPC  H13A 8802   0.514   4.567   7.601  1.3046  0.2861  2.0766
   92SAPC  H13B 8803   0.546   4.438   7.712 -2.2651 -0.9317  0.6421
   92SAPC  H13C 8804   0.563   4.411   7.545  0.1425 -1.4318  1.3511
   92SAPC   C14 8805   0.292   4.436   7.746  0.6359 -0.2289  0.6701
   92SAPC  H14A 8806   0.352   4.392   7.825  0.1121 -0.5586  0.8874
   92SAPC  H14B 8807   0.294   4.541   7.771  0.5601 -0.1248  0.2416
   92SAPC  H14C 8808   0.195   4.388   7.744  0.9511 -1.0488 -3.2182
   92SAPC   C15 8809   0.365   4.267   7.576 -0.0163  0.8968 -0.0843
   92SAPC  H15A 8810   0.272   4.214   7.566  2.5373 -3.8967 -1.5873
   92SAPC  H15B 8811   0.404   4.241   7.478 -1.5591  0.3181 -0.5651
   92SAPC  H15C 8812   0.427   4.218   7.649  0.5240 -0.2278 -1.2523
   92SAPC   C11 8813   0.330   4.464   7.358  0.1262 -0.2914 -0.4490
   92SAPC  H11A 8814   0.252   4.503   7.290 -0.8735 -2.3709 -0.5778
   92SAPC  H11B 8815   0.334   4.357   7.326 -0.5075 -0.4442 -0.0433
   92SAPC     P 8816   0.462   4.675   7.306 -0.3191  0.5690  0.1239
   92SAPC   O13 8817   0.335   4.740   7.346 -0.7581  0.1671  0.3047
   92SAPC   O14 8818   0.589   4.730   7.363 -0.0858 -0.1030 -0.2441
   92SAPC   O12 8819   0.457   4.512   7.322  0.0957 -0.5586  0.1904
   92SAPC   O11 8820   0.469   4.675   7.154 -0.0346  0.2888  0.4869
   92SAPC    C1 8821   0.525   4.568   7.073 -0.6434 -0.3167  0.0078
   92SAPC    HA 8822   0.484   4.468   7.100 -2.1419  0.0206 -0.8717
   92SAPC    HB 8823   0.487   4.583   6.970 -0.4405  0.8231  0.0945
   92SAPC    C2 8824   0.682   4.574   7.060 -0.0019  0.0718 -1.4904
   92SAPC    HS 8825   0.733   4.571   7.158 -0.9146 -1.6756 -1.0201
   92SAPC   O21 8826   0.729   4.689   6.993 -0.1224  0.0281  0.4522
   92SAPC   C21 8827   0.857   4.726   6.988  0.1268 -0.8846 -0.3880
   92SAPC   O22 8828   0.948   4.676   7.053  0.2857 -0.2197  0.7691
   92SAPC   C22 8829   0.873   4.850   6.893 -0.0651  0.1488 -0.1073
   92SAPC   H2R 8830   0.905   4.825   6.790  2.4606  1.6463  0.2369
   92SAPC   H2S 8831   0.778   4.905   6.877  0.3315  0.6343 -0.8498
   92SAPC    C3 8832   0.731   4.443   6.991 -0.3353  0.2620  0.8437
   92SAPC    HX 8833   0.708   4.355   7.055  0.3306 -1.7952 -1.6043
   92SAPC    HY 8834   0.842   4.441   6.985 -0.3745  0.2775 -0.0087
   92SAPC   O31 8835   0.674   4.435   6.863  0.4179 -0.2393  0.0313
   92SAPC   C31 8836   0.748   4.486   6.759 -0.2050 -0.2212  0.1362
   92SAPC   O32 8837   0.852   4.546   6.770  0.8638 -0.4283 -0.1861
   92SAPC   C32 8838   0.688   4.453   6.621 -0.0877  0.1489 -0.7368
   92SAPC   H2X 8839   0.578   4.441   6.638  0.4678 -1.8093  2.3427
   92SAPC   H2Y 8840   0.731   4.355   6.591  1.2889  0.6234 -0.3639
   92SAPC   C23 8841   0.982   4.947   6.938  0.8763  0.1914  0.5188
   92SAPC   H3R 8842   1.083   4.904   6.922  1.1118  1.1519 -0.6288
   92SAPC   H3S 8843   0.966   4.974   7.045 -3.2222 -0.2049  0.1626
   92SAPC   C24 8844   0.980   5.080   6.867 -0.5270 -0.3016 -0.2256
   92SAPC   H4R 8845   1.007   5.053   6.762  0.9652 -0.5848  0.2055
   92SAPC   H4S 8846   1.054   5.154   6.906 -0.9034  0.7945 -1.4929
   92SAPC   C25 8847   0.857   5.162   6.885 -0.0960 -0.5509  0.2299
   92SAPC   H5R 8848   0.820   5.173   6.988 -3.1777 -0.5515 -0.7850
   92SAPC   C26 8849   0.792   5.233   6.791  0.3699  0.2843  0.7957
   92SAPC   H6R 8850   0.697   5.289   6.795 -0.6616 -0.6324 -4.2686
   92SAPC   C27 8851   0.829   5.233   6.645 -0.2270  0.4002  0.0348
   92SAPC   H7R 8852   0.939   5.245   6.649  0.0945 -2.2556  1.8198
   92SAPC   H7S 8853   0.805   5.332   6.599  0.1304  0.4151 -0.1229
   92SAPC   C28 8854   0.787   5.117   6.552 -0.5195 -0.1394 -0.5935
   92SAPC   H8R 8855   0.726   5.039   6.600  1.2453 -0.5470  1.1474
   92SAPC   C29 8856   0.805   5.110   6.424  0.4582 -0.1024  0.0522
   92SAPC   H9R 8857   0.758   5.027   6.369  1.2090 -1.7419  1.7681
   92SAPC  C210 8858   0.899   5.201   6.347  0.4253 -0.0825 -0.2310
   92SAPC  H10R 8859   1.000   5.188   6.391 -0.0731 -1.2069  0.5974
   92SAPC  H10S 8860   0.877   5.308   6.368  1.1788  0.3894 -1.6722
   92SAPC  C211 8861   0.912   5.169   6.199  0.7552 -0.7678  0.1585
   92SAPC  H11R 8862   0.983   5.087   6.183  1.8964  0.4694 -1.5768
   92SAPC  C212 8863   0.851   5.238   6.095  0.2147  0.0999 -0.4528
   92SAPC  H12R 8864   0.867   5.198   5.994 -1.1567 -2.0547  0.1073
   92SAPC  C213 8865   0.762   5.359   6.097  0.2152 -0.3101 -0.2094
   92SAPC  H13R 8866   0.818   5.448   6.063  0.9695  0.6721  3.2172
   92SAPC  H13S 8867   0.744   5.398   6.199  3.6018  2.3551 -0.4578
   92SAPC  C214 8868   0.636   5.334   6.023  0.1826 -0.0983 -0.7315
   92SAPC  H14R 8869   0.550   5.304   6.084 -0.0664  0.8512 -0.5947
   92SAPC  C215 8870   0.623   5.339   5.887  0.3953 -0.0904  0.2362
   92SAPC  H15R 8871   0.529   5.306   5.841  1.7595 -2.6160 -0.9641
   92SAPC  C216 8872   0.735   5.378   5.791 -0.1650  0.4892 -0.2891
   92SAPC  H16R 8873   0.831   5.401   5.841  0.5536  1.2823 -1.9712
   92SAPC  H16S 8874   0.698   5.455   5.720 -1.1330 -0.2976 -0.6732
   92SAPC  C217 8875   0.785   5.266   5.694  0.4847  0.1893 -0.7490
   92SAPC  H17R 8876   0.819   5.177   5.752 -0.3338  0.7481  0.6389
   92SAPC  H17S 8877   0.871   5.307   5.637  1.1743  0.2769  0.3043
   92SAPC  C218 8878   0.685   5.234   5.586  0.8276  0.4667 -0.2195
   92SAPC  H18R 8879   0.650   5.326   5.534 -1.4942 -0.6754 -0.8390
   92SAPC  H18S 8880   0.602   5.197   5.650  1.2100  2.6177  1.6604
   92SAPC  C219 8881   0.730   5.122   5.491  0.3294 -0.0535  0.7340
   92SAPC  H19R 8882   0.754   5.035   5.555 -0.8948  0.2857  1.7035
   92SAPC  H19S 8883   0.818   5.162   5.437  0.5170 -0.1649  0.9566
   92SAPC  C220 8884   0.623   5.073   5.388 -1.4066 -0.6445 -0.4308
   92SAPC  H20R 8885   0.576   5.158   5.335  2.1137  0.8584 -1.4001
   92SAPC  H20S 8886   0.548   5.003   5.431  2.1185 -2.2868  3.8715
   92SAPC  H20T 8887   0.669   5.007   5.311 -0.4892 -1.5423  0.8301
   92SAPC   C33 8888   0.720   4.561   6.521  0.6356  0.3232 -0.0973
   92SAPC   H3X 8889   0.815   4.618   6.539  1.2756  1.0166 -4.4722
   92SAPC   H3Y 8890   0.640   4.638   6.518  0.6998  0.5553  2.3646
   92SAPC   C34 8891   0.733   4.510   6.369  0.3408  0.5104 -0.1140
   92SAPC   H4X 8892   0.789   4.415   6.365  1.7611  1.1205  2.7325
   92SAPC   H4Y 8893   0.782   4.588   6.307 -2.2047  1.3614 -1.2301
   92SAPC   C35 8894   0.593   4.496   6.307  0.0210  0.2940  0.3635
   92SAPC   H5X 8895   0.538   4.593   6.309  0.6059  0.6217  1.8255
   92SAPC   H5Y 8896   0.534   4.410   6.346 -1.2194  0.7718 -0.3679
   92SAPC   C36 8897   0.610   4.464   6.161  0.3187  0.4196  0.6880
   92SAPC   H6X 8898   0.656   4.363   6.157  1.2970  0.8712  0.1721
   92SAPC   H6Y 8899   0.684   4.532   6.113  0.0142 -0.8620 -1.7550
   92SAPC   C37 8900   0.477   4.468   6.087  0.4439 -0.5689 -0.3223
   92SAPC   H7X 8901   0.447   4.575   6.085  0.0142 -0.6935 -2.2432
   92SAPC   H7Y 8902   0.411   4.408   6.154  1.0960 -0.3578  0.5343
   92SAPC   C38 8903   0.468   4.400   5.952 -0.0655 -0.2127  0.0585
   92SAPC   H8X 8904   0.528   4.309   5.935 -0.8490 -0.3956 -2.1276
   92SAPC   H8Y 8905   0.513   4.477   5.885 -2.8181  0.6997 -0.9149
   92SAPC   C39 8906   0.327   4.379   5.909  0.1100 -0.3557 -0.1619
   92SAPC   H9X 8907   0.282   4.481   5.913  1.3415  0.1920  0.7440
   92SAPC   H9Y 8908   0.274   4.335   5.996 -2.6097 -0.8526 -1.9539
   92SAPC  C310 8909   0.319   4.295   5.785 -0.2727 -1.4340  0.1632
   92SAPC  H10X 8910   0.368   4.199   5.812  4.0816  0.2860 -0.7743
   92SAPC  H10Y 8911   0.377   4.336   5.700 -1.8742  0.8623  0.0795
   92SAPC  C311 8912   0.177   4.284   5.732 -0.0156  0.2684 -0.2508
   92SAPC  H11X 8913   0.135   4.384   5.706 -1.3813 -0.5799 -1.3983
   92SAPC  H11Y 8914   0.109   4.246   5.810 -2.1649 -1.8918 -2.9511
   92SAPC  C312 8915   0.165   4.185   5.607  0.2052  0.0572  0.0251
   92SAPC  H12X 8916   0.198   4.241   5.517 -0.1820  0.1868 -0.0336
   92SAPC  H12Y 8917   0.056   4.169   5.599  0.4542 -1.3106 -0.9113
   92SAPC  C313 8918   0.237   4.045   5.623 -0.2438 -0.3829 -0.0037
   92SAPC  H13X 8919   0.233   4.014   5.730 -3.5561 -0.1190  0.0466
   92SAPC  H13Y 8920   0.338   4.064   5.581 -0.5124  0.8499 -0.1055
   92SAPC  C314 8921   0.172   3.944   5.533 -0.5822  0.1603 -0.0229
   92SAPC  H14X 8922   0.180   3.980   5.428  1.8398  0.4393  0.1977
   92SAPC  H14Y 8923   0.064   3.937   5.554 -0.6387 -2.8373 -0.9040
   92SAPC  C315 8924   0.220   3.795   5.538  0.0188 -1.0953 -0.6677
   92SAPC  H15X 8925   0.199   3.767   5.644 -1.9603  0.2918 -0.6365
   92SAPC  H15Y 8926   0.329   3.794   5.514 -0.0160 -0.7042 -0.8491
   92SAPC  C316 8927   0.145   3.704   5.441  0.4721 -0.2667  0.3437
   92SAPC  H16X 8928   0.161   3.741   5.337 -1.5623  0.7666  0.3573
   92SAPC  H16Y 8929   0.035   3.695   5.456  0.2887  0.8547 -0.2772
   92SAPC  C317 8930   0.194   3.561   5.455  0.4535  0.1946 -0.6753
   92SAPC  H17X 8931   0.164   3.520   5.554  0.3029 -0.4976 -1.0023
   92SAPC  H17Y 8932   0.304   3.556   5.441  0.4676  1.4667 -1.2030
   92SAPC  C318 8933   0.142   3.462   5.352 -0.4479  0.3380  0.2968
   92SAPC  H18X 8934   0.044   3.416   5.376  0.5866 -1.8352  0.6263
   92SAPC  H18Y 8935   0.218   3.381   5.343  0.6049  1.2235  0.9571
   92SAPC  H18Z 8936   0.119   3.508   5.253 -0.0632 -0.6296 -0.2544
   93SAPC     N 8937   1.827   0.216   7.391 -0.1330 -0.4411  0.2113
   93SAPC   C12 8938   1.869   0.076   7.356 -0.5161 -0.1623  0.0037
   93SAPC  H12A 8939   1.961   0.052   7.406 -0.4779  0.7790  0.4084
   93SAPC  H12B 8940   1.899   0.088   7.252  0.0584  0.4318  0.2273
   93SAPC   C13 8941   1.944   0.304   7.390  0.2243  0.0665  0.1042
   93SAPC  H13A 8942   1.914   0.397   7.435  1.5296  0.9890 -0.8313
   93SAPC  H13B 8943   2.031   0.265   7.441 -1.0384 -0.2627  2.0982
   93SAPC  H13C 8944   1.975   0.325   7.288 -0.4665  5.2040  0.7094
   93SAPC   C14 8945   1.718   0.265   7.300  0.3547  0.1000 -0.0850
   93SAPC  H14A 8946   1.657   0.183   7.265  1.2380 -0.6014 -0.0040
   93SAPC  H14B 8947   1.660   0.350   7.335  1.0695  1.4834 -2.0654
   93SAPC  H14C 8948   1.770   0.309   7.216 -0.0110 -3.5742 -2.4333
   93SAPC   C15 8949   1.776   0.216   7.532 -0.2894  0.4184 -1.1997
   93SAPC  H15A 8950   1.728   0.307   7.564 -3.7291 -1.2770 -0.9855
   93SAPC  H15B 8951   1.688   0.154   7.536 -1.4555  1.9365 -2.0610
   93SAPC  H15C 8952   1.861   0.183   7.589 -1.2472 -0.9102 -0.4726
   93SAPC   C11 8953   1.769  -0.040   7.377  0.9064  0.1882  0.2565
   93SAPC  H11A 8954   1.752  -0.052   7.486 -0.8636  0.0952  0.0007
   93SAPC  H11B 8955   1.819  -0.128   7.333  0.5820  1.5526 -3.1006
   93SAPC     P 8956   1.550  -0.113   7.263  0.4456 -0.0121  0.2776
   93SAPC   O13 8957   1.550  -0.227   7.352 -0.4744 -0.3105  0.4515
   93SAPC   O14 8958   1.416  -0.048   7.249 -0.2134  0.5022 -0.4399
   93SAPC   O12 8959   1.658  -0.008   7.295 -0.0159  0.0058  0.1534
   93SAPC   O11 8960   1.582  -0.182   7.127  0.1025 -0.6025  0.2685
   93SAPC    C1 8961   1.665  -0.117   7.028 -0.4002  0.1929 -0.6450
   93SAPC    HA 8962   1.749  -0.065   7.080 -0.8980 -0.3520  0.7748
   93SAPC    HB 8963   1.708  -0.197   6.964 -1.8968 -0.5802 -0.7398
   93SAPC    C2 8964   1.581  -0.029   6.939  0.2680  0.7176 -0.1562
   93SAPC    HS 8965   1.537   0.046   7.008  3.4471  2.6524 -0.0367
   93SAPC   O21 8966   1.484  -0.111   6.864  1.0720 -0.0819 -0.1442
   93SAPC   C21 8967   1.362  -0.060   6.838  0.3205 -0.0198  0.3460
   93SAPC   O22 8968   1.326   0.059   6.858  0.0542  0.4480 -0.0965
   93SAPC   C22 8969   1.275  -0.174   6.786 -0.4054  0.0069 -0.1373
   93SAPC   H2R 8970   1.314  -0.176   6.682  1.6732  0.1143  0.5828
   93SAPC   H2S 8971   1.293  -0.272   6.835 -4.9257 -0.5418  0.8062
   93SAPC    C3 8972   1.671   0.040   6.841  0.2737  0.1020  0.2992
   93SAPC    HX 8973   1.738  -0.035   6.793 -3.3043 -2.4265 -1.2133
   93SAPC    HY 8974   1.736   0.107   6.900 -1.3249  2.5493 -0.5606
   93SAPC   O31 8975   1.596   0.110   6.734  0.1444 -0.6651 -0.7041
   93SAPC   C31 8976   1.599   0.248   6.741 -0.1914 -0.6336  0.0322
   93SAPC   O32 8977   1.640   0.319   6.830 -0.3849  0.3244 -0.0311
   93SAPC   C32 8978   1.531   0.306   6.620  0.3704  0.2497 -0.0340
   93SAPC   H2X 8979   1.603   0.350   6.548 -1.7829  0.9548 -1.8708
   93SAPC   H2Y 8980   1.461   0.382   6.662  0.6905  0.5231  0.0075
   93SAPC   C23 8981   1.121  -0.160   6.786 -0.6556 -0.4290 -0.2273
   93SAPC   H3R 8982   1.091  -0.053   6.777  2.6705  0.6513  0.3054
   93SAPC   H3S 8983   1.073  -0.194   6.881 -0.3559  0.2560  0.1749
   93SAPC   C24 8984   1.072  -0.229   6.662  0.1385 -0.1313  0.6931
   93SAPC   H4R 8985   1.121  -0.326   6.638 -1.3710 -0.6533 -0.4972
   93SAPC   H4S 8986   1.095  -0.169   6.571 -2.6361  0.8809  0.5647
   93SAPC   C25 8987   0.924  -0.242   6.656  0.3856  0.0777  0.1924
   93SAPC   H5R 8988   0.868  -0.153   6.688 -0.9872 -0.1240 -1.4743
   93SAPC   C26 8989   0.848  -0.353   6.630  0.0312  0.2550  0.2771
   93SAPC   H6R 8990   0.740  -0.347   6.649 -0.2620 -3.5264  0.5451
   93SAPC   C27 8991   0.898  -0.488   6.601 -0.5182  0.5325  0.3353
   93SAPC   H7R 8992   0.914  -0.556   6.688 -0.1842 -0.2261 -0.3103
   93SAPC   H7S 8993   1.003  -0.491   6.563 -0.5409 -1.6437  0.2817
   93SAPC   C28 8994   0.809  -0.567   6.515 -0.4108 -0.0027  0.1326
   93SAPC   H8R 8995   0.729  -0.626   6.561 -0.1521 -0.4020  0.0785
   93SAPC   C29 8996   0.815  -0.576   6.380  0.1777 -0.2394 -0.1602
   93SAPC   H9R 8997   0.753  -0.652   6.330 -1.6965  2.3354 -2.0333
   93SAPC  C210 8998   0.923  -0.513   6.298 -0.2422 -0.5584 -0.3513
   93SAPC  H10R 8999   0.997  -0.457   6.358 -0.4571  0.3789 -0.9418
   93SAPC  H10S 9000   0.879  -0.423   6.249  1.4808  0.4772 -0.0473
   93SAPC  C211 9001   0.976  -0.610   6.193 -0.8319  0.1317  0.1398
   93SAPC  H11R 9002   1.009  -0.703   6.241  0.7762  0.5867 -0.0572
   93SAPC  C212 9003   0.985  -0.593   6.058 -0.1280 -0.2373  0.4221
   93SAPC  H12R 9004   1.027  -0.678   6.002  0.9074  0.5258  0.0216
   93SAPC  C213 9005   0.959  -0.461   5.978  0.3776 -0.0239 -0.0459
   93SAPC  H13R 9006   0.855  -0.428   5.999  0.3032 -0.4269  0.2169
   93SAPC  H13S 9007   0.955  -0.479   5.868 -2.2364  0.0152 -0.0158
   93SAPC  C214 9008   1.051  -0.349   5.992  0.6425 -0.3377  0.8474
   93SAPC  H14R 9009   1.107  -0.356   6.087 -0.9931 -1.9157  1.7473
   93SAPC  C215 9010   1.078  -0.246   5.912  0.6243  0.2461  0.0560
   93SAPC  H15R 9011   1.155  -0.175   5.946 -0.1369  0.8539  0.5509
   93SAPC  C216 9012   1.014  -0.210   5.781  0.0173 -0.6649  0.1947
   93SAPC  H16R 9013   0.943  -0.125   5.795  0.9997  0.2014  0.0756
   93SAPC  H16S 9014   0.951  -0.295   5.748 -2.0844  1.1458 -0.6982
   93SAPC  C217 9015   1.111  -0.166   5.665 -0.6177  0.4552 -0.0801
   93SAPC  H17R 9016   1.200  -0.233   5.668 -1.9003 -1.2711  1.9683
   93SAPC  H17S 9017   1.143  -0.061   5.681 -1.6939  1.0343 -1.5075
   93SAPC  C218 9018   1.059  -0.170   5.519 -0.0066 -0.2300  0.3197
   93SAPC  H18R 9019   1.002  -0.265   5.505  0.1075 -0.3470  0.6515
   93SAPC  H18S 9020   1.153  -0.157   5.461  0.1510  0.5300  0.7470
   93SAPC  C219 9021   0.957  -0.061   5.489 -0.0562  0.0126 -0.5746
   93SAPC  H19R 9022   0.999   0.042   5.493 -1.5468  0.6061  1.1174
   93SAPC  H19S 9023   0.880  -0.068   5.568 -0.1799 -1.6895 -0.8074
   93SAPC  C220 9024   0.892  -0.089   5.354  0.2961  0.9442 -0.1686
   93SAPC  H20R 9025   0.956  -0.117   5.268 -3.7525 -3.2149 -2.2653
   93SAPC  H20S 9026   0.825  -0.004   5.329  0.9740  1.4556 -0.2725
   93SAPC  H20T 9027   0.831  -0.181   5.366  1.3884  0.2900  0.4869
   93SAPC   C33 9028   1.445   0.197   6.542  0.1194 -0.2217 -0.0778
   93SAPC   H3X 9029   1.391   0.134   6.616  1.2263 -2.5583 -1.1397
   93SAPC   H3Y 9030   1.505   0.132   6.475 -2.0789 -0.9634 -1.4479
   93SAPC   C34 9031   1.351   0.261   6.443  0.7154  0.5046  0.5013
   93SAPC   H4X 9032   1.283   0.320   6.509  0.8073  1.4291 -0.1962
   93SAPC   H4Y 9033   1.295   0.176   6.399 -1.0926  1.5017  0.7440
   93SAPC   C35 9034   1.417   0.353   6.342 -0.1796  0.6087 -0.0472
   93SAPC   H5X 9035   1.495   0.302   6.282  1.3496 -0.6345  2.7980
   93SAPC   H5Y 9036   1.455   0.436   6.405 -0.5312 -0.5393  1.7820
   93SAPC   C36 9037   1.311   0.408   6.243  0.0937 -0.0113 -0.2399
   93SAPC   H6X 9038   1.224   0.469   6.276 -0.5958 -0.9299 -0.3117
   93SAPC   H6Y 9039   1.268   0.320   6.189  0.6886  0.0855 -0.8836
   93SAPC   C37 9040   1.384   0.492   6.131 -0.4278 -0.0234  0.3887
   93SAPC   H7X 9041   1.436   0.414   6.071 -1.3383  0.0694 -0.5594
   93SAPC   H7Y 9042   1.464   0.563   6.161  0.1961 -0.3391 -0.4775
   93SAPC   C38 9043   1.280   0.568   6.041 -0.8230  0.2655  1.1456
   93SAPC   H8X 9044   1.241   0.650   6.104 -2.9355 -0.5375  0.9656
   93SAPC   H8Y 9045   1.201   0.491   6.033 -0.6520  0.2100 -0.2549
   93SAPC   C39 9046   1.320   0.621   5.905  0.2785  0.0812 -0.5095
   93SAPC   H9X 9047   1.364   0.536   5.848 -4.3116 -2.3698 -0.8240
   93SAPC   H9Y 9048   1.396   0.702   5.913 -1.4695  1.6694  0.9618
   93SAPC  C310 9049   1.206   0.682   5.822  0.3480 -0.5242  0.2637
   93SAPC  H10X 9050   1.154   0.751   5.892  0.4083  1.2262 -1.3411
   93SAPC  H10Y 9051   1.133   0.614   5.773 -0.3376  0.1393  0.3548
   93SAPC  C311 9052   1.257   0.777   5.705 -0.1963  0.9483 -0.3340
   93SAPC  H11X 9053   1.316   0.718   5.631 -0.8946 -0.5292  0.2467
   93SAPC  H11Y 9054   1.331   0.846   5.750  2.7193 -2.1408 -0.0206
   93SAPC  C312 9055   1.137   0.837   5.631  0.1972 -0.2478 -0.2104
   93SAPC  H12X 9056   1.091   0.923   5.686 -0.2129 -0.2525 -0.5440
   93SAPC  H12Y 9057   1.062   0.756   5.621 -0.2856  0.3498 -1.6537
   93SAPC  C313 9058   1.171   0.894   5.499  0.0485  0.3291 -0.5896
   93SAPC  H13X 9059   1.177   0.817   5.419 -0.5854 -0.2706 -0.0705
   93SAPC  H13Y 9060   1.275   0.934   5.496  0.9680 -1.9323 -0.5821
   93SAPC  C314 9061   1.061   0.991   5.447 -0.3982 -0.1552 -0.5380
   93SAPC  H14X 9062   1.070   1.073   5.522 -0.0230  0.1454 -0.9059
   93SAPC  H14Y 9063   0.962   0.946   5.466  0.5735 -1.1173  2.8953
   93SAPC  C315 9064   1.067   1.037   5.300 -0.5747  0.5011 -0.6587
   93SAPC  H15X 9065   1.055   0.943   5.242  0.3352  0.5539 -0.9577
   93SAPC  H15Y 9066   1.161   1.073   5.254 -1.3853  1.7554 -1.3744
   93SAPC  C316 9067   0.956   1.135   5.261 -0.5764  0.3407 -0.2682
   93SAPC  H16X 9068   0.959   1.222   5.330  0.5671  1.0640 -1.1821
   93SAPC  H16Y 9069   0.855   1.088   5.262  0.1553 -1.2900  0.9839
   93SAPC  C317 9070   0.989   1.191   5.121 -0.0842  0.0089  0.6378
   93SAPC  H17X 9071   0.996   1.113   5.043 -0.0468  2.4168 -1.9373
   93SAPC  H17Y 9072   1.092   1.233   5.128 -0.1874  0.2152  1.0062
   93SAPC  C318 9073   0.888   1.293   5.066 -0.4315 -0.7830  0.1958
   93SAPC  H18X 9074   0.793   1.240   5.045 -1.3280 -0.2369  2.6092
   93SAPC  H18Y 9075   0.922   1.334   4.968  0.0840 -0.7429  0.3909
   93SAPC  H18Z 9076   0.855   1.373   5.135  1.4059  0.3566 -0.1538
   94SAPC     N 9077   1.362   4.790   7.254 -0.0005 -0.0815 -0.2821
   94SAPC   C12 9078   1.455   4.824   7.143  0.1506  0.4286  0.0995
   94SAPC  H12A 9079   1.432   4.752   7.066  2.0345 -0.8977  0.6707
   94SAPC  H12B 9080   1.552   4.790   7.177  0.0646 -1.2337 -1.1897
   94SAPC   C13 9081   1.347   4.641   7.261  0.0085  0.9263  0.5985
   94SAPC  H13A 9082   1.281   4.611   7.341 -0.4541 -1.8561 -0.7036
   94SAPC  H13B 9083   1.305   4.600   7.170  2.4289 -0.2961 -0.0426
   94SAPC  H13C 9084   1.445   4.599   7.281  1.1061  3.9680  2.3006
   94SAPC   C14 9085   1.412   4.841   7.385 -0.9653  0.3822 -0.0186
   94SAPC  H14A 9086   1.502   4.792   7.420 -1.7597 -3.2998 -2.5199
   94SAPC  H14B 9087   1.441   4.945   7.382 -0.8044  0.3544  0.4223
   94SAPC  H14C 9088   1.345   4.823   7.468  0.7831 -1.5213  1.0874
   94SAPC   C15 9089   1.231   4.854   7.231  0.6608  0.8600 -0.6717
   94SAPC  H15A 9090   1.255   4.959   7.224  1.8832  0.7890  1.6026
   94SAPC  H15B 9091   1.170   4.827   7.146  0.2605  1.5440 -0.6076
   94SAPC  H15C 9092   1.167   4.839   7.316 -1.2155 -0.3270 -2.2200
   94SAPC   C11 9093   1.493   4.964   7.101 -0.3434  0.2228  0.1930
   94SAPC  H11A 9094   1.403   5.014   7.059 -1.4359 -0.3345  1.7784
   94SAPC  H11B 9095   1.568   4.945   7.021 -0.4847  0.0658  0.0951
   94SAPC     P 9096   1.708   5.020   7.234 -0.0077 -0.8655 -0.1524
   94SAPC   O13 9097   1.744   5.110   7.351 -0.8017 -0.4446  0.4273
   94SAPC   O14 9098   1.732   4.874   7.241 -1.1491  0.0030  0.0203
   94SAPC   O12 9099   1.547   5.035   7.205  0.2034  0.0579  0.0760
   94SAPC   O11 9100   1.781   5.073   7.108 -0.3322 -0.5504 -0.1931
   94SAPC    C1 9101   1.809   5.217   7.080 -0.4280 -0.1319 -0.1289
   94SAPC    HA 9102   1.834   5.274   7.172 -2.3901  1.1005 -0.2969
   94SAPC    HB 9103   1.903   5.205   7.022  0.7039  0.9781  1.4016
   94SAPC    C2 9104   1.700   5.298   6.996 -0.3897 -0.0304 -0.4659
   94SAPC    HS 9105   1.609   5.301   7.060 -0.9862 -0.2399 -1.2848
   94SAPC   O21 9106   1.682   5.236   6.865  0.0612  0.5165  0.6804
   94SAPC   C21 9107   1.558   5.225   6.824  0.2846  0.0665  0.3267
   94SAPC   O22 9108   1.455   5.252   6.882 -0.1191 -0.5821 -0.4525
   94SAPC   C22 9109   1.560   5.145   6.692  0.3015 -0.4264 -0.1099
   94SAPC   H2R 9110   1.644   5.072   6.695  1.4994  0.7909 -1.9498
   94SAPC   H2S 9111   1.469   5.083   6.692  1.3946 -2.1511  1.7653
   94SAPC    C3 9112   1.736   5.446   6.980  0.2261 -0.1439 -0.4260
   94SAPC    HX 9113   1.843   5.452   6.952 -0.0493  1.3648 -1.2817
   94SAPC    HY 9114   1.730   5.488   7.083 -1.8313 -1.5746  0.0976
   94SAPC   O31 9115   1.642   5.509   6.896 -0.4539 -0.7662  0.2328
   94SAPC   C31 9116   1.659   5.626   6.850  0.1684  0.4125 -0.8071
   94SAPC   O32 9117   1.765   5.689   6.865 -0.1027  0.0676 -0.3634
   94SAPC   C32 9118   1.532   5.674   6.778  0.1578 -0.4085 -0.1928
   94SAPC   H2X 9119   1.468   5.739   6.841 -1.0376 -3.1283  1.5621
   94SAPC   H2Y 9120   1.476   5.581   6.758  0.2874 -0.2639 -1.3038
   94SAPC   C23 9121   1.576   5.235   6.562 -0.0013  0.1071 -0.0311
   94SAPC   H3R 9122   1.496   5.312   6.566  0.2449  0.3466  0.3661
   94SAPC   H3S 9123   1.570   5.170   6.472  0.6851  1.2013 -0.8940
   94SAPC   C24 9124   1.704   5.313   6.553 -0.8260 -0.3429 -0.8235
   94SAPC   H4R 9125   1.715   5.375   6.644 -0.9197 -1.4166 -0.0642
   94SAPC   H4S 9126   1.697   5.378   6.463 -0.6391 -0.3890 -0.8725
   94SAPC   C25 9127   1.823   5.225   6.555  0.5332  0.4445  0.1050
   94SAPC   H5R 9128   1.834   5.157   6.641 -1.6797  0.9460  0.8424
   94SAPC   C26 9129   1.915   5.219   6.454  0.8075 -0.0474 -0.1220
   94SAPC   H6R 9130   1.998   5.147   6.466  0.4093 -0.8193 -1.6912
   94SAPC   C27 9131   1.918   5.296   6.326  1.0430  0.3795  0.5875
   94SAPC   H7R 9132   1.999   5.372   6.328  1.1885  0.3962 -2.2441
   94SAPC   H7S 9133   1.829   5.360   6.306 -0.1853 -0.2735  3.4247
   94SAPC   C28 9134   1.943   5.205   6.205  0.1021 -0.3146  0.5906
   94SAPC   H8R 9135   2.033   5.142   6.205 -0.6281 -1.3952 -0.5006
   94SAPC   C29 9136   1.869   5.211   6.089  0.0517  0.5951  0.3684
   94SAPC   H9R 9137   1.891   5.136   6.011 -2.5322  0.9878 -0.8180
   94SAPC  C210 9138   1.745   5.292   6.072  1.2647  0.5347  0.2274
   94SAPC  H10R 9139   1.775   5.397   6.058  1.8393  0.3295 -0.0914
   94SAPC  H10S 9140   1.689   5.278   6.167 -0.8529 -0.3760 -1.0605
   94SAPC  C211 9141   1.660   5.244   5.956 -0.1057 -0.1524 -0.6840
   94SAPC  H11R 9142   1.598   5.159   5.988 -1.0843 -0.0513 -2.1938
   94SAPC  C212 9143   1.663   5.275   5.830 -0.1883 -0.1163  0.7031
   94SAPC  H12R 9144   1.588   5.227   5.765 -0.9166  0.1133  1.3752
   94SAPC  C213 9145   1.744   5.384   5.759 -0.0290  0.5155  0.2217
   94SAPC  H13R 9146   1.838   5.401   5.817 -1.3556 -0.1177  2.7251
   94SAPC  H13S 9147   1.686   5.478   5.744 -0.9116 -0.1066 -0.3655
   94SAPC  C214 9148   1.785   5.324   5.628  0.3450  0.6434  0.7418
   94SAPC  H14R 9149   1.768   5.215   5.624  2.0706  0.3633  0.2948
   94SAPC  C215 9150   1.847   5.391   5.528  0.5821  0.5155  0.5588
   94SAPC  H15R 9151   1.857   5.332   5.435  0.3359  1.5063 -0.1159
   94SAPC  C216 9152   1.870   5.537   5.521 -0.4167 -0.6449 -0.0931
   94SAPC  H16R 9153   1.977   5.566   5.524 -1.0104  1.6657  1.0512
   94SAPC  H16S 9154   1.807   5.603   5.585 -0.6375 -0.3748 -0.5861
   94SAPC  C217 9155   1.838   5.600   5.381  0.2921  0.3351 -0.0611
   94SAPC  H17R 9156   1.730   5.603   5.356 -0.2902 -1.6593  1.9290
   94SAPC  H17S 9157   1.889   5.540   5.303 -2.7492 -0.4774 -1.5839
   94SAPC  C218 9158   1.906   5.737   5.359  0.2395 -0.0020 -0.0978
   94SAPC  H18R 9159   1.916   5.754   5.250  2.1447 -0.7961 -0.0866
   94SAPC  H18S 9160   2.009   5.757   5.395  0.8304  0.1445 -1.7778
   94SAPC  C219 9161   1.827   5.849   5.420 -0.1438 -0.1696 -0.1965
   94SAPC  H19R 9162   1.850   5.858   5.528  0.0219 -0.0568 -0.2416
   94SAPC  H19S 9163   1.721   5.819   5.406 -0.1518 -1.1475  1.7147
   94SAPC  C220 9164   1.861   5.991   5.351 -0.0660 -0.0435  0.6175
   94SAPC  H20R 9165   1.803   6.077   5.390 -0.9158 -0.0194 -0.6203
   94SAPC  H20S 9166   1.817   5.979   5.249  0.2273  0.0886  0.4730
   94SAPC  H20T 9167   1.969   6.018   5.355 -0.0637 -0.1936  2.4397
   94SAPC   C33 9168   1.569   5.755   6.649 -0.1843  0.3533 -0.2342
   94SAPC   H3X 9169   1.613   5.853   6.676  2.3003 -0.7936  0.1683
   94SAPC   H3Y 9170   1.469   5.775   6.604  0.4812 -0.4431 -2.1681
   94SAPC   C34 9171   1.647   5.671   6.547 -0.1988 -0.3815 -0.2695
   94SAPC   H4X 9172   1.600   5.570   6.543  1.1656 -1.1003  0.8537
   94SAPC   H4Y 9173   1.753   5.665   6.581  0.2277 -0.4643 -1.5752
   94SAPC   C35 9174   1.645   5.737   6.412  0.7619  0.2420 -0.7346
   94SAPC   H5X 9175   1.706   5.830   6.415  0.8148  0.1797  0.1817
   94SAPC   H5Y 9176   1.541   5.758   6.381  0.6634  1.7258  0.5230
   94SAPC   C36 9177   1.715   5.646   6.308 -0.5326  0.0160 -0.5708
   94SAPC   H6X 9178   1.658   5.552   6.294 -0.6187  0.1514 -1.1697
   94SAPC   H6Y 9179   1.809   5.612   6.357 -1.0810 -1.5136 -0.5414
   94SAPC   C37 9180   1.734   5.715   6.170 -0.1427  0.2332 -0.5298
   94SAPC   H7X 9181   1.637   5.729   6.116 -0.1653  0.5911 -0.4009
   94SAPC   H7Y 9182   1.779   5.638   6.104  2.9023  0.3089  1.3159
   94SAPC   C38 9183   1.815   5.846   6.175 -0.1673  0.5670 -0.1187
   94SAPC   H8X 9184   1.897   5.835   6.250  0.2623 -0.7991 -0.7547
   94SAPC   H8Y 9185   1.741   5.919   6.215 -1.3227 -1.2185  1.1768
   94SAPC   C39 9186   1.857   5.881   6.031  0.4474 -0.0432  0.5486
   94SAPC   H9X 9187   1.904   5.797   5.974  1.2911  0.3192  0.6936
   94SAPC   H9Y 9188   1.934   5.960   6.038  1.6983 -0.2070 -5.7424
   94SAPC  C310 9189   1.754   5.959   5.953 -0.2322 -1.1037  0.8222
   94SAPC  H10X 9190   1.716   6.037   6.022 -2.0884 -0.3666 -0.9134
   94SAPC  H10Y 9191   1.659   5.907   5.929 -0.7261 -0.0446  0.4077
   94SAPC  C311 9192   1.810   6.029   5.830  0.3001  0.5764  0.1965
   94SAPC  H11X 9193   1.726   6.049   5.760 -1.1487  0.7317  1.9224
   94SAPC  H11Y 9194   1.891   5.972   5.780  1.1275  1.6392  0.2817
   94SAPC  C312 9195   1.866   6.173   5.852 -0.8663 -0.0505 -0.9207
   94SAPC  H12X 9196   1.948   6.171   5.927 -2.2473 -1.0891  0.6509
   94SAPC  H12Y 9197   1.809   6.242   5.919  0.6527  0.9989 -0.6594
   94SAPC  C313 9198   1.899   6.249   5.723 -0.7085 -0.2208  0.4058
   94SAPC  H13X 9199   1.987   6.203   5.674 -0.0341  0.3235  1.0724
   94SAPC  H13Y 9200   1.935   6.349   5.755  0.5790 -0.3109 -0.6788
   94SAPC  C314 9201   1.776   6.273   5.634 -0.2028 -0.1268 -0.5371
   94SAPC  H14X 9202   1.684   6.299   5.691 -1.0717 -1.2017 -1.4161
   94SAPC  H14Y 9203   1.738   6.177   5.595 -0.8490 -0.8945  1.8445
   94SAPC  C315 9204   1.788   6.377   5.521 -0.9364 -0.2793 -0.6198
   94SAPC  H15X 9205   1.856   6.325   5.451 -0.9019  0.0555 -0.8333
   94SAPC  H15Y 9206   1.844   6.458   5.573 -1.1227 -0.4935 -0.0721
   94SAPC  C316 9207   1.663   6.426   5.453  0.4194 -0.2422  0.1737
   94SAPC  H16X 9208   1.694   6.515   5.395 -1.6909  1.6159  1.7332
   94SAPC  H16Y 9209   1.589   6.451   5.532 -0.6519  0.4826 -1.0361
   94SAPC  C317 9210   1.604   6.321   5.359  0.1212  1.1197 -0.2466
   94SAPC  H17X 9211   1.579   6.226   5.409  0.7603  0.3522 -1.3429
   94SAPC  H17Y 9212   1.679   6.293   5.282  0.5259  2.6433 -0.4557
   94SAPC  C318 9213   1.483   6.373   5.278  0.2170 -0.0278  0.0156
   94SAPC  H18X 9214   1.442   6.295   5.210  0.5274  0.5670 -0.8626
   94SAPC  H18Y 9215   1.520   6.461   5.221 -0.2029  0.4783  0.5017
   94SAPC  H18Z 9216   1.397   6.417   5.334  0.1154  1.9333 -1.5858
   95SAPC     N 9217   0.353   1.933   2.890  0.3717 -0.0354 -0.2383
   95SAPC   C12 9218   0.267   1.812   2.911  0.3800 -0.6485  0.0583
   95SAPC  H12A 9219   0.182   1.832   2.848 -0.2467 -2.3310  0.3176
   95SAPC  H12B 9220   0.222   1.797   3.008 -1.3075 -1.8425 -0.8489
   95SAPC   C13 9221   0.387   1.951   2.740  0.1518  0.1687 -0.3535
   95SAPC  H13A 9222   0.409   1.856   2.694 -1.7137 -0.8676  0.7508
   95SAPC  H13B 9223   0.301   1.989   2.686 -0.2443 -1.4713 -0.9301
   95SAPC  H13C 9224   0.472   2.018   2.733 -0.8895  1.4419 -1.4676
   95SAPC   C14 9225   0.287   2.059   2.943  0.3175 -0.5872  0.6117
   95SAPC  H14A 9226   0.196   2.086   2.892 -1.0380  0.2833  3.3036
   95SAPC  H14B 9227   0.261   2.045   3.047  1.1650 -0.3757  0.8589
   95SAPC  H14C 9228   0.339   2.152   2.923  0.1924 -0.5829  0.2951
   95SAPC   C15 9229   0.478   1.915   2.967  0.3850  0.1944 -0.0949
   95SAPC  H15A 9230   0.547   1.846   2.920 -1.4518 -2.0709  0.3701
   95SAPC  H15B 9231   0.529   2.010   2.974 -0.4935  0.7701 -1.2388
   95SAPC  H15C 9232   0.445   1.883   3.065 -3.0868  2.9840 -0.1726
   95SAPC   C11 9233   0.321   1.674   2.866  0.3743 -0.2996 -0.4138
   95SAPC  H11A 9234   0.231   1.608   2.866  1.0877 -1.2988 -0.9357
   95SAPC  H11B 9235   0.398   1.631   2.933  1.3469 -1.5249 -2.2429
   95SAPC     P 9236   0.429   1.527   2.695 -0.2026  0.0047 -0.4404
   95SAPC   O13 9237   0.321   1.433   2.658  0.3430 -0.4454 -0.0733
   95SAPC   O14 9238   0.524   1.560   2.588  0.2469 -0.0182 -0.4614
   95SAPC   O12 9239   0.361   1.666   2.734 -0.5563  0.1105  0.1215
   95SAPC   O11 9240   0.513   1.467   2.816  0.5330  0.6671  0.2429
   95SAPC    C1 9241   0.655   1.469   2.825 -0.0179  0.8318 -0.4098
   95SAPC    HA 9242   0.694   1.378   2.876  0.6644 -0.2115 -2.6688
   95SAPC    HB 9243   0.710   1.458   2.729  3.0506  2.6642  0.9823
   95SAPC    C2 9244   0.709   1.582   2.914 -0.7052  0.2688  0.1246
   95SAPC    HS 9245   0.804   1.536   2.947 -1.7481 -1.8066  0.3554
   95SAPC   O21 9246   0.626   1.613   3.022  0.1872 -0.1598 -0.0213
   95SAPC   C21 9247   0.631   1.544   3.133 -0.1032  0.2225  0.1566
   95SAPC   O22 9248   0.705   1.451   3.149  0.0796 -0.2020  0.3206
   95SAPC   C22 9249   0.535   1.607   3.239  0.7334  0.0651  0.7614
   95SAPC   H2R 9250   0.492   1.703   3.203  2.5182  0.7805  0.4617
   95SAPC   H2S 9251   0.460   1.532   3.273 -1.3975  1.7141 -0.0737
   95SAPC    C3 9252   0.744   1.707   2.830  0.2257  0.7075  0.7681
   95SAPC    HX 9253   0.649   1.726   2.776 -0.7602 -0.6493  1.9795
   95SAPC    HY 9254   0.821   1.693   2.751 -1.1492  2.4252 -0.9829
   95SAPC   O31 9255   0.770   1.812   2.921 -0.7229  0.1469 -0.3288
   95SAPC   C31 9256   0.899   1.818   2.962 -0.3279 -0.7336 -0.4190
   95SAPC   O32 9257   0.980   1.730   2.933  0.3609 -0.4732 -0.0780
   95SAPC   C32 9258   0.928   1.950   3.043 -0.9122  0.3217  0.1901
   95SAPC   H2X 9259   0.829   1.971   3.088  0.4191  2.2059  2.4779
   95SAPC   H2Y 9260   0.949   2.038   2.979  0.1879  0.8581  1.2461
   95SAPC   C23 9261   0.623   1.641   3.358 -0.9924  0.0599 -0.7392
   95SAPC   H3R 9262   0.661   1.545   3.399 -0.0804 -0.0886 -1.8657
   95SAPC   H3S 9263   0.550   1.674   3.435  0.1874  0.0245  0.4249
   95SAPC   C24 9264   0.733   1.746   3.338 -0.4595  0.1422 -0.4517
   95SAPC   H4R 9265   0.817   1.700   3.282  0.2824  1.1057 -0.1656
   95SAPC   H4S 9266   0.776   1.756   3.440  1.0123 -1.2490 -0.8991
   95SAPC   C25 9267   0.684   1.877   3.285  0.0327 -0.0100  0.3617
   95SAPC   H5R 9268   0.665   1.883   3.177  1.9219 -0.9476 -0.0763
   95SAPC   C26 9269   0.672   1.990   3.359 -0.1130  0.8462  0.1570
   95SAPC   H6R 9270   0.630   2.075   3.304 -2.2348 -2.2173 -3.4221
   95SAPC   C27 9271   0.698   2.017   3.506 -0.0976  0.9690  0.0827
   95SAPC   H7R 9272   0.780   2.091   3.515 -0.0759  1.0837 -0.9014
   95SAPC   H7S 9273   0.733   1.924   3.556 -0.0068  1.3514  0.7381
   95SAPC   C28 9274   0.576   2.085   3.572 -0.4179  0.4013  0.5555
   95SAPC   H8R 9275   0.552   2.191   3.556 -0.1219  0.7383  2.1786
   95SAPC   C29 9276   0.493   2.021   3.645  0.2254  0.5646  0.0191
   95SAPC   H9R 9277   0.409   2.079   3.685 -1.2273  0.4181 -2.5948
   95SAPC  C210 9278   0.499   1.876   3.686 -0.2673  0.4327  0.2294
   95SAPC  H10R 9279   0.596   1.827   3.663 -1.0626 -1.8113  1.3841
   95SAPC  H10S 9280   0.423   1.824   3.624  1.5068 -2.2192  0.1253
   95SAPC  C211 9281   0.456   1.831   3.823  0.4692  0.3327  0.2295
   95SAPC  H11R 9282   0.391   1.742   3.818 -1.2226  1.5221  0.4120
   95SAPC  C212 9283   0.494   1.872   3.946 -0.6888 -0.3384  0.8985
   95SAPC  H12R 9284   0.450   1.826   4.036 -1.9233  0.6116  0.8093
   95SAPC  C213 9285   0.601   1.973   3.980 -0.0139 -0.5050  0.9061
   95SAPC  H13R 9286   0.663   1.981   3.888 -1.0320 -1.8249  0.0597
   95SAPC  H13S 9287   0.650   1.941   4.074 -0.7485 -1.8969  0.8327
   95SAPC  C214 9288   0.538   2.111   4.001  0.5410 -0.0130 -0.4710
   95SAPC  H14R 9289   0.532   2.176   3.913 -1.8059  0.3762 -0.1019
   95SAPC  C215 9290   0.499   2.164   4.119 -0.2407  0.0137 -0.4183
   95SAPC  H15R 9291   0.466   2.268   4.130 -0.5480 -0.0597 -0.6173
   95SAPC  C216 9292   0.489   2.086   4.248  0.2385 -0.5312 -0.0625
   95SAPC  H16R 9293   0.502   1.975   4.242  0.1945 -0.6945  1.9174
   95SAPC  H16S 9294   0.389   2.095   4.295  0.3998 -2.2692  0.7280
   95SAPC  C217 9295   0.591   2.132   4.343 -0.0314 -0.0228  0.0296
   95SAPC  H17R 9296   0.689   2.149   4.294  0.4784 -1.1377  0.6432
   95SAPC  H17S 9297   0.592   2.064   4.430 -1.6145 -0.3115 -0.1354
   95SAPC  C218 9298   0.578   2.265   4.410 -0.0975  0.1043  0.2143
   95SAPC  H18R 9299   0.537   2.337   4.336  0.6958  0.9958  0.6188
   95SAPC  H18S 9300   0.678   2.299   4.446 -0.7021  0.6724  1.3759
   95SAPC  C219 9301   0.479   2.274   4.527  0.7744  1.0014  0.3130
   95SAPC  H19R 9302   0.394   2.206   4.504  2.3057 -0.8234 -0.3250
   95SAPC  H19S 9303   0.440   2.377   4.527  2.1752  1.5718  1.4447
   95SAPC  C220 9304   0.534   2.239   4.661 -0.0749  0.0143 -0.1386
   95SAPC  H20R 9305   0.462   2.268   4.740  2.4445 -0.9416  2.7286
   95SAPC  H20S 9306   0.623   2.299   4.690 -0.8109  0.7717  0.6036
   95SAPC  H20T 9307   0.570   2.134   4.667  1.0471  0.4456  1.4422
   95SAPC   C33 9308   1.046   1.928   3.145  0.2704  0.8309  0.5462
   95SAPC   H3X 9309   1.134   1.885   3.093  0.0356  1.4866 -0.4240
   95SAPC   H3Y 9310   1.014   1.852   3.219  0.0309 -0.7785 -1.1304
   95SAPC   C34 9311   1.083   2.049   3.224  0.3140 -0.3502  0.4256
   95SAPC   H4X 9312   0.996   2.078   3.288 -1.2396 -2.2068 -0.7569
   95SAPC   H4Y 9313   1.089   2.140   3.161  0.8303 -0.2883  0.5654
   95SAPC   C35 9314   1.209   2.045   3.309 -0.0642 -0.1370 -0.0652
   95SAPC   H5X 9315   1.237   2.145   3.348  0.3402 -0.3817  0.2723
   95SAPC   H5Y 9316   1.303   2.024   3.254 -0.9118  1.7087 -2.4316
   95SAPC   C36 9317   1.194   1.960   3.438  0.1285  0.5720  0.0570
   95SAPC   H6X 9318   1.278   1.990   3.505 -0.0256  0.3474  0.3507
   95SAPC   H6Y 9319   1.209   1.854   3.408 -1.0147 -0.1696  1.9378
   95SAPC   C37 9320   1.060   1.982   3.514  0.5931  0.0862 -0.0498
   95SAPC   H7X 9321   0.975   1.941   3.456  1.8850 -0.2975 -1.7699
   95SAPC   H7Y 9322   1.055   2.092   3.529  1.5455 -0.0449  1.5183
   95SAPC   C38 9323   1.072   1.899   3.649 -0.4497 -1.2439 -1.0425
   95SAPC   H8X 9324   1.008   1.954   3.721  1.2645 -0.0948 -0.3304
   95SAPC   H8Y 9325   1.168   1.930   3.695 -1.8933  1.4921  0.3754
   95SAPC   C39 9326   1.035   1.754   3.640 -0.1166  0.2462 -0.1003
   95SAPC   H9X 9327   1.133   1.701   3.644 -0.1161  0.3214  2.0520
   95SAPC   H9Y 9328   0.988   1.733   3.542 -1.9000  4.4763 -0.3446
   95SAPC  C310 9329   0.936   1.712   3.751 -0.1607 -0.1977  0.6070
   95SAPC  H10X 9330   0.899   1.608   3.733 -1.8422  0.3864  0.4661
   95SAPC  H10Y 9331   0.848   1.779   3.741  0.0839  0.4507  2.5280
   95SAPC  C311 9332   0.985   1.729   3.891 -0.1045 -0.4427 -0.5207
   95SAPC  H11X 9333   0.994   1.838   3.909 -0.3098 -0.5077 -0.0062
   95SAPC  H11Y 9334   1.083   1.683   3.917 -0.0845  0.0554  0.3582
   95SAPC  C312 9335   0.893   1.663   3.993  0.9240 -0.4481 -1.0788
   95SAPC  H12X 9336   0.881   1.558   3.960  1.7457 -0.6484 -0.7638
   95SAPC  H12Y 9337   0.794   1.709   3.971  1.8506  0.3400 -4.0989
   95SAPC  C313 9338   0.947   1.666   4.136 -0.6119  0.9816  0.1058
   95SAPC  H13X 9339   0.986   1.769   4.152  0.2025  0.9333 -1.3382
   95SAPC  H13Y 9340   1.035   1.599   4.136 -2.5139 -1.6847 -0.2826
   95SAPC  C314 9341   0.853   1.619   4.244  0.4379 -0.0380  0.2951
   95SAPC  H14X 9342   0.906   1.634   4.340  0.1311 -0.0486  0.4652
   95SAPC  H14Y 9343   0.847   1.509   4.235  0.7344  0.0660 -1.6820
   95SAPC  C315 9344   0.710   1.681   4.248  0.0439 -0.5364 -0.4862
   95SAPC  H15X 9345   0.654   1.637   4.163 -2.4559  3.1248 -0.9888
   95SAPC  H15Y 9346   0.712   1.791   4.232  1.4837 -0.9367 -3.7783
   95SAPC  C316 9347   0.635   1.660   4.378 -0.0009  0.1806  0.3451
   95SAPC  H16X 9348   0.694   1.696   4.465 -0.1457  1.2204  0.0253
   95SAPC  H16Y 9349   0.628   1.551   4.399 -1.5009  0.7659  3.4707
   95SAPC  C317 9350   0.483   1.712   4.371 -0.2301  0.6317 -0.0501
   95SAPC  H17X 9351   0.430   1.677   4.280 -0.3201 -2.7912  1.1742
   95SAPC  H17Y 9352   0.488   1.823   4.369 -2.0331  0.7959  1.7227
   95SAPC  C318 9353   0.404   1.662   4.499  0.6706 -0.5452 -0.0102
   95SAPC  H18X 9354   0.423   1.555   4.519  0.2097 -0.6630 -0.2009
   95SAPC  H18Y 9355   0.299   1.697   4.491  1.1337  1.3710  1.3792
   95SAPC  H18Z 9356   0.449   1.719   4.583  0.0107 -0.6987  0.4555
   96SAPC     N 9357   6.494   3.575   2.601  0.3747 -0.5804 -0.4757
   96SAPC   C12 9358   6.596   3.489   2.665  0.2653 -0.1716 -0.4503
   96SAPC  H12A 9359   6.690   3.488   2.612 -0.1562  0.8446 -1.2701
   96SAPC  H12B 9360   6.571   3.384   2.668  0.5190 -0.2576 -1.0823
   96SAPC   C13 9361   6.544   3.715   2.610  0.2223  0.2820  0.2079
   96SAPC  H13A 9362   6.567   3.739   2.713  0.0613 -3.3891  1.2497
   96SAPC  H13B 9363   6.636   3.717   2.555 -1.5384 -1.5062 -3.0901
   96SAPC  H13C 9364   6.470   3.779   2.566 -0.2851  0.5410  1.3863
   96SAPC   C14 9365   6.481   3.536   2.457 -0.5453  0.2706 -0.2064
   96SAPC  H14A 9366   6.465   3.430   2.444  1.1057 -0.3612  2.3537
   96SAPC  H14B 9367   6.403   3.595   2.411  0.7926  0.2573 -2.6454
   96SAPC  H14C 9368   6.572   3.549   2.400  1.1785  0.4955  2.4449
   96SAPC   C15 9369   6.359   3.558   2.671 -0.6477 -0.4607 -0.3914
   96SAPC  H15A 9370   6.370   3.603   2.769 -2.0237  1.8055 -1.2006
   96SAPC  H15B 9371   6.284   3.621   2.627  0.6829  0.7824 -0.9421
   96SAPC  H15C 9372   6.330   3.454   2.680  0.0874 -0.8277 -1.9060
   96SAPC   C11 9373   6.637   3.519   2.816 -0.0070 -0.1850 -0.7833
   96SAPC  H11A 9374   6.723   3.453   2.844  0.8755  0.9648 -0.6977
   96SAPC  H11B 9375   6.546   3.497   2.875 -0.1544 -1.0896 -1.3201
   96SAPC     P 9376   6.841   3.685   2.843  0.0110 -0.0987 -0.0404
   96SAPC   O13 9377   6.920   3.635   2.731  0.3938  0.0715  0.1969
   96SAPC   O14 9378   6.865   3.827   2.871  0.3248  0.3693  0.0495
   96SAPC   O12 9379   6.690   3.655   2.841 -0.2331 -0.0897  0.4470
   96SAPC   O11 9380   6.888   3.600   2.972  0.0075  0.2367  0.3259
   96SAPC    C1 9381   6.856   3.654   3.103  1.0817 -0.3250 -0.7309
   96SAPC    HA 9382   6.941   3.719   3.134 -0.2597  0.5928  1.2051
   96SAPC    HB 9383   6.761   3.711   3.111  0.8368 -0.9097  0.9906
   96SAPC    C2 9384   6.832   3.546   3.214  0.3509 -0.1059  0.1387
   96SAPC    HS 9385   6.799   3.590   3.311 -1.4924 -2.4919  0.6812
   96SAPC   O21 9386   6.963   3.491   3.243  0.7102  0.3537 -0.0327
   96SAPC   C21 9387   7.043   3.558   3.323  0.0777  0.0175  0.0962
   96SAPC   O22 9388   7.009   3.663   3.376 -0.6215 -0.3743 -0.3093
   96SAPC   C22 9389   7.160   3.469   3.353 -0.3828  0.1991 -1.0315
   96SAPC   H2R 9390   7.119   3.369   3.381  1.9920 -1.2943 -2.5115
   96SAPC   H2S 9391   7.208   3.449   3.254 -0.5689 -0.3634 -1.0118
   96SAPC    C3 9392   6.728   3.447   3.161  0.3866  0.3074 -0.2560
   96SAPC    HX 9393   6.785   3.393   3.083  1.6788  0.3404  0.6240
   96SAPC    HY 9394   6.644   3.512   3.127  0.6009  1.8521  1.9262
   96SAPC   O31 9395   6.675   3.364   3.263 -0.0315 -0.0785  0.2213
   96SAPC   C31 9396   6.597   3.269   3.212  0.2385  0.6289  0.2533
   96SAPC   O32 9397   6.578   3.257   3.091 -0.7410 -0.3256 -0.1152
   96SAPC   C32 9398   6.541   3.178   3.323 -0.5020  0.1839 -0.6406
   96SAPC   H2X 9399   6.630   3.132   3.372 -1.3981  0.9029  1.8167
   96SAPC   H2Y 9400   6.473   3.109   3.269 -0.5024  0.5877 -1.1683
   96SAPC   C23 9401   7.255   3.515   3.468  0.5035 -0.2040 -0.0768
   96SAPC   H3R 9402   7.268   3.625   3.479  1.9876 -0.3439 -0.2168
   96SAPC   H3S 9403   7.353   3.470   3.441  0.1302 -0.2781 -1.4086
   96SAPC   C24 9404   7.217   3.440   3.605 -0.2283 -0.0004  0.6111
   96SAPC   H4R 9405   7.312   3.401   3.647 -0.7220 -2.4248 -0.3776
   96SAPC   H4S 9406   7.158   3.350   3.577  1.2955 -0.8298 -0.0167
   96SAPC   C25 9407   7.144   3.529   3.699 -0.0609  0.1379  0.2273
   96SAPC   H5R 9408   7.093   3.606   3.640 -2.0716 -1.9191 -0.8743
   96SAPC   C26 9409   7.154   3.543   3.833  0.3146 -0.0157  0.7358
   96SAPC   H6R 9410   7.099   3.631   3.870  1.6147  0.9098  0.5312
   96SAPC   C27 9411   7.226   3.466   3.937 -0.3547  0.4170 -0.6342
   96SAPC   H7R 9412   7.215   3.357   3.918 -0.4066  0.0597  1.2558
   96SAPC   H7S 9413   7.168   3.489   4.029  0.5263  0.6334 -0.1205
   96SAPC   C28 9414   7.370   3.509   3.947  0.6748 -0.1707  0.0300
   96SAPC   H8R 9415   7.438   3.453   3.880  0.9218 -0.8329  0.8211
   96SAPC   C29 9416   7.419   3.607   4.022 -0.1676 -0.0659 -0.0131
   96SAPC   H9R 9417   7.527   3.628   4.013  0.3457 -2.3662  0.1247
   96SAPC  C210 9418   7.343   3.707   4.102  0.0365  0.4268  0.4636
   96SAPC  H10R 9419   7.252   3.660   4.146  0.7781 -2.1615 -0.5767
   96SAPC  H10S 9420   7.308   3.782   4.028  0.7090 -0.8815 -1.2631
   96SAPC  C211 9421   7.423   3.768   4.218  0.1362  0.2590  1.1790
   96SAPC  H11R 9422   7.531   3.765   4.199  0.2808 -1.0239  2.0919
   96SAPC  C212 9423   7.376   3.820   4.333  0.3729 -0.0939  0.5031
   96SAPC  H12R 9424   7.439   3.862   4.412 -0.1273 -0.1115  0.9147
   96SAPC  C213 9425   7.229   3.812   4.370  0.5243  0.2713 -0.3753
   96SAPC  H13R 9426   7.208   3.725   4.436 -1.1032 -0.1811 -1.4275
   96SAPC  H13S 9427   7.161   3.784   4.286  1.1386  0.2182 -0.8622
   96SAPC  C214 9428   7.177   3.940   4.437 -0.4729  0.3788  0.3713
   96SAPC  H14R 9429   7.142   4.017   4.367 -1.5940 -1.3991 -1.1123
   96SAPC  C215 9430   7.173   3.965   4.567 -0.5637 -0.0978  0.2419
   96SAPC  H15R 9431   7.101   4.042   4.596 -0.4037  0.8188 -1.6786
   96SAPC  C216 9432   7.215   3.866   4.676 -0.3189  0.3699 -0.4530
   96SAPC  H16R 9433   7.304   3.802   4.660  0.3228  1.1544 -0.0780
   96SAPC  H16S 9434   7.141   3.785   4.693  1.1091 -0.4350  2.8055
   96SAPC  C217 9435   7.224   3.934   4.817  0.5016 -0.8258  0.0437
   96SAPC  H17R 9436   7.120   3.970   4.832  0.4637 -0.5422 -0.8880
   96SAPC  H17S 9437   7.283   4.028   4.806 -3.6102  1.7992 -2.0649
   96SAPC  C218 9438   7.271   3.854   4.943 -0.6663  0.0505 -0.4391
   96SAPC  H18R 9439   7.379   3.834   4.926 -0.3331  1.5837 -0.2445
   96SAPC  H18S 9440   7.212   3.759   4.946  1.6762 -1.4708  0.7822
   96SAPC  C219 9441   7.252   3.930   5.072 -0.1149  0.1309  0.3903
   96SAPC  H19R 9442   7.170   4.004   5.073  0.1672  0.4962 -1.4490
   96SAPC  H19S 9443   7.344   3.988   5.097  0.7934 -1.7912  1.8383
   96SAPC  C220 9444   7.239   3.835   5.188  0.1837 -0.8934  0.2175
   96SAPC  H20R 9445   7.236   3.893   5.283 -0.6404  0.1754 -0.4312
   96SAPC  H20S 9446   7.323   3.763   5.187  2.1265  1.1037  2.9862
   96SAPC  H20T 9447   7.147   3.772   5.189  1.6548 -3.2006  2.9257
   96SAPC   C33 9448   6.455   3.254   3.428  0.6194  0.5828 -0.0848
   96SAPC   H3X 9449   6.397   3.329   3.370  0.2528  0.2548 -0.1498
   96SAPC   H3Y 9450   6.512   3.311   3.504 -1.6921 -0.7348  2.8036
   96SAPC   C34 9451   6.360   3.157   3.495  0.2450 -0.1724 -0.5021
   96SAPC   H4X 9452   6.404   3.058   3.518 -0.8587  0.0300  3.1089
   96SAPC   H4Y 9453   6.282   3.135   3.419  1.2364  0.0194 -1.5950
   96SAPC   C35 9454   6.295   3.209   3.623  0.1390 -0.8099  0.1143
   96SAPC   H5X 9455   6.204   3.147   3.637 -0.1561 -0.8021 -1.5545
   96SAPC   H5Y 9456   6.264   3.312   3.595 -1.5193 -1.8797 -2.2969
   96SAPC   C36 9457   6.388   3.188   3.744 -0.1193 -0.1043 -0.0048
   96SAPC   H6X 9458   6.485   3.242   3.738 -0.4769  0.8024  1.7180
   96SAPC   H6Y 9459   6.414   3.080   3.741  1.1844  0.1767  0.7874
   96SAPC   C37 9460   6.330   3.223   3.874  1.1589  0.1022  0.6369
   96SAPC   H7X 9461   6.233   3.172   3.892  1.9977 -1.1220  2.0101
   96SAPC   H7Y 9462   6.320   3.333   3.873 -1.5233 -0.0716 -1.2636
   96SAPC   C38 9463   6.425   3.188   3.987 -0.2557 -0.1721 -0.2128
   96SAPC   H8X 9464   6.529   3.200   3.948  0.4583  3.1920  2.2876
   96SAPC   H8Y 9465   6.416   3.081   4.015  0.3808 -0.2889 -0.4254
   96SAPC   C39 9466   6.412   3.250   4.126  0.2423  0.1783  0.0425
   96SAPC   H9X 9467   6.310   3.239   4.170  1.0658  1.1353  2.4041
   96SAPC   H9Y 9468   6.434   3.359   4.115  1.6396  0.2409  2.6128
   96SAPC  C310 9469   6.508   3.196   4.232 -0.2351 -0.3734  0.0376
   96SAPC  H10X 9470   6.606   3.245   4.209 -0.3103 -1.6923 -3.7085
   96SAPC  H10Y 9471   6.524   3.087   4.224 -1.1827 -0.5089 -0.0602
   96SAPC  C311 9472   6.463   3.211   4.381  0.5405  0.3535  0.3684
   96SAPC  H11X 9473   6.394   3.129   4.410  0.0944  1.0825  1.4469
   96SAPC  H11Y 9474   6.409   3.307   4.387 -0.4583 -0.2015  0.3804
   96SAPC  C312 9475   6.579   3.204   4.476 -0.7682 -0.3262  0.1631
   96SAPC  H12X 9476   6.635   3.291   4.436 -0.3137 -0.9635 -0.6147
   96SAPC  H12Y 9477   6.647   3.117   4.464 -0.8933 -0.4372  0.2484
   96SAPC  C313 9478   6.543   3.226   4.626 -0.2394  0.2970  0.5208
   96SAPC  H13X 9479   6.475   3.142   4.650 -0.0182  0.0655  0.3529
   96SAPC  H13Y 9480   6.476   3.313   4.642 -0.3718  0.5757 -1.3140
   96SAPC  C314 9481   6.661   3.210   4.727  0.0366  0.0301  0.2518
   96SAPC  H14X 9482   6.738   3.286   4.704  0.5785  0.0289  1.9893
   96SAPC  H14Y 9483   6.699   3.108   4.707  1.1918  0.7560 -1.5124
   96SAPC  C315 9484   6.610   3.220   4.874 -0.4671  0.6477  0.3210
   96SAPC  H15X 9485   6.567   3.322   4.883 -1.7107  0.1431  0.3347
   96SAPC  H15Y 9486   6.701   3.210   4.937  0.8117 -0.9309 -1.6282
   96SAPC  C316 9487   6.516   3.109   4.908  0.2661 -0.2516  0.5536
   96SAPC  H16X 9488   6.557   3.011   4.875 -1.3155 -0.8969  0.4145
   96SAPC  H16Y 9489   6.421   3.144   4.863  0.4567  2.0017  1.7487
   96SAPC  C317 9490   6.487   3.081   5.055 -0.8941  0.0140  0.5837
   96SAPC  H17X 9491   6.574   3.041   5.110 -1.2086  1.9078  2.5988
   96SAPC  H17Y 9492   6.416   2.996   5.046  0.7003 -1.3848  0.7042
   96SAPC  C318 9493   6.424   3.208   5.115 -0.5120  0.0106  0.0548
   96SAPC  H18X 9494   6.346   3.245   5.046 -1.5994 -1.8391  0.1979
   96SAPC  H18Y 9495   6.504   3.282   5.136 -2.2611  0.9739  4.5112
   96SAPC  H18Z 9496   6.382   3.176   5.213  2.1961 -2.1832  0.6408
   97SAPC     N 9497   5.868   0.532   2.956 -0.2935  0.1810  0.2129
   97SAPC   C12 9498   6.022   0.532   2.951 -0.0773  0.2899  0.2928
   97SAPC  H12A 9499   6.057   0.591   2.867 -0.2325 -1.1852 -0.8553
   97SAPC  H12B 9500   6.064   0.435   2.929  1.1326  0.6799  0.8335
   97SAPC   C13 9501   5.829   0.676   2.971 -0.6965 -0.7383  0.4197
   97SAPC  H13A 9502   5.874   0.711   3.062 -1.9310 -0.3199  0.8886
   97SAPC  H13B 9503   5.866   0.739   2.892  1.1095 -1.6499  0.4972
   97SAPC  H13C 9504   5.722   0.678   2.984 -0.4562 -1.8996  3.2297
   97SAPC   C14 9505   5.819   0.478   2.825  0.2563 -0.0820 -0.5271
   97SAPC  H14A 9506   5.845   0.548   2.747 -0.1560  0.1224 -0.4795
   97SAPC  H14B 9507   5.857   0.378   2.813 -2.1047 -0.9633 -1.0869
   97SAPC  H14C 9508   5.712   0.471   2.825  0.2169  0.2273  0.7447
   97SAPC   C15 9509   5.809   0.449   3.069 -0.5743 -0.2650  0.1732
   97SAPC  H15A 9510   5.844   0.348   3.056  1.9597  0.3880  1.2779
   97SAPC  H15B 9511   5.861   0.476   3.160  0.9186  1.8337 -1.2159
   97SAPC  H15C 9512   5.702   0.448   3.080 -0.6356 -0.6845 -0.4001
   97SAPC   C11 9513   6.101   0.581   3.069 -0.1175  0.6882 -0.6694
   97SAPC  H11A 9514   6.205   0.542   3.068 -0.8273 -1.4659  1.3361
   97SAPC  H11B 9515   6.058   0.541   3.164  0.9913  1.0896  0.0296
   97SAPC     P 9516   6.147   0.838   2.997 -0.3923 -0.2911  0.1906
   97SAPC   O13 9517   6.191   0.797   2.861 -0.2757 -0.6040 -0.4997
   97SAPC   O14 9518   6.042   0.945   2.992  0.4122 -0.4570  0.1674
   97SAPC   O12 9519   6.092   0.718   3.092  0.4584 -0.2640 -0.3258
   97SAPC   O11 9520   6.274   0.897   3.072  0.3252 -0.5229  0.7850
   97SAPC    C1 9521   6.380   0.808   3.081  0.2875  1.1403 -0.0932
   97SAPC    HA 9522   6.368   0.707   3.036  2.3517  1.0463 -0.5154
   97SAPC    HB 9523   6.477   0.851   3.049 -0.8773  2.4786 -1.9572
   97SAPC    C2 9524   6.383   0.762   3.230 -0.2022  0.8399 -0.1812
   97SAPC    HS 9525   6.277   0.741   3.255 -0.5677 -0.0063 -2.1973
   97SAPC   O21 9526   6.435   0.862   3.313 -0.7455 -0.2451 -0.6672
   97SAPC   C21 9527   6.351   0.929   3.388  0.0586  0.1386 -0.4344
   97SAPC   O22 9528   6.229   0.924   3.384  0.0690  0.0564  0.2312
   97SAPC   C22 9529   6.427   0.992   3.506  0.0649  0.0018  0.7858
   97SAPC   H2R 9530   6.510   0.921   3.522  0.6462  0.5857  0.4121
   97SAPC   H2S 9531   6.484   1.084   3.480  1.2742 -0.2469  2.3634
   97SAPC    C3 9532   6.462   0.631   3.261 -0.4458 -0.3664  0.3605
   97SAPC    HX 9533   6.569   0.645   3.233 -0.0515 -0.9652  1.5037
   97SAPC    HY 9534   6.421   0.557   3.189  0.3073  1.9674 -2.6892
   97SAPC   O31 9535   6.466   0.590   3.403  0.6541 -0.0079 -0.0306
   97SAPC   C31 9536   6.431   0.467   3.430  0.0097 -0.1642  0.0274
   97SAPC   O32 9537   6.395   0.381   3.347  0.6365  0.0389  0.1481
   97SAPC   C32 9538   6.431   0.442   3.582 -0.1279 -0.2330 -0.2213
   97SAPC   H2X 9539   6.531   0.403   3.612  1.1324  1.8398 -1.4512
   97SAPC   H2Y 9540   6.340   0.382   3.605 -0.9396  1.7365  2.2102
   97SAPC   C23 9541   6.333   1.007   3.632 -0.5853 -0.1605 -0.0805
   97SAPC   H3R 9542   6.291   0.905   3.642  1.5792 -0.9102  2.8892
   97SAPC   H3S 9543   6.245   1.074   3.626 -1.8306 -1.1650  3.8855
   97SAPC   C24 9544   6.411   1.033   3.759  0.1247 -0.2013  0.7590
   97SAPC   H4R 9545   6.505   0.977   3.777  0.5693 -0.1304 -1.1933
   97SAPC   H4S 9546   6.344   0.989   3.836  0.6546 -2.1162  0.1822
   97SAPC   C25 9547   6.438   1.180   3.782 -0.0878  0.0084 -0.0337
   97SAPC   H5R 9548   6.455   1.244   3.694  0.4537 -0.8804 -0.5901
   97SAPC   C26 9549   6.432   1.248   3.903 -0.2608  0.8488  0.4281
   97SAPC   H6R 9550   6.440   1.358   3.901  0.9998  0.7518 -1.6069
   97SAPC   C27 9551   6.408   1.192   4.041  0.1187  0.7093  0.2477
   97SAPC   H7R 9552   6.468   1.099   4.056  0.2568  0.7838  0.1608
   97SAPC   H7S 9553   6.305   1.148   4.039  1.4316 -2.7112  0.7825
   97SAPC   C28 9554   6.404   1.290   4.158 -0.2756 -0.1763  0.7750
   97SAPC   H8R 9555   6.307   1.338   4.177  0.2397  0.4517  1.9538
   97SAPC   C29 9556   6.506   1.316   4.239 -0.4666  0.5458  0.1007
   97SAPC   H9R 9557   6.500   1.398   4.312  0.7019  0.6296  0.1211
   97SAPC  C210 9558   6.642   1.255   4.220  0.8447  0.0092  0.2429
   97SAPC  H10R 9559   6.677   1.293   4.122  0.5899  2.3866  1.0187
   97SAPC  H10S 9560   6.643   1.145   4.205 -1.0911  0.1737 -1.5677
   97SAPC  C211 9561   6.751   1.286   4.323  0.8283 -0.3728  0.1068
   97SAPC  H11R 9562   6.839   1.330   4.274  0.6805  0.4874  0.5882
   97SAPC  C212 9563   6.751   1.302   4.459  0.3214  0.3820 -0.0899
   97SAPC  H12R 9564   6.849   1.307   4.509 -0.2938 -0.6259  1.2908
   97SAPC  C213 9565   6.638   1.293   4.561  0.0414  0.6532 -0.2190
   97SAPC  H13R 9566   6.665   1.212   4.633 -0.0087 -1.4205 -2.4303
   97SAPC  H13S 9567   6.549   1.254   4.507  0.2175  1.2715 -0.9668
   97SAPC  C214 9568   6.599   1.424   4.624  0.2338 -0.2624  0.7415
   97SAPC  H14R 9569   6.537   1.483   4.555  1.9081  1.8107  0.8941
   97SAPC  C215 9570   6.646   1.483   4.733  0.3140  0.0812 -0.3946
   97SAPC  H15R 9571   6.611   1.581   4.770  1.1354 -0.3385  1.6546
   97SAPC  C216 9572   6.742   1.423   4.833 -0.7313 -0.6956 -0.2867
   97SAPC  H16R 9573   6.792   1.339   4.781 -0.0814  0.2940 -1.3031
   97SAPC  H16S 9574   6.686   1.378   4.918 -0.8584  0.7303  0.4123
   97SAPC  C217 9575   6.854   1.513   4.890  0.3838 -0.3068  0.8160
   97SAPC  H17R 9576   6.825   1.620   4.898  2.2283  0.3049 -0.0263
   97SAPC  H17S 9577   6.937   1.512   4.816 -1.4611 -1.0533 -1.3952
   97SAPC  C218 9578   6.905   1.472   5.025  0.4853 -0.0634 -0.5053
   97SAPC  H18R 9579   6.962   1.376   5.016 -1.8008 -1.5105 -0.3575
   97SAPC  H18S 9580   6.817   1.470   5.092  1.4510  1.2514  0.8763
   97SAPC  C219 9581   6.998   1.572   5.089  0.0850  0.1201 -0.0668
   97SAPC  H19R 9582   6.940   1.665   5.103  2.1430  1.1988  1.7606
   97SAPC  H19S 9583   7.083   1.594   5.020  1.4539 -1.5615  0.9994
   97SAPC  C220 9584   7.036   1.527   5.229 -0.9738 -0.6360 -0.1869
   97SAPC  H20R 9585   7.069   1.613   5.291 -0.3210  0.6938 -2.2664
   97SAPC  H20S 9586   7.112   1.446   5.236 -0.4606 -0.0348  1.9189
   97SAPC  H20T 9587   6.947   1.488   5.282  0.0688  0.0775  2.2299
   97SAPC   C33 9588   6.421   0.563   3.682  0.6288  0.9258  0.4357
   97SAPC   H3X 9589   6.332   0.617   3.642 -0.9290 -0.8528  1.3486
   97SAPC   H3Y 9590   6.514   0.619   3.660  0.5637  0.3543 -1.5883
   97SAPC   C34 9591   6.399   0.543   3.828  0.3662 -0.1105 -0.6666
   97SAPC   H4X 9592   6.497   0.514   3.871 -1.0344 -1.1940  2.0540
   97SAPC   H4Y 9593   6.327   0.466   3.862 -0.5265  1.1044  0.2910
   97SAPC   C35 9594   6.339   0.674   3.883  0.1127 -0.2088  0.1086
   97SAPC   H5X 9595   6.256   0.691   3.812  0.0136 -0.6427  0.1143
   97SAPC   H5Y 9596   6.412   0.755   3.862 -0.0876 -0.1670 -0.4234
   97SAPC   C36 9597   6.305   0.660   4.030  0.3234 -1.0546 -0.1125
   97SAPC   H6X 9598   6.391   0.608   4.078  1.5975  0.4517 -0.7092
   97SAPC   H6Y 9599   6.211   0.604   4.051  0.4583 -1.3904 -0.3909
   97SAPC   C37 9600   6.295   0.799   4.103  0.0985 -0.3490  0.1762
   97SAPC   H7X 9601   6.195   0.846   4.096  0.1259 -0.2718  0.3057
   97SAPC   H7Y 9602   6.366   0.862   4.046 -1.1501 -1.2085 -2.4897
   97SAPC   C38 9603   6.338   0.793   4.253 -0.3034 -0.4366 -0.0600
   97SAPC   H8X 9604   6.448   0.789   4.269  0.0580  3.2465 -0.6962
   97SAPC   H8Y 9605   6.291   0.701   4.294  1.2094 -0.9212  0.6526
   97SAPC   C39 9606   6.273   0.907   4.331 -0.2175 -0.3036 -0.3303
   97SAPC   H9X 9607   6.164   0.908   4.313 -0.5354  0.2234  1.3947
   97SAPC   H9Y 9608   6.307   1.010   4.306 -0.2545  0.2217  1.6094
   97SAPC  C310 9609   6.304   0.887   4.475  0.6681  0.8389  0.2587
   97SAPC  H10X 9610   6.409   0.922   4.479  1.0619 -0.3125  0.3029
   97SAPC  H10Y 9611   6.296   0.779   4.500  1.3845  0.7053 -0.0727
   97SAPC  C311 9612   6.210   0.963   4.580 -0.3329 -0.4291  0.5532
   97SAPC  H11X 9613   6.104   0.935   4.566  0.1090 -1.4658 -0.9928
   97SAPC  H11Y 9614   6.223   1.074   4.577 -0.0190 -0.4269  1.5154
   97SAPC  C312 9615   6.241   0.929   4.729 -0.0885  0.2284 -0.1140
   97SAPC  H12X 9616   6.229   0.819   4.740 -0.4468 -0.2406 -3.7657
   97SAPC  H12Y 9617   6.156   0.972   4.785 -1.6332 -0.6587 -1.6783
   97SAPC  C313 9618   6.378   0.968   4.778 -0.2385  0.1572 -0.6484
   97SAPC  H13X 9619   6.406   1.070   4.742  0.6919  0.2692  0.3216
   97SAPC  H13Y 9620   6.456   0.896   4.744  0.3246  0.5855 -0.2927
   97SAPC  C314 9621   6.379   0.964   4.935  0.7695  0.3971 -0.4816
   97SAPC  H14X 9622   6.354   0.860   4.964 -0.6106  0.7610 -0.2919
   97SAPC  H14Y 9623   6.302   1.037   4.967  0.7587  0.5359 -0.8184
   97SAPC  C315 9624   6.514   1.018   4.983  0.3110 -0.5346  0.2080
   97SAPC  H15X 9625   6.553   1.082   4.901  1.7918  2.5779  3.1172
   97SAPC  H15Y 9626   6.580   0.929   4.984  0.1745 -0.6298  1.2157
   97SAPC  C316 9627   6.509   1.097   5.116  0.0821 -0.7007 -0.1457
   97SAPC  H16X 9628   6.452   1.034   5.188  2.6920 -1.7543  1.1410
   97SAPC  H16Y 9629   6.459   1.196   5.114  0.3611 -0.5663 -1.0145
   97SAPC  C317 9630   6.649   1.129   5.161 -0.1701 -0.1824 -0.0094
   97SAPC  H17X 9631   6.684   1.202   5.085 -2.3611 -0.7299 -1.6197
   97SAPC  H17Y 9632   6.715   1.040   5.162  1.7144  1.0622 -2.1421
   97SAPC  C318 9633   6.664   1.193   5.302  0.3827  0.1503 -0.2759
   97SAPC  H18X 9634   6.761   1.171   5.353 -1.4113 -0.5198  3.1383
   97SAPC  H18Y 9635   6.584   1.145   5.362  0.8312 -0.0203  0.1898
   97SAPC  H18Z 9636   6.636   1.300   5.298 -0.0994  0.3453  3.6746
   98SAPC     N 9637   3.687   3.517   2.633 -0.1984 -0.0436  0.1429
   98SAPC   C12 9638   3.680   3.599   2.760 -0.1173 -0.2939  0.6269
   98SAPC  H12A 9639   3.689   3.704   2.733 -1.3797 -0.0330  1.1609
   98SAPC  H12B 9640   3.771   3.592   2.817  2.5290  1.0559 -2.9858
   98SAPC   C13 9641   3.646   3.376   2.665  0.4842 -0.0091 -0.1733
   98SAPC  H13A 9642   3.716   3.322   2.728 -1.1880 -1.4647  0.5299
   98SAPC  H13B 9643   3.547   3.368   2.708  1.1678  1.4508  1.8415
   98SAPC  H13C 9644   3.650   3.327   2.569  1.6584  0.6649 -0.4899
   98SAPC   C14 9645   3.593   3.573   2.528  0.1376  0.6189 -0.4616
   98SAPC  H14A 9646   3.605   3.530   2.430  1.5053  1.4741 -0.6944
   98SAPC  H14B 9647   3.493   3.551   2.562 -0.3588  0.9370 -1.6729
   98SAPC  H14C 9648   3.614   3.679   2.531 -0.3143  0.7424  3.1911
   98SAPC   C15 9649   3.819   3.514   2.572 -0.6108 -0.5585  0.3371
   98SAPC  H15A 9650   3.853   3.615   2.556 -4.2415  0.8135  0.3861
   98SAPC  H15B 9651   3.889   3.463   2.638 -2.0857 -2.3520  0.6089
   98SAPC  H15C 9652   3.811   3.452   2.484 -1.5666  0.3193 -0.2105
   98SAPC   C11 9653   3.553   3.568   2.835 -0.1185  0.7135 -0.6645
   98SAPC  H11A 9654   3.550   3.649   2.911  2.6082 -0.1983  0.5203
   98SAPC  H11B 9655   3.557   3.467   2.880 -0.8040  0.1263 -1.8580
   98SAPC     P 9656   3.305   3.507   2.767  0.0018 -0.2736  0.5760
   98SAPC   O13 9657   3.200   3.567   2.682  0.1020 -0.9688 -0.0258
   98SAPC   O14 9658   3.348   3.366   2.745 -0.0024 -0.0821 -0.3127
   98SAPC   O12 9659   3.436   3.594   2.755  0.2656  0.3973 -0.7147
   98SAPC   O11 9660   3.270   3.527   2.919 -0.3027 -0.4665  0.6289
   98SAPC    C1 9661   3.168   3.603   2.968  0.9260 -0.0514 -1.1383
   98SAPC    HA 9662   3.088   3.629   2.896 -0.1480 -0.1939 -0.0343
   98SAPC    HB 9663   3.117   3.549   3.050  0.4637  2.8289  0.6185
   98SAPC    C2 9664   3.211   3.735   3.047 -0.1984  0.2192  0.3050
   98SAPC    HS 9665   3.261   3.802   2.974 -2.3970 -0.3716 -1.8967
   98SAPC   O21 9666   3.309   3.695   3.145  0.5961  0.1445  0.5450
   98SAPC   C21 9667   3.397   3.784   3.177  1.0264  0.1955  0.2320
   98SAPC   O22 9668   3.418   3.890   3.120  0.4573 -0.1122  0.4330
   98SAPC   C22 9669   3.486   3.746   3.296 -0.6015 -0.4733 -1.0221
   98SAPC   H2R 9670   3.490   3.638   3.324 -0.1274 -0.1651  0.1832
   98SAPC   H2S 9671   3.588   3.769   3.258  0.7739 -1.1794  1.9660
   98SAPC    C3 9672   3.090   3.808   3.103  0.3136 -0.7371  0.1064
   98SAPC    HX 9673   3.029   3.728   3.149 -0.9167 -1.6437 -2.8484
   98SAPC    HY 9674   3.030   3.852   3.021  1.8696  0.1215 -0.6265
   98SAPC   O31 9675   3.117   3.913   3.202  0.0916 -0.0933  0.6065
   98SAPC   C31 9676   3.131   4.033   3.161  0.3661 -0.4054  0.8660
   98SAPC   O32 9677   3.105   4.085   3.054  0.4800 -0.5684 -0.3700
   98SAPC   C32 9678   3.168   4.119   3.283  0.5504  0.2946 -0.5037
   98SAPC   H2X 9679   3.141   4.225   3.261  2.1898  0.6694 -0.8552
   98SAPC   H2Y 9680   3.276   4.118   3.311  0.2259  0.6100  0.8196
   98SAPC   C23 9681   3.474   3.841   3.421  0.2953  0.1267  0.1203
   98SAPC   H3R 9682   3.461   3.948   3.393  0.5948  1.1357  3.4185
   98SAPC   H3S 9683   3.567   3.829   3.481  0.2125  0.4554  0.3191
   98SAPC   C24 9684   3.355   3.801   3.514  0.6802  0.6458 -0.8740
   98SAPC   H4R 9685   3.263   3.799   3.451 -0.5262  3.2160  0.6389
   98SAPC   H4S 9686   3.330   3.880   3.588 -0.7737  0.2869 -0.9584
   98SAPC   C25 9687   3.387   3.674   3.585  0.0951  0.1442 -0.2653
   98SAPC   H5R 9688   3.410   3.593   3.515 -0.5988  0.0024 -0.3382
   98SAPC   C26 9689   3.374   3.642   3.712  0.0570  1.0510 -0.4178
   98SAPC   H6R 9690   3.399   3.538   3.735  3.2228  2.1548  1.9110
   98SAPC   C27 9691   3.322   3.720   3.828 -0.1426  0.3991  0.0867
   98SAPC   H7R 9692   3.274   3.653   3.902  0.4124  0.3249  0.3854
   98SAPC   H7S 9693   3.229   3.760   3.783 -0.7833  1.4588  2.2093
   98SAPC   C28 9694   3.397   3.841   3.887  0.4433  0.5654 -0.3065
   98SAPC   H8R 9695   3.436   3.913   3.813 -1.4212  0.5337 -1.3758
   98SAPC   C29 9696   3.410   3.869   4.016 -0.2691 -0.5382 -0.7883
   98SAPC   H9R 9697   3.447   3.966   4.053 -1.6568 -0.5793  0.8235
   98SAPC  C210 9698   3.352   3.785   4.128  0.2585  0.5542  0.5440
   98SAPC  H10R 9699   3.437   3.761   4.195  1.0964 -0.0186 -0.7053
   98SAPC  H10S 9700   3.304   3.688   4.101 -3.1715  1.3918  2.8954
   98SAPC  C211 9701   3.238   3.844   4.206  0.3087  0.2571  0.8441
   98SAPC  H11R 9702   3.141   3.839   4.154 -0.3841 -2.6073  2.1973
   98SAPC  C212 9703   3.235   3.889   4.333 -0.4235  0.4129 -0.2843
   98SAPC  H12R 9704   3.140   3.912   4.383 -0.1013  0.0843  0.4889
   98SAPC  C213 9705   3.351   3.900   4.430 -0.0123  0.0493  0.6020
   98SAPC  H13R 9706   3.390   4.005   4.435  0.2464 -0.0026 -0.2661
   98SAPC  H13S 9707   3.432   3.834   4.393 -1.6134 -1.8758  0.3761
   98SAPC  C214 9708   3.334   3.849   4.573  0.4884 -0.1683  0.7413
   98SAPC  H14R 9709   3.261   3.767   4.584  0.0649  0.2917  1.5479
   98SAPC  C215 9710   3.408   3.882   4.678 -0.1850  0.2015 -0.1208
   98SAPC  H15R 9711   3.382   3.831   4.772 -0.1665  1.1953  0.4463
   98SAPC  C216 9712   3.521   3.986   4.691  0.2045  0.0016  0.4577
   98SAPC  H16R 9713   3.481   4.079   4.737  0.4817 -0.1552  1.0224
   98SAPC  H16S 9714   3.559   4.016   4.591 -0.8591 -0.2589 -0.0346
   98SAPC  C217 9715   3.631   3.925   4.782  0.2570 -0.6332 -0.3752
   98SAPC  H17R 9716   3.725   3.986   4.779  0.6255 -1.0638  1.2569
   98SAPC  H17S 9717   3.671   3.834   4.734  0.0102 -0.0194 -1.7946
   98SAPC  C218 9718   3.591   3.902   4.928  0.1482  0.8144 -0.4568
   98SAPC  H18R 9719   3.666   3.822   4.945  3.8266  3.7343 -1.6779
   98SAPC  H18S 9720   3.488   3.862   4.942 -0.0158  1.6355  0.8702
   98SAPC  C219 9721   3.629   4.009   5.029 -0.2533 -0.1847 -0.0191
   98SAPC  H19R 9722   3.576   4.105   5.010 -0.1825 -0.5564 -2.3677
   98SAPC  H19S 9723   3.739   4.015   5.019 -0.2516  1.6903  0.7109
   98SAPC  C220 9724   3.604   3.955   5.173  0.7247 -0.0423  0.5391
   98SAPC  H20R 9725   3.661   4.022   5.241  0.8343  0.0023  0.4066
   98SAPC  H20S 9726   3.642   3.851   5.173 -1.1636 -0.8656 -2.4633
   98SAPC  H20T 9727   3.495   3.955   5.192  0.6338  1.5311  0.1738
   98SAPC   C33 9728   3.112   4.060   3.417  0.2032  0.0059  0.5618
   98SAPC   H3X 9729   3.111   3.949   3.428  0.4675 -0.0663 -0.0892
   98SAPC   H3Y 9730   3.004   4.085   3.426 -1.4691 -5.1377 -1.2164
   98SAPC   C34 9731   3.173   4.116   3.553 -0.2271 -0.2078  0.5026
   98SAPC   H4X 9732   3.170   4.227   3.550  0.6841 -0.1862 -0.0980
   98SAPC   H4Y 9733   3.282   4.097   3.558  0.1272  1.2119 -0.9887
   98SAPC   C35 9734   3.098   4.067   3.683 -0.2130 -0.0651 -0.2833
   98SAPC   H5X 9735   3.114   3.958   3.695  0.0288 -0.0208 -0.1956
   98SAPC   H5Y 9736   2.993   4.087   3.654 -1.0578  0.0259  2.5204
   98SAPC   C36 9737   3.125   4.150   3.803 -0.3783 -0.3410  0.3072
   98SAPC   H6X 9738   3.126   4.259   3.780  2.7437 -0.4234 -0.4905
   98SAPC   H6Y 9739   3.224   4.124   3.846 -0.2980  0.2814  0.5102
   98SAPC   C37 9740   3.030   4.132   3.914  0.7004  0.7598 -0.3023
   98SAPC   H7X 9741   2.996   4.026   3.916  1.7157  0.3756 -1.5477
   98SAPC   H7Y 9742   2.938   4.189   3.891  0.4872  1.1417  1.3738
   98SAPC   C38 9743   3.091   4.179   4.041  0.4963 -0.0369 -0.6522
   98SAPC   H8X 9744   3.153   4.271   4.030  0.7489  0.1744  1.9109
   98SAPC   H8Y 9745   3.170   4.109   4.074  2.1573  2.2606  0.5108
   98SAPC   C39 9746   2.992   4.186   4.157 -0.2641 -0.6231  0.2372
   98SAPC   H9X 9747   2.936   4.090   4.159  1.6857 -1.8269  0.2208
   98SAPC   H9Y 9748   2.934   4.276   4.129 -2.1284 -2.1594 -1.0525
   98SAPC  C310 9749   3.067   4.211   4.291 -0.5268  0.2234  0.6818
   98SAPC  H10X 9750   3.101   4.317   4.289 -0.2538  0.2041  2.5397
   98SAPC  H10Y 9751   3.166   4.161   4.291  0.1825  1.4046 -2.1536
   98SAPC  C311 9752   2.984   4.174   4.416 -0.0513 -0.0145  0.0454
   98SAPC  H11X 9753   2.969   4.064   4.409  2.0651 -0.3240 -0.5610
   98SAPC  H11Y 9754   2.889   4.231   4.413 -0.9577 -1.4896 -0.4850
   98SAPC  C312 9755   3.071   4.221   4.536  0.1725 -0.3512 -0.5646
   98SAPC  H12X 9756   3.094   4.329   4.535  0.7488 -0.3845  2.1112
   98SAPC  H12Y 9757   3.171   4.173   4.545  1.7454  2.6823 -0.6952
   98SAPC  C313 9758   3.008   4.181   4.673  0.5318  0.4559 -0.5013
   98SAPC  H13X 9759   2.909   4.231   4.684 -0.4811 -1.7487  1.2411
   98SAPC  H13Y 9760   3.079   4.216   4.751  2.7172 -1.8787 -1.2929
   98SAPC  C314 9761   2.985   4.027   4.685  0.2165 -0.6382 -0.2463
   98SAPC  H14X 9762   3.078   3.978   4.649 -0.1838 -0.9320 -0.8903
   98SAPC  H14Y 9763   2.905   4.001   4.613 -0.5661  0.4952  0.1786
   98SAPC  C315 9764   2.938   3.976   4.827 -0.2621 -0.5882 -0.0221
   98SAPC  H15X 9765   2.940   3.865   4.830 -0.6669 -0.5801  0.9688
   98SAPC  H15Y 9766   2.839   4.019   4.853 -0.3234 -1.0592  0.5585
   98SAPC  C316 9767   3.031   4.020   4.941  0.5592  0.0522  0.1955
   98SAPC  H16X 9768   2.983   3.977   5.032  0.3641 -1.1842 -0.4577
   98SAPC  H16Y 9769   3.020   4.129   4.958  0.7525 -0.0522  1.0786
   98SAPC  C317 9770   3.181   3.995   4.926 -0.0675 -0.5293 -0.0952
   98SAPC  H17X 9771   3.211   4.026   4.824  2.4389  2.5320  1.3835
   98SAPC  H17Y 9772   3.193   3.885   4.940 -1.7909 -0.8111 -0.6663
   98SAPC  C318 9773   3.259   4.070   5.031 -0.1275 -0.3845 -0.3747
   98SAPC  H18X 9774   3.222   4.172   5.055  1.5307  0.4113 -1.0189
   98SAPC  H18Y 9775   3.366   4.081   5.000  0.4297 -0.1031  1.5149
   98SAPC  H18Z 9776   3.259   4.012   5.125 -2.0470  0.3562  0.1202
   99SAPC     N 9777   0.216   6.132   2.855  0.2573 -0.6310  0.1319
   99SAPC   C12 9778   0.127   6.122   2.983  0.0300 -0.1140 -0.1092
   99SAPC  H12A 9779   0.038   6.182   2.979 -0.1866 -0.2168  2.0395
   99SAPC  H12B 9780   0.183   6.168   3.063 -1.3841  0.4217  0.5925
   99SAPC   C13 9781   0.340   6.049   2.869 -0.1024  0.4602  0.1323
   99SAPC  H13A 9782   0.404   6.054   2.782  2.1067  0.5158  1.6868
   99SAPC  H13B 9783   0.403   6.090   2.947 -0.1591  2.2812 -0.7249
   99SAPC  H13C 9784   0.321   5.943   2.878  0.5915 -0.0808 -3.4148
   99SAPC   C14 9785   0.137   6.080   2.737 -0.2929  0.0158 -0.9182
   99SAPC  H14A 9786   0.193   6.081   2.644 -0.8811  0.5044 -1.2762
   99SAPC  H14B 9787   0.106   5.978   2.751  1.8967 -0.6227 -0.4620
   99SAPC  H14C 9788   0.036   6.120   2.733 -0.9266 -1.5974 -2.0306
   99SAPC   C15 9789   0.239   6.281   2.830  0.0067 -0.3697  0.1368
   99SAPC  H15A 9790   0.310   6.290   2.750 -1.3896 -0.9049 -1.2283
   99SAPC  H15B 9791   0.147   6.331   2.802 -1.2233 -2.5425 -0.0053
   99SAPC  H15C 9792   0.273   6.337   2.915  0.0425  0.6884 -0.5552
   99SAPC   C11 9793   0.080   5.981   3.029  0.5857  0.5071  0.1550
   99SAPC  H11A 9794   0.023   5.991   3.124 -1.4351  0.2183 -0.9599
   99SAPC  H11B 9795   0.168   5.916   3.045  1.5049  1.6335 -0.2185
   99SAPC     P 9796  -0.153   5.941   2.919  0.2192  0.0288  0.0748
   99SAPC   O13 9797  -0.175   6.082   2.891  0.0267 -0.0524 -0.1696
   99SAPC   O14 9798  -0.222   5.842   2.829 -0.6248  0.6358  0.0920
   99SAPC   O12 9799  -0.001   5.911   2.933  0.9420 -0.5630  0.2564
   99SAPC   O11 9800  -0.207   5.915   3.068  0.0224 -0.5314 -0.3343
   99SAPC    C1 9801  -0.195   5.791   3.130  0.1495  0.5663 -0.0843
   99SAPC    HA 9802  -0.256   5.716   3.076  1.4212  0.6637 -1.7349
   99SAPC    HB 9803  -0.090   5.760   3.147 -0.2305 -0.6449  0.1610
   99SAPC    C2 9804  -0.250   5.795   3.275 -0.0777 -0.8757  0.2195
   99SAPC    HS 9805  -0.361   5.809   3.275  0.0777  0.6086 -0.3910
   99SAPC   O21 9806  -0.185   5.890   3.355  0.2696 -0.2231 -0.1798
   99SAPC   C21 9807  -0.229   6.018   3.339 -0.8956 -0.2257  0.2897
   99SAPC   O22 9808  -0.326   6.055   3.276  0.4229 -0.3773  0.1693
   99SAPC   C22 9809  -0.138   6.114   3.409 -0.7167 -0.6757  0.5275
   99SAPC   H2R 9810  -0.033   6.097   3.378 -0.6706  0.7540 -0.1712
   99SAPC   H2S 9811  -0.155   6.221   3.386  3.5826  0.6213  2.3347
   99SAPC    C3 9812  -0.251   5.661   3.357  0.1810 -0.1316  0.0732
   99SAPC    HX 9813  -0.155   5.612   3.329  0.3181  0.6086 -0.8294
   99SAPC    HY 9814  -0.330   5.595   3.314  0.1089  0.7475 -1.2184
   99SAPC   O31 9815  -0.274   5.678   3.497  0.1473 -0.0387 -0.0501
   99SAPC   C31 9816  -0.211   5.597   3.578  0.6032 -0.0274 -0.4855
   99SAPC   O32 9817  -0.124   5.517   3.551  1.1414  0.4719 -0.0087
   99SAPC   C32 9818  -0.254   5.625   3.721  0.7449 -0.0507 -0.7122
   99SAPC   H2X 9819  -0.364   5.611   3.724  0.7579  0.0069  1.0345
   99SAPC   H2Y 9820  -0.241   5.733   3.744 -0.7444 -0.0548  0.3307
   99SAPC   C23 9821  -0.148   6.106   3.565 -0.7786 -0.3107 -0.0506
   99SAPC   H3R 9822  -0.148   6.000   3.597  0.2526 -0.0204  0.9706
   99SAPC   H3S 9823  -0.245   6.149   3.599 -0.2780 -0.3275  1.4434
   99SAPC   C24 9824  -0.024   6.170   3.642  0.3166 -0.1145  0.1217
   99SAPC   H4R 9825   0.069   6.121   3.605  0.1875  0.2760 -0.7483
   99SAPC   H4S 9826  -0.030   6.141   3.749 -2.7668 -0.6785 -0.1040
   99SAPC   C25 9827  -0.032   6.316   3.624 -0.8556 -0.5293 -0.1555
   99SAPC   H5R 9828  -0.000   6.337   3.521 -1.3306  0.3614 -0.1359
   99SAPC   C26 9829  -0.051   6.415   3.713  0.2260  0.1525  0.5852
   99SAPC   H6R 9830  -0.056   6.520   3.680 -0.4629  0.0487  0.3468
   99SAPC   C27 9831  -0.082   6.394   3.860  0.3469 -0.2259  0.1020
   99SAPC   H7R 9832   0.013   6.404   3.916  0.4535 -0.2816 -0.0702
   99SAPC   H7S 9833  -0.104   6.287   3.880  0.4711 -0.0434  1.3148
   99SAPC   C28 9834  -0.191   6.480   3.921 -0.1159 -0.2014  0.0190
   99SAPC   H8R 9835  -0.204   6.575   3.866  3.7673  0.5237  0.1251
   99SAPC   C29 9836  -0.257   6.456   4.038 -0.3194 -0.4180  0.1543
   99SAPC   H9R 9837  -0.328   6.537   4.064  0.0704  0.2658 -0.8238
   99SAPC  C210 9838  -0.234   6.349   4.144 -0.9315  0.2233  0.1982
   99SAPC  H10R 9839  -0.223   6.248   4.099  0.3785  0.0699  0.8421
   99SAPC  H10S 9840  -0.323   6.341   4.211 -0.8511  0.4300  0.3286
   99SAPC  C211 9841  -0.106   6.367   4.223  0.0845  0.1102 -0.6166
   99SAPC  H11R 9842  -0.016   6.312   4.194  1.1160  1.1002  0.6197
   99SAPC  C212 9843  -0.095   6.459   4.321  0.5026  0.0367  0.5046
   99SAPC  H12R 9844   0.007   6.483   4.356  0.3718  0.2025  0.7762
   99SAPC  C213 9845  -0.203   6.544   4.388  0.2105  0.0967  0.2374
   99SAPC  H13R 9846  -0.205   6.528   4.498  0.6536 -1.7987 -0.0034
   99SAPC  H13S 9847  -0.301   6.519   4.340  1.7507 -4.3200 -1.0423
   99SAPC  C214 9848  -0.164   6.689   4.361 -0.3213 -0.0620  0.4088
   99SAPC  H14R 9849  -0.092   6.699   4.279  1.2294 -1.2465  1.5523
   99SAPC  C215 9850  -0.212   6.800   4.430 -0.1530  0.0871  0.1686
   99SAPC  H15R 9851  -0.177   6.902   4.406 -1.6138  0.9683  1.5714
   99SAPC  C216 9852  -0.332   6.795   4.530 -0.1456 -0.2243 -0.0229
   99SAPC  H16R 9853  -0.378   6.696   4.546 -1.0018  0.4719  2.2178
   99SAPC  H16S 9854  -0.413   6.859   4.489 -0.6600  0.3164  1.7661
   99SAPC  C217 9855  -0.298   6.850   4.670  0.5820 -0.1456  0.3280
   99SAPC  H17R 9856  -0.393   6.840   4.727  0.4104 -1.1758 -0.1164
   99SAPC  H17S 9857  -0.264   6.956   4.675 -0.2175  0.0494  2.3183
   99SAPC  C218 9858  -0.183   6.774   4.749 -0.1061 -1.0405 -0.5004
   99SAPC  H18R 9859  -0.085   6.787   4.698  1.0567 -0.0801  1.8240
   99SAPC  H18S 9860  -0.196   6.663   4.747 -0.9639 -1.0092  1.1425
   99SAPC  C219 9861  -0.168   6.816   4.896 -0.2224  0.1440  0.1283
   99SAPC  H19R 9862  -0.152   6.925   4.909  0.8812  0.3574 -2.4664
   99SAPC  H19S 9863  -0.074   6.764   4.925  0.1679 -0.4919 -2.0909
   99SAPC  C220 9864  -0.292   6.764   4.972  0.3671  0.0874 -0.7261
   99SAPC  H20R 9865  -0.393   6.777   4.929 -0.1501 -0.9741  0.1193
   99SAPC  H20S 9866  -0.296   6.808   5.074  0.8884 -0.1775 -0.5844
   99SAPC  H20T 9867  -0.295   6.655   4.992 -1.9512  0.1995 -0.1928
   99SAPC   C33 9868  -0.184   5.536   3.826  0.0645  0.0255  0.4929
   99SAPC   H3X 9869  -0.080   5.505   3.803  0.7127  0.5129  2.5335
   99SAPC   H3Y 9870  -0.235   5.438   3.835  1.1907 -0.7016 -0.5807
   99SAPC   C34 9871  -0.184   5.601   3.966  0.6069  0.4664  0.3889
   99SAPC   H4X 9872  -0.286   5.644   3.975  0.1671 -0.7666  1.7588
   99SAPC   H4Y 9873  -0.107   5.681   3.973  2.2793 -0.8460 -1.7651
   99SAPC   C35 9874  -0.174   5.500   4.078  0.4412  0.2670  0.0140
   99SAPC   H5X 9875  -0.097   5.422   4.063 -1.3959 -2.2898  2.5845
   99SAPC   H5Y 9876  -0.266   5.441   4.099 -0.1772  1.1945 -0.0012
   99SAPC   C36 9877  -0.148   5.560   4.213 -0.2583  0.7595  1.1438
   99SAPC   H6X 9878  -0.066   5.636   4.207  2.2933 -1.8987 -0.6201
   99SAPC   H6Y 9879  -0.099   5.480   4.272  1.7603  1.1250  0.0663
   99SAPC   C37 9880  -0.260   5.602   4.303 -0.2745 -0.2412  0.6878
   99SAPC   H7X 9881  -0.327   5.513   4.311 -1.7406  0.8319  0.8347
   99SAPC   H7Y 9882  -0.318   5.681   4.251 -2.5313 -1.5828  1.0356
   99SAPC   C38 9883  -0.221   5.656   4.446  0.3856  0.5806 -0.1275
   99SAPC   H8X 9884  -0.194   5.764   4.439  0.8539  0.5876  1.3187
   99SAPC   H8Y 9885  -0.128   5.597   4.462  0.3827 -0.3335 -2.8796
   99SAPC   C39 9886  -0.336   5.639   4.547 -0.3692  0.6063  0.3929
   99SAPC   H9X 9887  -0.349   5.531   4.568 -1.0762  0.8908  1.4788
   99SAPC   H9Y 9888  -0.427   5.679   4.497 -1.6723 -3.1420 -0.5167
   99SAPC  C310 9889  -0.315   5.728   4.674 -1.0034  0.2552  0.2750
   99SAPC  H10X 9890  -0.299   5.837   4.655  1.2932 -0.0256  0.3701
   99SAPC  H10Y 9891  -0.217   5.693   4.713 -1.5661 -2.7727 -0.7511
   99SAPC  C311 9892  -0.432   5.701   4.774 -0.1998 -0.0468  0.1113
   99SAPC  H11X 9893  -0.447   5.593   4.799 -0.2778  0.2502  1.3946
   99SAPC  H11Y 9894  -0.526   5.730   4.723 -0.0483 -0.8066 -0.6335
   99SAPC  C312 9895  -0.419   5.779   4.902  0.1899 -0.1793  0.6305
   99SAPC  H12X 9896  -0.439   5.886   4.881 -0.4402  0.5239  4.1661
   99SAPC  H12Y 9897  -0.316   5.769   4.940 -0.4671 -2.7406  1.9523
   99SAPC  C313 9898  -0.519   5.740   5.009 -0.9407 -0.5825  0.0175
   99SAPC  H13X 9899  -0.492   5.634   5.031  1.0860 -0.8626 -3.1365
   99SAPC  H13Y 9900  -0.619   5.733   4.961 -0.6387  1.9765 -1.1554
   99SAPC  C314 9901  -0.518   5.824   5.139  1.0035  0.5036 -0.2080
   99SAPC  H14X 9902  -0.568   5.916   5.102 -0.2028  0.0810  0.3415
   99SAPC  H14Y 9903  -0.414   5.843   5.174  0.5442 -0.0480  1.5846
   99SAPC  C315 9904  -0.589   5.748   5.252  0.3698  0.1647 -0.1252
   99SAPC  H15X 9905  -0.528   5.664   5.291  0.9900  0.0886 -1.2180
   99SAPC  H15Y 9906  -0.682   5.708   5.206  0.2354 -0.8954  1.0048
   99SAPC  C316 9907  -0.638   5.823   5.369  1.0436 -0.1527  0.2846
   99SAPC  H16X 9908  -0.738   5.782   5.393  1.3122 -1.1619 -0.2198
   99SAPC  H16Y 9909  -0.639   5.931   5.342  0.2013 -0.1116  0.4574
   99SAPC  C317 9910  -0.571   5.802   5.502 -0.0471 -0.2535 -0.3708
   99SAPC  H17X 9911  -0.602   5.709   5.554  1.8123 -1.0086 -0.5353
   99SAPC  H17Y 9912  -0.591   5.890   5.567  2.8659  0.0920  0.1994
   99SAPC  C318 9913  -0.423   5.789   5.498 -0.4457 -0.4462 -0.2363
   99SAPC  H18X 9914  -0.386   5.689   5.468  2.2853  0.1453  0.8624
   99SAPC  H18Y 9915  -0.370   5.807   5.593  1.6853 -2.1600 -1.0114
   99SAPC  H18Z 9916  -0.380   5.858   5.422 -0.4822  0.6078  0.6827
  100SAPC     N 9917   4.790   6.434   3.282  0.1582 -0.5845  0.1858
  100SAPC   C12 9918   4.682   6.545   3.244  0.2813 -0.6343 -0.1557
  100SAPC  H12A 9919   4.723   6.641   3.272 -3.1659  1.1437 -0.5880
  100SAPC  H12B 9920   4.593   6.537   3.305 -0.4688  1.0390 -0.9582
  100SAPC   C13 9921   4.823   6.452   3.420  0.1083  0.1836  0.4035
  100SAPC  H13A 9922   4.736   6.432   3.481  0.3946  0.2374  0.8379
  100SAPC  H13B 9923   4.897   6.378   3.447  1.3808  0.9230 -0.8883
  100SAPC  H13C 9924   4.874   6.545   3.443  2.0837 -0.2387 -1.9256
  100SAPC   C14 9925   4.737   6.295   3.263 -0.2253  0.5039  0.1567
  100SAPC  H14A 9926   4.643   6.283   3.315 -1.1360  0.5807 -1.3927
  100SAPC  H14B 9927   4.722   6.274   3.158  2.2316 -1.7482  0.1318
  100SAPC  H14C 9928   4.822   6.234   3.290 -0.2007  0.7230  0.5644
  100SAPC   C15 9929   4.907   6.447   3.200 -0.1801 -0.0021 -0.6812
  100SAPC  H15A 9930   4.965   6.536   3.217 -1.7014  1.0008 -0.5776
  100SAPC  H15B 9931   4.968   6.359   3.214 -1.6659 -0.7694  1.4903
  100SAPC  H15C 9932   4.892   6.452   3.093  1.0777  2.4170 -0.8148
  100SAPC   C11 9933   4.645   6.547   3.088 -0.3130 -0.3524 -0.4024
  100SAPC  H11A 9934   4.549   6.598   3.068  0.0603  0.2317 -0.7437
  100SAPC  H11B 9935   4.644   6.439   3.060  0.1867 -0.8350  1.2803
  100SAPC     P 9936   4.783   6.757   3.010 -0.3454  0.3217  0.1997
  100SAPC   O13 9937   4.926   6.776   3.038 -0.3554  0.2780  0.0032
  100SAPC   O14 9938   4.734   6.799   2.878 -0.1859 -0.0854  0.0658
  100SAPC   O12 9939   4.754   6.596   3.014 -0.4691  0.3645 -0.5180
  100SAPC   O11 9940   4.688   6.801   3.126  0.8309 -0.0180  1.2614
  100SAPC    C1 9941   4.673   6.929   3.177 -0.1452  0.0427 -0.1831
  100SAPC    HA 9942   4.774   6.972   3.199  1.0906 -3.2340  1.0963
  100SAPC    HB 9943   4.621   6.998   3.107  0.6484 -2.7062 -3.7589
  100SAPC    C2 9944   4.604   6.921   3.320  0.2742  0.0279  0.4774
  100SAPC    HS 9945   4.602   7.026   3.356  2.3469 -0.2586  1.5969
  100SAPC   O21 9946   4.683   6.841   3.405 -0.6182 -0.0096 -0.1590
  100SAPC   C21 9947   4.795   6.896   3.447 -0.2285  0.1510  0.0623
  100SAPC   O22 9948   4.827   7.009   3.429 -0.0831 -0.3087  0.0194
  100SAPC   C22 9949   4.867   6.803   3.537  0.2718 -0.1606 -0.2843
  100SAPC   H2R 9950   4.795   6.745   3.599 -0.7142 -0.8626 -2.0096
  100SAPC   H2S 9951   4.931   6.733   3.480  0.6351  0.0203 -0.0961
  100SAPC    C3 9952   4.453   6.886   3.325 -0.9628 -0.3951  0.3097
  100SAPC    HX 9953   4.455   6.776   3.307  1.0970 -0.3965  0.2433
  100SAPC    HY 9954   4.408   6.919   3.229  2.1769 -2.4988 -2.1213
  100SAPC   O31 9955   4.378   6.939   3.438 -0.2540 -0.4818  0.4076
  100SAPC   C31 9956   4.342   6.852   3.531  0.4933 -0.4243  0.0488
  100SAPC   O32 9957   4.340   6.732   3.507  0.3150 -0.1154 -0.0829
  100SAPC   C32 9958   4.266   6.922   3.649  0.1671  0.5795  0.0721
  100SAPC   H2X 9959   4.160   6.890   3.636  1.2510 -3.3683 -0.4822
  100SAPC   H2Y 9960   4.273   7.032   3.646  0.8853  0.5549  0.6082
  100SAPC   C23 9961   4.967   6.880   3.625 -0.4484  0.1024  0.3233
  100SAPC   H3R 9962   4.920   6.943   3.704 -2.3317 -0.3869 -0.3576
  100SAPC   H3S 9963   5.038   6.932   3.557 -3.1894  1.9670 -1.3228
  100SAPC   C24 9964   5.060   6.783   3.711  0.7462 -0.0337 -0.0910
  100SAPC   H4R 9965   5.149   6.838   3.748 -0.3937 -0.1060  3.1222
  100SAPC   H4S 9966   5.090   6.700   3.643  0.5059 -1.4135  1.4298
  100SAPC   C25 9967   4.998   6.736   3.838  0.2244 -0.1175 -0.7522
  100SAPC   H5R 9968   4.924   6.655   3.834 -0.6266  0.5649  0.5283
  100SAPC   C26 9969   5.024   6.785   3.961  0.5236  1.1008  0.3614
  100SAPC   H6R 9970   4.963   6.744   4.043  0.1895  0.3073 -0.2580
  100SAPC   C27 9971   5.128   6.888   4.000  0.7097 -0.2349  0.5392
  100SAPC   H7R 9972   5.139   6.963   3.919  0.3715 -0.7167  0.0394
  100SAPC   H7S 9973   5.225   6.839   4.023  0.4322 -0.7021  0.7315
  100SAPC   C28 9974   5.087   6.967   4.121 -0.1175 -0.9624  0.4006
  100SAPC   H8R 9975   5.044   7.061   4.086  0.5262 -1.4794 -1.9396
  100SAPC   C29 9976   5.119   6.951   4.251  0.1316 -0.2526 -0.5926
  100SAPC   H9R 9977   5.097   7.030   4.325  0.8949 -0.6307  0.0512
  100SAPC  C210 9978   5.196   6.831   4.311 -0.0221  0.4792  0.2019
  100SAPC  H10R 9979   5.253   6.861   4.402 -0.1881 -1.3139  0.9415
  100SAPC  H10S 9980   5.270   6.802   4.234 -1.5297  2.1368 -1.9880
  100SAPC  C211 9981   5.121   6.706   4.346 -0.1307 -0.0541  0.6671
  100SAPC  H11R 9982   5.045   6.675   4.272 -0.7057 -0.5427  1.4475
  100SAPC  C212 9983   5.147   6.632   4.457  0.7500  0.0330 -0.4641
  100SAPC  H12R 9984   5.092   6.537   4.472 -0.4323  0.8348  0.4822
  100SAPC  C213 9985   5.252   6.664   4.562 -0.0830  0.8870 -0.1377
  100SAPC  H13R 9986   5.256   6.773   4.584 -0.0030  0.5885  1.4735
  100SAPC  H13S 9987   5.353   6.640   4.523 -1.6470 -1.5731 -3.1258
  100SAPC  C214 9988   5.225   6.577   4.685  0.3632 -1.0719  0.1826
  100SAPC  H14R 9989   5.222   6.467   4.673 -2.1763 -1.1476  1.0488
  100SAPC  C215 9990   5.211   6.619   4.813  0.0039  0.4057 -0.0472
  100SAPC  H15R 9991   5.188   6.548   4.894 -2.0094  0.9843 -0.0465
  100SAPC  C216 9992   5.222   6.766   4.862 -0.3045 -0.2687  0.5885
  100SAPC  H16R 9993   5.186   6.826   4.776 -0.8540 -0.4442  0.6962
  100SAPC  H16S 9994   5.330   6.789   4.877 -0.0238 -1.6444  0.8313
  100SAPC  C217 9995   5.132   6.791   4.978  0.1197  0.0376 -0.4774
  100SAPC  H17R 9996   5.033   6.743   4.963 -0.2793  0.8284 -0.4293
  100SAPC  H17S 9997   5.114   6.898   5.000 -0.8805 -0.5098  1.6200
  100SAPC  C218 9998   5.195   6.746   5.118  0.5618  0.4859  0.2842
  100SAPC  H18R 9999   5.293   6.798   5.127  0.6275  0.1279  2.0210
  100SAPC  H18S10000   5.207   6.638   5.096  0.9836  1.0126 -2.4264
  100SAPC  C21910001   5.101   6.786   5.237 -0.1915 -0.0581 -0.1898
  100SAPC  H19R10002   5.067   6.892   5.237 -2.0320 -0.5920  0.9049
  100SAPC  H19S10003   5.168   6.771   5.324  1.2493 -1.4472 -1.4595
  100SAPC  C22010004   4.972   6.704   5.237  0.2396 -0.8599  0.2740
  100SAPC  H20R10005   4.899   6.735   5.315 -2.2805  0.2532 -2.2952
  100SAPC  H20S10006   5.005   6.599   5.254  2.2535  0.0198  2.1375
  100SAPC  H20T10007   4.915   6.713   5.141 -2.6352 -0.3408  1.9148
  100SAPC   C3310008   4.311   6.866   3.786  1.0177 -0.4717 -0.2165
  100SAPC   H3X10009   4.314   6.756   3.774  2.0141 -0.5483  0.6259
  100SAPC   H3Y10010   4.233   6.889   3.862 -2.2352  0.0300 -3.4215
  100SAPC   C3410011   4.444   6.914   3.826 -0.1834 -0.3295  0.5630
  100SAPC   H4X10012   4.461   7.023   3.819  0.3591 -0.3144  1.8403
  100SAPC   H4Y10013   4.522   6.859   3.769 -0.6420  0.2843 -0.6874
  100SAPC   C3510014   4.477   6.870   3.970 -0.2176  0.1234 -0.4108
  100SAPC   H5X10015   4.480   6.759   3.970  4.3581 -0.0062  1.8956
  100SAPC   H5Y10016   4.405   6.906   4.047  0.5796  0.9398 -0.0233
  100SAPC   C3610017   4.616   6.915   4.008 -0.3337 -0.1459 -0.5551
  100SAPC   H6X10018   4.608   7.025   3.989 -0.5845 -0.7003 -4.5927
  100SAPC   H6Y10019   4.700   6.885   3.941  0.0987  1.0693 -0.5817
  100SAPC   C3710020   4.656   6.878   4.155  0.4809  0.0428 -0.0660
  100SAPC   H7X10021   4.767   6.884   4.164  0.6272  0.3051 -1.7714
  100SAPC   H7Y10022   4.638   6.769   4.171 -2.1343  0.4687  0.3984
  100SAPC   C3810023   4.579   6.953   4.261  0.1132  0.0081  0.4620
  100SAPC   H8X10024   4.469   6.947   4.244  0.4106  0.4162 -1.9478
  100SAPC   H8Y10025   4.599   7.062   4.264 -0.5864  0.1209  1.2940
  100SAPC   C3910026   4.615   6.894   4.405  0.8594  0.0124  0.6188
  100SAPC   H9X10027   4.601   6.784   4.410 -0.8460  0.0796 -1.1421
  100SAPC   H9Y10028   4.532   6.940   4.463 -1.5413 -0.8267 -1.9120
  100SAPC  C31010029   4.756   6.948   4.452  0.6892  0.6285 -0.6587
  100SAPC  H10X10030   4.783   7.038   4.392  0.0403  0.5508 -1.0744
  100SAPC  H10Y10031   4.823   6.862   4.431 -0.6447 -1.3426  2.5156
  100SAPC  C31110032   4.762   6.982   4.595 -0.0189 -0.0869 -0.5197
  100SAPC  H11X10033   4.689   7.064   4.613  0.0790 -0.2066  0.5116
  100SAPC  H11Y10034   4.858   7.033   4.617 -0.8934  1.8628 -0.9506
  100SAPC  C31210035   4.749   6.866   4.694  0.0697 -0.1820  0.4352
  100SAPC  H12X10036   4.802   6.774   4.660 -1.5849 -1.4570  1.1537
  100SAPC  H12Y10037   4.643   6.838   4.713 -0.3153 -0.0227 -1.2917
  100SAPC  C31310038   4.816   6.896   4.835 -0.4389 -0.5562  0.3158
  100SAPC  H13X10039   4.919   6.910   4.795 -1.1863 -0.5831 -1.7262
  100SAPC  H13Y10040   4.812   6.803   4.895  0.0125 -1.1151 -0.4888
  100SAPC  C31410041   4.756   7.008   4.915 -0.1998  0.0790  0.5946
  100SAPC  H14X10042   4.650   7.012   4.881 -0.2610 -1.8669  0.4226
  100SAPC  H14Y10043   4.799   7.109   4.899  0.8197 -0.6575 -1.7885
  100SAPC  C31510044   4.746   6.983   5.067 -0.4131  0.1150 -0.0181
  100SAPC  H15X10045   4.851   6.967   5.102 -0.3509 -1.0168 -0.6902
  100SAPC  H15Y10046   4.686   6.891   5.077 -1.7064  1.0919  2.0371
  100SAPC  C31610047   4.698   7.090   5.155  0.1476 -0.6350 -0.0754
  100SAPC  H16X10048   4.755   7.186   5.145  1.3538 -1.3804 -0.6356
  100SAPC  H16Y10049   4.693   7.061   5.262  2.3714 -0.8594  0.0246
  100SAPC  C31710050   4.562   7.139   5.105 -0.7956  0.0471 -0.2511
  100SAPC  H17X10051   4.505   7.043   5.111  3.1829 -2.4663  1.2248
  100SAPC  H17Y10052   4.570   7.165   4.997  0.2469 -2.7403 -0.9323
  100SAPC  C31810053   4.504   7.251   5.197 -0.3300  0.0744 -0.0647
  100SAPC  H18X10054   4.398   7.271   5.169 -0.7729 -1.6282  0.2971
  100SAPC  H18Y10055   4.552   7.350   5.184  1.2444 -0.5024  1.1039
  100SAPC  H18Z10056   4.521   7.214   5.301 -0.2896 -3.0228 -1.0865
  101OSM      N10057   3.612   3.898   7.670 -0.6384  0.1568  0.1908
  101OSM    C1510058   3.692   4.029   7.650  0.1965 -0.0916 -0.6998
  101OSM   H15A10059   3.721   4.073   7.744 -0.7452 -0.7550 -0.0860
  101OSM   H15B10060   3.638   4.104   7.594  1.7872  1.9477  0.3620
  101OSM   H15C10061   3.784   4.008   7.596  0.6612  0.7121 -0.2337
  101OSM    C1410062   3.701   3.802   7.747  0.2249 -0.3831  0.8231
  101OSM   H14A10063   3.780   3.783   7.675 -0.9630 -0.0512 -0.5980
  101OSM   H14B10064   3.654   3.706   7.760 -0.4742 -0.3911 -1.3717
  101OSM   H14C10065   3.735   3.844   7.841 -0.3931 -0.8370  1.2593
  101OSM    C1310066   3.496   3.939   7.768 -0.5142 -0.5927  0.4896
  101OSM   H13A10067   3.439   4.015   7.716 -1.9037 -0.0143  2.7106
  101OSM   H13B10068   3.540   3.985   7.856  1.5138  3.1864 -2.1837
  101OSM   H13C10069   3.434   3.853   7.785 -0.9288 -0.0347  1.9656
  101OSM    C1210070   3.570   3.845   7.538 -0.1204 -0.0373  0.1406
  101OSM   H12A10071   3.496   3.909   7.494 -1.2658 -1.8441 -0.6961
  101OSM   H12B10072   3.517   3.755   7.564 -0.4120  0.1873  0.3216
  101OSM    C1110073   3.681   3.803   7.431  0.1208 -0.6030 -0.3902
  101OSM   H11A10074   3.733   3.896   7.396  1.6071 -0.3442  2.2076
  101OSM   H11B10075   3.632   3.759   7.343 -0.7580 -1.3298  0.4477
  101OSM      P10076   3.733   3.557   7.500  0.4445  0.0886 -0.1060
  101OSM    O1310077   3.823   3.499   7.600 -0.2042  0.3763  0.0375
  101OSM    O1410078   3.585   3.557   7.517  0.1027  0.2935  0.0949
  101OSM    O1110079   3.765   3.495   7.358  0.3349 -0.5687 -0.2423
  101OSM    O1210080   3.779   3.708   7.478  0.6683 -0.4660 -0.1032
  101OSM    C1S10081   3.891   3.524   7.298 -0.0177  0.8058  0.9574
  101OSM    H1S10082   3.980   3.485   7.351  0.9290  0.2137 -0.9615
  101OSM    H1T10083   3.901   3.634   7.294  0.1516  0.9553  3.6898
  101OSM     NF10084   4.043   3.446   7.123  0.3483  0.2842 -0.4407
  101OSM    HNF10085   4.082   3.511   7.058  2.6558 -0.3311  0.2323
  101OSM    C2S10086   3.907   3.461   7.158 -0.0448  0.4201  0.5444
  101OSM    H2S10087   3.862   3.361   7.172  0.3888  0.2144  0.4910
  101OSM    C3S10088   3.825   3.544   7.057 -0.8971  0.1375  0.0491
  101OSM    H3S10089   3.876   3.642   7.058  0.9865 -0.7306  2.9342
  101OSM     O310090   3.696   3.585   7.108  0.3201 -0.4317 -0.2732
  101OSM    HO310091   3.702   3.572   7.203  2.2410  0.9824 -0.1404
  101OSM    C4S10092   3.825   3.479   6.924  0.1335  0.3015  0.4429
  101OSM    H4S10093   3.920   3.470   6.870  0.1207  1.5093  0.1850
  101OSM    C5S10094   3.719   3.418   6.870 -0.2230  0.4757 -0.3633
  101OSM    H5S10095   3.624   3.409   6.925 -0.7799  0.0730 -1.3661
  101OSM    C6S10096   3.709   3.340   6.744  0.2108 -0.3751  0.0765
  101OSM    H6S10097   3.679   3.410   6.662  0.5461  1.1109  1.1888
  101OSM    H6T10098   3.625   3.268   6.753  1.1110 -1.1440  4.3746
  101OSM    C7S10099   3.834   3.278   6.675  0.7325 -0.8888 -0.4330
  101OSM    H7S10100   3.874   3.201   6.745 -0.1291 -0.4426  0.5908
  101OSM    H7T10101   3.904   3.360   6.649  2.4963 -2.2347 -0.1104
  101OSM    C8S10102   3.783   3.213   6.541 -0.3745  0.1269 -0.5898
  101OSM    H8S10103   3.724   3.286   6.482 -2.1389 -1.1903 -0.5430
  101OSM    H8T10104   3.710   3.129   6.552  1.4172 -1.5413 -0.7696
  101OSM    C9S10105   3.891   3.167   6.444  0.3213  0.8171  0.1134
  101OSM    H9S10106   3.840   3.099   6.372 -1.1602  2.8459 -0.8698
  101OSM    H9T10107   3.969   3.100   6.485  0.6408 -0.7295 -2.7127
  101OSM   C10S10108   3.965   3.282   6.376 -0.1740  0.2514 -0.1301
  101OSM   H10S10109   4.005   3.344   6.459 -0.9380 -0.1624  0.5501
  101OSM   H10T10110   3.894   3.352   6.326  0.5893  0.4555 -0.9639
  101OSM   C11S10111   4.065   3.243   6.269  0.0636  0.2734  0.4371
  101OSM   H11S10112   4.112   3.150   6.308 -1.8207 -1.6133 -1.4798
  101OSM   H11T10113   4.139   3.324   6.254 -2.0706  2.0864 -0.8077
  101OSM   C12S10114   3.999   3.199   6.132 -0.5580  0.0699 -0.2346
  101OSM   H12S10115   3.983   3.302   6.094  1.3366  0.7109  0.6123
  101OSM   H12T10116   3.909   3.135   6.145  0.2280 -1.2159 -0.9147
  101OSM   C13S10117   4.091   3.129   6.026 -0.2282 -0.7747 -0.0138
  101OSM   H13S10118   4.113   3.025   6.057 -1.2023 -0.7988  0.6313
  101OSM   H13T10119   4.196   3.166   6.020  0.3863 -2.4173  0.1367
  101OSM   C14S10120   4.037   3.132   5.877 -0.4426 -0.0923 -0.5881
  101OSM   H14S10121   4.028   3.241   5.862  1.7824  0.3901  0.9219
  101OSM   H14T10122   3.937   3.088   5.860 -1.0560  1.6750 -1.8042
  101OSM   C15S10123   4.125   3.065   5.770 -0.1029 -0.2879  0.5029
  101OSM   H15S10124   4.057   3.038   5.686 -2.0209  2.1747  1.1521
  101OSM   H15T10125   4.168   2.977   5.822  1.1425  0.7909  1.3683
  101OSM   C16S10126   4.237   3.142   5.698  0.4767  0.3433 -0.2077
  101OSM   H16S10127   4.272   3.083   5.611  1.2899 -1.3377  1.1757
  101OSM   H16T10128   4.328   3.162   5.759  0.4568 -0.7209  0.2004
  101OSM   C17S10129   4.200   3.275   5.630 -0.0287 -0.2471  0.6330
  101OSM   H17S10130   4.176   3.351   5.708  1.5832 -2.0995  3.0949
  101OSM   H17T10131   4.106   3.268   5.572  1.0511 -0.5527 -1.1800
  101OSM   C18S10132   4.314   3.342   5.553  0.2883  0.7236  0.5000
  101OSM   H18S10133   4.391   3.384   5.621  1.1472 -0.9818  0.6440
  101OSM   H18T10134   4.274   3.425   5.492  0.0086  0.1069 -0.1811
  101OSM   H18U10135   4.361   3.259   5.494 -0.7577 -0.4925  1.3200
  101OSM    C1F10136   4.128   3.356   7.176 -1.1143  0.3622 -0.7298
  101OSM     OF10137   4.086   3.278   7.264 -0.2997 -0.8103 -0.1310
  101OSM    C2F10138   4.268   3.341   7.128 -0.3704  0.4181 -0.6416
  101OSM    H2F10139   4.341   3.385   7.199 -1.0162  2.9105 -1.4052
  101OSM    H2G10140   4.281   3.401   7.035 -0.3513  1.6928  0.1681
  101OSM    C3F10141   4.317   3.204   7.083 -0.1721 -0.1314 -0.1824
  101OSM    H3F10142   4.325   3.142   7.175 -0.6908 -0.9105 -0.6583
  101OSM    H3G10143   4.418   3.219   7.038 -0.8048 -1.5772 -2.2114
  101OSM    C4F10144   4.227   3.117   6.987 -0.1956  0.7755 -0.0846
  101OSM    H4F10145   4.138   3.083   7.045 -0.2509  1.2863  0.1375
  101OSM    H4G10146   4.266   3.018   6.957 -1.4477  0.2008  0.1030
  101OSM    C5F10147   4.190   3.192   6.855 -0.5945  0.0587 -0.2572
  101OSM    H5F10148   4.266   3.270   6.834 -0.7375  0.5568  0.9784
  101OSM    H5G10149   4.092   3.245   6.859  0.6896  2.6732 -0.8608
  101OSM    C6F10150   4.189   3.104   6.730 -0.7532  0.1205 -0.1787
  101OSM    H6F10151   4.113   3.135   6.654 -1.0008 -1.4043 -0.5966
  101OSM    H6G10152   4.146   3.007   6.764  0.9343  0.3180  2.8482
  101OSM    C7F10153   4.323   3.079   6.657 -0.0680  0.0713  0.1389
  101OSM    H7F10154   4.399   3.038   6.726 -0.6992  1.4353  1.7163
  101OSM    H7G10155   4.348   3.180   6.618 -3.1971  0.4337 -1.2359
  101OSM    C8F10156   4.319   2.998   6.534 -0.6964  0.1536 -0.4773
  101OSM    H8F10157   4.254   3.024   6.448 -0.6998  0.6962 -0.3116
  101OSM    H8G10158   4.292   2.892   6.555 -0.2244  0.4564  1.9300
  101OSM    C9F10159   4.461   2.987   6.476 -0.8801  0.4469 -0.0665
  101OSM    H9F10160   4.538   2.933   6.532 -0.7900 -1.6157 -2.0473
  101OSM   C10F10161   4.491   3.016   6.348  0.0367  0.4214 -0.3501
  101OSM   H10F10162   4.599   3.010   6.327 -0.0444 -0.0779 -0.6517
  101OSM   C11F10163   4.415   3.070   6.234 -0.2019 -0.5372  0.0572
  101OSM   H11F10164   4.376   3.172   6.254 -1.6870 -0.9143 -0.8125
  101OSM   H11G10165   4.339   3.001   6.193  0.8256 -0.9266 -1.2575
  101OSM   C12F10166   4.513   3.085   6.114 -0.0720  0.5265 -0.0270
  101OSM   H12F10167   4.603   3.140   6.148 -1.0597  1.7969  0.6598
  101OSM   H12G10168   4.464   3.147   6.036 -2.0415 -1.2476 -0.2893
  101OSM   C13F10169   4.535   2.951   6.051  0.2175 -1.4038 -0.2982
  101OSM   H13F10170   4.446   2.890   6.027  0.0406 -1.0737 -0.4933
  101OSM   H13G10171   4.599   2.883   6.110 -0.3198 -1.8184 -0.1912
  101OSM   C14F10172   4.627   2.945   5.928  0.3336  0.1855  0.4259
  101OSM   H14F10173   4.619   2.840   5.894 -0.5540 -0.4718  2.5392
  101OSM   H14G10174   4.729   2.972   5.965  0.1070 -0.9786  1.9846
  101OSM   C15F10175   4.583   3.033   5.814 -0.1040  0.0987  0.4429
  101OSM   H15F10176   4.584   3.140   5.845 -0.0382  0.7644 -1.6488
  101OSM   H15G10177   4.475   3.015   5.794 -0.3350  1.5407  0.2349
  101OSM   C16F10178   4.665   3.014   5.685 -0.5738  0.0245  0.6873
  101OSM   H16F10179   4.689   2.905   5.687 -0.2301 -0.0092 -2.1411
  101OSM   H16G10180   4.756   3.077   5.684 -1.7121  1.7678 -1.0867
  101OSM   C17F10181   4.574   3.043   5.566 -0.6354  0.1610  0.1483
  101OSM   H17F10182   4.529   3.145   5.574 -1.0135 -0.0939  1.4371
  101OSM   H17G10183   4.487   2.975   5.557 -1.3269  0.9792  0.4624
  101OSM   C18F10184   4.648   3.024   5.437 -0.9268  0.2609  0.3610
  101OSM   H18F10185   4.667   2.919   5.405  0.6542  0.5371  0.2859
  101OSM   H18G10186   4.750   3.068   5.439 -0.4582 -0.5704 -2.1105
  101OSM   H18H10187   4.589   3.072   5.356 -0.5420 -2.2352 -1.5184
  102OSM      N10188   5.737   2.771   7.844 -0.8110  0.2979  1.0327
  102OSM    C1510189   5.694   2.883   7.934 -0.1027 -0.1844 -0.0616
  102OSM   H15A10190   5.603   2.838   7.972  0.7756 -2.4126 -0.4335
  102OSM   H15B10191   5.663   2.974   7.886  2.0179  0.5902 -0.0552
  102OSM   H15C10192   5.758   2.904   8.018 -1.1413  0.2421  0.6389
  102OSM    C1410193   5.772   2.649   7.930  0.3659  0.7012  0.6978
  102OSM   H14A10194   5.842   2.669   8.010  1.9720  0.2229 -0.5358
  102OSM   H14B10195   5.810   2.566   7.872 -0.9166 -0.3478  1.2943
  102OSM   H14C10196   5.684   2.612   7.981  0.7514 -0.8339  0.2903
  102OSM    C1310197   5.624   2.727   7.754 -0.5631  0.4401  0.2095
  102OSM   H13A10198   5.528   2.705   7.797 -3.3616  2.1882 -4.3708
  102OSM   H13B10199   5.665   2.640   7.704  0.6736  0.8304  0.5087
  102OSM   H13C10200   5.598   2.804   7.683  0.7146  1.1141  0.4437
  102OSM    C1210201   5.857   2.814   7.762  0.1530 -0.3824  0.2347
  102OSM   H12A10202   5.891   2.725   7.710 -3.1983 -0.3078 -2.4299
  102OSM   H12B10203   5.942   2.843   7.823  0.8519  0.6476 -1.1621
  102OSM    C1110204   5.840   2.920   7.647  0.0275  0.0456  0.1531
  102OSM   H11A10205   5.940   2.951   7.611  0.1801 -0.7010 -0.1072
  102OSM   H11B10206   5.789   3.013   7.677 -0.2166  0.8691 -2.5391
  102OSM      P10207   5.833   2.770   7.426 -0.4269  0.1842  0.0199
  102OSM    O1310208   5.913   2.660   7.482  0.1139  0.5119  0.0875
  102OSM    O1410209   5.729   2.733   7.326  0.0137  0.3076 -0.3396
  102OSM    O1110210   5.922   2.871   7.350 -0.4109  0.1988  0.0720
  102OSM    O1210211   5.764   2.856   7.539  0.3256 -0.4233  0.5560
  102OSM    C1S10212   5.990   2.834   7.226 -0.0444 -0.0243 -0.3378
  102OSM    H1S10213   6.039   2.735   7.238 -2.8587 -1.5129 -0.1568
  102OSM    H1T10214   6.070   2.908   7.204 -0.5197  0.1408 -1.5965
  102OSM     NF10215   5.985   2.818   6.976 -0.2851 -0.1892  0.5981
  102OSM    HNF10216   6.013   2.893   6.916 -1.9700 -0.3804 -0.4860
  102OSM    C2S10217   5.909   2.856   7.088 -0.0915 -1.1836 -0.2760
  102OSM    H2S10218   5.839   2.770   7.098  0.1362 -1.3887 -0.4391
  102OSM    C3S10219   5.847   3.000   7.075 -0.3256 -0.1306  0.0536
  102OSM    H3S10220   5.937   3.061   7.055 -0.5953  0.4065  0.4694
  102OSM     O310221   5.804   3.055   7.202  0.2050 -0.1948 -0.2776
  102OSM    HO310222   5.852   3.007   7.269  1.4530 -0.4438 -1.3035
  102OSM    C4S10223   5.732   3.006   6.972  0.3951 -0.2215  0.2009
  102OSM    H4S10224   5.765   3.030   6.870  0.5462  0.4140  0.3924
  102OSM    C5S10225   5.601   2.974   6.992 -0.8353 -0.5266 -0.6174
  102OSM    H5S10226   5.581   2.940   7.095  1.3458  0.0534  0.0783
  102OSM    C6S10227   5.494   3.002   6.895  0.1682  0.5355  0.1109
  102OSM    H6S10228   5.398   2.998   6.951 -0.1456 -1.6559 -0.4696
  102OSM    H6T10229   5.489   2.913   6.828  2.5723 -0.4162  1.1035
  102OSM    C7S10230   5.497   3.133   6.827  0.2370 -0.5135  0.0962
  102OSM    H7S10231   5.591   3.146   6.769  1.2236  0.0131  1.7366
  102OSM    H7T10232   5.498   3.213   6.904 -0.5677  0.1346 -0.5571
  102OSM    C8S10233   5.389   3.153   6.718 -0.7987 -0.4528  0.3583
  102OSM    H8S10234   5.289   3.130   6.760 -0.8081 -0.3561  0.3874
  102OSM    H8T10235   5.410   3.081   6.635  0.4254  0.2335  0.0447
  102OSM    C9S10236   5.399   3.291   6.660 -0.3227 -0.1267  0.6114
  102OSM    H9S10237   5.490   3.303   6.597 -1.0220  2.5235 -0.0563
  102OSM    H9T10238   5.396   3.371   6.738 -3.4104  0.5359 -0.0509
  102OSM   C10S10239   5.277   3.323   6.575  0.2297 -0.3401 -0.5324
  102OSM   H10S10240   5.184   3.318   6.636  0.6884  1.1137  0.3159
  102OSM   H10T10241   5.260   3.233   6.511  1.8982  0.0146 -1.5352
  102OSM   C11S10242   5.283   3.448   6.483  0.3985  0.2955 -0.5414
  102OSM   H11S10243   5.292   3.532   6.556 -0.3467 -0.1851  0.1242
  102OSM   H11T10244   5.183   3.470   6.439  1.3905  3.2270 -1.5859
  102OSM   C12S10245   5.385   3.445   6.371  0.1875  0.0769  0.1714
  102OSM   H12S10246   5.484   3.415   6.413 -0.1706  2.2217  2.8100
  102OSM   H12T10247   5.402   3.538   6.313 -1.8976 -1.4937 -3.2561
  102OSM   C13S10248   5.351   3.331   6.267 -0.1478 -0.0556 -0.6786
  102OSM   H13S10249   5.244   3.342   6.237  0.2446  2.7182 -1.3579
  102OSM   H13T10250   5.370   3.228   6.304 -1.2093 -0.4373 -1.1408
  102OSM   C14S10251   5.430   3.344   6.142  0.4103  0.5418 -0.1229
  102OSM   H14S10252   5.533   3.305   6.153  0.2996  0.5990  1.2196
  102OSM   H14T10253   5.442   3.450   6.107 -2.7196  1.5040  1.3890
  102OSM   C15S10254   5.364   3.257   6.033 -0.4009 -0.4819 -1.0658
  102OSM   H15S10255   5.258   3.288   6.018 -0.6132 -0.0586  1.0005
  102OSM   H15T10256   5.350   3.150   6.060  2.1974 -0.3964  0.9747
  102OSM   C16S10257   5.451   3.263   5.904  0.2779  0.1987 -0.4256
  102OSM   H16S10258   5.540   3.200   5.927 -2.3020 -3.8599 -0.5163
  102OSM   H16T10259   5.486   3.368   5.892  1.6570 -0.1880 -0.0549
  102OSM   C17S10260   5.373   3.203   5.780 -0.1416  0.7949 -0.7736
  102OSM   H17S10261   5.304   3.284   5.746  0.0569  1.0171 -0.6497
  102OSM   H17T10262   5.301   3.121   5.796  1.3152 -0.3420  0.1610
  102OSM   C18S10263   5.465   3.165   5.662  0.2300  0.2781  0.2012
  102OSM   H18S10264   5.534   3.082   5.686  0.8713  0.3661 -1.2455
  102OSM   H18T10265   5.527   3.257   5.652 -0.1796  0.3496 -2.2465
  102OSM   H18U10266   5.423   3.143   5.561  2.7386  1.7875 -1.2823
  102OSM    C1F10267   6.029   2.695   6.948  0.1498 -0.3984 -0.4045
  102OSM     OF10268   6.034   2.606   7.030 -0.6985  0.1119 -0.1093
  102OSM    C2F10269   6.088   2.683   6.813  0.7614 -0.7279 -0.2704
  102OSM    H2F10270   6.184   2.737   6.813 -0.2936  1.2543 -1.7202
  102OSM    H2G10271   6.031   2.737   6.735  1.2556  1.5701  0.8962
  102OSM    C3F10272   6.090   2.531   6.763 -0.3001  0.5117 -0.1902
  102OSM    H3F10273   5.999   2.477   6.796 -0.7870  0.5597 -1.3963
  102OSM    H3G10274   6.174   2.480   6.816 -0.0814  0.6776 -0.3760
  102OSM    C4F10275   6.116   2.519   6.613 -0.3249  0.4894 -0.1606
  102OSM    H4F10276   6.034   2.564   6.553  0.0227  2.1364  0.5357
  102OSM    H4G10277   6.127   2.412   6.589  0.5171  0.3420  0.7993
  102OSM    C5F10278   6.241   2.600   6.573  0.6226 -0.0819 -0.6181
  102OSM    H5F10279   6.325   2.578   6.642  0.0761  2.2905  0.9115
  102OSM    H5G10280   6.217   2.708   6.586 -0.2467 -0.3782  0.3904
  102OSM    C6F10281   6.275   2.570   6.421 -0.5561 -0.1708  0.2050
  102OSM    H6F10282   6.258   2.460   6.418  0.6915 -0.4237  1.1389
  102OSM    H6G10283   6.383   2.581   6.396 -1.2013  0.6603 -2.5779
  102OSM    C7F10284   6.205   2.660   6.317  0.0361  0.5885 -0.2411
  102OSM    H7F10285   6.111   2.705   6.357 -0.6199  1.8656 -2.9762
  102OSM    H7G10286   6.169   2.612   6.223  3.1173  2.1252 -2.3885
  102OSM    C8F10287   6.291   2.784   6.277  0.1096  0.0234 -0.1352
  102OSM    H8F10288   6.351   2.830   6.358 -0.5905 -0.3070  0.5949
  102OSM    H8G10289   6.232   2.866   6.231 -1.1228 -1.3956 -1.1803
  102OSM    C9F10290   6.389   2.734   6.176 -0.4010 -0.3977  0.6822
  102OSM    H9F10291   6.477   2.680   6.216  0.1969 -0.6017 -0.8594
  102OSM   C10F10292   6.383   2.751   6.044  0.0720  0.3281  0.5705
  102OSM   H10F10293   6.473   2.727   5.986 -0.8930 -2.1369 -0.0294
  102OSM   C11F10294   6.286   2.837   5.965 -1.2485 -0.1659  0.5782
  102OSM   H11F10295   6.209   2.893   6.023 -0.8172  0.4575  0.5604
  102OSM   H11G10296   6.239   2.774   5.887  0.7824  1.5122 -2.1652
  102OSM   C12F10297   6.377   2.933   5.878  0.7350  0.4389 -1.2874
  102OSM   H12F10298   6.460   2.881   5.825  1.1868  1.5723 -1.7241
  102OSM   H12G10299   6.434   3.005   5.940 -1.6919  1.6088 -0.2899
  102OSM   C13F10300   6.311   3.030   5.791 -0.2008 -0.5873  0.8659
  102OSM   H13F10301   6.249   3.107   5.841  0.4786  0.4543  0.1548
  102OSM   H13G10302   6.256   2.992   5.702 -0.1415  2.1332 -0.4610
  102OSM   C14F10303   6.433   3.106   5.714  0.4660 -0.0713  0.5793
  102OSM   H14F10304   6.472   3.025   5.648 -0.8453 -0.3336  0.0931
  102OSM   H14G10305   6.508   3.144   5.787 -1.4506  2.9417  1.1518
  102OSM   C15F10306   6.373   3.216   5.620 -0.5453  0.1861  0.2660
  102OSM   H15F10307   6.311   3.292   5.672 -1.4654 -0.2356 -0.1987
  102OSM   H15G10308   6.303   3.156   5.559 -0.0102 -0.9948  0.7684
  102OSM   C16F10309   6.481   3.269   5.522  0.2634  0.3255 -0.0834
  102OSM   H16F10310   6.428   3.326   5.443 -1.0254  0.4082  0.8024
  102OSM   H16G10311   6.534   3.178   5.485  0.3079 -0.1680  1.1467
  102OSM   C17F10312   6.594   3.352   5.586 -1.3741 -0.1651  0.1839
  102OSM   H17F10313   6.653   3.393   5.502  0.6053 -0.7524  1.2270
  102OSM   H17G10314   6.659   3.283   5.644 -0.9012  0.0381 -0.1011
  102OSM   C18F10315   6.559   3.466   5.688  0.2266  0.3052  0.1603
  102OSM   H18F10316   6.458   3.503   5.661 -1.7446 -3.4312  1.6188
  102OSM   H18G10317   6.629   3.553   5.683 -0.8550  1.2408  0.8372
  102OSM   H18H10318   6.568   3.423   5.790 -1.6256 -0.4522  0.0488
  103OSM      N10319   3.498   4.566   7.689  0.6062  0.4479  0.0377
  103OSM    C1510320   3.503   4.687   7.786  0.5514  0.4317  0.0211
  103OSM   H15A10321   3.480   4.660   7.888  0.7761 -0.4635 -0.1616
  103OSM   H15B10322   3.446   4.776   7.762 -1.8690 -0.6068  1.4925
  103OSM   H15C10323   3.606   4.720   7.790  0.3383  1.0982  0.1111
  103OSM    C1410324   3.604   4.463   7.721 -0.0779  0.4161 -0.2918
  103OSM   H14A10325   3.703   4.481   7.684 -1.1671  1.0299 -3.2088
  103OSM   H14B10326   3.565   4.367   7.690  0.9281 -1.1015  2.7031
  103OSM   H14C10327   3.613   4.456   7.829 -0.0118 -0.1624 -0.3287
  103OSM    C1310328   3.362   4.503   7.698  0.6966  0.0166 -0.3421
  103OSM   H13A10329   3.345   4.422   7.629  0.2229 -0.4543  0.3004
  103OSM   H13B10330   3.288   4.581   7.685  2.0633  1.8367  2.0503
  103OSM   H13C10331   3.343   4.458   7.795  0.8056 -0.7606 -0.6711
  103OSM    C1210332   3.526   4.608   7.546  0.1078  0.1417 -0.5195
  103OSM   H12A10333   3.448   4.676   7.515 -0.5420  0.1798  1.0827
  103OSM   H12B10334   3.504   4.528   7.478 -3.6626  0.8916 -0.3909
  103OSM    C1110335   3.662   4.676   7.509 -0.5012 -0.5907  0.2252
  103OSM   H11A10336   3.677   4.762   7.577 -2.0665 -1.0891  1.2671
  103OSM   H11B10337   3.650   4.705   7.403 -0.7817  0.6456  0.5841
  103OSM      P10338   3.913   4.637   7.581  0.3779  0.0017 -0.3897
  103OSM    O1310339   3.897   4.686   7.719  0.4318 -0.1123 -0.2745
  103OSM    O1410340   4.008   4.525   7.557 -0.1516  0.2077 -0.4002
  103OSM    O1110341   3.963   4.748   7.482  0.3225 -0.1342 -0.0963
  103OSM    O1210342   3.770   4.582   7.525  0.3313 -1.0455 -0.4541
  103OSM    C1S10343   3.984   4.727   7.341 -0.1847 -0.5039 -0.1564
  103OSM    H1S10344   3.900   4.771   7.283 -0.7949 -0.9696  0.3696
  103OSM    H1T10345   4.015   4.622   7.322 -0.4160 -0.4003 -1.1980
  103OSM     NF10346   4.110   4.810   7.134  0.0031 -0.4083 -0.0786
  103OSM    HNF10347   4.188   4.769   7.089  0.8343  0.6957  0.3040
  103OSM    C2S10348   4.111   4.803   7.289 -0.0874  0.0182 -0.2741
  103OSM    H2S10349   4.102   4.909   7.320 -2.2534 -0.8093  2.3214
  103OSM    C3S10350   4.239   4.752   7.361 -0.1678  0.3474  0.4536
  103OSM    H3S10351   4.264   4.645   7.341  0.7539  0.4934  0.7678
  103OSM     O310352   4.223   4.752   7.503  0.2763  0.1348 -0.3156
  103OSM    HO310353   4.128   4.764   7.511 -0.0094 -1.4586 -0.9643
  103OSM    C4S10354   4.359   4.837   7.318 -0.2391 -0.2658 -0.0064
  103OSM    H4S10355   4.398   4.812   7.219  0.0499  1.2666 -0.3026
  103OSM    C5S10356   4.416   4.939   7.381  0.7171 -0.2795 -0.5816
  103OSM    H5S10357   4.369   4.983   7.470  1.3112 -2.0492  0.6502
  103OSM    C6S10358   4.525   5.030   7.334 -0.2583  0.0255  0.4890
  103OSM    H6S10359   4.609   5.016   7.406 -1.4194  1.3286  2.1909
  103OSM    H6T10360   4.490   5.134   7.350  0.9067  0.7401 -1.3801
  103OSM    C7S10361   4.557   5.015   7.187  0.2868 -0.1776  0.2661
  103OSM    H7S10362   4.471   5.033   7.118  0.6362  0.7024  0.0472
  103OSM    H7T10363   4.595   4.912   7.170  1.4085 -0.0601  1.8592
  103OSM    C8S10364   4.673   5.108   7.143 -0.4817 -0.0699 -0.0416
  103OSM    H8S10365   4.754   5.106   7.219 -1.0296  0.5290  0.5712
  103OSM    H8T10366   4.631   5.211   7.147  2.4888  1.2918 -0.7646
  103OSM    C9S10367   4.730   5.084   7.007 -0.2839  0.3742 -0.0207
  103OSM    H9S10368   4.750   4.975   6.998  0.9318  0.6805 -1.2201
  103OSM    H9T10369   4.831   5.130   7.012  0.3953 -0.9310 -1.1158
  103OSM   C10S10370   4.644   5.134   6.895 -0.2796 -0.1412 -0.7261
  103OSM   H10S10371   4.647   5.245   6.898 -0.0419 -0.1714  0.9264
  103OSM   H10T10372   4.547   5.082   6.910 -0.1516  0.2231  1.6818
  103OSM   C11S10373   4.703   5.093   6.764 -0.2083  0.3445  1.1704
  103OSM   H11S10374   4.649   5.003   6.726 -0.5413  0.9076  0.2731
  103OSM   H11T10375   4.813   5.076   6.767 -0.4115 -1.2370  0.9126
  103OSM   C12S10376   4.669   5.193   6.647  0.4567 -0.6030 -0.5996
  103OSM   H12S10377   4.708   5.294   6.672 -1.4554 -0.0269  0.2102
  103OSM   H12T10378   4.561   5.219   6.653  1.1505  3.9045 -2.9346
  103OSM   C13S10379   4.704   5.145   6.510 -0.4582  0.4020  0.2709
  103OSM   H13S10380   4.672   5.038   6.500 -2.3969  1.0294 -0.8412
  103OSM   H13T10381   4.815   5.147   6.511 -0.4522  1.1145 -0.7164
  103OSM   C14S10382   4.657   5.230   6.398  0.1903 -0.4384 -0.0471
  103OSM   H14S10383   4.694   5.334   6.410  1.5844 -0.8995 -0.2480
  103OSM   H14T10384   4.546   5.219   6.400  0.1329  0.1752  0.2176
  103OSM   C15S10385   4.702   5.167   6.273 -0.0863 -0.2834 -0.1938
  103OSM   H15S10386   4.644   5.074   6.258 -1.1878 -0.3322  3.3997
  103OSM   H15T10387   4.811   5.146   6.278 -0.2034 -1.0364 -0.7571
  103OSM   C16S10388   4.691   5.261   6.156  0.2774  0.5177  0.3989
  103OSM   H16S10389   4.752   5.348   6.188  1.7716 -0.5842  0.6375
  103OSM   H16T10390   4.582   5.281   6.142  0.0974 -0.6117  0.0699
  103OSM   C17S10391   4.749   5.196   6.028 -0.2772 -0.3391  0.3631
  103OSM   H17S10392   4.709   5.093   6.023  1.0422 -0.8159 -0.9900
  103OSM   H17T10393   4.856   5.182   6.055  0.3574  0.5842 -1.5145
  103OSM   C18S10394   4.720   5.265   5.893  0.0272 -0.2203  0.4698
  103OSM   H18S10395   4.738   5.375   5.901  2.2070 -0.2304 -2.6780
  103OSM   H18T10396   4.622   5.241   5.845  0.2558  3.9490 -2.6397
  103OSM   H18U10397   4.797   5.220   5.827 -0.6509 -1.1947  0.3191
  103OSM    C1F10398   4.010   4.866   7.063 -0.5317  0.2334 -0.4607
  103OSM     OF10399   3.935   4.947   7.119  0.6983  0.1052  0.0099
  103OSM    C2F10400   4.001   4.834   6.918 -0.1745  0.0292  0.3881
  103OSM    H2F10401   4.045   4.732   6.906 -0.5820 -0.1071 -0.0012
  103OSM    H2G10402   4.057   4.897   6.846  1.6861 -3.0855 -1.1142
  103OSM    C3F10403   3.848   4.826   6.881  0.5023 -0.4280 -0.0894
  103OSM    H3F10404   3.816   4.932   6.877  1.3540  0.0066  2.6108
  103OSM    H3G10405   3.791   4.770   6.958 -2.1404  0.0678 -1.5686
  103OSM    C4F10406   3.821   4.748   6.751  0.1530 -0.2716  1.0659
  103OSM    H4F10407   3.713   4.745   6.728  0.2245 -1.1530  0.7790
  103OSM    H4G10408   3.831   4.638   6.766  0.0467 -0.5093 -0.4719
  103OSM    C5F10409   3.903   4.788   6.631 -0.1231 -0.6346 -0.7024
  103OSM    H5F10410   4.010   4.802   6.655 -0.1949 -0.8515 -0.2477
  103OSM    H5G10411   3.864   4.890   6.610 -2.5075 -1.3474 -0.0994
  103OSM    C6F10412   3.882   4.687   6.513 -0.5722  0.0871  0.1142
  103OSM    H6F10413   3.773   4.666   6.504 -0.6751  0.8791 -0.6527
  103OSM    H6G10414   3.950   4.601   6.532  0.6227  0.7331 -1.0424
  103OSM    C7F10415   3.918   4.754   6.378 -0.2336  0.1705  0.3838
  103OSM    H7F10416   3.899   4.862   6.394  0.1117  0.3670 -0.4552
  103OSM    H7G10417   3.845   4.724   6.299  1.1277  2.2092 -1.8051
  103OSM    C8F10418   4.067   4.735   6.332  0.4261  0.4295  0.7207
  103OSM    H8F10419   4.086   4.626   6.331 -1.2321  0.0735 -1.4595
  103OSM    H8G10420   4.135   4.783   6.406  1.6166 -1.1732  0.7282
  103OSM    C9F10421   4.079   4.802   6.196  0.3614 -0.4078 -0.6361
  103OSM    H9F10422   4.085   4.912   6.198  1.2859 -0.4423  1.3910
  103OSM   C10F10423   4.091   4.735   6.082 -0.2545 -0.2065 -0.8381
  103OSM   H10F10424   4.106   4.798   5.994 -1.5059  1.2339 -0.0596
  103OSM   C11F10425   4.095   4.582   6.052 -0.0423 -0.7032  0.0934
  103OSM   H11F10426   4.033   4.519   6.119 -1.5470  1.3749  0.7850
  103OSM   H11G10427   4.199   4.544   6.041  0.1656  0.3216 -1.8968
  103OSM   C12F10428   4.044   4.575   5.900  0.1930  0.0643 -0.3729
  103OSM   H12F10429   3.946   4.621   5.874 -0.5987 -1.6109 -0.5417
  103OSM   H12G10430   4.029   4.466   5.882 -0.8423  0.1227  0.0504
  103OSM   C13F10431   4.143   4.626   5.793 -0.4851 -0.0195 -0.6821
  103OSM   H13F10432   4.250   4.601   5.814 -0.6512 -1.2703 -1.2015
  103OSM   H13G10433   4.138   4.737   5.801  0.7644 -0.0714  2.0161
  103OSM   C14F10434   4.120   4.578   5.652  0.0422 -0.3659  0.6011
  103OSM   H14F10435   4.020   4.616   5.623 -0.0380  0.0026  1.3325
  103OSM   H14G10436   4.120   4.468   5.660 -4.4855 -0.7078 -1.3167
  103OSM   C15F10437   4.220   4.623   5.546  0.7672  0.6409 -0.1399
  103OSM   H15F10438   4.197   4.577   5.447  0.5314  0.1489  0.1391
  103OSM   H15G10439   4.322   4.587   5.572  0.2551 -0.5526  0.2959
  103OSM   C16F10440   4.222   4.781   5.530 -0.1909  0.1417 -0.2555
  103OSM   H16F10441   4.276   4.805   5.624  0.1810 -1.9186  0.1200
  103OSM   H16G10442   4.118   4.819   5.521 -0.2922 -0.0382  0.1551
  103OSM   C17F10443   4.311   4.822   5.411  0.7991  0.1439 -0.6876
  103OSM   H17F10444   4.260   4.904   5.357  3.0694  0.3998 -2.5985
  103OSM   H17G10445   4.310   4.747   5.329  0.7798  0.1679 -0.7095
  103OSM   C18F10446   4.451   4.877   5.441 -0.3452 -0.3349  0.5937
  103OSM   H18F10447   4.453   4.944   5.530  0.0446  2.4598 -1.3880
  103OSM   H18G10448   4.492   4.933   5.354 -0.0050 -1.2869  0.1295
  103OSM   H18H10449   4.524   4.793   5.444 -0.1203 -0.1447  0.4444
  104OSM      N10450   4.386   3.290   7.881 -0.3536 -0.2439  0.5739
  104OSM    C1510451   4.475   3.373   7.967 -0.1869 -0.5906 -0.3192
  104OSM   H15A10452   4.518   3.457   7.914  1.9641 -0.8581  0.9196
  104OSM   H15B10453   4.563   3.314   7.986 -1.2215 -3.0823 -2.6253
  104OSM   H15C10454   4.422   3.410   8.053 -1.6680 -3.2334  0.0242
  104OSM    C1410455   4.338   3.171   7.957 -0.6276  0.3632  0.3305
  104OSM   H14A10456   4.250   3.135   7.907  0.1427  0.4368 -1.1141
  104OSM   H14B10457   4.317   3.181   8.063 -0.9688 -0.8921  0.3942
  104OSM   H14C10458   4.418   3.099   7.959 -0.7238  0.2321 -0.4180
  104OSM    C1310459   4.262   3.371   7.847  0.0133 -0.0968  0.6047
  104OSM   H13A10460   4.283   3.466   7.800 -2.9873  0.7418  0.7622
  104OSM   H13B10461   4.208   3.399   7.935 -1.6012  4.7824 -1.5911
  104OSM   H13C10462   4.198   3.319   7.777 -0.6294  0.1991  0.9745
  104OSM    C1210463   4.454   3.247   7.744  0.2126 -0.0617  0.3299
  104OSM   H12A10464   4.393   3.177   7.689  0.6842  0.1249 -0.4452
  104OSM   H12B10465   4.539   3.187   7.772 -1.1075 -2.2724 -0.1577
  104OSM    C1110466   4.491   3.356   7.644  0.5371  0.1259  0.1008
  104OSM   H11A10467   4.413   3.433   7.625  2.4906  2.0339 -0.6842
  104OSM   H11B10468   4.508   3.311   7.544 -0.2017 -0.4986  0.2472
  104OSM      P10469   4.744   3.373   7.687 -0.0332  0.1732 -0.0019
  104OSM    O1310470   4.840   3.469   7.747 -0.1127  0.6429 -0.2626
  104OSM    O1410471   4.744   3.231   7.741 -0.0126 -0.3954 -0.0850
  104OSM    O1110472   4.773   3.370   7.527 -0.5456 -0.5979 -0.3985
  104OSM    O1210473   4.602   3.430   7.699 -0.7012 -0.1298  0.3283
  104OSM    C1S10474   4.746   3.491   7.458  1.1251  0.1722 -0.1633
  104OSM    H1S10475   4.803   3.579   7.494 -0.1750  1.9700 -2.2653
  104OSM    H1T10476   4.636   3.504   7.457  0.9089 -1.4553 -0.8163
  104OSM     NF10477   4.778   3.609   7.230 -0.3051 -0.7780 -0.0572
  104OSM    HNF10478   4.703   3.626   7.166 -2.3373 -2.1876  1.8037
  104OSM    C2S10479   4.783   3.483   7.299 -0.3864  0.4252 -0.1516
  104OSM    H2S10480   4.890   3.456   7.301 -0.9216 -1.8294  0.4538
  104OSM    C3S10481   4.712   3.364   7.223 -1.6390 -0.1407  0.2664
  104OSM    H3S10482   4.602   3.379   7.212 -1.3808  2.0513  0.1806
  104OSM     O310483   4.735   3.243   7.288 -0.2302  0.2512  0.6301
  104OSM    HO310484   4.755   3.267   7.379  1.2808  0.6257  0.2413
  104OSM    C4S10485   4.784   3.352   7.095  0.5690 -0.5504 -0.1961
  104OSM    H4S10486   4.892   3.349   7.113  0.5170 -0.4047  0.1473
  104OSM    C5S10487   4.736   3.333   6.965  0.1436 -0.4495 -0.4205
  104OSM    H5S10488   4.626   3.327   6.954  0.0996 -0.9184  0.2290
  104OSM    C6S10489   4.816   3.304   6.833 -0.3980  0.3936  0.1536
  104OSM    H6S10490   4.927   3.298   6.838 -0.3123  0.0996 -1.5222
  104OSM    H6T10491   4.791   3.380   6.756 -2.2956 -0.6900 -0.3660
  104OSM    C7S10492   4.771   3.170   6.778 -0.4796  0.3890 -0.3501
  104OSM    H7S10493   4.665   3.181   6.747 -0.1936  1.5691 -0.9754
  104OSM    H7T10494   4.785   3.087   6.851  1.6047  0.3531 -0.7112
  104OSM    C8S10495   4.845   3.125   6.651 -0.1229  0.8923  0.5235
  104OSM    H8S10496   4.795   3.033   6.616  1.5423  0.6929 -1.5519
  104OSM    H8T10497   4.949   3.099   6.682  0.1725  0.4534 -0.7906
  104OSM    C9S10498   4.846   3.227   6.530 -0.2823  0.2122  0.5124
  104OSM    H9S10499   4.914   3.309   6.562  1.6883  0.2135 -3.1265
  104OSM    H9T10500   4.744   3.268   6.512 -0.4136  1.1442  2.9593
  104OSM   C10S10501   4.898   3.156   6.399  0.1951  0.0034 -0.0504
  104OSM   H10S10502   4.843   3.062   6.378 -0.2878  0.2445  0.1054
  104OSM   H10T10503   5.007   3.136   6.399  0.2373 -0.2833 -3.3724
  104OSM   C11S10504   4.862   3.236   6.272 -0.2594  0.3050 -0.1583
  104OSM   H11S10505   4.909   3.336   6.285 -2.1962  1.4451 -1.4849
  104OSM   H11T10506   4.752   3.236   6.259 -0.1034  0.1541 -1.7007
  104OSM   C12S10507   4.914   3.181   6.133  0.4869  0.3487 -0.6269
  104OSM   H12S10508   4.863   3.083   6.128  0.6661  0.2009  0.4061
  104OSM   H12T10509   5.021   3.152   6.141  0.2021 -0.6147 -0.2016
  104OSM   C13S10510   4.889   3.273   6.015  0.4767  0.1086  1.3665
  104OSM   H13S10511   4.941   3.367   6.045 -1.7858  1.0322  2.7458
  104OSM   H13T10512   4.781   3.301   6.015  1.0550  2.5810  1.0507
  104OSM   C14S10513   4.953   3.235   5.878 -0.6408 -0.7864 -0.3154
  104OSM   H14S10514   4.897   3.152   5.830  0.5705 -1.3553 -0.7662
  104OSM   H14T10515   5.051   3.190   5.904 -0.3340 -0.8985 -1.6280
  104OSM   C15S10516   4.972   3.350   5.777 -0.1293 -0.0670 -0.1116
  104OSM   H15S10517   5.035   3.426   5.828 -3.1328  1.2376  1.9991
  104OSM   H15T10518   4.877   3.405   5.759  0.4996  1.0315 -0.1894
  104OSM   C16S10519   5.033   3.315   5.645 -0.1695 -0.1239  0.5737
  104OSM   H16S10520   4.958   3.254   5.591 -1.2286  1.3890  0.2899
  104OSM   H16T10521   5.129   3.261   5.664  0.1367  0.3705  0.4569
  104OSM   C17S10522   5.070   3.435   5.555  0.0489 -0.0390 -0.1597
  104OSM   H17S10523   5.157   3.484   5.604  0.7778  0.5612 -1.9815
  104OSM   H17T10524   4.984   3.505   5.567  1.6533  1.7756  1.5963
  104OSM   C18S10525   5.095   3.395   5.411  0.0745  0.1945  0.3595
  104OSM   H18S10526   5.116   3.483   5.347 -0.6006  1.8902  2.3497
  104OSM   H18T10527   5.007   3.352   5.359  0.5289 -1.4716  0.9156
  104OSM   H18U10528   5.177   3.322   5.400 -1.2827 -1.5489  1.2424
  104OSM    C1F10529   4.857   3.715   7.257  0.1347 -0.1804 -0.0741
  104OSM     OF10530   4.952   3.706   7.343  0.1035  0.4007  0.5907
  104OSM    C2F10531   4.853   3.840   7.182  0.5598 -0.6509  0.6809
  104OSM    H2F10532   4.951   3.855   7.132  1.0212  0.1279  1.7701
  104OSM    H2G10533   4.853   3.918   7.262  1.5167 -0.7818  0.8267
  104OSM    C3F10534   4.715   3.858   7.104 -0.5268 -0.3262 -0.2304
  104OSM    H3F10535   4.705   3.966   7.078 -0.2989 -0.2335  0.0596
  104OSM    H3G10536   4.623   3.834   7.161 -0.4190 -2.5131 -0.9117
  104OSM    C4F10537   4.704   3.787   6.968 -0.0288 -0.1974  0.3130
  104OSM    H4F10538   4.601   3.808   6.930  0.2716  2.2188  0.6709
  104OSM    H4G10539   4.704   3.680   6.994 -0.4050  0.3318  2.7057
  104OSM    C5F10540   4.824   3.806   6.870  0.1751  0.1270  0.0756
  104OSM    H5F10541   4.907   3.746   6.914 -0.9843 -0.4239  1.6011
  104OSM    H5G10542   4.861   3.911   6.869  0.1844  0.1213 -0.6808
  104OSM    C6F10543   4.796   3.772   6.721  0.4307  0.5886 -0.0844
  104OSM    H6F10544   4.721   3.843   6.679 -0.1357 -0.8479 -1.6125
  104OSM    H6G10545   4.747   3.673   6.714  1.2728  0.0661  1.1069
  104OSM    C7F10546   4.924   3.784   6.640  0.0565 -1.0509 -0.0344
  104OSM    H7F10547   5.002   3.707   6.660  0.2910 -0.2049  2.6948
  104OSM    H7G10548   4.963   3.878   6.684 -0.1472 -1.9466  2.2025
  104OSM    C8F10549   4.915   3.808   6.482 -0.1088  0.3175 -0.4310
  104OSM    H8F10550   5.021   3.822   6.452  0.5948  1.6331  2.3496
  104OSM    H8G10551   4.855   3.902   6.485  0.7548  0.9298  3.6789
  104OSM    C9F10552   4.851   3.691   6.407 -0.0560 -0.4174 -0.4276
  104OSM    H9F10553   4.763   3.645   6.453  0.1200 -1.2009 -0.8599
  104OSM   C10F10554   4.919   3.626   6.309 -0.0273  0.3657  1.1506
  104OSM   H10F10555   4.859   3.551   6.256  0.5134  2.3882 -2.7151
  104OSM   C11F10556   5.041   3.681   6.242 -0.3959 -0.5402 -0.7410
  104OSM   H11F10557   5.130   3.666   6.307 -1.2612 -0.9256  0.3857
  104OSM   H11G10558   5.027   3.790   6.225 -0.7153 -0.1213  1.7819
  104OSM   C12F10559   5.075   3.622   6.106  0.0314  0.0769  0.2594
  104OSM   H12F10560   5.003   3.666   6.035  1.0713 -1.1760 -1.6435
  104OSM   H12G10561   5.060   3.512   6.104 -0.4152  0.1468 -0.6895
  104OSM   C13F10562   5.213   3.662   6.055  0.0561  0.1271  0.7493
  104OSM   H13F10563   5.289   3.614   6.120 -0.8320  0.6932  2.2560
  104OSM   H13G10564   5.225   3.773   6.050  0.3432  0.0754  0.2091
  104OSM   C14F10565   5.230   3.611   5.911 -0.6058  0.2008  0.1768
  104OSM   H14F10566   5.151   3.656   5.847  0.5554  1.9055 -0.1442
  104OSM   H14G10567   5.227   3.500   5.907  1.2187  0.0724  1.1746
  104OSM   C15F10568   5.369   3.658   5.854  0.3566  0.3003 -0.3403
  104OSM   H15F10569   5.447   3.611   5.917 -1.7864 -4.1905 -0.6226
  104OSM   H15G10570   5.371   3.769   5.857  0.1156  0.3030 -0.1570
  104OSM   C16F10571   5.388   3.615   5.709 -1.3934  0.1159 -0.3501
  104OSM   H16F10572   5.307   3.659   5.648 -0.8651 -0.1835 -1.2847
  104OSM   H16G10573   5.369   3.506   5.697  0.1953 -0.3084  0.5610
  104OSM   C17F10574   5.530   3.642   5.662  0.0869 -0.9489  0.5904
  104OSM   H17F10575   5.607   3.619   5.739  2.0190  1.0153 -0.6388
  104OSM   H17G10576   5.524   3.749   5.633 -3.0564 -1.0957  0.4155
  104OSM   C18F10577   5.555   3.562   5.534 -0.5129 -0.1258  0.9051
  104OSM   H18F10578   5.479   3.562   5.454 -1.4174 -1.3924  1.7209
  104OSM   H18G10579   5.569   3.454   5.557 -0.1057  0.0121  1.3381
  104OSM   H18H10580   5.653   3.601   5.498 -0.0259 -1.8563  0.2215
  105OSM      N10581   0.174   3.825   7.665 -0.3478 -0.1411  0.0702
  105OSM    C1510582   0.170   3.684   7.609 -0.1690 -0.2008  0.6078
  105OSM   H15A10583   0.234   3.668   7.524 -0.2272 -3.2975  1.0493
  105OSM   H15B10584   0.065   3.667   7.589 -0.3007 -0.7863  1.7614
  105OSM   H15C10585   0.207   3.607   7.675  1.2352 -0.6990 -0.7091
  105OSM    C1410586   0.088   3.835   7.790  0.4459 -0.3557  0.6213
  105OSM   H14A10587  -0.017   3.823   7.766  0.8796  1.3164 -2.7875
  105OSM   H14B10588   0.101   3.928   7.845 -1.9347  0.0556  0.5818
  105OSM   H14C10589   0.108   3.751   7.854  1.0329  1.0170  2.3315
  105OSM    C1310590   0.316   3.859   7.700 -0.5982 -0.1606  0.1425
  105OSM   H13A10591   0.325   3.954   7.749 -0.2679 -0.5309  0.8137
  105OSM   H13B10592   0.381   3.853   7.614  1.3121 -1.2281  1.5905
  105OSM   H13C10593   0.344   3.782   7.770 -1.5305 -0.2159  0.4734
  105OSM    C1210594   0.124   3.930   7.565 -0.0330  0.3340  0.2336
  105OSM   H12A10595   0.212   3.960   7.511  2.0587  0.4869  3.4426
  105OSM   H12B10596   0.118   4.019   7.626  2.3821  0.2493  0.6809
  105OSM    C1110597   0.002   3.892   7.479  0.2636  0.1880 -0.1685
  105OSM   H11A10598   0.020   3.796   7.426 -2.7220 -0.4265 -0.2225
  105OSM   H11B10599  -0.008   3.977   7.408 -1.0530  2.4692  2.5416
  105OSM      P10600  -0.197   3.757   7.554 -0.2403 -0.0817 -0.0246
  105OSM    O1310601  -0.129   3.641   7.616  0.1620 -0.0061 -0.6642
  105OSM    O1410602  -0.333   3.787   7.616  0.5331 -0.5329 -0.2861
  105OSM    O1110603  -0.226   3.740   7.403 -0.2320 -0.4962 -0.2826
  105OSM    O1210604  -0.116   3.889   7.556 -0.4683  0.0452 -0.3194
  105OSM    C1S10605  -0.321   3.813   7.325 -0.3387  0.6081  0.5312
  105OSM    H1S10606  -0.307   3.923   7.332 -0.8424  0.8699 -1.6878
  105OSM    H1T10607  -0.423   3.777   7.348  0.7712 -1.4580  2.7690
  105OSM     NF10608  -0.378   3.860   7.077 -0.5862  0.1404  0.6611
  105OSM    HNF10609  -0.434   3.811   7.011 -0.3188 -0.5223  0.9134
  105OSM    C2S10610  -0.294   3.780   7.172 -0.6010  0.0090 -0.1016
  105OSM    H2S10611  -0.189   3.810   7.151 -0.3777  0.5154  1.6034
  105OSM    C3S10612  -0.295   3.623   7.145 -0.4404  0.1687 -0.4228
  105OSM    H3S10613  -0.392   3.592   7.191  0.4524 -0.4547  1.1122
  105OSM     O310614  -0.183   3.550   7.210  0.3677 -0.7761 -0.1502
  105OSM    HO310615  -0.163   3.615   7.278  2.0048 -0.0172 -1.2808
  105OSM    C4S10616  -0.284   3.600   6.995  0.3545 -0.5814 -0.2526
  105OSM    H4S10617  -0.182   3.598   6.954  1.5911  0.9822  2.4570
  105OSM    C5S10618  -0.377   3.541   6.921 -0.1575 -0.2526  0.4310
  105OSM    H5S10619  -0.473   3.519   6.970 -0.6921  1.0408 -0.0041
  105OSM    C6S10620  -0.363   3.481   6.785 -0.2849 -0.1886 -0.1292
  105OSM    H6S10621  -0.450   3.530   6.736  1.6351  1.9090 -1.6319
  105OSM    H6T10622  -0.379   3.372   6.800 -2.2923  0.3503  2.4432
  105OSM    C7S10623  -0.227   3.521   6.714 -0.1487  0.6345 -0.0419
  105OSM    H7S10624  -0.137   3.473   6.757 -0.9324 -1.4343 -0.5702
  105OSM    H7T10625  -0.217   3.631   6.709 -1.5042  0.8774  1.6598
  105OSM    C8S10626  -0.241   3.475   6.567 -0.4247  0.3785 -0.5710
  105OSM    H8S10627  -0.173   3.543   6.512  0.5775 -0.7540 -0.7816
  105OSM    H8T10628  -0.344   3.485   6.528 -1.1366  0.8577  1.3040
  105OSM    C9S10629  -0.199   3.327   6.554 -0.1531  0.3534  0.3325
  105OSM    H9S10630  -0.257   3.272   6.632 -0.7791  2.4171  1.3851
  105OSM    H9T10631  -0.093   3.318   6.586  0.3052  0.2227 -1.1811
  105OSM   C10S10632  -0.229   3.264   6.420 -0.0119  0.0421  0.0734
  105OSM   H10S10633  -0.148   3.289   6.349  1.8358 -0.1260  2.0425
  105OSM   H10T10634  -0.329   3.292   6.379  1.0999  0.1898 -2.8006
  105OSM   C11S10635  -0.227   3.109   6.428  0.0741  0.2397  0.5646
  105OSM   H11S10636  -0.315   3.068   6.481 -0.4443  0.8315  0.1753
  105OSM   H11T10637  -0.138   3.072   6.484  0.7847  2.1442  0.7775
  105OSM   C12S10638  -0.226   3.051   6.288 -0.6085  0.1641  0.2082
  105OSM   H12S10639  -0.281   3.114   6.215 -0.8794 -0.6827 -0.3321
  105OSM   H12T10640  -0.285   2.958   6.298  1.9055 -1.5549  0.1687
  105OSM   C13S10641  -0.083   3.007   6.240 -0.3455  0.5194 -0.1719
  105OSM   H13S10642  -0.030   2.950   6.320 -0.2177 -0.6966 -1.0971
  105OSM   H13T10643  -0.020   3.097   6.227  2.2573 -1.3693 -1.4947
  105OSM   C14S10644  -0.074   2.949   6.103  0.2006 -0.3676  0.0305
  105OSM   H14S10645  -0.123   3.022   6.035 -0.1711  0.5835  1.2815
  105OSM   H14T10646  -0.137   2.859   6.093 -0.2949  0.1401 -1.7403
  105OSM   C15S10647   0.072   2.914   6.053  0.1695 -0.0982 -0.9839
  105OSM   H15S10648   0.108   2.834   6.121 -1.9717 -0.1635  0.1499
  105OSM   H15T10649   0.142   2.999   6.067 -1.1547  0.9988 -0.8082
  105OSM   C16S10650   0.088   2.831   5.922  0.0648 -0.1675 -0.0912
  105OSM   H16S10651   0.195   2.817   5.896 -0.0515  0.9311 -1.2656
  105OSM   H16T10652   0.030   2.886   5.844 -1.0470 -1.4609 -0.2222
  105OSM   C17S10653   0.019   2.697   5.937 -0.7022  0.1677 -0.3745
  105OSM   H17S10654  -0.092   2.706   5.942 -0.8298  0.9390 -3.0235
  105OSM   H17T10655   0.050   2.648   6.032  0.4828  0.6091 -0.5152
  105OSM   C18S10656   0.054   2.599   5.822 -0.6421  0.0445 -0.2820
  105OSM   H18S10657   0.164   2.587   5.813  0.0864  2.7364  2.9305
  105OSM   H18T10658   0.015   2.648   5.731 -1.1516 -2.4381 -1.4700
  105OSM   H18U10659   0.014   2.498   5.847 -0.9894  0.4828  1.0418
  105OSM    C1F10660  -0.368   3.994   7.072  0.1002  0.0418 -0.1592
  105OSM     OF10661  -0.272   4.045   7.129 -0.0227  0.0534 -0.1479
  105OSM    C2F10662  -0.462   4.084   6.991 -0.8471 -0.5055  0.5314
  105OSM    H2F10663  -0.510   4.150   7.067  0.5257 -0.0510  1.0361
  105OSM    H2G10664  -0.540   4.020   6.945 -1.1787  0.9676 -1.0300
  105OSM    C3F10665  -0.384   4.160   6.878  0.0568  0.3721  0.6848
  105OSM    H3F10666  -0.295   4.205   6.927  0.6400  0.7629 -0.6737
  105OSM    H3G10667  -0.453   4.234   6.833  2.0892  1.1884 -1.2898
  105OSM    C4F10668  -0.338   4.075   6.754  0.2425  0.2930 -0.2172
  105OSM    H4F10669  -0.428   4.026   6.709 -0.5251  1.3964  0.0718
  105OSM    H4G10670  -0.269   3.996   6.791 -0.1056  0.8220  1.6644
  105OSM    C5F10671  -0.275   4.167   6.644 -0.9129  0.5256  0.0398
  105OSM    H5F10672  -0.170   4.190   6.669 -0.2526 -0.1686 -1.9613
  105OSM    H5G10673  -0.321   4.266   6.664  1.1619  1.0400  3.0033
  105OSM    C6F10674  -0.305   4.132   6.495  0.2346 -0.0678 -0.1884
  105OSM    H6F10675  -0.265   4.031   6.472  1.3209  0.2405  0.2778
  105OSM    H6G10676  -0.255   4.205   6.428 -1.8247  1.8264  0.2136
  105OSM    C7F10677  -0.458   4.138   6.466 -0.1613  0.7657  0.6974
  105OSM    H7F10678  -0.510   4.223   6.517 -1.3492  0.8767 -0.6252
  105OSM    H7G10679  -0.493   4.041   6.506 -1.2361  0.3676 -1.0925
  105OSM    C8F10680  -0.485   4.149   6.318  0.5467 -0.0723  0.0805
  105OSM    H8F10681  -0.450   4.059   6.263 -0.3921 -0.3766 -0.0500
  105OSM    H8G10682  -0.421   4.231   6.278 -0.5427  0.8734  0.2169
  105OSM    C9F10683  -0.625   4.180   6.267 -0.2167 -0.4798 -0.1946
  105OSM    H9F10684  -0.693   4.233   6.335  0.7722  1.0035 -0.3005
  105OSM   C10F10685  -0.676   4.129   6.154 -0.2052  0.7660  0.3176
  105OSM   H10F10686  -0.768   4.175   6.115  0.6265  1.1335 -1.3053
  105OSM   C11F10687  -0.617   4.037   6.053 -0.5926 -0.3930 -0.7730
  105OSM   H11F10688  -0.535   3.976   6.098 -0.3964 -0.0527 -0.6711
  105OSM   H11G10689  -0.574   4.103   5.975  1.3848  1.5685  1.7965
  105OSM   C12F10690  -0.713   3.935   5.982 -0.6043  0.3153  0.3382
  105OSM   H12F10691  -0.771   3.897   6.068  1.8101  0.3985  2.1167
  105OSM   H12G10692  -0.658   3.846   5.946 -0.9389 -0.2098  1.0874
  105OSM   C13F10693  -0.814   3.997   5.887  0.4659  0.1083 -0.3499
  105OSM   H13F10694  -0.874   4.069   5.946  1.5649  0.0369  0.9034
  105OSM   H13G10695  -0.877   3.917   5.843 -0.1749 -0.0055  0.7578
  105OSM   C14F10696  -0.749   4.074   5.764  0.3529  0.0785 -0.2625
  105OSM   H14F10697  -0.674   4.006   5.720  1.3055  1.4451 -0.8203
  105OSM   H14G10698  -0.696   4.163   5.805 -1.2008 -0.1934  2.6925
  105OSM   C15F10699  -0.857   4.117   5.659  0.4881 -0.6657 -0.7720
  105OSM   H15F10700  -0.921   4.191   5.711 -0.7522 -3.1417  1.4261
  105OSM   H15G10701  -0.928   4.038   5.628 -1.5164  0.8789 -0.2760
  105OSM   C16F10702  -0.799   4.179   5.535 -0.0158 -0.5215  0.3302
  105OSM   H16F10703  -0.704   4.128   5.512 -0.2883 -0.2510 -1.6326
  105OSM   H16G10704  -0.769   4.285   5.553  1.4005 -0.4877 -1.8597
  105OSM   C17F10705  -0.891   4.177   5.410 -0.7919  0.4454  0.4044
  105OSM   H17F10706  -0.999   4.192   5.432 -0.1890  4.3319  1.3393
  105OSM   H17G10707  -0.899   4.073   5.372  0.5060 -0.0626  1.4289
  105OSM   C18F10708  -0.837   4.271   5.304 -0.1863 -0.1748 -0.4961
  105OSM   H18F10709  -0.908   4.275   5.219  1.2527  1.6553 -1.6591
  105OSM   H18G10710  -0.733   4.256   5.270  0.3247 -0.9010  1.2607
  105OSM   H18H10711  -0.821   4.370   5.350 -0.4041  0.2596 -1.3408
  106OSM      N10712   4.680   1.566   7.348  0.5291 -0.2347  0.1238
  106OSM    C1510713   4.639   1.450   7.437  0.1378 -0.4473  0.4235
  106OSM   H15A10714   4.555   1.485   7.495  0.2395 -0.1280  0.3816
  106OSM   H15B10715   4.715   1.411   7.503 -0.6707 -0.4537  1.3706
  106OSM   H15C10716   4.598   1.363   7.388 -0.4541  0.4921 -0.7811
  106OSM    C1410717   4.787   1.524   7.255  0.1797 -0.1158 -0.4288
  106OSM   H14A10718   4.763   1.432   7.205 -2.4880 -1.0211  2.2099
  106OSM   H14B10719   4.880   1.502   7.306  0.1491  0.3827 -0.1492
  106OSM   H14C10720   4.798   1.604   7.183 -0.5115 -1.3818 -2.0012
  106OSM    C1310721   4.564   1.608   7.267 -0.1034  0.3905 -0.6335
  106OSM   H13A10722   4.569   1.702   7.215  2.4752  1.6596  1.6650
  106OSM   H13B10723   4.470   1.620   7.319  0.2360  1.4738 -0.2454
  106OSM   H13C10724   4.552   1.534   7.189  1.2593  0.8955 -1.3460
  106OSM    C1210725   4.720   1.689   7.430 -0.2322  0.6538 -0.6446
  106OSM   H12A10726   4.714   1.776   7.367  0.3463 -0.7444 -2.7186
  106OSM   H12B10727   4.823   1.679   7.462 -0.7440  1.2552  1.3407
  106OSM    C1110728   4.646   1.725   7.565 -0.1642  0.1142  0.1412
  106OSM   H11A10729   4.722   1.793   7.609  0.0311 -0.7367  1.1702
  106OSM   H11B10730   4.636   1.639   7.635 -0.5373  0.1955  0.1884
  106OSM      P10731   4.392   1.749   7.575  0.0761 -0.1014 -0.2957
  106OSM    O1310732   4.353   1.625   7.500 -1.1078 -0.2609 -0.6299
  106OSM    O1410733   4.378   1.745   7.723  0.3997  0.4726  0.5182
  106OSM    O1110734   4.299   1.860   7.515  0.2700  0.4717  0.4006
  106OSM    O1210735   4.534   1.792   7.536 -0.0137 -0.1901  0.4294
  106OSM    C1S10736   4.318   1.917   7.389 -0.9502 -0.0926  0.4409
  106OSM    H1S10737   4.427   1.911   7.367 -0.7297 -0.4146  1.5620
  106OSM    H1T10738   4.283   2.022   7.397 -2.9720 -0.7427  0.5932
  106OSM     NF10739   4.258   1.915   7.141 -0.1178  0.1342 -0.1024
  106OSM    HNF10740   4.187   1.974   7.105  1.8646  3.5039  1.1170
  106OSM    C2S10741   4.248   1.839   7.270 -0.7746  0.0631  0.4476
  106OSM    H2S10742   4.306   1.745   7.255 -2.5638 -0.8557 -1.2408
  106OSM    C3S10743   4.107   1.796   7.304  0.4782  0.2237  0.3641
  106OSM    H3S10744   4.062   1.889   7.345  0.2860  0.9457 -1.3978
  106OSM     O310745   4.088   1.694   7.403  0.5442  0.7353 -0.0323
  106OSM    HO310746   4.176   1.674   7.437 -0.7201  1.5732  4.3914
  106OSM    C4S10747   4.019   1.780   7.183 -0.0751 -0.6869 -0.6798
  106OSM    H4S10748   3.949   1.863   7.160  1.6104  1.1692  0.4982
  106OSM    C5S10749   4.027   1.674   7.103 -0.3277 -0.8840 -1.1030
  106OSM    H5S10750   4.108   1.601   7.115  0.3552 -0.0659 -0.6171
  106OSM    C6S10751   3.957   1.669   6.965 -0.3196 -0.2029 -0.3602
  106OSM    H6S10752   3.850   1.638   6.969 -0.3310 -0.0682  2.0306
  106OSM    H6T10753   4.005   1.591   6.902  0.1916  1.3845 -1.9849
  106OSM    C7S10754   3.966   1.791   6.879  0.1671 -0.8047  0.1959
  106OSM    H7S10755   4.062   1.846   6.881 -0.2195  0.0847 -1.9170
  106OSM    H7T10756   3.883   1.865   6.885 -1.3426 -2.2663 -1.1964
  106OSM    C8S10757   3.957   1.739   6.729  1.0007 -0.1447 -0.6747
  106OSM    H8S10758   3.871   1.672   6.706 -0.4300  1.0444  0.9371
  106OSM    H8T10759   4.045   1.673   6.717  0.0577 -1.1960 -2.1944
  106OSM    C9S10760   3.970   1.846   6.622 -0.5179 -0.3595  0.2139
  106OSM    H9S10761   3.900   1.928   6.650 -0.1035  0.7367 -1.7731
  106OSM    H9T10762   3.936   1.809   6.523  1.6124 -2.9806  0.3446
  106OSM   C10S10763   4.109   1.914   6.613  0.0658 -0.6533 -0.1372
  106OSM   H10S10764   4.189   1.838   6.621  2.4838  1.6081 -1.0768
  106OSM   H10T10765   4.122   1.992   6.691 -0.0825 -1.6486  0.8986
  106OSM   C11S10766   4.134   1.971   6.467 -1.2006  0.4358  0.3943
  106OSM   H11S10767   4.039   2.017   6.434 -0.0893  1.1891 -1.9806
  106OSM   H11T10768   4.153   1.883   6.402 -0.5474  1.6158 -1.0655
  106OSM   C12S10769   4.259   2.065   6.470  0.1604 -0.2957  0.1043
  106OSM   H12S10770   4.348   2.015   6.512  0.5527  0.1171 -0.2140
  106OSM   H12T10771   4.235   2.141   6.548  0.8031  1.2701 -1.1553
  106OSM   C13S10772   4.286   2.123   6.334 -0.3174 -0.0492 -0.1392
  106OSM   H13S10773   4.195   2.169   6.290 -0.3975 -2.3947 -2.6955
  106OSM   H13T10774   4.304   2.034   6.270 -2.6599 -0.6076 -0.1276
  106OSM   C14S10775   4.408   2.215   6.335  0.4373 -0.1659 -0.5438
  106OSM   H14S10776   4.497   2.156   6.365  1.5020  2.0213  0.8681
  106OSM   H14T10777   4.386   2.295   6.409  0.7560  0.1501 -0.7903
  106OSM   C15S10778   4.432   2.292   6.205 -0.6453 -0.2859 -0.3681
  106OSM   H15S10779   4.526   2.349   6.217 -0.5846 -0.0907 -1.5657
  106OSM   H15T10780   4.362   2.378   6.193  1.1793  1.2031 -0.7753
  106OSM   C16S10781   4.432   2.209   6.078 -0.5613  0.1653  0.2829
  106OSM   H16S10782   4.362   2.123   6.086 -0.8349  0.2832 -0.7917
  106OSM   H16T10783   4.532   2.165   6.057  0.9646  2.1347  2.7624
  106OSM   C17S10784   4.382   2.287   5.958  0.0336  0.2888  0.1740
  106OSM   H17S10785   4.420   2.392   5.963 -0.0096  0.2653  1.1230
  106OSM   H17T10786   4.273   2.301   5.976 -0.0088  0.6745 -0.3515
  106OSM   C18S10787   4.405   2.227   5.820  0.4427  0.2599  0.2689
  106OSM   H18S10788   4.512   2.203   5.805  0.4382  1.0102 -1.1179
  106OSM   H18T10789   4.369   2.299   5.744 -0.6872  0.1111  0.6393
  106OSM   H18U10790   4.358   2.127   5.806  0.2174  0.4857 -0.6398
  106OSM    C1F10791   4.384   1.925   7.091  0.6003  0.4398 -0.1298
  106OSM     OF10792   4.469   1.846   7.123 -0.2793  0.2328 -0.9341
  106OSM    C2F10793   4.398   2.028   6.986 -0.4141  0.0080 -0.5940
  106OSM    H2F10794   4.374   2.128   7.028  1.0686  0.1842 -0.1112
  106OSM    H2G10795   4.331   2.006   6.900 -0.6439 -2.6478  0.1607
  106OSM    C3F10796   4.545   2.021   6.932  0.0972  0.2796 -0.2187
  106OSM    H3F10797   4.565   1.914   6.910 -1.9395 -0.0360 -0.7160
  106OSM    H3G10798   4.619   2.046   7.011  1.1697 -1.9741 -0.4525
  106OSM    C4F10799   4.569   2.112   6.810 -0.5752  0.5970 -0.1032
  106OSM    H4F10800   4.610   2.210   6.841  1.5272 -0.1191 -0.4418
  106OSM    H4G10801   4.473   2.125   6.757 -1.4766 -1.5119  0.8744
  106OSM    C5F10802   4.659   2.038   6.706  0.3549  0.0589 -0.1463
  106OSM    H5F10803   4.597   1.961   6.655  0.1184  0.8993 -1.1604
  106OSM    H5G10804   4.734   1.980   6.764  0.1734  0.1319  0.1664
  106OSM    C6F10805   4.716   2.128   6.592  0.8185  1.2169  0.1683
  106OSM    H6F10806   4.631   2.198   6.579  0.1829  0.6907  1.3019
  106OSM    H6G10807   4.734   2.075   6.496 -2.8940  0.4840 -0.2814
  106OSM    C7F10808   4.843   2.209   6.628  0.1132 -0.0228  0.3331
  106OSM    H7F10809   4.926   2.152   6.675 -0.4081 -0.9217  0.1801
  106OSM    H7G10810   4.804   2.290   6.693  0.1082  0.5110 -0.3231
  106OSM    C8F10811   4.907   2.289   6.516  0.0868  0.4414 -0.2162
  106OSM    H8F10812   4.972   2.364   6.565 -2.2840  2.4236  0.1253
  106OSM    H8G10813   4.831   2.345   6.457  0.1171  2.9873  1.9896
  106OSM    C9F10814   4.980   2.187   6.429 -0.5244  0.1364 -0.7795
  106OSM    H9F10815   4.922   2.097   6.404 -0.0433 -0.1765 -0.7776
  106OSM   C10F10816   5.101   2.214   6.373 -0.4615  0.5341 -0.5417
  106OSM   H10F10817   5.131   2.143   6.294 -2.2108 -0.8484 -0.0266
  106OSM   C11F10818   5.178   2.340   6.396  0.2101  0.5102  0.6514
  106OSM   H11F10819   5.183   2.354   6.506 -0.2035 -1.9590  1.0321
  106OSM   H11G10820   5.112   2.425   6.369 -1.7419 -1.2159 -0.2460
  106OSM   C12F10821   5.312   2.347   6.322 -0.0926  0.0507  0.4095
  106OSM   H12F10822   5.368   2.255   6.345 -1.1422 -0.3320  1.5205
  106OSM   H12G10823   5.372   2.432   6.361  1.3274 -2.3153  3.7868
  106OSM   C13F10824   5.297   2.359   6.170  0.2168 -0.1195  0.0393
  106OSM   H13F10825   5.241   2.451   6.142 -0.0093 -0.1930  0.2431
  106OSM   H13G10826   5.231   2.273   6.144  2.0665 -1.3994 -0.6743
  106OSM   C14F10827   5.428   2.378   6.108 -0.7338  0.4268  0.3670
  106OSM   H14F10828   5.504   2.303   6.139 -0.0096  0.7941 -0.4652
  106OSM   H14G10829   5.466   2.477   6.142 -1.7005  1.4489 -1.3730
  106OSM   C15F10830   5.423   2.382   5.957  0.2085 -0.8266  0.0099
  106OSM   H15F10831   5.328   2.424   5.917 -0.6193 -2.2137  0.4482
  106OSM   H15G10832   5.435   2.278   5.919 -1.0538 -0.6138 -1.0492
  106OSM   C16F10833   5.531   2.472   5.885  0.0373 -0.6609 -0.0799
  106OSM   H16F10834   5.525   2.432   5.782 -0.8823  0.0750 -0.3249
  106OSM   H16G10835   5.631   2.464   5.933  0.3757 -1.0635 -0.8427
  106OSM   C17F10836   5.480   2.621   5.875 -0.2707  0.1233 -0.2684
  106OSM   H17F10837   5.376   2.621   5.836  0.0533  0.9119 -1.1689
  106OSM   H17G10838   5.535   2.656   5.785 -1.7305  1.4575 -0.6832
  106OSM   C18F10839   5.508   2.718   5.994  0.1862 -0.4233  0.6300
  106OSM   H18F10840   5.481   2.820   5.961  2.3724  0.4685  1.4518
  106OSM   H18G10841   5.615   2.722   6.022 -0.5327 -1.3567  3.9649
  106OSM   H18H10842   5.468   2.687   6.093  0.7051  0.4419  1.1190
  107OSM      N10843   6.761   0.717   8.140  0.2375  0.3256 -0.2065
  107OSM    C1510844   6.810   0.722   8.287 -0.2064 -0.7545  0.5710
  107OSM   H15A10845   6.907   0.677   8.295  1.3490  1.6083 -2.7238
  107OSM   H15B10846   6.746   0.657   8.345 -0.0849 -0.8398  0.6095
  107OSM   H15C10847   6.819   0.822   8.327  0.1464  0.6239 -2.6815
  107OSM    C1410848   6.657   0.816   8.133  0.0830 -0.4008 -0.0804
  107OSM   H14A10849   6.699   0.914   8.153  2.4595 -1.5055  0.7245
  107OSM   H14B10850   6.573   0.804   8.199 -0.4555 -1.5591 -0.9314
  107OSM   H14C10851   6.602   0.821   8.040 -0.8846 -2.5593  0.3274
  107OSM    C1310852   6.872   0.754   8.044  0.3432 -0.4767 -0.1787
  107OSM   H13A10853   6.913   0.847   8.080  0.4411 -0.1451 -1.1085
  107OSM   H13B10854   6.840   0.775   7.943 -3.1693 -1.0488  0.6844
  107OSM   H13C10855   6.946   0.676   8.050 -1.4103 -2.2459 -0.6003
  107OSM    C1210856   6.708   0.576   8.110 -0.2831 -0.1112  0.5464
  107OSM   H12A10857   6.793   0.512   8.125 -0.7508 -0.5259  1.4918
  107OSM   H12B10858   6.676   0.567   8.007 -0.3993  2.2623  0.3181
  107OSM    C1110859   6.601   0.511   8.198  0.0980 -0.4928 -0.4447
  107OSM   H11A10860   6.659   0.502   8.293  2.8158 -0.1507 -1.9654
  107OSM   H11B10861   6.578   0.406   8.171 -0.0410 -0.8077  0.7967
  107OSM      P10862   6.356   0.575   8.140  0.1578 -0.1170 -0.3459
  107OSM    O1310863   6.258   0.503   8.226 -0.0708 -0.1929  0.1249
  107OSM    O1410864   6.314   0.707   8.094  0.0827 -0.9973  0.4302
  107OSM    O1110865   6.396   0.494   8.013 -0.8003  0.0309  0.3215
  107OSM    O1210866   6.491   0.589   8.216  0.0627 -0.4343 -0.6991
  107OSM    C1S10867   6.293   0.474   7.913 -0.0868 -0.0590 -0.3326
  107OSM    H1S10868   6.239   0.569   7.895 -2.9970 -1.8226 -1.9338
  107OSM    H1T10869   6.212   0.402   7.940 -3.0549  3.8629  2.1773
  107OSM     NF10870   6.242   0.442   7.672 -0.2875 -0.3409  0.3274
  107OSM    HNF10871   6.189   0.362   7.645 -1.5266  0.5212  0.1682
  107OSM    C2S10872   6.341   0.415   7.779 -0.6130  0.4787 -0.7368
  107OSM    H2S10873   6.433   0.472   7.753 -0.0056  0.4861  1.2699
  107OSM    C3S10874   6.389   0.267   7.810  0.7563  0.4159  0.5547
  107OSM    H3S10875   6.314   0.204   7.863 -0.2266  0.9381 -0.1854
  107OSM     O310876   6.505   0.259   7.888  0.8086  0.0777 -0.2614
  107OSM    HO310877   6.516   0.335   7.944 -1.3871  0.5985 -0.4612
  107OSM    C4S10878   6.434   0.201   7.687 -0.1696 -0.2966  0.3580
  107OSM    H4S10879   6.529   0.244   7.650 -0.4872  0.4832  0.4234
  107OSM    C5S10880   6.363   0.110   7.605 -0.3220 -0.5018 -0.1250
  107OSM    H5S10881   6.261   0.090   7.643 -1.0289  0.1844 -1.5625
  107OSM    C6S10882   6.408   0.059   7.470 -0.9257  0.0065 -0.3367
  107OSM    H6S10883   6.424  -0.050   7.481 -0.2288  0.2311  1.1756
  107OSM    H6T10884   6.511   0.094   7.448 -1.5540  1.9878 -0.2968
  107OSM    C7S10885   6.327   0.119   7.355  0.3211  0.1742 -0.0978
  107OSM    H7S10886   6.221   0.107   7.385  0.6504 -2.9807  0.1613
  107OSM    H7T10887   6.356   0.047   7.275  0.8889  0.8632 -0.5293
  107OSM    C8S10888   6.358   0.261   7.315  0.4470  0.3793  0.1919
  107OSM    H8S10889   6.468   0.269   7.296  0.2949  3.0000 -0.0688
  107OSM    H8T10890   6.347   0.332   7.400  0.6885  1.7472 -0.8837
  107OSM    C9S10891   6.277   0.310   7.193 -0.4864  0.5474 -0.6422
  107OSM    H9S10892   6.171   0.309   7.228  0.4454  0.9562  2.5086
  107OSM    H9T10893   6.285   0.233   7.114  0.0091 -1.1950  1.0398
  107OSM   C10S10894   6.323   0.434   7.140  0.3596 -0.3092  0.2249
  107OSM   H10S10895   6.433   0.444   7.126  0.1910  1.8858  0.0507
  107OSM   H10T10896   6.292   0.507   7.218 -0.5598 -0.7751  0.2974
  107OSM   C11S10897   6.254   0.468   7.009 -0.0345 -0.6523  0.1392
  107OSM   H11S10898   6.293   0.570   6.992 -3.0259  0.6401  0.3885
  107OSM   H11T10899   6.146   0.485   7.032 -0.2610 -0.1230 -1.2250
  107OSM   C12S10900   6.295   0.383   6.890  0.8150  0.0040  0.4104
  107OSM   H12S10901   6.286   0.276   6.919  1.7161  0.1781  1.4370
  107OSM   H12T10902   6.400   0.408   6.865 -0.1341  1.5420 -2.5003
  107OSM   C13S10903   6.212   0.414   6.766  0.2525 -0.5462  0.8956
  107OSM   H13S10904   6.210   0.522   6.739  1.8977 -1.1366 -2.1008
  107OSM   H13T10905   6.106   0.383   6.778 -1.7629  4.3536 -1.2817
  107OSM   C14S10906   6.251   0.341   6.646 -0.1986  0.6775  0.6117
  107OSM   H14S10907   6.239   0.232   6.664  0.1612  0.4833 -0.2312
  107OSM   H14T10908   6.356   0.349   6.612 -0.5594 -1.1039 -1.1428
  107OSM   C15S10909   6.174   0.380   6.519 -0.0114 -0.3592 -0.6429
  107OSM   H15S10910   6.186   0.489   6.507 -0.3355 -0.2208  0.2310
  107OSM   H15T10911   6.065   0.366   6.534  0.0597 -0.5032 -0.2684
  107OSM   C16S10912   6.220   0.299   6.400  0.0828  0.4871  0.3391
  107OSM   H16S10913   6.170   0.199   6.396 -1.0269  1.0182  0.6011
  107OSM   H16T10914   6.331   0.286   6.398  0.1499  1.1297 -0.8263
  107OSM   C17S10915   6.196   0.366   6.265 -0.5499 -0.1210  0.3709
  107OSM   H17S10916   6.251   0.463   6.267 -1.5397  0.5491 -1.6210
  107OSM   H17T10917   6.088   0.391   6.263 -0.5046  0.1589  1.0012
  107OSM   C18S10918   6.237   0.290   6.141  0.0109  0.2518  0.0982
  107OSM   H18S10919   6.344   0.261   6.152  0.1335 -0.2391 -1.9139
  107OSM   H18T10920   6.227   0.351   6.048 -0.5236  1.8129  1.1433
  107OSM   H18U10921   6.176   0.199   6.126  0.2977  0.2613 -1.2652
  107OSM    C1F10922   6.210   0.569   7.636 -0.1124  0.7727 -0.1815
  107OSM     OF10923   6.271   0.660   7.682  0.1355 -0.4396 -0.1427
  107OSM    C2F10924   6.116   0.585   7.521 -0.1400  0.2783  0.8072
  107OSM    H2F10925   6.017   0.609   7.565 -0.1354  2.0442 -0.0422
  107OSM    H2G10926   6.105   0.490   7.465  0.9190  0.4264  0.3230
  107OSM    C3F10927   6.167   0.689   7.415 -0.1111  0.7040 -0.0942
  107OSM    H3F10928   6.265   0.659   7.373 -1.1175 -2.6288 -0.3438
  107OSM    H3G10929   6.173   0.787   7.467 -0.0131 -0.1084  1.5015
  107OSM    C4F10930   6.077   0.704   7.291  0.0658  0.3101  0.7247
  107OSM    H4F10931   5.973   0.732   7.316 -0.4852 -0.4720 -0.6386
  107OSM    H4G10932   6.072   0.606   7.240  2.8272  0.1673  0.5742
  107OSM    C5F10933   6.134   0.807   7.192  0.0491 -0.0882 -0.2567
  107OSM    H5F10934   6.214   0.768   7.127 -0.4399  2.8689 -2.8788
  107OSM    H5G10935   6.185   0.887   7.251 -0.1195  2.1780 -2.9686
  107OSM    C6F10936   6.038   0.865   7.097 -0.0704 -0.2397 -0.0094
  107OSM    H6F10937   5.975   0.937   7.152 -0.8604  0.6422 -1.9672
  107OSM    H6G10938   5.963   0.793   7.058 -0.9032  0.2672  0.6317
  107OSM    C7F10939   6.112   0.929   6.981 -0.1391  0.1587 -0.0200
  107OSM    H7F10940   6.136   0.863   6.895 -0.2950  0.9999 -0.7264
  107OSM    H7G10941   6.206   0.982   7.006 -0.3004  0.2978  0.2906
  107OSM    C8F10942   6.022   1.033   6.909  0.0287 -0.2753 -0.2857
  107OSM    H8F10943   6.097   1.073   6.837  0.9969 -0.1118  0.7845
  107OSM    H8G10944   5.990   1.112   6.980 -1.3132 -0.8293 -0.2443
  107OSM    C9F10945   5.903   0.973   6.837  0.0209  0.0224 -0.6755
  107OSM    H9F10946   5.847   0.895   6.891 -1.4919 -0.1044 -2.3136
  107OSM   C10F10947   5.867   0.993   6.707 -0.3173 -0.8487 -0.4751
  107OSM   H10F10948   5.774   0.940   6.680 -0.9211 -0.4621  0.7704
  107OSM   C11F10949   5.929   1.087   6.611 -0.5860 -0.0242 -0.1951
  107OSM   H11F10950   6.024   1.133   6.645 -0.9590  0.2084  0.5724
  107OSM   H11G10951   5.858   1.172   6.598 -1.1739 -0.4117  0.4130
  107OSM   C12F10952   5.976   1.030   6.475 -0.6059 -0.6828 -0.1582
  107OSM   H12F10953   6.049   0.948   6.486  1.6561  1.1791 -0.3867
  107OSM   H12G10954   6.033   1.107   6.419  1.4194 -0.8813  1.5042
  107OSM   C13F10955   5.863   0.983   6.383 -0.0519  0.4611  0.3237
  107OSM   H13F10956   5.786   1.062   6.373  0.1628  1.1236  3.1893
  107OSM   H13G10957   5.818   0.897   6.437  2.3734 -1.3315 -0.3216
  107OSM   C14F10958   5.901   0.942   6.234  0.8798 -0.5743 -0.0467
  107OSM   H14F10959   5.962   0.851   6.250  1.0535  0.0152  3.3383
  107OSM   H14G10960   5.976   1.018   6.203  0.5012  0.6909  1.9995
  107OSM   C15F10961   5.771   0.935   6.143 -0.3698 -0.8069  0.2136
  107OSM   H15F10962   5.718   1.031   6.163  0.6378 -0.0034 -0.8292
  107OSM   H15G10963   5.705   0.849   6.167 -1.7236  0.3848  0.9391
  107OSM   C16F10964   5.794   0.918   5.990  0.1360  0.1369 -0.3216
  107OSM   H16F10965   5.876   0.845   5.978 -0.2244  0.0007 -2.2882
  107OSM   H16G10966   5.829   1.014   5.946  0.1375 -0.5162 -1.7860
  107OSM   C17F10967   5.661   0.868   5.922 -0.5309 -0.3150 -0.0384
  107OSM   H17F10968   5.642   0.761   5.941 -0.0778 -0.4091 -0.1016
  107OSM   H17G10969   5.674   0.881   5.813 -0.5195  2.6344  0.2129
  107OSM   C18F10970   5.539   0.953   5.962 -0.7834 -0.4013  0.4160
  107OSM   H18F10971   5.456   0.933   5.891 -0.1067 -0.5340 -0.3614
  107OSM   H18G10972   5.571   1.056   5.937  0.1600 -0.9519 -0.7875
  107OSM   H18H10973   5.516   0.949   6.070 -0.5140  2.4410  0.6486
  108OSM      N10974   0.028   6.792   7.714 -0.0407  0.7935 -0.3188
  108OSM    C1510975  -0.024   6.691   7.804  0.4009 -0.2090  0.1215
  108OSM   H15A10976  -0.084   6.612   7.761  1.8019 -1.0790 -0.2986
  108OSM   H15B10977  -0.101   6.732   7.867 -0.6549  0.2144 -1.3858
  108OSM   H15C10978   0.055   6.653   7.867 -0.1080  1.3811  1.7945
  108OSM    C1410979  -0.083   6.819   7.610  0.1455  0.1173  0.1980
  108OSM   H14A10980  -0.176   6.816   7.666 -0.0504 -3.6030 -0.0611
  108OSM   H14B10981  -0.105   6.732   7.550 -1.7519 -0.1237  1.1494
  108OSM   H14C10982  -0.065   6.910   7.556  2.1959 -1.0249 -1.1674
  108OSM    C1310983   0.049   6.913   7.798  0.2218  0.2977  0.3739
  108OSM   H13A10984   0.090   6.988   7.733 -0.5796 -0.8907 -1.5821
  108OSM   H13B10985   0.107   6.895   7.888  0.1660  0.5694  0.4642
  108OSM   H13C10986  -0.045   6.941   7.842  0.8233 -0.5881  2.3474
  108OSM    C1210987   0.147   6.746   7.634 -0.1151  0.4328 -0.1078
  108OSM   H12A10988   0.117   6.668   7.567 -1.5732  1.8362 -1.1614
  108OSM   H12B10989   0.222   6.708   7.703  0.5090  2.0867  0.1800
  108OSM    C1110990   0.216   6.853   7.552  0.8064 -0.0096  0.2998
  108OSM   H11A10991   0.135   6.906   7.499  0.4726  1.7644  2.4409
  108OSM   H11B10992   0.278   6.798   7.478  2.8450  0.8487  1.2819
  108OSM      P10993   0.326   7.088   7.588 -0.1179  0.1999 -0.5377
  108OSM    O1310994   0.216   7.173   7.631 -0.3794  0.1332 -0.1919
  108OSM    O1410995   0.456   7.129   7.642  0.5003 -0.1819  0.1048
  108OSM    O1110996   0.331   7.090   7.429  0.0592 -0.1352  0.0262
  108OSM    O1210997   0.295   6.937   7.633  0.2325 -0.7007 -0.1633
  108OSM    C1S10998   0.444   7.028   7.376 -0.3337 -0.2094  0.1884
  108OSM    H1S10999   0.434   6.918   7.392  0.6898 -0.4355 -0.5701
  108OSM    H1T11000   0.542   7.062   7.417  0.5195 -1.7580 -0.4694
  108OSM     NF11001   0.549   6.937   7.173 -0.2498 -0.3485  0.3078
  108OSM    HNF11002   0.642   6.936   7.207 -0.6582  0.9605  1.5636
  108OSM    C2S11003   0.463   7.051   7.224  0.0110 -0.2908 -0.9168
  108OSM    H2S11004   0.366   7.043   7.172 -0.9895  0.2579  0.7792
  108OSM    C3S11005   0.522   7.192   7.212 -0.1683 -0.2957 -1.0218
  108OSM    H3S11006   0.622   7.184   7.260  0.2687 -1.6511 -2.0776
  108OSM     O311007   0.456   7.291   7.296 -0.1569  0.2452  0.1674
  108OSM    HO311008   0.392   7.231   7.334  0.1414 -1.2759 -1.5855
  108OSM    C4S11009   0.555   7.239   7.072  0.2914  0.4888  0.2175
  108OSM    H4S11010   0.648   7.211   7.021 -0.2942 -0.7318 -0.2055
  108OSM    C5S11011   0.463   7.303   6.994  0.5815  0.5825  0.5026
  108OSM    H5S11012   0.357   7.315   7.021 -0.1578  2.6282 -2.8228
  108OSM    C6S11013   0.473   7.348   6.848  0.6399 -0.3464 -0.0929
  108OSM    H6S11014   0.509   7.453   6.838  0.3090 -0.2415 -0.1920
  108OSM    H6T11015   0.376   7.344   6.795  0.9233  1.3757 -0.8169
  108OSM    C7S11016   0.569   7.268   6.755 -0.2653  0.8573  0.2245
  108OSM    H7S11017   0.549   7.159   6.750 -0.2532  0.9107 -2.6427
  108OSM    H7T11018   0.667   7.279   6.806  1.0835 -0.1531 -2.0010
  108OSM    C8S11019   0.580   7.343   6.618  0.2814  0.1165 -0.3479
  108OSM    H8S11020   0.593   7.449   6.649  0.0838 -0.5624  2.3254
  108OSM    H8T11021   0.481   7.328   6.570 -1.5482 -1.7944  3.5507
  108OSM    C9S11022   0.711   7.306   6.542 -0.3196 -0.1627  0.6757
  108OSM    H9S11023   0.715   7.209   6.489 -1.4943  0.1735 -0.0772
  108OSM    H9T11024   0.794   7.296   6.615  1.1454 -2.3098 -1.1411
  108OSM   C10S11025   0.758   7.426   6.452  0.0365 -0.9745  0.1554
  108OSM   H10S11026   0.781   7.516   6.513 -2.0955  2.0526 -3.1536
  108OSM   H10T11027   0.674   7.461   6.390 -0.1703  1.7787  1.8278
  108OSM   C11S11028   0.887   7.402   6.360 -0.2132  0.3034 -0.4674
  108OSM   H11S11029   0.870   7.342   6.269 -2.0005  1.1511 -0.7259
  108OSM   H11T11030   0.964   7.351   6.422 -0.0084 -1.3941 -2.0459
  108OSM   C12S11031   0.945   7.532   6.298 -0.0633 -0.1332  0.0984
  108OSM   H12S11032   1.040   7.512   6.244 -1.1412 -0.6059 -1.7089
  108OSM   H12T11033   0.970   7.609   6.374  2.5318  0.2294 -1.0207
  108OSM   C13S11034   0.855   7.599   6.194  0.4650 -0.3120 -0.3173
  108OSM   H13S11035   0.869   7.709   6.185 -1.0181  0.0833  1.4408
  108OSM   H13T11036   0.750   7.602   6.231  0.4661  0.1983 -0.3444
  108OSM   C14S11037   0.852   7.540   6.048  0.0639 -0.0876  0.3430
  108OSM   H14S11038   0.809   7.437   6.039  2.1957 -0.9086 -1.0143
  108OSM   H14T11039   0.958   7.536   6.016  0.2805  1.3366  0.8191
  108OSM   C15S11040   0.787   7.635   5.953 -0.0758 -0.1269 -0.2887
  108OSM   H15S11041   0.690   7.678   5.985  0.4287 -0.2602  1.5374
  108OSM   H15T11042   0.770   7.584   5.856  4.5264  0.0618 -1.4278
  108OSM   C16S11043   0.871   7.754   5.923  0.3790 -0.2807  0.3220
  108OSM   H16S11044   0.973   7.725   5.889 -0.0153 -1.0359 -0.2407
  108OSM   H16T11045   0.886   7.813   6.016  1.3153  1.9839 -1.1713
  108OSM   C17S11046   0.824   7.837   5.797  0.0631  0.4056  0.0230
  108OSM   H17S11047   0.832   7.767   5.711 -0.4371  0.6174 -0.1985
  108OSM   H17T11048   0.894   7.921   5.779  0.5494  0.0818  0.3713
  108OSM   C18S11049   0.678   7.880   5.798  0.4498  0.8745 -0.8335
  108OSM   H18S11050   0.607   7.797   5.817 -0.9397  1.9392 -1.2455
  108OSM   H18T11051   0.651   7.933   5.704 -0.4699  2.0709  0.0811
  108OSM   H18U11052   0.666   7.939   5.891  1.8860 -1.5253  1.0023
  108OSM    C1F11053   0.498   6.818   7.131 -0.8553  0.6664 -0.4359
  108OSM     OF11054   0.380   6.796   7.117  0.2466 -0.2462 -0.8307
  108OSM    C2F11055   0.604   6.719   7.099  0.0520  0.3194  0.2512
  108OSM    H2F11056   0.558   6.619   7.109 -3.5434  1.6695 -1.0704
  108OSM    H2G11057   0.682   6.718   7.179  0.8147  0.9104 -0.4604
  108OSM    C3F11058   0.653   6.745   6.962  0.6648 -0.1017  0.5775
  108OSM    H3F11059   0.733   6.671   6.942 -0.2212 -0.9293  0.0167
  108OSM    H3G11060   0.692   6.849   6.953  1.2170 -0.3977 -0.6100
  108OSM    C4F11061   0.540   6.718   6.860  0.6232  0.0618  0.4092
  108OSM    H4F11062   0.442   6.748   6.901  1.4155  2.1783  0.8555
  108OSM    H4G11063   0.534   6.607   6.859  0.3883  0.0660 -1.2252
  108OSM    C5F11064   0.572   6.771   6.721 -0.2571 -0.4475  0.0611
  108OSM    H5F11065   0.682   6.762   6.716 -0.1467  0.3374  0.8161
  108OSM    H5G11066   0.543   6.878   6.714 -1.3801 -0.5777  1.9635
  108OSM    C6F11067   0.496   6.699   6.607 -0.1760  0.3078  0.6943
  108OSM    H6F11068   0.389   6.719   6.625 -0.6485  0.7271 -2.1539
  108OSM    H6G11069   0.509   6.590   6.594  1.9728  0.7896 -2.4666
  108OSM    C7F11070   0.534   6.762   6.465  0.1016 -0.2640 -0.1051
  108OSM    H7F11071   0.644   6.773   6.479  0.0160  0.4221  0.0560
  108OSM    H7G11072   0.487   6.862   6.462  1.7364  0.6942  2.5917
  108OSM    C8F11073   0.492   6.687   6.339 -0.1688 -0.5318 -0.1027
  108OSM    H8F11074   0.491   6.756   6.252  0.4623  0.1170  0.3905
  108OSM    H8G11075   0.390   6.647   6.356 -1.2359  2.5950  1.7445
  108OSM    C9F11076   0.594   6.575   6.312 -0.6858 -0.5131  0.3875
  108OSM    H9F11077   0.622   6.507   6.394  1.9677  0.8533  0.7478
  108OSM   C10F11078   0.619   6.529   6.183  0.2511 -0.0788  0.0710
  108OSM   H10F11079   0.681   6.440   6.168  1.1638  0.5341  0.1176
  108OSM   C11F11080   0.554   6.585   6.055  0.7006 -0.4049 -0.2538
  108OSM   H11F11081   0.530   6.693   6.066  2.0344 -0.1008 -0.0929
  108OSM   H11G11082   0.468   6.520   6.028  1.0662 -0.9992 -0.0079
  108OSM   C12F11083   0.654   6.586   5.941  1.1393  0.3147 -0.3904
  108OSM   H12F11084   0.698   6.486   5.923 -1.1358 -0.9196  0.5164
  108OSM   H12G11085   0.744   6.647   5.965  1.4304 -0.1093 -0.3814
  108OSM   C13F11086   0.602   6.634   5.807  0.1535 -0.5332  0.3433
  108OSM   H13F11087   0.501   6.595   5.781  0.3214 -1.2559  0.7322
  108OSM   H13G11088   0.665   6.606   5.720 -0.3149  0.2661 -0.2666
  108OSM   C14F11089   0.592   6.788   5.803  0.0698  0.6581  0.4736
  108OSM   H14F11090   0.690   6.839   5.813  0.8999 -0.5249 -1.1160
  108OSM   H14G11091   0.550   6.813   5.903 -2.5155  1.2301 -0.6787
  108OSM   C15F11092   0.508   6.854   5.689  0.3322 -0.1998 -0.2451
  108OSM   H15F11093   0.503   6.965   5.691  0.8349 -0.1683 -0.4948
  108OSM   H15G11094   0.406   6.811   5.695  0.3608 -0.3629 -0.9054
  108OSM   C16F11095   0.558   6.837   5.536  0.3922  0.5955 -0.8740
  108OSM   H16F11096   0.574   6.729   5.516  1.2020  0.2335  1.4170
  108OSM   H16G11097   0.649   6.900   5.539  0.6553  0.1837  0.5142
  108OSM   C17F11098   0.454   6.893   5.436 -0.0758  0.0595  0.2041
  108OSM   H17F11099   0.463   6.840   5.339 -1.7086 -2.0827  1.1417
  108OSM   H17G11100   0.482   7.000   5.425  0.3466 -0.1571 -0.9299
  108OSM   C18F11101   0.306   6.889   5.479 -1.0900  0.7656 -0.5553
  108OSM   H18F11102   0.306   6.954   5.569 -2.0859  1.0248 -0.7372
  108OSM   H18G11103   0.270   6.788   5.507  1.1928  0.3116  1.1323
  108OSM   H18H11104   0.248   6.940   5.399 -0.4185 -0.8333 -2.1211
  109OSM      N11105   3.882   2.511   7.624  0.5470  0.1165  0.5172
  109OSM    C1511106   3.964   2.393   7.650  0.0822  1.2479  0.0113
  109OSM   H15A11107   4.068   2.416   7.669  1.2470 -1.8286 -1.7839
  109OSM   H15B11108   3.959   2.344   7.554 -2.6676  1.2823  0.0662
  109OSM   H15C11109   3.921   2.328   7.725  1.0683 -2.7272 -2.5197
  109OSM    C1411110   3.870   2.585   7.753 -0.0997 -0.2520 -1.1558
  109OSM   H14A11111   3.812   2.523   7.820 -1.4579  0.8851 -1.2228
  109OSM   H14B11112   3.831   2.684   7.736  0.1160  0.2906  1.1425
  109OSM   H14C11113   3.967   2.598   7.800 -0.8539 -0.9992  0.7293
  109OSM    C1311114   3.960   2.599   7.528 -0.1774  0.0305  0.1031
  109OSM   H13A11115   3.920   2.699   7.522  3.0753  1.4217 -0.5442
  109OSM   H13B11116   3.955   2.543   7.435  0.0335 -0.9893  0.6913
  109OSM   H13C11117   4.064   2.603   7.558 -0.6576  0.5212  1.7563
  109OSM    C1211118   3.744   2.476   7.555 -0.0618  0.1608 -0.7177
  109OSM   H12A11119   3.672   2.553   7.577 -2.4304 -1.2259 -3.0650
  109OSM   H12B11120   3.698   2.385   7.591  1.3124 -0.7918 -1.2846
  109OSM    C1111121   3.743   2.444   7.404 -0.0147 -0.6309  0.5269
  109OSM   H11A11122   3.782   2.529   7.344  0.2838 -0.9150  0.3122
  109OSM   H11B11123   3.636   2.439   7.375  0.2624  1.6487 -1.1842
  109OSM      P11124   3.767   2.181   7.407 -0.1534 -0.3024 -0.5044
  109OSM    O1311125   3.877   2.090   7.443 -0.7159 -0.4486  0.5074
  109OSM    O1411126   3.652   2.183   7.500 -0.1821 -0.4507  0.1640
  109OSM    O1111127   3.724   2.132   7.263  0.9369  0.1071 -0.4321
  109OSM    O1211128   3.819   2.329   7.372 -0.2525 -0.2063  0.5777
  109OSM    C1S11129   3.800   2.177   7.153 -0.7930  0.7105 -0.0619
  109OSM    H1S11130   3.907   2.173   7.185 -1.5672  0.6808  2.7459
  109OSM    H1T11131   3.777   2.284   7.130 -0.0033  0.9488  0.2077
  109OSM     NF11132   3.858   2.167   6.916  0.1627  0.1610 -0.2277
  109OSM    HNF11133   3.810   2.200   6.835  0.4286  3.0474  0.6897
  109OSM    C2S11134   3.774   2.103   7.018  0.3880 -0.1217  0.1304
  109OSM    H2S11135   3.803   1.996   7.028 -2.4208 -1.0891 -1.0768
  109OSM    C3S11136   3.619   2.103   6.987 -0.4481  0.4699 -0.4818
  109OSM    H3S11137   3.583   2.204   6.956 -1.1300 -0.7228 -4.0403
  109OSM     O311138   3.536   2.062   7.097 -0.0306 -0.5661 -0.4470
  109OSM    HO311139   3.599   2.052   7.169 -2.6511 -0.6213  2.0291
  109OSM    C4S11140   3.598   2.021   6.866  0.7439 -0.5570 -0.0953
  109OSM    H4S11141   3.576   2.078   6.775 -0.9560  0.0799  0.6757
  109OSM    C5S11142   3.585   1.886   6.862  0.8286 -0.2665  0.2278
  109OSM    H5S11143   3.599   1.838   6.960 -0.1087 -1.4712 -0.1960
  109OSM    C6S11144   3.557   1.793   6.749 -0.8261 -0.2932  0.7334
  109OSM    H6S11145   3.450   1.764   6.744 -0.2707 -2.2964 -0.1370
  109OSM    H6T11146   3.618   1.702   6.760 -1.3457 -0.6345  0.8295
  109OSM    C7S11147   3.603   1.841   6.614  0.3951 -0.1410 -0.1463
  109OSM    H7S11148   3.712   1.862   6.617  0.3758 -0.0820  1.3930
  109OSM    H7T11149   3.543   1.932   6.595 -0.2950 -0.4179  0.6318
  109OSM    C8S11150   3.559   1.746   6.505  0.3787  0.4299  0.0098
  109OSM    H8S11151   3.456   1.705   6.516  0.2397  0.7514 -0.0790
  109OSM    H8T11152   3.620   1.653   6.507 -0.6967 -0.3113 -0.2915
  109OSM    C9S11153   3.565   1.813   6.368 -0.0418  0.4762 -0.6469
  109OSM    H9S11154   3.511   1.910   6.366  1.2452  1.2108 -0.8937
  109OSM    H9T11155   3.519   1.738   6.300  0.0526 -0.5489  0.3812
  109OSM   C10S11156   3.711   1.829   6.324 -0.5053 -0.0269  0.0306
  109OSM   H10S11157   3.769   1.735   6.338 -0.6043 -0.6723 -3.1854
  109OSM   H10T11158   3.770   1.899   6.388  1.2521 -0.6722 -0.8002
  109OSM   C11S11159   3.715   1.866   6.178 -0.6066  0.9786  0.3969
  109OSM   H11S11160   3.655   1.958   6.163 -0.5518  0.7007 -2.0587
  109OSM   H11T11161   3.655   1.789   6.124  1.0601  1.5530 -2.4943
  109OSM   C12S11162   3.853   1.886   6.114  0.5006  0.1780  0.7893
  109OSM   H12S11163   3.912   1.792   6.116  1.2216  0.6320  1.2205
  109OSM   H12T11164   3.904   1.963   6.176 -1.8739  0.9082  1.9630
  109OSM   C13S11165   3.845   1.907   5.957 -0.6528  0.6471 -0.2106
  109OSM   H13S11166   3.773   1.988   5.930 -0.1108 -0.0898 -4.5974
  109OSM   H13T11167   3.811   1.810   5.915 -1.6478  0.4934  0.8700
  109OSM   C14S11168   3.981   1.945   5.900 -0.2109  0.5517  0.1860
  109OSM   H14S11169   4.059   1.891   5.958  0.2130  1.5127  0.5382
  109OSM   H14T11170   4.008   2.052   5.915  1.3786  0.1694  0.3021
  109OSM   C15S11171   3.988   1.935   5.740  0.1995 -0.1560 -0.4746
  109OSM   H15S11172   3.917   2.012   5.704  0.6333  0.5469  0.1391
  109OSM   H15T11173   3.962   1.830   5.716  1.3679 -1.1321  2.0871
  109OSM   C16S11174   4.129   1.952   5.677 -0.3967  0.4230 -0.2110
  109OSM   H16S11175   4.172   2.051   5.701  1.1844  0.3698 -2.4590
  109OSM   H16T11176   4.124   1.945   5.566 -1.5830  1.7602 -0.2670
  109OSM   C17S11177   4.227   1.840   5.699 -0.0871 -0.3014 -0.3801
  109OSM   H17S11178   4.179   1.746   5.666  1.1857 -1.1190  0.0324
  109OSM   H17T11179   4.268   1.823   5.801  1.4994 -1.9073 -1.2226
  109OSM   C18S11180   4.351   1.866   5.611  0.4356  0.5190 -0.0437
  109OSM   H18S11181   4.435   1.794   5.612  2.0542  2.2951 -0.8016
  109OSM   H18T11182   4.396   1.966   5.630 -0.2255  1.0292 -1.0762
  109OSM   H18U11183   4.321   1.855   5.504  0.6111 -0.1743 -0.0281
  109OSM    C1F11184   3.990   2.180   6.928 -0.1636 -0.1647 -0.4009
  109OSM     OF11185   4.052   2.127   7.014 -0.6789 -0.2149  0.1258
  109OSM    C2F11186   4.065   2.268   6.831  0.2956 -0.8096 -0.0607
  109OSM    H2F11187   3.990   2.343   6.796  0.4805 -1.6820 -2.5867
  109OSM    H2G11188   4.103   2.206   6.747  2.4743  1.3738 -0.8286
  109OSM    C3F11189   4.169   2.365   6.897 -0.2078 -0.5061 -0.8784
  109OSM    H3F11190   4.249   2.318   6.958  1.1715  1.7306 -0.8460
  109OSM    H3G11191   4.111   2.427   6.969 -1.3769 -2.4316 -0.0939
  109OSM    C4F11192   4.229   2.460   6.798  0.9475 -0.8751 -0.0644
  109OSM    H4F11193   4.251   2.563   6.834 -0.2065 -0.3756 -0.7255
  109OSM    H4G11194   4.156   2.495   6.722  0.8729  3.6692  1.7347
  109OSM    C5F11195   4.355   2.411   6.727 -0.6775 -0.0382  0.0507
  109OSM    H5F11196   4.352   2.306   6.691 -0.2706  0.3533 -1.2071
  109OSM    H5G11197   4.439   2.396   6.799 -0.4838 -2.9784 -0.6535
  109OSM    C6F11198   4.395   2.506   6.611  0.1454  0.2248 -1.0463
  109OSM    H6F11199   4.377   2.611   6.643 -1.6963  0.2117 -1.9023
  109OSM    H6G11200   4.326   2.505   6.524 -0.3711 -0.9750 -0.6478
  109OSM    C7F11201   4.547   2.505   6.577  0.5387 -0.0910 -1.1412
  109OSM    H7F11202   4.566   2.440   6.488  1.8745 -1.8182  0.3167
  109OSM    H7G11203   4.603   2.468   6.665  0.7494 -1.1062 -1.6810
  109OSM    C8F11204   4.594   2.651   6.553 -0.3160  0.0824  0.8564
  109OSM    H8F11205   4.573   2.723   6.634  0.6237  3.2018 -1.4456
  109OSM    H8G11206   4.544   2.704   6.469  0.4896  2.1357  1.6101
  109OSM    C9F11207   4.742   2.651   6.531  0.2823  0.2182  0.4769
  109OSM    H9F11208   4.797   2.627   6.623 -0.0036 -1.6044  0.2104
  109OSM   C10F11209   4.808   2.670   6.415  0.5800  0.5700  0.1847
  109OSM   H10F11210   4.917   2.658   6.405  0.5007  0.3020 -0.4007
  109OSM   C11F11211   4.744   2.674   6.277  0.3598 -0.6383 -0.2872
  109OSM   H11F11212   4.771   2.769   6.226  0.9407  0.1178  1.3329
  109OSM   H11G11213   4.634   2.682   6.293  0.3122  1.1710 -1.2652
  109OSM   C12F11214   4.779   2.552   6.191  0.6218  0.0762  0.4202
  109OSM   H12F11215   4.731   2.458   6.227 -0.3293  0.6320  0.6525
  109OSM   H12G11216   4.890   2.552   6.183  0.5572 -1.2894 -0.9450
  109OSM   C13F11217   4.717   2.565   6.042 -0.5926  0.1402  0.4385
  109OSM   H13F11218   4.784   2.638   5.990 -0.4346 -0.9145 -0.8920
  109OSM   H13G11219   4.611   2.595   6.053 -0.7779 -0.2429 -0.2535
  109OSM   C14F11220   4.713   2.428   5.957  0.8051  0.4696 -0.1578
  109OSM   H14F11221   4.626   2.436   5.889  1.8447  0.6102 -1.5204
  109OSM   H14G11222   4.702   2.344   6.028 -1.6846  0.4256 -0.5246
  109OSM   C15F11223   4.842   2.400   5.879 -0.7858 -0.2039 -0.3658
  109OSM   H15F11224   4.920   2.357   5.946 -2.0091 -1.4230  0.3061
  109OSM   H15G11225   4.884   2.498   5.847 -3.1769  1.2693  0.7237
  109OSM   C16F11226   4.823   2.312   5.760 -0.4131  0.0769 -0.7367
  109OSM   H16F11227   4.742   2.351   5.693 -0.2706  1.1680 -0.2980
  109OSM   H16G11228   4.788   2.216   5.802  0.5349  0.0711  0.0811
  109OSM   C17F11229   4.947   2.285   5.676 -0.0407 -0.5708 -0.3583
  109OSM   H17F11230   5.040   2.257   5.730  0.3825 -0.9775 -1.2853
  109OSM   H17G11231   4.978   2.379   5.626  0.4947  1.2811  3.1405
  109OSM   C18F11232   4.925   2.165   5.579  0.2073 -0.4241  0.6268
  109OSM   H18F11233   4.915   2.069   5.635  1.5355 -0.7562  0.3440
  109OSM   H18G11234   5.014   2.147   5.515 -1.4655  0.3567 -2.1080
  109OSM   H18H11235   4.839   2.195   5.516 -0.1509 -0.2569  1.1895
  110OSM      N11236   6.230   5.798   7.767  0.5912  0.6948 -0.6955
  110OSM    C1511237   6.258   5.886   7.888 -0.1529  0.2509  0.9928
  110OSM   H15A11238   6.299   5.979   7.851 -2.0110  1.8407  2.6630
  110OSM   H15B11239   6.320   5.834   7.959 -0.0280  0.2498  0.8832
  110OSM   H15C11240   6.161   5.907   7.930 -1.6553 -0.2517 -1.9341
  110OSM    C1411241   6.364   5.761   7.721  0.1187 -0.3599  1.6233
  110OSM   H14A11242   6.421   5.844   7.683  0.0176 -1.5802 -1.4755
  110OSM   H14B11243   6.348   5.683   7.648 -3.1239  0.8132  0.8881
  110OSM   H14C11244   6.406   5.714   7.809  0.6944  0.7553  1.9696
  110OSM    C1311245   6.153   5.677   7.813 -0.5319  0.6703  0.1878
  110OSM   H13A11246   6.211   5.618   7.883 -2.7992  0.5736  2.1016
  110OSM   H13B11247   6.118   5.609   7.737 -1.1371  0.1076  0.9614
  110OSM   H13C11248   6.076   5.718   7.876  0.4123 -0.0044  1.8549
  110OSM    C1211249   6.142   5.873   7.670  0.6031  0.5433  0.0891
  110OSM   H12A11250   6.056   5.915   7.721  0.9704  0.6677  0.6046
  110OSM   H12B11251   6.117   5.801   7.593  3.4336  1.5034 -1.8571
  110OSM    C1111252   6.213   5.993   7.588  0.1102 -0.1422 -0.9297
  110OSM   H11A11253   6.138   6.023   7.511  0.2162 -1.8432 -1.7281
  110OSM   H11B11254   6.305   5.955   7.540  0.8339  2.1363 -1.4850
  110OSM      P11255   6.321   6.226   7.636  0.2148  0.0809 -0.0978
  110OSM    O1311256   6.266   6.347   7.705  0.7525  0.4618 -0.7295
  110OSM    O1411257   6.460   6.192   7.670  0.3255 -0.1616 -0.2232
  110OSM    O1111258   6.303   6.221   7.479  0.0422 -0.1356 -0.0550
  110OSM    O1211259   6.237   6.103   7.678  0.4495 -0.2853  0.0063
  110OSM    C1S11260   6.199   6.294   7.414  0.0100 -0.8279  0.0134
  110OSM    H1S11261   6.193   6.394   7.460  1.4997 -0.6802 -0.0435
  110OSM    H1T11262   6.100   6.248   7.437  0.4042 -1.3446  0.7542
  110OSM     NF11263   6.108   6.383   7.206  0.0268 -0.6033  0.3488
  110OSM    HNF11264   6.034   6.340   7.154  0.5409 -0.4571 -0.5315
  110OSM    C2S11265   6.215   6.301   7.263 -0.3076  0.6061 -0.0542
  110OSM    H2S11266   6.315   6.348   7.250 -0.0132 -0.2632 -1.0146
  110OSM    C3S11267   6.240   6.163   7.196  0.3674  0.1054  0.0872
  110OSM    H3S11268   6.154   6.099   7.224 -0.2989  1.6873  1.8593
  110OSM     O311269   6.361   6.093   7.252 -0.2486 -0.4046  0.5269
  110OSM    HO311270   6.374   6.140   7.335 -2.8540  0.1753  0.7058
  110OSM    C4S11271   6.260   6.179   7.048  0.5299 -0.0296 -0.9414
  110OSM    H4S11272   6.360   6.218   7.027  0.6923  1.5508  2.1854
  110OSM    C5S11273   6.174   6.145   6.951  0.7885  0.1047 -0.4078
  110OSM    H5S11274   6.071   6.111   6.971  0.7658 -0.9841 -2.1794
  110OSM    C6S11275   6.216   6.157   6.803 -0.2328  0.1306  0.0784
  110OSM    H6S11276   6.221   6.058   6.754  2.8730  0.9308 -1.4994
  110OSM    H6T11277   6.313   6.206   6.780 -0.8194  1.3529  0.1287
  110OSM    C7S11278   6.117   6.242   6.733  0.5775 -0.0862  0.2987
  110OSM    H7S11279   6.107   6.346   6.772  0.6781  0.4044 -0.9632
  110OSM    H7T11280   6.017   6.194   6.741  1.0022 -0.7094  5.1444
  110OSM    C8S11281   6.148   6.257   6.580  0.4370  0.8083  0.2296
  110OSM    H8S11282   6.050   6.289   6.539  0.2993 -0.0256 -0.1185
  110OSM    H8T11283   6.171   6.159   6.532 -2.7825  0.4488 -0.8065
  110OSM    C9S11284   6.238   6.373   6.539  0.6861  0.4166 -0.2999
  110OSM    H9S11285   6.340   6.339   6.566 -0.4567 -2.3359  0.9980
  110OSM    H9T11286   6.201   6.466   6.587  0.9758  0.1184  0.5080
  110OSM   C10S11287   6.230   6.391   6.388 -0.3398 -0.5614  0.7797
  110OSM   H10S11288   6.261   6.495   6.366  0.0467 -0.8536 -0.0930
  110OSM   H10T11289   6.127   6.388   6.348 -0.3808  0.9246  0.7137
  110OSM   C11S11290   6.315   6.282   6.310 -0.4033 -0.5183  0.4765
  110OSM   H11S11291   6.295   6.175   6.336  2.0424 -1.2814 -0.5555
  110OSM   H11T11292   6.421   6.305   6.332 -0.3758 -2.3926  2.6805
  110OSM   C12S11293   6.294   6.297   6.158  0.1079 -0.4834  0.2629
  110OSM   H12S11294   6.373   6.235   6.112  0.8416 -0.5265  1.5340
  110OSM   H12T11295   6.301   6.404   6.129 -0.4215 -0.5980 -0.3176
  110OSM   C13S11296   6.161   6.242   6.106  0.6388 -0.3499  0.4480
  110OSM   H13S11297   6.081   6.288   6.168  2.3313  1.1131  1.6128
  110OSM   H13T11298   6.158   6.131   6.119 -1.3914 -0.3346  0.4431
  110OSM   C14S11299   6.141   6.272   5.956  0.3155 -0.4540  0.4576
  110OSM   H14S11300   6.231   6.228   5.908 -0.2497 -0.5432 -0.5308
  110OSM   H14T11301   6.140   6.382   5.948 -1.9574 -0.5097 -1.0502
  110OSM   C15S11302   6.006   6.227   5.894 -0.2623 -0.5007  0.2266
  110OSM   H15S11303   5.928   6.285   5.947 -0.2211  0.8456 -1.1191
  110OSM   H15T11304   5.986   6.118   5.894 -1.1422 -0.3419  0.0683
  110OSM   C16S11305   6.005   6.269   5.746  0.4517 -0.3460  0.0486
  110OSM   H16S11306   6.081   6.225   5.677  0.5307  0.5373 -0.4434
  110OSM   H16T11307   6.029   6.377   5.740 -0.1709 -0.1945  0.1879
  110OSM   C17S11308   5.860   6.249   5.685 -0.6121  0.3194  0.4534
  110OSM   H17S11309   5.794   6.295   5.762 -1.4936  2.5110 -1.5292
  110OSM   H17T11310   5.844   6.139   5.674  2.1936  0.0263 -1.7050
  110OSM   C18S11311   5.843   6.325   5.555  0.5060  0.2330  0.5119
  110OSM   H18S11312   5.923   6.314   5.479 -1.1366  1.2742 -1.4894
  110OSM   H18T11313   5.839   6.435   5.574 -0.4776  0.4335 -0.6870
  110OSM   H18U11314   5.747   6.293   5.509  1.7647 -0.8796 -1.5086
  110OSM    C1F11315   6.108   6.517   7.220 -0.3207  0.4492 -0.5842
  110OSM     OF11316   6.189   6.568   7.294  0.0674  0.1649 -0.3605
  110OSM    C2F11317   6.010   6.592   7.138 -0.1171  0.1713 -0.0243
  110OSM    H2F11318   5.990   6.688   7.191  0.1526 -0.1257  0.6276
  110OSM    H2G11319   5.913   6.540   7.124 -0.6017  1.3136 -1.1105
  110OSM    C3F11320   6.074   6.640   7.009  0.7701  0.6819 -0.3249
  110OSM    H3F11321   6.116   6.553   6.954  1.0403  1.7804 -1.9225
  110OSM    H3G11322   6.160   6.710   7.020  0.6798  0.8695 -0.8159
  110OSM    C4F11323   5.982   6.711   6.911  1.3938 -0.2371 -0.2791
  110OSM    H4F11324   5.955   6.806   6.963  2.9387  0.8948 -1.4595
  110OSM    H4G11325   5.889   6.656   6.890 -0.3411  1.5199  2.1739
  110OSM    C5F11326   6.069   6.746   6.790  0.1683  0.8731  0.4527
  110OSM    H5F11327   6.125   6.654   6.762 -1.0338  0.8712 -2.1784
  110OSM    H5G11328   6.144   6.823   6.818 -0.9163  2.0250  0.2853
  110OSM    C6F11329   5.985   6.784   6.664 -0.3856 -0.2457  0.1498
  110OSM    H6F11330   5.940   6.885   6.667 -1.0241 -0.5490  1.1673
  110OSM    H6G11331   5.902   6.710   6.665  0.9854 -1.8434  0.3337
  110OSM    C7F11332   6.071   6.765   6.537 -0.7469 -0.4008  0.4542
  110OSM    H7F11333   6.093   6.656   6.533  2.3484  0.0698  1.4064
  110OSM    H7G11334   6.165   6.823   6.552 -0.9893  0.3874 -0.8794
  110OSM    C8F11335   6.007   6.801   6.398 -0.1574 -0.6907  0.6406
  110OSM    H8F11336   6.082   6.808   6.316 -2.8862  0.2555 -1.9293
  110OSM    H8G11337   5.954   6.898   6.407  2.6499  1.1267 -0.9297
  110OSM    C9F11338   5.908   6.688   6.370 -0.1771 -0.8341 -0.5090
  110OSM    H9F11339   5.862   6.647   6.462  0.1631  1.5246  0.8042
  110OSM   C10F11340   5.897   6.623   6.254 -0.1670 -0.0939  0.4239
  110OSM   H10F11341   5.846   6.526   6.249  2.1773 -1.4172  0.9903
  110OSM   C11F11342   5.971   6.656   6.130  0.3528  0.0502 -0.5117
  110OSM   H11F11343   6.044   6.576   6.107 -0.8057 -0.8365 -1.2302
  110OSM   H11G11344   6.030   6.750   6.141  1.4830 -0.6399 -0.5532
  110OSM   C12F11345   5.875   6.672   6.014  0.0695 -1.1520  0.5299
  110OSM   H12F11346   5.813   6.764   6.019 -0.5084 -1.3472 -1.6605
  110OSM   H12G11347   5.812   6.581   6.007 -2.1538  0.2854  0.7908
  110OSM   C13F11348   5.954   6.690   5.877 -0.1516 -0.4615  0.3241
  110OSM   H13F11349   5.884   6.697   5.791  0.1784  0.6111  0.1296
  110OSM   H13G11350   6.028   6.609   5.861 -0.4667 -1.4964  3.4638
  110OSM   C14F11351   6.032   6.827   5.869  0.0771 -0.2656 -0.4229
  110OSM   H14F11352   6.120   6.816   5.936  1.8435 -1.3071 -2.7956
  110OSM   H14G11353   5.957   6.897   5.911  2.2950  0.0902  3.4524
  110OSM   C15F11354   6.078   6.886   5.728 -0.0425 -0.7634  0.2631
  110OSM   H15F11355   6.003   6.861   5.650  0.0758 -2.6698  0.6883
  110OSM   H15G11356   6.167   6.820   5.720  0.1490 -0.3979 -0.6408
  110OSM   C16F11357   6.121   7.028   5.731 -0.1908 -0.6154  0.3382
  110OSM   H16F11358   6.171   7.062   5.637 -0.9006  0.5523  0.3588
  110OSM   H16G11359   6.190   7.037   5.818 -2.4272 -2.3424  2.4362
  110OSM   C17F11360   6.016   7.124   5.757  0.0305  0.3084  0.3113
  110OSM   H17F11361   5.964   7.105   5.853  0.6186 -0.3805  0.4987
  110OSM   H17G11362   5.933   7.118   5.683 -0.3400 -2.1754  0.8511
  110OSM   C18F11363   6.069   7.267   5.757 -0.6713 -1.1979  0.3203
  110OSM   H18F11364   5.980   7.333   5.754 -0.2364 -0.5471 -2.9587
  110OSM   H18G11365   6.135   7.302   5.674 -2.7376  0.8456 -0.5731
  110OSM   H18H11366   6.126   7.286   5.850 -0.9206  0.7506  0.1257
  111OSM      N11367   3.171   4.140   7.138  0.6842  1.0635 -0.2260
  111OSM    C1511368   3.168   4.111   6.992  0.4789  0.3001 -0.0540
  111OSM   H15A11369   3.268   4.086   6.957  0.6013 -0.0038  0.5062
  111OSM   H15B11370   3.125   4.192   6.935  1.3073  1.4275  0.8792
  111OSM   H15C11371   3.110   4.022   6.970  0.7614  0.3773 -1.1830
  111OSM    C1411372   3.229   4.028   7.223 -0.3318 -1.2151  0.2306
  111OSM   H14A11373   3.164   3.941   7.218 -0.3066 -1.2468  0.4187
  111OSM   H14B11374   3.232   4.050   7.329 -1.1657  0.1685 -0.0127
  111OSM   H14C11375   3.329   4.008   7.189 -0.9504 -1.9505 -1.2251
  111OSM    C1311376   3.245   4.265   7.137  0.2629 -0.8048  0.2718
  111OSM   H13A11377   3.250   4.320   7.230 -3.1799 -1.6312  1.1009
  111OSM   H13B11378   3.204   4.329   7.060 -0.7042  0.3316  1.6806
  111OSM   H13C11379   3.349   4.246   7.116 -0.0214 -2.3007  0.1066
  111OSM    C1211380   3.028   4.172   7.191  0.4018 -0.4466 -0.6869
  111OSM   H12A11381   3.039   4.193   7.296  0.2736 -0.9682 -0.5692
  111OSM   H12B11382   2.970   4.081   7.185  0.4318 -0.4745 -0.5405
  111OSM    C1111383   2.937   4.281   7.121 -0.5647 -0.1093  0.1213
  111OSM   H11A11384   2.910   4.230   7.026  0.6029 -1.2224  0.3521
  111OSM   H11B11385   2.992   4.376   7.104  1.6015 -1.6523 -2.2037
  111OSM      P11386   2.690   4.241   7.170  0.0827  0.2018  0.3323
  111OSM    O1311387   2.706   4.094   7.175 -0.1758 -0.0548 -0.1161
  111OSM    O1411388   2.580   4.301   7.253 -0.1915  0.0904  0.4642
  111OSM    O1111389   2.655   4.295   7.019  0.1485 -1.0511  0.1552
  111OSM    O1211390   2.831   4.310   7.208 -0.0586 -0.5855  0.3341
  111OSM    C1S11391   2.672   4.439   6.994  0.2250  0.6054 -0.0392
  111OSM    H1S11392   2.757   4.471   7.059  1.3692 -0.3076 -1.0483
  111OSM    H1T11393   2.579   4.489   7.029  0.5580  0.3962  1.2040
  111OSM     NF11394   2.751   4.608   6.833 -0.0129  0.3973  0.0023
  111OSM    HNF11395   2.683   4.680   6.824  1.4468  2.8238  4.8123
  111OSM    C2S11396   2.715   4.472   6.846  1.1457 -0.7873  1.1031
  111OSM    H2S11397   2.799   4.403   6.823  0.3680 -1.3073 -0.2954
  111OSM    C3S11398   2.612   4.421   6.743 -0.0070 -0.0421 -0.2057
  111OSM    H3S11399   2.515   4.475   6.748 -0.2907 -0.3059 -1.9642
  111OSM     O311400   2.576   4.285   6.758  0.8350  0.1605 -0.1775
  111OSM    HO311401   2.614   4.254   6.841  1.8381  1.1608 -0.2419
  111OSM    C4S11402   2.676   4.447   6.607 -0.0456 -0.2843 -0.9791
  111OSM    H4S11403   2.691   4.554   6.589 -1.3788  0.6424  2.5537
  111OSM    C5S11404   2.721   4.352   6.519  0.9235 -0.0679 -0.1735
  111OSM    H5S11405   2.712   4.243   6.535 -1.3207  0.0379 -0.4119
  111OSM    C6S11406   2.797   4.397   6.398 -0.0569 -0.6973  0.3633
  111OSM    H6S11407   2.904   4.373   6.416  0.7346  1.9891 -0.2652
  111OSM    H6T11408   2.802   4.508   6.388  0.3966 -0.6228  1.3003
  111OSM    C7S11409   2.748   4.313   6.283  0.4548 -0.2487  0.9068
  111OSM    H7S11410   2.637   4.319   6.277  0.4772 -0.8422 -1.7830
  111OSM    H7T11411   2.785   4.208   6.289 -1.3467 -1.1025 -1.4159
  111OSM    C8S11412   2.786   4.366   6.151 -0.3949  0.3045  0.2304
  111OSM    H8S11413   2.765   4.475   6.145 -1.4910  0.0335 -1.6605
  111OSM    H8T11414   2.722   4.326   6.069  0.7027 -1.0404 -0.0037
  111OSM    C9S11415   2.936   4.333   6.117  0.3486  0.0811  0.4830
  111OSM    H9S11416   2.951   4.224   6.130  2.4856  0.3651  0.7128
  111OSM    H9T11417   3.002   4.382   6.191 -0.8747 -0.1063  1.7337
  111OSM   C10S11418   2.975   4.366   5.968 -0.0795  0.0804 -0.2317
  111OSM   H10S11419   3.078   4.328   5.954 -1.2810 -3.4846 -0.4465
  111OSM   H10T11420   2.976   4.473   5.941  1.8098  0.7616  2.1567
  111OSM   C11S11421   2.892   4.285   5.872  0.5417 -0.3722  0.5179
  111OSM   H11S11422   2.789   4.326   5.876  1.2528  1.4245  1.6001
  111OSM   H11T11423   2.878   4.181   5.907 -1.4370 -0.4935 -0.4980
  111OSM   C12S11424   2.944   4.271   5.733 -0.1939 -0.0015  0.7451
  111OSM   H12S11425   2.982   4.371   5.703 -0.3478  0.7628  2.9320
  111OSM   H12T11426   2.863   4.245   5.662 -0.2490  1.4089  0.2690
  111OSM   C13S11427   3.055   4.161   5.715  0.7958 -0.1779  0.1757
  111OSM   H13S11428   3.019   4.058   5.732 -0.2121  0.4204  1.9893
  111OSM   H13T11429   3.126   4.168   5.800 -0.4725  0.7162  1.2033
  111OSM   C14S11430   3.134   4.171   5.588  0.8357  0.6753 -0.5022
  111OSM   H14S11431   3.069   4.135   5.504 -1.2403 -0.9154  1.6576
  111OSM   H14T11432   3.219   4.100   5.593  0.3691  0.1930  0.9136
  111OSM   C15S11433   3.191   4.304   5.562 -0.0421 -0.1546  0.9832
  111OSM   H15S11434   3.251   4.339   5.648  1.9300 -1.7207  0.3274
  111OSM   H15T11435   3.120   4.387   5.545  2.9074  2.5250  0.7761
  111OSM   C16S11436   3.294   4.307   5.444 -0.1952 -0.1698  0.2953
  111OSM   H16S11437   3.240   4.269   5.355 -0.0617  0.2996  0.0095
  111OSM   H16T11438   3.375   4.240   5.478 -0.4797  0.7488  3.0886
  111OSM   C17S11439   3.351   4.443   5.406  0.1051 -0.4362  0.2174
  111OSM   H17S11440   3.287   4.518   5.458 -1.5804 -0.5158 -1.5953
  111OSM   H17T11441   3.344   4.466   5.297  0.3676 -3.0754 -0.4158
  111OSM   C18S11442   3.490   4.467   5.442  0.1156 -0.4267  0.1598
  111OSM   H18S11443   3.564   4.411   5.380  0.2216  1.0607 -1.1320
  111OSM   H18T11444   3.495   4.437   5.549 -1.4348  0.8123  0.6109
  111OSM   H18U11445   3.528   4.571   5.448  0.4425 -0.3482 -2.1673
  111OSM    C1F11446   2.863   4.662   6.880 -0.1577  0.0928 -0.9038
  111OSM     OF11447   2.945   4.585   6.929  0.0869 -0.8182 -0.1456
  111OSM    C2F11448   2.875   4.811   6.879  0.5662 -0.8705  0.1017
  111OSM    H2F11449   2.875   4.847   6.984 -1.5932  0.9289 -0.4285
  111OSM    H2G11450   2.785   4.858   6.833  0.5541  0.6013  1.5602
  111OSM    C3F11451   3.007   4.857   6.807 -0.0255 -0.4538 -0.5287
  111OSM    H3F11452   3.100   4.829   6.861 -0.2875  0.1184  0.2320
  111OSM    H3G11453   3.003   4.967   6.812  1.9679 -0.2828 -1.6408
  111OSM    C4F11454   3.018   4.822   6.657  0.1676  0.0824 -0.3784
  111OSM    H4F11455   3.023   4.711   6.650  0.9127  0.0951 -0.1120
  111OSM    H4G11456   3.115   4.869   6.631 -1.0850  3.6796  0.8367
  111OSM    C5F11457   2.911   4.877   6.566 -0.6072 -0.5750 -0.6042
  111OSM    H5F11458   2.896   4.986   6.577  0.3645 -0.5723  1.0774
  111OSM    H5G11459   2.814   4.824   6.574 -1.4653  0.8142 -1.4098
  111OSM    C6F11460   2.947   4.853   6.422 -0.3400  0.2629 -0.0042
  111OSM    H6F11461   2.996   4.754   6.424  2.0599  1.3898  1.5156
  111OSM    H6G11462   3.025   4.923   6.384 -1.7039 -0.0039 -3.7741
  111OSM    C7F11463   2.819   4.871   6.336 -0.5565  0.2507 -0.2170
  111OSM    H7F11464   2.771   4.966   6.371 -0.8705 -0.1631  0.5097
  111OSM    H7G11465   2.752   4.785   6.356 -1.5170  0.5369 -1.9694
  111OSM    C8F11466   2.832   4.862   6.185  0.5801 -0.0337 -0.2426
  111OSM    H8F11467   2.878   4.960   6.162 -0.6590  1.1491  1.9351
  111OSM    H8G11468   2.732   4.875   6.139 -0.6638  2.1228  2.7330
  111OSM    C9F11469   2.908   4.738   6.155  0.3348 -0.2175 -0.2379
  111OSM    H9F11470   2.856   4.653   6.201 -0.9417  1.6296  2.0071
  111OSM   C10F11471   3.021   4.723   6.085 -0.0877 -0.5526  0.1256
  111OSM   H10F11472   3.064   4.621   6.083 -1.0510 -0.9538 -1.1822
  111OSM   C11F11473   3.095   4.840   6.020 -0.7156 -0.5430  0.4949
  111OSM   H11F11474   3.163   4.886   6.095 -0.1658 -0.3190 -0.1364
  111OSM   H11G11475   3.029   4.920   5.982 -1.7510 -0.4889  2.2963
  111OSM   C12F11476   3.172   4.806   5.890 -0.9079 -0.7937  0.2539
  111OSM   H12F11477   3.244   4.724   5.913 -2.0844 -1.6508  0.9549
  111OSM   H12G11478   3.224   4.897   5.853 -1.0698 -0.8708 -0.1658
  111OSM   C13F11479   3.090   4.748   5.775  0.2681  0.1912 -0.8493
  111OSM   H13F11480   3.009   4.817   5.743  1.1990  1.1810 -1.1462
  111OSM   H13G11481   3.046   4.650   5.800  1.2245 -0.6203 -2.2034
  111OSM   C14F11482   3.171   4.717   5.655 -0.1960 -0.3199  0.6038
  111OSM   H14F11483   3.118   4.666   5.572  0.2337 -0.9104  0.6835
  111OSM   H14G11484   3.246   4.639   5.679 -0.4159 -1.2924 -1.6251
  111OSM   C15F11485   3.238   4.837   5.594  0.0473  0.0147 -0.0866
  111OSM   H15F11486   3.325   4.870   5.656 -1.8432  2.4149  1.4726
  111OSM   H15G11487   3.165   4.919   5.578 -1.2346 -0.9545  0.5322
  111OSM   C16F11488   3.305   4.799   5.456 -0.0129 -0.4629  0.6086
  111OSM   H16F11489   3.227   4.758   5.389 -0.0276 -2.6475  1.9007
  111OSM   H16G11490   3.380   4.721   5.479  0.7175  0.7921  2.8167
  111OSM   C17F11491   3.372   4.922   5.395 -0.1681  0.2845  0.2963
  111OSM   H17F11492   3.434   4.963   5.477  0.7321  0.5011 -0.4645
  111OSM   H17G11493   3.293   4.998   5.378  1.1697  1.7257  0.2233
  111OSM   C18F11494   3.464   4.888   5.274  0.1892  0.3928 -0.0982
  111OSM   H18F11495   3.524   4.976   5.245  0.3263  0.8884  1.5776
  111OSM   H18G11496   3.392   4.863   5.193 -0.0713  0.9542 -0.0428
  111OSM   H18H11497   3.525   4.797   5.292  1.0700  0.3033 -3.0680
  112OSM      N11498   4.361   0.142   7.941 -0.8888 -0.0012  0.6095
  112OSM    C1511499   4.434   0.276   7.931 -0.1201  0.2790  0.2346
  112OSM   H15A11500   4.542   0.271   7.930 -0.1174  0.4272 -0.5465
  112OSM   H15B11501   4.407   0.347   8.008 -2.0390  1.3194 -1.3278
  112OSM   H15C11502   4.423   0.316   7.832  1.6092  2.3209  0.7946
  112OSM    C1411503   4.409   0.084   8.074  0.1603  0.4115 -0.0780
  112OSM   H14A11504   4.361  -0.011   8.095  0.7116  0.1039 -0.2004
  112OSM   H14B11505   4.394   0.162   8.147 -0.4006  0.6340 -0.4274
  112OSM   H14C11506   4.514   0.058   8.082  0.2769  0.3356 -1.6431
  112OSM    C1311507   4.211   0.158   7.946 -0.0744 -0.2505  0.4317
  112OSM   H13A11508   4.153   0.071   7.975 -0.6732 -0.5792 -1.6346
  112OSM   H13B11509   4.178   0.200   7.852 -0.7773 -0.6570  0.4836
  112OSM   H13C11510   4.181   0.236   8.015 -2.6621  0.6899 -1.6001
  112OSM    C1211511   4.395   0.049   7.825 -0.4446 -0.6886 -0.0137
  112OSM   H12A11512   4.343  -0.046   7.832 -0.9692 -0.3716  0.4757
  112OSM   H12B11513   4.499   0.020   7.830  0.2576  1.7070  0.4887
  112OSM    C1111514   4.381   0.101   7.681 -0.5100  0.6859 -0.2095
  112OSM   H11A11515   4.280   0.142   7.657  0.0394  1.0016 -2.1194
  112OSM   H11B11516   4.405   0.013   7.618  2.9060  0.1347  1.5910
  112OSM      P11517   4.639   0.149   7.640  0.2992 -0.0389 -0.0585
  112OSM    O1311518   4.724   0.244   7.721 -0.1526  0.0474  0.6847
  112OSM    O1411519   4.655   0.005   7.678  0.2416 -0.2139  0.7291
  112OSM    O1111520   4.656   0.159   7.484  0.0448  0.8235 -0.4844
  112OSM    O1211521   4.486   0.197   7.656  0.4432 -0.6623 -0.1986
  112OSM    C1S11522   4.603   0.277   7.418  0.1652  0.3258 -0.4150
  112OSM    H1S11523   4.622   0.368   7.479 -2.0062  1.2636 -1.0575
  112OSM    H1T11524   4.493   0.268   7.419  0.1000  1.0553  0.6925
  112OSM     NF11525   4.599   0.434   7.220 -0.0989 -0.4707 -0.1283
  112OSM    HNF11526   4.519   0.434   7.161  0.9570 -0.6128 -1.5974
  112OSM    C2S11527   4.644   0.304   7.269  0.0682  0.1281 -0.7077
  112OSM    H2S11528   4.755   0.314   7.271 -0.0227  1.2973  1.0187
  112OSM    C3S11529   4.595   0.182   7.186  0.9399  1.0500  0.4341
  112OSM    H3S11530   4.485   0.173   7.180  1.0233 -1.8759  1.4767
  112OSM     O311531   4.622   0.059   7.251 -0.3389 -0.5931  0.3811
  112OSM    HO311532   4.641   0.082   7.342  0.4064 -1.2151  0.3881
  112OSM    C4S11533   4.649   0.178   7.047 -0.2742 -0.0200  0.1235
  112OSM    H4S11534   4.759   0.174   7.051 -0.1889  1.2367 -0.5417
  112OSM    C5S11535   4.577   0.169   6.932 -0.3631 -0.1464  0.1179
  112OSM    H5S11536   4.467   0.161   6.928 -0.4146  0.6762 -0.5558
  112OSM    C6S11537   4.624   0.161   6.785  0.4243 -0.3443 -0.1474
  112OSM    H6S11538   4.540   0.165   6.713  1.0961  2.9365 -0.9164
  112OSM    H6T11539   4.681   0.068   6.767  1.4823 -0.0164  1.3405
  112OSM    C7S11540   4.705   0.294   6.743 -0.1191  0.4268 -0.4135
  112OSM    H7S11541   4.796   0.304   6.806 -0.3336  0.5582 -0.1216
  112OSM    H7T11542   4.636   0.380   6.758 -2.1861 -1.3633  0.9670
  112OSM    C8S11543   4.743   0.290   6.600 -0.0604 -0.2220  0.3864
  112OSM    H8S11544   4.794   0.192   6.588  0.1351  0.0336 -1.0153
  112OSM    H8T11545   4.810   0.373   6.571 -3.1000  1.8671 -1.3110
  112OSM    C9S11546   4.632   0.294   6.488 -0.0295 -0.5942 -0.2326
  112OSM    H9S11547   4.589   0.396   6.487 -1.0171 -0.9930  0.1039
  112OSM    H9T11548   4.552   0.228   6.526 -1.5841  1.4033  0.1330
  112OSM   C10S11549   4.684   0.244   6.357  0.1866 -0.7476 -0.1744
  112OSM   H10S11550   4.728   0.142   6.366 -0.5594 -1.2352 -1.7275
  112OSM   H10T11551   4.765   0.312   6.323 -0.0003 -0.4088  0.0608
  112OSM   C11S11552   4.578   0.244   6.237  0.4993  0.4724  0.0829
  112OSM   H11S11553   4.538   0.347   6.234  0.2909  0.4755  1.8312
  112OSM   H11T11554   4.488   0.189   6.272  0.2104  1.0242  0.2055
  112OSM   C12S11555   4.611   0.198   6.097  0.2842  0.1975 -0.7186
  112OSM   H12S11556   4.657   0.096   6.096 -0.9596 -0.4667  1.4489
  112OSM   H12T11557   4.691   0.259   6.050  0.0929 -0.8712 -2.5456
  112OSM   C13S11558   4.486   0.207   6.003  0.0908  0.5518  0.4313
  112OSM   H13S11559   4.402   0.279   6.014 -1.7369 -1.4441  0.1737
  112OSM   H13T11560   4.439   0.110   6.029 -0.0673  1.0762  2.2598
  112OSM   C14S11561   4.519   0.204   5.856 -0.3325  0.4316  0.3046
  112OSM   H14S11562   4.578   0.111   5.843  0.4072  0.7246  1.3867
  112OSM   H14T11563   4.583   0.287   5.819  1.8262 -1.5627 -0.6982
  112OSM   C15S11564   4.393   0.206   5.769 -0.2070 -0.8453  0.7144
  112OSM   H15S11565   4.333   0.294   5.801 -0.1576 -0.2985 -0.6404
  112OSM   H15T11566   4.336   0.111   5.777 -1.3376 -0.3729 -1.0345
  112OSM   C16S11567   4.440   0.227   5.626  0.2632 -0.7209  0.0406
  112OSM   H16S11568   4.512   0.151   5.588  0.8351 -0.1625 -0.0165
  112OSM   H16T11569   4.491   0.326   5.619  0.8123 -1.0640 -1.1480
  112OSM   C17S11570   4.323   0.227   5.531  0.4398  0.2438 -0.4248
  112OSM   H17S11571   4.257   0.144   5.564  0.3604 -1.2410 -3.8734
  112OSM   H17T11572   4.358   0.207   5.427 -1.5861 -0.8213 -0.9363
  112OSM   C18S11573   4.248   0.366   5.534  0.1416  0.7739 -0.1906
  112OSM   H18S11574   4.173   0.367   5.451  1.4547 -0.1454 -1.4297
  112OSM   H18T11575   4.326   0.441   5.507 -0.0517  0.8247 -0.6188
  112OSM   H18U11576   4.196   0.384   5.631  1.4007 -1.1248  0.8893
  112OSM    C1F11577   4.650   0.555   7.263  0.1554 -0.1913  0.2775
  112OSM     OF11578   4.725   0.562   7.350 -0.2288 -0.1786 -0.3666
  112OSM    C2F11579   4.605   0.679   7.189 -0.5939  0.0323  0.4370
  112OSM    H2F11580   4.639   0.764   7.251 -2.4038  0.2383  1.2150
  112OSM    H2G11581   4.495   0.693   7.183 -0.7051  1.5274  3.8520
  112OSM    C3F11582   4.665   0.687   7.042 -0.0863  0.2992 -0.2192
  112OSM    H3F11583   4.619   0.768   6.980  0.3641 -0.0761 -1.0682
  112OSM    H3G11584   4.635   0.595   6.986 -0.1199  0.6335 -0.7611
  112OSM    C4F11585   4.819   0.696   7.053 -0.5011 -0.2952  0.7923
  112OSM    H4F11586   4.854   0.593   7.077  0.6850 -0.0950 -0.0428
  112OSM    H4G11587   4.857   0.765   7.131 -2.4875  0.0341  1.5235
  112OSM    C5F11588   4.900   0.727   6.920 -0.3527 -0.5551 -0.4135
  112OSM    H5F11589   4.885   0.642   6.851 -0.8037  1.0113 -2.3514
  112OSM    H5G11590   5.007   0.737   6.949 -0.5540  2.0549 -0.2930
  112OSM    C6F11591   4.842   0.857   6.860  0.1891 -0.0303  0.3713
  112OSM    H6F11592   4.850   0.943   6.930 -0.4494 -0.6585  1.2391
  112OSM    H6G11593   4.735   0.833   6.844  0.0631  0.3519  0.6373
  112OSM    C7F11594   4.897   0.914   6.730  0.0342 -0.6460 -0.4547
  112OSM    H7F11595   4.997   0.952   6.757 -0.0162  0.7495 -2.0553
  112OSM    H7G11596   4.834   0.998   6.694  0.2795 -1.5068 -3.1414
  112OSM    C8F11597   4.913   0.797   6.623 -0.1759 -0.1551 -0.2368
  112OSM    H8F11598   4.988   0.724   6.662  0.8747  0.1644 -1.5662
  112OSM    H8G11599   4.969   0.842   6.539  1.1777  1.7175  1.5613
  112OSM    C9F11600   4.779   0.734   6.589  0.4739 -0.1699 -0.0899
  112OSM    H9F11601   4.703   0.727   6.668 -0.8460  2.7391 -0.9796
  112OSM   C10F11602   4.749   0.685   6.468 -0.5832  0.0499  0.6835
  112OSM   H10F11603   4.648   0.651   6.439 -0.6975  1.5455 -0.8371
  112OSM   C11F11604   4.833   0.686   6.342 -0.3922 -0.6271 -1.2742
  112OSM   H11F11605   4.896   0.594   6.344  1.2824  0.4658  0.2787
  112OSM   H11G11606   4.914   0.763   6.341 -1.3283  0.4074 -3.3356
  112OSM   C12F11607   4.761   0.697   6.204  0.6649  0.4609  0.3700
  112OSM   H12F11608   4.848   0.718   6.137  0.3445  0.4735 -0.0456
  112OSM   H12G11609   4.696   0.786   6.199 -0.8935 -0.6689 -0.3693
  112OSM   C13F11610   4.679   0.567   6.175 -0.1049 -0.2035 -0.1460
  112OSM   H13F11611   4.619   0.538   6.264 -2.5883  0.1392 -1.5966
  112OSM   H13G11612   4.745   0.483   6.145  0.0626 -0.2966  0.4802
  112OSM   C14F11613   4.574   0.592   6.059 -0.3300 -0.1965 -0.4134
  112OSM   H14F11614   4.515   0.681   6.089  0.5560  0.1424  0.3523
  112OSM   H14G11615   4.497   0.514   6.045 -0.6029 -0.0557  0.2877
  112OSM   C15F11616   4.644   0.618   5.928 -0.7083 -0.1258 -0.1658
  112OSM   H15F11617   4.726   0.543   5.922  1.0973  1.4385  2.6441
  112OSM   H15G11618   4.689   0.719   5.942 -2.5498  0.4924  2.0852
  112OSM   C16F11619   4.550   0.622   5.808  0.0780 -0.1473 -0.2923
  112OSM   H16F11620   4.480   0.700   5.844 -0.7433 -0.9395 -0.1369
  112OSM   H16G11621   4.499   0.525   5.792  0.3334 -0.6009  1.4771
  112OSM   C17F11622   4.625   0.657   5.676  0.8862  0.4007 -0.0875
  112OSM   H17F11623   4.679   0.568   5.639 -1.3090 -1.1599  0.2611
  112OSM   H17G11624   4.688   0.746   5.699 -0.3606  1.3151 -0.0855
  112OSM   C18F11625   4.519   0.693   5.569  0.0831  0.1117 -0.7405
  112OSM   H18F11626   4.484   0.597   5.524 -0.7208 -0.8149  1.7293
  112OSM   H18G11627   4.558   0.756   5.485 -3.3117  0.1023 -2.5053
  112OSM   H18H11628   4.429   0.734   5.617  0.7187 -1.0994  1.6155
  113OSM      N11629   1.830   2.480   7.790 -1.2590 -0.3580  0.5309
  113OSM    C1511630   1.774   2.488   7.644 -0.0918 -0.5042  0.3542
  113OSM   H15A11631   1.822   2.419   7.576  0.0925  1.7129 -1.8981
  113OSM   H15B11632   1.802   2.575   7.588 -0.3039 -0.3230  0.5248
  113OSM   H15C11633   1.667   2.473   7.648  0.0714 -1.5637  1.5700
  113OSM    C1411634   1.772   2.588   7.865  0.4434 -0.2300  0.1353
  113OSM   H14A11635   1.783   2.691   7.834 -2.3102 -0.1500 -0.9226
  113OSM   H14B11636   1.815   2.587   7.964 -0.0525  1.6131  0.4116
  113OSM   H14C11637   1.665   2.580   7.876  0.4728 -0.2888  0.3748
  113OSM    C1311638   1.797   2.341   7.843  0.1787  0.4444 -0.0516
  113OSM   H13A11639   1.695   2.325   7.875 -0.2369  1.3215 -0.8616
  113OSM   H13B11640   1.848   2.323   7.936 -2.3694 -0.8960  1.1821
  113OSM   H13C11641   1.844   2.267   7.780 -0.5207 -1.1101  1.1783
  113OSM    C1211642   1.979   2.487   7.779 -0.3854 -0.6478 -0.2070
  113OSM   H12A11643   2.010   2.405   7.716 -0.7217 -0.7294 -0.2677
  113OSM   H12B11644   2.024   2.488   7.877  1.2005  1.5703 -0.8813
  113OSM    C1111645   2.033   2.616   7.701 -0.4437  0.2663  0.2381
  113OSM   H11A11646   2.137   2.643   7.729 -0.4343  1.8083 -1.1641
  113OSM   H11B11647   1.970   2.699   7.738 -0.0327  0.4552  0.5141
  113OSM      P11648   2.113   2.532   7.459  0.3506  0.1733  0.0526
  113OSM    O1311649   2.251   2.535   7.519 -0.3971 -0.1981 -0.1322
  113OSM    O1411650   2.062   2.398   7.425 -0.3722  1.0413 -0.1596
  113OSM    O1111651   2.099   2.626   7.327  0.0510  0.3132  0.2462
  113OSM    O1211652   2.021   2.609   7.561 -0.2230 -0.6095 -0.2179
  113OSM    C1S11653   2.178   2.579   7.208 -0.0299  0.2579 -0.4967
  113OSM    H1S11654   2.273   2.529   7.237 -0.8214 -1.8711 -1.3762
  113OSM    H1T11655   2.199   2.669   7.147  0.0207  1.9338  1.8223
  113OSM     NF11656   2.184   2.421   7.028  0.2667  0.2035  0.5874
  113OSM    HNF11657   2.160   2.457   6.938 -2.5574  1.6282  1.7874
  113OSM    C2S11658   2.100   2.474   7.128 -0.2945  0.8204 -0.2696
  113OSM    H2S11659   2.070   2.392   7.195 -0.5016  1.5808  0.5910
  113OSM    C3S11660   1.979   2.540   7.062 -0.8454 -0.0189 -1.2925
  113OSM    H3S11661   2.029   2.620   7.001 -0.5056  1.4449  0.8043
  113OSM     O311662   1.897   2.598   7.163 -0.3452  0.1271 -0.1426
  113OSM    HO311663   1.953   2.609   7.240 -0.3055  2.4421 -0.4287
  113OSM    C4S11664   1.894   2.442   6.986  0.0692 -0.4876  0.2114
  113OSM    H4S11665   1.868   2.356   7.049  0.7494  0.6161  2.0732
  113OSM    C5S11666   1.871   2.447   6.856 -0.2427 -0.3222  0.0136
  113OSM    H5S11667   1.916   2.535   6.807  0.2490  0.9701  2.6026
  113OSM    C6S11668   1.787   2.354   6.770 -0.1863 -0.9475  0.1610
  113OSM    H6S11669   1.686   2.399   6.757 -0.4707 -2.0773 -1.9419
  113OSM    H6T11670   1.771   2.252   6.810  0.5324 -0.5858  1.4353
  113OSM    C7S11671   1.858   2.334   6.634 -0.4731  0.8221  0.3384
  113OSM    H7S11672   1.961   2.295   6.642 -0.3272  0.5285 -2.1915
  113OSM    H7T11673   1.879   2.435   6.591 -0.8082  0.7859  0.0863
  113OSM    C8S11674   1.785   2.245   6.527 -0.4659  0.3509  0.3194
  113OSM    H8S11675   1.681   2.282   6.517 -1.2263 -2.1254 -2.0014
  113OSM    H8T11676   1.786   2.137   6.551  0.9662  0.0417 -0.9577
  113OSM    C9S11677   1.845   2.248   6.380 -0.1609 -0.8750  0.1884
  113OSM    H9S11678   1.820   2.159   6.319  4.1493 -0.3690 -2.7798
  113OSM    H9T11679   1.955   2.244   6.396  0.0455 -0.5318 -1.0127
  113OSM   C10S11680   1.824   2.375   6.304 -0.0117  0.5521 -0.1660
  113OSM   H10S11681   1.879   2.453   6.360 -0.3662 -0.3592  1.4979
  113OSM   H10T11682   1.716   2.399   6.299 -0.4011  0.1484  3.5776
  113OSM   C11S11683   1.878   2.361   6.163  0.3206 -0.3236 -0.2391
  113OSM   H11S11684   1.829   2.277   6.110  0.3326  1.1788 -2.7922
  113OSM   H11T11685   1.988   2.345   6.168  0.4273  0.1207 -1.0020
  113OSM   C12S11686   1.861   2.490   6.075 -0.4635 -0.1272 -0.6791
  113OSM   H12S11687   1.916   2.571   6.126 -0.2970 -1.5942  1.5938
  113OSM   H12T11688   1.756   2.526   6.074 -0.8330 -1.1632 -0.7856
  113OSM   C13S11689   1.897   2.463   5.923 -0.7305 -0.1346 -0.5889
  113OSM   H13S11690   1.990   2.403   5.914  0.9706  2.3823 -0.7494
  113OSM   H13T11691   1.915   2.566   5.886  0.7921  0.0997  0.6941
  113OSM   C14S11692   1.779   2.399   5.846 -0.2859 -0.2671 -0.2609
  113OSM   H14S11693   1.684   2.432   5.892  1.0503 -2.1625  4.5002
  113OSM   H14T11694   1.791   2.292   5.875 -2.2823 -0.0088  1.8036
  113OSM   C15S11695   1.791   2.432   5.695  0.5898 -0.2212  0.1445
  113OSM   H15S11696   1.779   2.542   5.686 -1.4742 -0.4748 -0.7354
  113OSM   H15T11697   1.698   2.397   5.645  0.2887  0.8008 -0.0442
  113OSM   C16S11698   1.915   2.373   5.631  0.2857 -0.2027 -0.0276
  113OSM   H16S11699   1.910   2.262   5.623  1.6592 -0.1850 -1.4386
  113OSM   H16T11700   2.003   2.396   5.695 -1.5372  1.3941  2.0793
  113OSM   C17S11701   1.939   2.429   5.492  0.1536  0.4299 -0.0210
  113OSM   H17S11702   2.047   2.418   5.466  0.0671 -1.7563  0.2982
  113OSM   H17T11703   1.934   2.539   5.497  0.3410  0.5863 -2.3352
  113OSM   C18S11704   1.848   2.364   5.381  0.1947 -0.8998 -0.7480
  113OSM   H18S11705   1.848   2.254   5.396  0.2414 -0.8073 -0.0473
  113OSM   H18T11706   1.892   2.398   5.285  0.8519 -0.5479 -0.3285
  113OSM   H18U11707   1.742   2.398   5.389  0.4411 -0.1136 -0.7407
  113OSM    C1F11708   2.288   2.348   7.068 -0.6522  0.3810 -0.2106
  113OSM     OF11709   2.291   2.297   7.184  0.4379 -0.7060  0.3113
  113OSM    C2F11710   2.399   2.341   6.974  0.4651 -0.8188  0.0856
  113OSM    H2F11711   2.416   2.442   6.932 -0.3765 -1.7279 -2.6265
  113OSM    H2G11712   2.372   2.274   6.889  2.0552 -0.7003 -0.5524
  113OSM    C3F11713   2.529   2.288   7.043  1.2518  0.3609  0.5395
  113OSM    H3F11714   2.517   2.182   7.075  1.6440 -0.3531 -1.5219
  113OSM    H3G11715   2.552   2.348   7.134 -0.0792 -0.7011  1.6063
  113OSM    C4F11716   2.647   2.308   6.944  0.4140  0.1573 -0.2217
  113OSM    H4F11717   2.735   2.320   7.011 -0.6499  0.0650  1.2315
  113OSM    H4G11718   2.639   2.404   6.888 -1.2740 -1.1789 -2.4508
  113OSM    C5F11719   2.672   2.193   6.844 -0.1605  0.1495 -0.0897
  113OSM    H5F11720   2.579   2.168   6.789 -0.1219 -1.6469  0.5905
  113OSM    H5G11721   2.708   2.099   6.891  0.0641  0.4329  0.3045
  113OSM    C6F11722   2.773   2.236   6.737 -0.0204 -0.3465 -0.0524
  113OSM    H6F11723   2.866   2.274   6.785 -2.2460  2.3928  2.4626
  113OSM    H6G11724   2.726   2.322   6.685  0.8207 -1.2971 -2.5592
  113OSM    C7F11725   2.801   2.126   6.628 -0.4550 -0.0421 -0.5257
  113OSM    H7F11726   2.703   2.100   6.582 -2.0932  1.7652  1.7572
  113OSM    H7G11727   2.847   2.034   6.670 -1.0858 -0.0069  0.2736
  113OSM    C8F11728   2.898   2.184   6.522  0.0554  0.1871  0.1053
  113OSM    H8F11729   2.864   2.289   6.512 -2.2050 -0.4315  0.7344
  113OSM    H8G11730   2.884   2.136   6.422 -0.4952 -0.2286  0.3764
  113OSM    C9F11731   3.049   2.173   6.556  0.5956  0.2293 -0.5942
  113OSM    H9F11732   3.100   2.246   6.622  3.5666  0.1392 -2.6024
  113OSM   C10F11733   3.112   2.060   6.518 -1.0989 -0.4156  0.1637
  113OSM   H10F11734   3.220   2.054   6.541 -0.9852  1.1657  0.1318
  113OSM   C11F11735   3.049   1.944   6.440 -0.4522  0.5485 -0.2272
  113OSM   H11F11736   2.940   1.925   6.450 -0.2600 -1.2900 -1.3011
  113OSM   H11G11737   3.098   1.849   6.469 -1.1579 -0.2834 -1.6569
  113OSM   C12F11738   3.075   1.967   6.292 -0.2286 -0.0737  0.2037
  113OSM   H12F11739   3.030   2.061   6.254  2.0906  0.6816 -0.8969
  113OSM   H12G11740   3.025   1.882   6.241  1.2586 -1.0263  0.2472
  113OSM   C13F11741   3.226   1.978   6.251 -0.7022  0.1118 -0.3616
  113OSM   H13F11742   3.283   1.904   6.310  0.5990  2.0112  0.8839
  113OSM   H13G11743   3.266   2.080   6.267  0.9281 -0.6401  0.5560
  113OSM   C14F11744   3.240   1.952   6.099 -0.3275  0.9247 -0.2907
  113OSM   H14F11745   3.212   1.845   6.085 -1.8309  1.0247  1.5075
  113OSM   H14G11746   3.345   1.951   6.064 -0.9183 -0.2223 -2.1691
  113OSM   C15F11747   3.166   2.046   6.004  0.5943 -0.7278  0.1625
  113OSM   H15F11748   3.186   2.154   6.021 -0.1917 -0.4801 -0.3901
  113OSM   H15G11749   3.056   2.027   6.007  0.4871 -0.0425  0.7024
  113OSM   C16F11750   3.205   2.021   5.854  0.0393  0.1989 -0.4214
  113OSM   H16F11751   3.155   1.924   5.831 -1.3315  1.4933 -3.5908
  113OSM   H16G11752   3.313   1.997   5.844 -0.0551 -0.1809 -0.5626
  113OSM   C17F11753   3.148   2.128   5.766  0.1291  0.3379  0.0469
  113OSM   H17F11754   3.194   2.221   5.805 -0.8148  0.7938  0.0932
  113OSM   H17G11755   3.038   2.125   5.780 -0.3146 -1.5477 -2.8235
  113OSM   C18F11756   3.178   2.101   5.614 -0.0880 -0.0076  0.5137
  113OSM   H18F11757   3.163   1.995   5.583  0.5538 -0.9028  3.0727
  113OSM   H18G11758   3.284   2.122   5.588  0.0742  1.6733  2.3050
  113OSM   H18H11759   3.116   2.171   5.554 -2.6366 -0.8197  2.0516
  114OSM      N11760   1.523   1.046   7.772  0.0107 -0.8861  0.0662
  114OSM    C1511761   1.573   0.965   7.893  0.5236  0.1817 -0.9130
  114OSM   H15A11762   1.547   0.863   7.871  1.7260  0.2453 -2.8934
  114OSM   H15B11763   1.547   0.991   7.994 -0.7593 -2.3492 -0.5127
  114OSM   H15C11764   1.681   0.960   7.889  0.6894  0.3667  1.8842
  114OSM    C1411765   1.371   1.039   7.770  0.1285  0.4312 -0.1327
  114OSM   H14A11766   1.326   1.071   7.863 -0.0555  1.3826 -0.5411
  114OSM   H14B11767   1.334   0.941   7.743 -2.0100  1.5142 -1.3763
  114OSM   H14C11768   1.325   1.112   7.706 -1.3114 -0.2240  0.1270
  114OSM    C1311769   1.558   1.183   7.793 -0.0161 -0.2256 -0.3846
  114OSM   H13A11770   1.526   1.247   7.711  0.2248  1.0393  0.4765
  114OSM   H13B11771   1.665   1.199   7.797 -0.1372  0.8133 -0.9609
  114OSM   H13C11772   1.509   1.225   7.879 -0.4957  0.5842 -1.0387
  114OSM    C1211773   1.587   1.001   7.630  0.5072 -0.5737  0.4747
  114OSM   H12A11774   1.584   0.894   7.620 -1.6314 -0.5384  0.3417
  114OSM   H12B11775   1.691   1.029   7.636  0.4462  0.3146 -1.8189
  114OSM    C1111776   1.516   1.062   7.512  0.7188  0.5821  0.2594
  114OSM   H11A11777   1.408   1.038   7.510 -0.2635  4.4786 -0.4579
  114OSM   H11B11778   1.553   1.006   7.423 -3.2664  0.1405 -1.3328
  114OSM      P11779   1.668   1.261   7.439  0.2758 -0.4881 -0.1864
  114OSM    O1311780   1.661   1.407   7.436  0.3646  0.9793  0.8262
  114OSM    O1411781   1.789   1.208   7.507 -0.2556  0.6983 -0.3089
  114OSM    O1111782   1.669   1.204   7.293 -0.0146  0.0770  0.1189
  114OSM    O1211783   1.534   1.202   7.503 -0.3215 -0.2833 -0.2267
  114OSM    C1S11784   1.573   1.245   7.190  0.0990 -0.5840 -0.0320
  114OSM    H1S11785   1.590   1.350   7.157 -1.4191 -1.6310 -5.0426
  114OSM    H1T11786   1.466   1.239   7.218 -0.2651 -1.7980 -1.5319
  114OSM     NF11787   1.484   1.207   6.954  0.2162  0.0926 -0.4731
  114OSM    HNF11788   1.419   1.144   6.912 -1.3639  1.6898 -0.5260
  114OSM    C2S11789   1.577   1.158   7.059  0.2560  0.3230  0.3671
  114OSM    H2S11790   1.671   1.179   7.003  0.3978 -1.6894 -0.2357
  114OSM    C3S11791   1.575   1.010   7.090  0.4536 -0.3154  0.3717
  114OSM    H3S11792   1.479   1.000   7.146 -0.3418  2.4694 -0.3681
  114OSM     O311793   1.677   0.969   7.179 -0.6551  0.6982 -0.6373
  114OSM    HO311794   1.664   1.035   7.249 -0.2855  1.3207 -1.1444
  114OSM    C4S11795   1.571   0.918   6.977  0.2399  0.3134 -0.0639
  114OSM    H4S11796   1.465   0.904   6.951  0.6107  2.3099 -3.2451
  114OSM    C5S11797   1.668   0.850   6.917  0.1820 -0.6208  0.1500
  114OSM    H5S11798   1.773   0.856   6.949  0.0371 -0.1680  0.5527
  114OSM    C6S11799   1.637   0.748   6.812 -0.4127  0.0766  0.2841
  114OSM    H6S11800   1.540   0.703   6.840  0.3951 -1.3511  0.9025
  114OSM    H6T11801   1.708   0.663   6.809  0.2930  0.6481  0.2260
  114OSM    C7S11802   1.639   0.793   6.666  0.1674 -0.3519 -0.2011
  114OSM    H7S11803   1.738   0.842   6.653  0.2791 -0.5728 -0.2053
  114OSM    H7T11804   1.566   0.872   6.639  0.5731 -0.1059 -0.5821
  114OSM    C8S11805   1.626   0.674   6.564 -0.2031  0.4149 -0.4405
  114OSM    H8S11806   1.536   0.616   6.594  0.7934 -1.0232 -0.1359
  114OSM    H8T11807   1.708   0.600   6.580 -0.7748 -0.4790 -1.5436
  114OSM    C9S11808   1.623   0.714   6.421 -1.1861  0.0971  0.3998
  114OSM    H9S11809   1.535   0.772   6.386  0.0270  0.5539 -2.0858
  114OSM    H9T11810   1.638   0.617   6.370  1.1567  0.0569  1.0686
  114OSM   C10S11811   1.743   0.802   6.374  0.2409 -0.0135 -0.6184
  114OSM   H10S11812   1.840   0.749   6.374  1.1709  1.4005  2.6290
  114OSM   H10T11813   1.742   0.893   6.439  2.2202 -0.0724 -0.4553
  114OSM   C11S11814   1.721   0.863   6.232  0.2412 -0.0403 -0.1255
  114OSM   H11S11815   1.793   0.946   6.214  1.3038 -0.8394  0.2990
  114OSM   H11T11816   1.621   0.911   6.224  0.6207  0.7111 -0.4535
  114OSM   C12S11817   1.757   0.767   6.114  0.4890  0.8727 -0.2354
  114OSM   H12S11818   1.707   0.671   6.139  0.7915  0.3276 -1.6041
  114OSM   H12T11819   1.866   0.751   6.100  0.6102  0.2532  1.3029
  114OSM   C13S11820   1.681   0.807   5.988  0.1973 -0.3911  0.6641
  114OSM   H13S11821   1.571   0.811   6.003  0.4339  1.8877  2.1967
  114OSM   H13T11822   1.698   0.727   5.913  1.5527  2.2621 -2.0621
  114OSM   C14S11823   1.714   0.946   5.927  0.3644  0.3594 -0.6528
  114OSM   H14S11824   1.820   0.956   5.960  0.5680 -3.6637  0.3996
  114OSM   H14T11825   1.643   1.010   5.983 -2.2218 -1.6535 -1.4165
  114OSM   C15S11826   1.694   0.965   5.779  0.8423  0.1734  0.3312
  114OSM   H15S11827   1.596   0.917   5.759 -0.7977  3.0066  1.0260
  114OSM   H15T11828   1.758   0.912   5.706 -3.0152 -1.1272 -2.4663
  114OSM   C16S11829   1.663   1.113   5.733 -0.1232  0.0840 -0.0199
  114OSM   H16S11830   1.753   1.177   5.731  0.5846 -0.8704 -2.0553
  114OSM   H16T11831   1.596   1.144   5.816  1.2930 -2.5615  2.3020
  114OSM   C17S11832   1.613   1.113   5.588  0.0031 -0.2147 -0.4584
  114OSM   H17S11833   1.585   1.218   5.565 -1.6309 -0.1537  1.5341
  114OSM   H17T11834   1.529   1.041   5.591  0.2211 -0.5236 -1.3491
  114OSM   C18S11835   1.717   1.074   5.486  0.4838  0.7847  0.4133
  114OSM   H18S11836   1.684   1.080   5.380  0.0294  0.5928  0.5399
  114OSM   H18T11837   1.760   0.976   5.514  2.6453  1.9767  1.5177
  114OSM   H18U11838   1.809   1.136   5.488  1.2877 -0.3889  1.4889
  114OSM    C1F11839   1.498   1.329   6.896 -0.4559  0.2202 -0.3063
  114OSM     OF11840   1.583   1.409   6.931 -0.6988 -0.5994  0.0518
  114OSM    C2F11841   1.394   1.358   6.789 -0.1384 -0.1942 -0.1525
  114OSM    H2F11842   1.299   1.385   6.840  0.6291  3.6630 -0.4303
  114OSM    H2G11843   1.373   1.266   6.730  2.2802 -0.0292 -1.3796
  114OSM    C3F11844   1.438   1.479   6.706  0.0519 -0.1117  0.8392
  114OSM    H3F11845   1.530   1.458   6.647 -0.7114 -1.5382  0.1034
  114OSM    H3G11846   1.451   1.569   6.771 -1.2321 -0.7762  2.0861
  114OSM    C4F11847   1.333   1.524   6.593 -0.4102  0.2294 -0.0647
  114OSM    H4F11848   1.236   1.534   6.647 -0.4637 -1.3920  0.1808
  114OSM    H4G11849   1.326   1.439   6.522 -0.9871  0.2612 -0.0532
  114OSM    C5F11850   1.368   1.654   6.523 -0.3844 -0.2334 -0.3060
  114OSM    H5F11851   1.473   1.648   6.487  0.2839 -1.9205  1.7076
  114OSM    H5G11852   1.366   1.733   6.601 -1.2823  0.2332 -0.7885
  114OSM    C6F11853   1.273   1.690   6.414  1.1963 -0.2943  1.2353
  114OSM    H6F11854   1.286   1.799   6.402 -1.6087  0.0600  0.7762
  114OSM    H6G11855   1.168   1.674   6.445 -0.1611  2.0862 -1.6567
  114OSM    C7F11856   1.299   1.624   6.278 -0.3030 -0.2076 -0.4522
  114OSM    H7F11857   1.287   1.514   6.288  0.3142 -0.4183 -1.8180
  114OSM    H7G11858   1.408   1.636   6.260  0.1625 -0.6865  1.7313
  114OSM    C8F11859   1.207   1.659   6.155  0.1786  0.2177 -0.7389
  114OSM    H8F11860   1.203   1.768   6.135 -3.1456  0.3707  0.2563
  114OSM    H8G11861   1.101   1.630   6.166  0.4035 -0.5126 -0.4495
  114OSM    C9F11862   1.267   1.586   6.034 -0.5283  0.3577  0.2059
  114OSM    H9F11863   1.263   1.476   6.038  3.7260 -0.0472 -1.1171
  114OSM   C10F11864   1.313   1.641   5.920 -0.8692 -0.5984 -0.0021
  114OSM   H10F11865   1.352   1.572   5.842  1.4724  0.2493  0.3303
  114OSM   C11F11866   1.317   1.786   5.881 -0.1402 -0.1222 -0.8815
  114OSM   H11F11867   1.411   1.838   5.911  0.1543 -1.5661  0.8571
  114OSM   H11G11868   1.234   1.840   5.932  1.2854  0.5723  0.8322
  114OSM   C12F11869   1.287   1.793   5.731 -0.1039  0.5048 -0.1958
  114OSM   H12F11870   1.201   1.730   5.697  0.8839 -0.5708 -0.7797
  114OSM   H12G11871   1.379   1.755   5.681  2.3054  3.4685  1.5980
  114OSM   C13F11872   1.261   1.935   5.678 -0.1744  0.0924  0.4418
  114OSM   H13F11873   1.360   1.983   5.696 -0.6652  0.6020  1.9680
  114OSM   H13G11874   1.173   1.971   5.736 -2.2682 -2.5594 -0.8822
  114OSM   C14F11875   1.216   1.929   5.535  0.2049  0.2891 -0.4854
  114OSM   H14F11876   1.117   1.879   5.530  0.8122 -1.0054 -0.0773
  114OSM   H14G11877   1.294   1.871   5.481  0.9613  1.2055 -0.4154
  114OSM   C15F11878   1.202   2.072   5.469  0.0156 -0.1421  0.0346
  114OSM   H15F11879   1.293   2.131   5.496 -0.2663  0.5513 -0.5116
  114OSM   H15G11880   1.123   2.126   5.526  0.4287  0.4972  0.0195
  114OSM   C16F11881   1.175   2.069   5.320  0.5587 -0.4744 -0.1800
  114OSM   H16F11882   1.091   1.996   5.316 -1.1686  1.4548 -1.6289
  114OSM   H16G11883   1.260   2.025   5.264  0.9999 -0.2448  0.3043
  114OSM   C17F11884   1.145   2.208   5.262  0.4220  0.1218 -0.2291
  114OSM   H17F11885   1.137   2.209   5.151 -1.6441  0.9746 -0.1277
  114OSM   H17G11886   1.230   2.274   5.289  2.0212 -1.8810 -0.1750
  114OSM   C18F11887   1.021   2.272   5.320 -0.9047 -0.0574 -0.1904
  114OSM   H18F11888   0.997   2.358   5.253 -1.0156  0.8146  0.9283
  114OSM   H18G11889   1.018   2.299   5.428 -1.7319 -0.7246 -0.0405
  114OSM   H18H11890   0.937   2.200   5.316 -1.7155  0.6584  2.1670
  115OSM      N11891   1.177   4.014   7.451  0.1365 -0.6053  0.1672
  115OSM    C1511892   1.212   3.902   7.540  0.3698  0.4464 -0.4134
  115OSM   H15A11893   1.309   3.923   7.582  0.2106  1.6424 -0.6184
  115OSM   H15B11894   1.225   3.810   7.484  1.6082 -0.8025  1.7889
  115OSM   H15C11895   1.143   3.888   7.622 -0.2172 -1.8128 -1.2229
  115OSM    C1411896   1.193   4.148   7.518  0.1719  0.3225 -0.3396
  115OSM   H14A11897   1.133   4.137   7.608  1.3593  1.2558  0.5985
  115OSM   H14B11898   1.147   4.231   7.466 -0.9889  2.1513  3.1867
  115OSM   H14C11899   1.296   4.157   7.546 -0.2923  2.8757  0.8485
  115OSM    C1311900   1.265   4.011   7.331  0.0476 -0.2532 -0.0073
  115OSM   H13A11901   1.263   3.917   7.278 -1.1707  0.5971 -1.5480
  115OSM   H13B11902   1.363   4.041   7.364  0.5962 -0.5589 -1.3205
  115OSM   H13C11903   1.240   4.082   7.253  1.5301  2.1288  1.5653
  115OSM    C1211904   1.028   3.998   7.418 -0.2729  0.6432 -0.3489
  115OSM   H12A11905   0.976   3.997   7.512  1.3387  0.1874  0.5864
  115OSM   H12B11906   1.008   3.895   7.391 -0.4963  0.5018  0.3541
  115OSM    C1111907   0.960   4.094   7.324  0.4385 -0.2848  0.2493
  115OSM   H11A11908   0.874   4.056   7.265 -1.0387  3.6807 -0.4945
  115OSM   H11B11909   1.034   4.118   7.245  1.1425 -0.7462  0.7533
  115OSM      P11910   0.791   4.192   7.487 -0.1394 -0.1774 -0.1777
  115OSM    O1311911   0.824   4.108   7.607  0.7385  0.8082  0.0347
  115OSM    O1411912   0.738   4.327   7.508  0.0637 -0.0254 -0.1377
  115OSM    O1111913   0.687   4.111   7.413 -0.5871  0.0497  1.0133
  115OSM    O1211914   0.906   4.212   7.394 -0.6376 -0.2416  0.6715
  115OSM    C1S11915   0.616   4.164   7.304 -0.5274 -0.2138 -0.4717
  115OSM    H1S11916   0.688   4.221   7.242  1.6352  1.0316  2.8909
  115OSM    H1T11917   0.552   4.248   7.338 -0.2807  0.1949 -1.0202
  115OSM     NF11918   0.491   4.089   7.087 -0.5051 -0.0144  0.0141
  115OSM    HNF11919   0.397   4.109   7.060 -0.2300  2.7909  0.8413
  115OSM    C2S11920   0.527   4.055   7.230  0.3837 -0.1030 -0.2502
  115OSM    H2S11921   0.588   3.963   7.217 -0.7427 -0.8699 -0.3240
  115OSM    C3S11922   0.403   4.023   7.319  0.5013 -0.3592 -0.5224
  115OSM    H3S11923   0.334   4.109   7.318 -0.9260 -1.4540 -1.3746
  115OSM     O311924   0.443   3.986   7.459 -0.2820 -0.2771  0.8186
  115OSM    HO311925   0.535   4.015   7.461 -0.7416  1.2631  0.9370
  115OSM    C4S11926   0.339   3.896   7.266 -0.1903 -0.4177  0.0454
  115OSM    H4S11927   0.388   3.801   7.292 -2.6151 -2.0447 -0.9739
  115OSM    C5S11928   0.219   3.895   7.201  0.3215 -0.1087  0.0626
  115OSM    H5S11929   0.162   3.989   7.195  0.8244  0.2273  0.4871
  115OSM    C6S11930   0.138   3.776   7.159  0.5134  0.2260  0.3737
  115OSM    H6S11931   0.029   3.795   7.170  0.9099  1.6835  2.3632
  115OSM    H6T11932   0.148   3.686   7.224  1.2755  0.0600  0.0322
  115OSM    C7S11933   0.159   3.717   7.022  0.5845 -0.0894 -0.1576
  115OSM    H7S11934   0.074   3.652   6.990 -0.0065  0.0625  1.0257
  115OSM    H7T11935   0.250   3.655   7.032  1.5311  1.1067 -1.0211
  115OSM    C8S11936   0.175   3.818   6.913  0.4635 -0.5339 -0.3075
  115OSM    H8S11937   0.199   3.760   6.821  1.6532 -1.4215  0.5362
  115OSM    H8T11938   0.264   3.883   6.920  0.5483 -0.3105 -2.6739
  115OSM    C9S11939   0.052   3.894   6.865  0.9549 -1.4328  0.1682
  115OSM    H9S11940   0.054   3.988   6.925 -2.9793 -1.8690  1.2503
  115OSM    H9T11941  -0.037   3.835   6.894 -2.4878  2.3029 -1.7658
  115OSM   C10S11942   0.054   3.932   6.716  0.3517  0.0307 -0.0432
  115OSM   H10S11943  -0.053   3.935   6.688 -0.1580  3.0831  1.7858
  115OSM   H10T11944   0.099   3.849   6.658  0.6628  0.3567 -0.2684
  115OSM   C11S11945   0.108   4.074   6.680  0.2040 -0.2596  0.1188
  115OSM   H11S11946   0.217   4.091   6.691 -0.1699  1.2398  2.1945
  115OSM   H11T11947   0.072   4.157   6.746 -1.6810 -2.1261  1.5957
  115OSM   C12S11948   0.064   4.109   6.539  0.5201 -0.4492 -0.0345
  115OSM   H12S11949   0.087   4.217   6.527 -2.7800  0.5337  1.3446
  115OSM   H12T11950  -0.044   4.090   6.524  0.1983  1.0305  0.2195
  115OSM   C13S11951   0.144   4.039   6.432  0.8971  0.3433  0.4524
  115OSM   H13S11952   0.170   3.932   6.440  0.8170  0.1589 -1.3803
  115OSM   H13T11953   0.242   4.091   6.441  0.5443  1.5417 -1.8515
  115OSM   C14S11954   0.091   4.074   6.297 -0.2761  0.1660  0.3209
  115OSM   H14S11955   0.063   4.181   6.283  1.0627  0.3558 -1.2410
  115OSM   H14T11956  -0.001   4.012   6.288 -0.1164 -0.2384  1.3741
  115OSM   C15S11957   0.196   4.037   6.197 -0.5822  0.5795 -0.0698
  115OSM   H15S11958   0.238   3.938   6.223 -2.5048  0.5840  3.7158
  115OSM   H15T11959   0.275   4.114   6.214 -0.9233  0.8681  0.2283
  115OSM   C16S11960   0.151   4.047   6.043 -0.8199 -0.5926 -0.2991
  115OSM   H16S11961   0.239   4.024   5.979  0.4541  0.2619  1.0787
  115OSM   H16T11962   0.120   4.153   6.030 -0.2856 -0.0190  2.5340
  115OSM   C17S11963   0.041   3.944   6.013  0.7605  1.1066 -0.2801
  115OSM   H17S11964  -0.031   3.932   6.097  0.9326  0.0898 -0.2711
  115OSM   H17T11965   0.086   3.843   6.004  3.6938  2.1484  1.3060
  115OSM   C18S11966  -0.032   3.976   5.885 -0.3775 -0.1404  0.8871
  115OSM   H18S11967  -0.119   3.911   5.860 -2.7398  2.8984  0.5211
  115OSM   H18T11968   0.041   3.968   5.802 -1.1956  1.5345 -0.0502
  115OSM   H18U11969  -0.069   4.081   5.877  0.5414  0.1477  0.2707
  115OSM    C1F11970   0.586   4.103   6.994  0.6031  0.0896 -0.5637
  115OSM     OF11971   0.701   4.079   7.024  0.6119  0.6355  0.0310
  115OSM    C2F11972   0.540   4.151   6.858  0.1912 -0.1614  0.0000
  115OSM    H2F11973   0.513   4.259   6.860 -0.7512 -0.3483 -1.1670
  115OSM    H2G11974   0.438   4.107   6.846 -0.3522  1.1022 -0.1533
  115OSM    C3F11975   0.622   4.077   6.743  0.0517 -0.0854 -0.1496
  115OSM    H3F11976   0.629   3.968   6.762 -0.0953 -0.5594 -2.5258
  115OSM    H3G11977   0.729   4.108   6.737  0.3006 -1.1678 -3.4773
  115OSM    C4F11978   0.552   4.097   6.612  0.6302 -0.4093  0.4028
  115OSM    H4F11979   0.538   4.206   6.600 -2.7087 -0.5421  1.9128
  115OSM    H4G11980   0.452   4.050   6.627 -1.0588  2.3058 -1.6277
  115OSM    C5F11981   0.627   4.017   6.505  0.1894  0.2150  0.1101
  115OSM    H5F11982   0.617   3.910   6.535 -2.1164  0.4336  0.3060
  115OSM    H5G11983   0.734   4.047   6.508  0.7639 -1.6355 -0.0627
  115OSM    C6F11984   0.578   4.045   6.367  0.4574  0.4147 -0.2408
  115OSM    H6F11985   0.591   4.152   6.342  2.2737  0.5761  1.1660
  115OSM    H6G11986   0.473   4.012   6.351  1.0211 -1.8363  0.2730
  115OSM    C7F11987   0.666   3.965   6.257 -0.3685 -0.4875 -0.3703
  115OSM    H7F11988   0.655   3.855   6.273  1.5584 -0.7951 -0.9513
  115OSM    H7G11989   0.766   3.978   6.305 -1.4915 -3.1011  3.1804
  115OSM    C8F11990   0.649   4.003   6.110  0.5339 -0.4833 -0.5902
  115OSM    H8F11991   0.746   3.988   6.058  2.0740  2.0578  1.3101
  115OSM    H8G11992   0.623   4.109   6.088 -1.2463 -1.2120 -2.3294
  115OSM    C9F11993   0.547   3.908   6.053  0.0679 -0.1912 -0.8265
  115OSM    H9F11994   0.445   3.929   6.089  0.3700  0.3701 -0.2732
  115OSM   C10F11995   0.568   3.808   5.964  0.8253 -0.7340  0.4386
  115OSM   H10F11996   0.483   3.741   5.941  0.6707  0.0703 -1.5420
  115OSM   C11F11997   0.695   3.767   5.912 -0.0065  0.6038  0.7188
  115OSM   H11F11998   0.688   3.657   5.901 -0.7053  0.6136  0.9604
  115OSM   H11G11999   0.776   3.789   5.985 -1.5307 -0.0235  2.7086
  115OSM   C12F12000   0.717   3.832   5.772 -0.2777  0.2146 -0.1599
  115OSM   H12F12001   0.816   3.797   5.734  0.3534  0.0054  1.5593
  115OSM   H12G12002   0.751   3.937   5.785  2.1171 -0.4532 -0.4582
  115OSM   C13F12003   0.615   3.815   5.657 -0.5639  0.0414 -0.4962
  115OSM   H13F12004   0.526   3.876   5.683  0.4058  0.5064  2.0668
  115OSM   H13G12005   0.595   3.706   5.660 -1.4179  0.1727 -1.1031
  115OSM   C14F12006   0.675   3.869   5.524  0.2435 -0.2857 -0.4342
  115OSM   H14F12007   0.635   3.813   5.437 -2.1520 -0.2353  0.5634
  115OSM   H14G12008   0.786   3.858   5.525  0.3109  0.3456  0.6077
  115OSM   C15F12009   0.645   4.015   5.508  0.1305 -0.3906  0.1895
  115OSM   H15F12010   0.690   4.072   5.592 -0.7954  1.7295 -0.6689
  115OSM   H15G12011   0.535   4.020   5.521  0.4395  1.2843  3.2592
  115OSM   C16F12012   0.673   4.080   5.374 -0.6448 -0.0396  0.6370
  115OSM   H16F12013   0.631   4.021   5.290 -2.2769  1.8868  0.0096
  115OSM   H16G12014   0.783   4.075   5.364 -0.7738 -0.5825 -0.7341
  115OSM   C17F12015   0.632   4.228   5.356  0.0088 -0.0502 -0.1256
  115OSM   H17F12016   0.647   4.254   5.250  2.1956  0.7368  0.3384
  115OSM   H17G12017   0.713   4.293   5.395 -1.0034  1.5224 -0.5367
  115OSM   C18F12018   0.483   4.269   5.412  0.5822 -0.2135 -0.1954
  115OSM   H18F12019   0.441   4.361   5.366  0.0594 -0.3370  0.0217
  115OSM   H18G12020   0.485   4.283   5.522 -1.4759  0.4764 -0.1952
  115OSM   H18H12021   0.405   4.195   5.384  1.2927 -1.1645  0.3047
  116OSM      N12022   3.195   0.260   7.708  0.1228 -0.0759 -0.1811
  116OSM    C1512023   3.129   0.330   7.818  0.0656  0.6513 -0.2070
  116OSM   H15A12024   3.034   0.283   7.837  0.9514 -0.2021  2.4655
  116OSM   H15B12025   3.109   0.432   7.788 -1.1745 -0.0563 -1.9492
  116OSM   H15C12026   3.195   0.331   7.904 -2.5259  0.4534  1.9112
  116OSM    C1412027   3.332   0.320   7.688  0.3478  1.0399  0.1911
  116OSM   H14A12028   3.317   0.427   7.683  4.9307  2.0293  2.2951
  116OSM   H14B12029   3.389   0.279   7.606 -0.3006  0.8349 -0.1707
  116OSM   H14C12030   3.395   0.300   7.773  2.2454  0.9723 -1.1680
  116OSM    C1312031   3.210   0.116   7.763 -0.1715  0.0320  0.5193
  116OSM   H13A12032   3.113   0.086   7.801 -0.0526  0.2713  1.0135
  116OSM   H13B12033   3.286   0.117   7.839 -0.7606  0.1367  1.1246
  116OSM   H13C12034   3.232   0.049   7.682 -0.1047  0.8312 -0.1437
  116OSM    C1212035   3.112   0.278   7.583  0.4177 -0.1804 -0.1142
  116OSM   H12A12036   3.022   0.221   7.600  0.4655  0.6225  3.8087
  116OSM   H12B12037   3.171   0.247   7.498  1.8557  2.7571 -0.3094
  116OSM    C1112038   3.062   0.422   7.557  0.0861 -0.1778  0.4619
  116OSM   H11A12039   3.036   0.437   7.450  0.0213 -0.5065  0.4327
  116OSM   H11B12040   3.145   0.493   7.579  0.4787  0.1100 -1.7707
  116OSM      P12041   2.797   0.429   7.600 -0.2910 -0.3060  0.3466
  116OSM    O1312042   2.739   0.303   7.651  0.2760 -0.6390 -0.0748
  116OSM    O1412043   2.729   0.556   7.648  0.6473 -0.0067 -0.2132
  116OSM    O1112044   2.796   0.426   7.442 -0.1378  0.5742  0.4837
  116OSM    O1212045   2.948   0.444   7.634 -0.3407 -0.1748 -0.7017
  116OSM    C1S12046   2.723   0.532   7.370  0.6740  0.1450  0.2145
  116OSM    H1S12047   2.758   0.637   7.384 -1.4337  0.5718  3.2276
  116OSM    H1T12048   2.617   0.539   7.402  0.0063 -0.7348 -1.6547
  116OSM     NF12049   2.681   0.633   7.149  0.6736  0.6632 -0.6685
  116OSM    HNF12050   2.589   0.631   7.111  0.3456  0.9921  0.0945
  116OSM    C2S12051   2.718   0.511   7.216  0.6000 -0.3610  1.0024
  116OSM    H2S12052   2.824   0.499   7.183  0.4733  0.0859  0.4236
  116OSM    C3S12053   2.632   0.381   7.191 -0.4905 -0.2512  0.1556
  116OSM    H3S12054   2.528   0.405   7.219 -0.5729 -0.9893  0.5253
  116OSM     O312055   2.667   0.279   7.278 -0.0679 -0.1755  0.1847
  116OSM    HO312056   2.734   0.312   7.339  1.7655 -3.7736  0.3754
  116OSM    C4S12057   2.625   0.334   7.044  0.1171  0.3214  0.2089
  116OSM    H4S12058   2.712   0.279   7.003 -0.7137 -0.4224 -0.6033
  116OSM    C5S12059   2.526   0.326   6.954 -0.8130  0.2361  0.2609
  116OSM    H5S12060   2.425   0.341   6.995 -0.3792 -0.0582  1.4819
  116OSM    C6S12061   2.539   0.279   6.811  0.2480 -0.0485  0.5167
  116OSM    H6S12062   2.625   0.209   6.804  0.4525  0.3324 -2.0466
  116OSM    H6T12063   2.545   0.363   6.737 -2.5878 -0.9758 -0.9010
  116OSM    C7S12064   2.409   0.202   6.780 -0.6693  0.1993 -0.1825
  116OSM    H7S12065   2.327   0.277   6.776 -1.2094 -0.4052 -0.6540
  116OSM    H7T12066   2.391   0.125   6.858 -0.4703 -0.8172 -1.1254
  116OSM    C8S12067   2.410   0.118   6.645 -0.1246  0.5582 -0.4744
  116OSM    H8S12068   2.315   0.060   6.650 -0.4390  1.1449  0.9489
  116OSM    H8T12069   2.502   0.057   6.635  0.3716  0.7476  2.1230
  116OSM    C9S12070   2.401   0.216   6.530  0.1951 -0.2701 -0.2257
  116OSM    H9S12071   2.492   0.275   6.509 -1.4852  1.7103 -2.5173
  116OSM    H9T12072   2.316   0.285   6.548  1.7599  1.1622  2.1649
  116OSM   C10S12073   2.363   0.155   6.392  0.1766 -0.8053 -0.4184
  116OSM   H10S12074   2.272   0.091   6.392  0.2150 -0.9847  2.5195
  116OSM   H10T12075   2.443   0.083   6.363 -1.0098 -2.4015  0.1253
  116OSM   C11S12076   2.354   0.261   6.277 -0.4590  0.7902 -0.3917
  116OSM   H11S12077   2.446   0.322   6.269 -0.6337  0.9117 -1.7887
  116OSM   H11T12078   2.269   0.324   6.311 -1.2314  0.0993 -1.0083
  116OSM   C12S12079   2.331   0.197   6.143  0.6914  0.2360 -0.4017
  116OSM   H12S12080   2.234   0.144   6.136  1.3573 -1.3592  1.5282
  116OSM   H12T12081   2.415   0.127   6.124  0.6493  0.1440 -0.2464
  116OSM   C13S12082   2.313   0.311   6.040 -0.3499 -0.3665 -0.0349
  116OSM   H13S12083   2.405   0.373   6.043 -0.5676  0.1382 -2.2341
  116OSM   H13T12084   2.233   0.383   6.066  0.4809  1.4529 -2.2479
  116OSM   C14S12085   2.277   0.273   5.906  0.2311  0.2167  0.5154
  116OSM   H14S12086   2.228   0.360   5.859  0.0246 -0.3147 -0.2793
  116OSM   H14T12087   2.205   0.189   5.906  0.7138 -0.3202 -2.4268
  116OSM   C15S12088   2.408   0.234   5.820  0.2335  0.2341 -0.1935
  116OSM   H15S12089   2.473   0.162   5.874 -0.9836 -1.9842 -1.5360
  116OSM   H15T12090   2.465   0.329   5.804 -0.1087  0.5836  0.6153
  116OSM   C16S12091   2.380   0.170   5.686 -0.1378  0.0807  0.4927
  116OSM   H16S12092   2.306   0.088   5.697  0.4646 -0.5149  0.2144
  116OSM   H16T12093   2.474   0.119   5.653 -1.5940 -1.8816 -0.8601
  116OSM   C17S12094   2.333   0.258   5.567  0.4689  0.4382  0.1121
  116OSM   H17S12095   2.257   0.332   5.601  2.3005  2.1507  0.7188
  116OSM   H17T12096   2.301   0.184   5.491 -0.2978  0.1301  0.7139
  116OSM   C18S12097   2.442   0.339   5.511 -0.3719  0.4712  0.1186
  116OSM   H18S12098   2.414   0.392   5.416 -0.9142 -0.7522 -0.4221
  116OSM   H18T12099   2.535   0.286   5.483  0.9743  3.8041 -2.4208
  116OSM   H18U12100   2.469   0.418   5.584  1.1041  0.1686 -0.0690
  116OSM    C1F12101   2.760   0.742   7.144 -0.0936  0.1872 -0.3053
  116OSM     OF12102   2.875   0.734   7.190  0.3783  0.0368 -0.0375
  116OSM    C2F12103   2.702   0.866   7.089 -0.6846  0.2570 -0.3381
  116OSM    H2F12104   2.664   0.929   7.172 -1.2821 -0.3101 -0.1683
  116OSM    H2G12105   2.614   0.848   7.023 -1.0431  0.3034  0.1148
  116OSM    C3F12106   2.791   0.944   6.994  0.4185  0.8293 -0.2714
  116OSM    H3F12107   2.871   0.961   7.069  1.4042 -0.7321 -0.9321
  116OSM    H3G12108   2.739   1.036   6.959 -2.5998  0.3170  2.4235
  116OSM    C4F12109   2.852   0.861   6.883 -0.2237 -0.4573  0.1299
  116OSM    H4F12110   2.932   0.801   6.933  0.8165  0.7370 -0.0449
  116OSM    H4G12111   2.899   0.926   6.806 -1.0193  1.6112  1.2943
  116OSM    C5F12112   2.761   0.766   6.805  0.3616  0.7521  0.4667
  116OSM    H5F12113   2.665   0.818   6.783  0.6049  1.1140  0.2398
  116OSM    H5G12114   2.731   0.672   6.856 -3.0709  0.5953 -1.5256
  116OSM    C6F12115   2.812   0.732   6.660 -0.3424  0.2143  0.3273
  116OSM    H6F12116   2.909   0.679   6.671 -1.2086 -1.1585  1.6973
  116OSM    H6G12117   2.831   0.831   6.613 -1.6241  0.4961  0.3661
  116OSM    C7F12118   2.716   0.647   6.572 -0.4509  0.4619  0.9365
  116OSM    H7F12119   2.622   0.703   6.556 -1.4838 -1.9046 -2.1568
  116OSM    H7G12120   2.701   0.550   6.625 -0.2604 -2.0314 -3.1474
  116OSM    C8F12121   2.784   0.604   6.438  0.2556  0.4697  0.7260
  116OSM    H8F12122   2.871   0.539   6.460  0.0745  0.9090  3.0501
  116OSM    H8G12123   2.821   0.698   6.394 -0.2477  0.5720  0.5120
  116OSM    C9F12124   2.686   0.537   6.344 -0.4143 -0.2898 -0.2287
  116OSM    H9F12125   2.643   0.446   6.388 -1.8340  0.4007 -0.1142
  116OSM   C10F12126   2.654   0.580   6.221 -0.3776  0.0286  0.2837
  116OSM   H10F12127   2.584   0.514   6.167  0.2165 -0.4342  0.0720
  116OSM   C11F12128   2.689   0.710   6.148  0.2645  0.1051  0.1736
  116OSM   H11F12129   2.788   0.740   6.188 -0.5679 -0.1775  2.6176
  116OSM   H11G12130   2.621   0.795   6.168  0.3047  0.4506 -1.1300
  116OSM   C12F12131   2.707   0.711   5.990 -0.3578 -0.3879 -0.6587
  116OSM   H12F12132   2.771   0.625   5.959 -0.6017 -1.0201  0.5191
  116OSM   H12G12133   2.755   0.811   5.978  0.6259 -0.6649  0.6571
  116OSM   C13F12134   2.574   0.698   5.918  1.1714 -0.3583 -0.6068
  116OSM   H13F12135   2.509   0.778   5.959  0.5726  0.4708 -2.9836
  116OSM   H13G12136   2.517   0.611   5.956 -1.0055  1.0798 -0.3990
  116OSM   C14F12137   2.566   0.689   5.766  0.7872 -0.4710  0.9194
  116OSM   H14F12138   2.581   0.584   5.734 -0.6933  0.2711 -2.7489
  116OSM   H14G12139   2.650   0.741   5.717 -0.3161 -0.7419 -1.3738
  116OSM   C15F12140   2.432   0.744   5.708 -0.4059  1.6350 -1.0569
  116OSM   H15F12141   2.453   0.745   5.598  2.0022  2.7530 -0.6633
  116OSM   H15G12142   2.396   0.846   5.734 -2.8375  0.5810 -0.0145
  116OSM   C16F12143   2.323   0.640   5.743 -0.0806 -0.2092  0.5695
  116OSM   H16F12144   2.304   0.644   5.852  0.3468  3.0602  0.6259
  116OSM   H16G12145   2.342   0.534   5.713 -1.4118  0.0282 -1.2814
  116OSM   C17F12146   2.186   0.685   5.678 -0.0104 -0.1491 -0.5404
  116OSM   H17F12147   2.180   0.794   5.697 -0.1216  0.0178 -1.4878
  116OSM   H17G12148   2.106   0.634   5.737  0.3971  2.1984  2.2857
  116OSM   C18F12149   2.185   0.657   5.527  0.4526  0.1123 -0.4173
  116OSM   H18F12150   2.195   0.550   5.498  2.0802 -1.1505  4.0471
  116OSM   H18G12151   2.270   0.713   5.483  0.8425 -0.3315 -0.2426
  116OSM   H18H12152   2.090   0.704   5.492 -2.9126 -3.4946  2.9267
  117OSM      N12153   2.086   3.855   7.213  0.4013 -0.3194 -0.5883
  117OSM    C1512154   2.176   3.771   7.134  1.1148  0.1387 -0.0919
  117OSM   H15A12155   2.274   3.756   7.176  1.6528  0.1937 -1.2866
  117OSM   H15B12156   2.188   3.811   7.035 -4.5420  0.1916 -1.1066
  117OSM   H15C12157   2.126   3.675   7.128 -0.3772  0.7585  1.6526
  117OSM    C1412158   2.068   3.787   7.351  0.1331 -0.0770 -0.1100
  117OSM   H14A12159   2.053   3.681   7.340  0.5761 -0.2641  1.0251
  117OSM   H14B12160   1.995   3.838   7.412  2.1094  1.9594  0.7034
  117OSM   H14C12161   2.164   3.792   7.399  0.3371 -1.5498 -0.3149
  117OSM    C1312162   2.142   3.990   7.233 -0.2779  0.4145 -0.2873
  117OSM   H13A12163   2.145   4.046   7.141 -3.9444 -0.2146 -0.9286
  117OSM   H13B12164   2.246   3.989   7.263  0.1891 -0.8627 -1.7994
  117OSM   H13C12165   2.095   4.040   7.316  1.4618  0.0027  1.0079
  117OSM    C1212166   1.943   3.855   7.151  0.5000  0.0008  0.2311
  117OSM   H12A12167   1.913   3.754   7.128 -1.6194  0.5522  0.3802
  117OSM   H12B12168   1.966   3.895   7.053  0.4078 -0.8571 -0.1530
  117OSM    C1112169   1.837   3.954   7.209  0.2021  0.2578 -0.2279
  117OSM   H11A12170   1.816   3.925   7.314  0.9502  0.5624  0.0158
  117OSM   H11B12171   1.734   3.957   7.169  0.4161 -0.3246 -0.8309
  117OSM      P12172   1.874   4.187   7.078 -0.1296 -0.7363  0.2059
  117OSM    O1312173   1.860   4.325   7.122 -0.0379  0.5066 -0.5486
  117OSM    O1412174   1.991   4.155   6.985 -0.1750 -0.3952  0.2406
  117OSM    O1112175   1.746   4.143   7.004  0.1910 -0.4636  0.2258
  117OSM    O1212176   1.889   4.087   7.201  0.3545  0.3815  0.0260
  117OSM    C1S12177   1.694   4.228   6.891  0.0643  0.1344  0.5901
  117OSM    H1S12178   1.755   4.203   6.801  2.5527  0.1259  2.1665
  117OSM    H1T12179   1.713   4.337   6.903  2.7767  0.0286 -1.4605
  117OSM     NF12180   1.488   4.261   6.751 -0.1340  0.1707  0.0905
  117OSM    HNF12181   1.430   4.340   6.772 -2.3661 -0.9697 -1.4385
  117OSM    C2S12182   1.544   4.194   6.864 -0.2102  0.8459  0.8705
  117OSM    H2S12183   1.519   4.087   6.847 -0.8781  0.9323  1.2849
  117OSM    C3S12184   1.462   4.231   6.992 -0.0387 -0.3604  0.2095
  117OSM    H3S12185   1.492   4.337   7.003  3.0787 -1.1094 -0.0690
  117OSM     O312186   1.506   4.160   7.104  0.0786 -0.7271 -0.1969
  117OSM    HO312187   1.594   4.123   7.087  0.6729 -0.1036  1.2795
  117OSM    C4S12188   1.312   4.206   6.979  0.2155 -0.1588 -0.2547
  117OSM    H4S12189   1.257   4.300   6.962  0.4223 -0.4164 -2.8918
  117OSM    C5S12190   1.233   4.096   6.985 -0.8804 -0.1785 -0.1322
  117OSM    H5S12191   1.277   3.996   6.994 -0.8912 -0.1934 -0.2406
  117OSM    C6S12192   1.083   4.105   6.976 -0.2339  0.4450 -0.3608
  117OSM    H6S12193   1.036   4.195   7.020 -3.0472 -1.6635  1.3217
  117OSM    H6T12194   1.046   4.018   7.035 -1.2857 -0.2634 -1.9902
  117OSM    C7S12195   1.015   4.060   6.839 -0.2774 -0.0755  0.9124
  117OSM    H7S12196   0.904   4.074   6.841 -0.6080 -2.1378 -0.0687
  117OSM    H7T12197   1.027   3.955   6.807  2.2099  1.1607 -2.8356
  117OSM    C8S12198   1.065   4.154   6.723 -0.4976  0.3725 -0.5395
  117OSM    H8S12199   1.175   4.145   6.735 -0.4531  0.9850 -0.4794
  117OSM    H8T12200   1.046   4.258   6.758  0.7897 -0.0471  1.6080
  117OSM    C9S12201   1.018   4.113   6.590  0.8189 -0.0981  0.7314
  117OSM    H9S12202   0.909   4.124   6.577  1.0813  1.1242 -0.7213
  117OSM    H9T12203   1.046   4.006   6.574 -0.0525 -0.5790  2.2301
  117OSM   C10S12204   1.065   4.201   6.478  0.2088 -0.6175  0.2327
  117OSM   H10S12205   1.176   4.213   6.485  0.2474 -0.6521 -0.2497
  117OSM   H10T12206   1.021   4.303   6.479  1.1589 -0.1990  1.4431
  117OSM   C11S12207   1.033   4.147   6.336  0.1589  0.0328  0.0213
  117OSM   H11S12208   0.930   4.158   6.296  1.1680  1.2568 -2.4267
  117OSM   H11T12209   1.066   4.041   6.327 -0.1457 -0.1140  0.6346
  117OSM   C12S12210   1.116   4.221   6.230 -0.4563 -0.5193  0.2658
  117OSM   H12S12211   1.223   4.200   6.250  0.0782  0.9219 -0.9472
  117OSM   H12T12212   1.103   4.328   6.255  1.0423  0.0788 -1.3664
  117OSM   C13S12213   1.075   4.190   6.087  0.5207  0.0685 -0.2087
  117OSM   H13S12214   0.965   4.175   6.075  0.2282  0.9783  1.1022
  117OSM   H13T12215   1.114   4.091   6.055 -1.3035 -0.7101 -0.1636
  117OSM   C14S12216   1.118   4.305   5.992  0.4385  0.4512 -0.5646
  117OSM   H14S12217   1.223   4.331   6.017  0.7346  0.3132 -1.6281
  117OSM   H14T12218   1.057   4.395   6.014 -0.8164 -0.6708  0.7714
  117OSM   C15S12219   1.112   4.260   5.842  0.9515 -0.1034 -0.3111
  117OSM   H15S12220   1.114   4.349   5.775  0.4765  0.7881  0.8210
  117OSM   H15T12221   1.012   4.213   5.832  1.6743 -1.9028  0.5505
  117OSM   C16S12222   1.210   4.155   5.793  0.0512  0.6419  0.5334
  117OSM   H16S12223   1.175   4.057   5.832 -0.3410 -0.2573 -1.8700
  117OSM   H16T12224   1.311   4.176   5.836  1.0702  1.2490 -1.9691
  117OSM   C17S12225   1.229   4.120   5.643  0.3801  0.4901  0.1189
  117OSM   H17S12226   1.276   4.202   5.585  1.0502  0.3505  0.4520
  117OSM   H17T12227   1.126   4.103   5.606  0.1815 -0.3907  1.0437
  117OSM   C18S12228   1.313   3.997   5.619 -0.5211  0.2498 -0.3389
  117OSM   H18S12229   1.287   3.908   5.679 -0.4160  1.6708  1.9536
  117OSM   H18T12230   1.418   4.017   5.651 -0.1458  0.7559 -1.7737
  117OSM   H18U12231   1.310   3.966   5.512  1.0860  2.1893 -1.0285
  117OSM    C1F12232   1.522   4.235   6.624 -0.9664  0.0515 -0.3292
  117OSM     OF12233   1.612   4.154   6.611  0.3905  0.2157  0.1051
  117OSM    C2F12234   1.450   4.295   6.511  0.4959 -0.2767 -0.2755
  117OSM    H2F12235   1.372   4.370   6.539 -2.4657 -4.0818  2.7580
  117OSM    H2G12236   1.386   4.214   6.470  1.4431 -1.0698 -0.2085
  117OSM    C3F12237   1.537   4.343   6.398  0.2459 -0.0235  0.0560
  117OSM    H3F12238   1.626   4.280   6.378  2.0270  2.4866 -0.2970
  117OSM    H3G12239   1.564   4.448   6.420 -1.5305  0.9466 -1.9970
  117OSM    C4F12240   1.466   4.349   6.260 -0.3533 -0.4014 -0.5603
  117OSM    H4F12241   1.378   4.415   6.271  1.2522  1.9704 -1.1175
  117OSM    H4G12242   1.447   4.248   6.218  3.4910 -2.3573  1.7862
  117OSM    C5F12243   1.549   4.424   6.153  0.0103  0.2267 -1.1174
  117OSM    H5F12244   1.647   4.376   6.133 -0.1985  0.4083 -2.7237
  117OSM    H5G12245   1.558   4.531   6.183 -1.7069  0.0896  0.0370
  117OSM    C6F12246   1.481   4.418   6.020  0.0443  0.0611  0.2558
  117OSM    H6F12247   1.385   4.472   6.037 -0.2563 -0.7378  1.1841
  117OSM    H6G12248   1.467   4.314   5.983 -1.4593  0.6374 -0.8833
  117OSM    C7F12249   1.562   4.499   5.908  0.5437  0.3266 -0.0746
  117OSM    H7F12250   1.641   4.424   5.886 -0.7055 -1.0143 -0.1488
  117OSM    H7G12251   1.592   4.596   5.953 -1.1567  0.7286  0.2631
  117OSM    C8F12252   1.474   4.524   5.781  0.0686 -0.0337 -0.5159
  117OSM    H8F12253   1.399   4.602   5.804 -1.3359 -1.5807  0.3097
  117OSM    H8G12254   1.429   4.430   5.743  3.0645 -2.6923  1.8781
  117OSM    C9F12255   1.572   4.594   5.685  0.0727 -0.5119 -0.2209
  117OSM    H9F12256   1.638   4.644   5.757 -1.8525  1.5610  0.2013
  117OSM   C10F12257   1.601   4.569   5.559 -0.1816 -0.0317  0.2902
  117OSM   H10F12258   1.667   4.637   5.503 -1.2313 -1.1113 -2.3991
  117OSM   C11F12259   1.518   4.481   5.471  0.4290  0.5768  0.3534
  117OSM   H11F12260   1.504   4.380   5.514  2.8032  1.2135  2.9137
  117OSM   H11G12261   1.586   4.452   5.387 -0.5067 -0.9960  0.0942
  117OSM   C12F12262   1.390   4.532   5.403  0.7041  0.7019  0.0098
  117OSM   H12F12263   1.349   4.447   5.345 -0.0553 -0.6655  2.3857
  117OSM   H12G12264   1.404   4.624   5.343 -1.1128  0.5831 -0.6327
  117OSM   C13F12265   1.269   4.559   5.499 -0.0082  0.3720  0.5508
  117OSM   H13F12266   1.297   4.648   5.559  5.2562  0.2503 -1.2198
  117OSM   H13G12267   1.258   4.469   5.563 -1.8904  0.7021  0.7554
  117OSM   C14F12268   1.138   4.576   5.418  0.0847 -0.0423  0.1817
  117OSM   H14F12269   1.153   4.512   5.329  0.8389 -0.6182  0.7010
  117OSM   H14G12270   1.140   4.682   5.385 -0.1159 -0.3429 -0.8204
  117OSM   C15F12271   1.014   4.535   5.500 -0.3443 -0.1472  0.3397
  117OSM   H15F12272   1.000   4.597   5.591 -0.3626 -1.1705  1.0538
  117OSM   H15G12273   1.030   4.431   5.538  1.6890  0.8702  2.5755
  117OSM   C16F12274   0.883   4.540   5.423 -0.3711  0.3620 -0.2632
  117OSM   H16F12275   0.805   4.483   5.479  0.6005 -2.5549 -1.6810
  117OSM   H16G12276   0.902   4.482   5.331 -0.2012  0.6909 -0.4339
  117OSM   C17F12277   0.833   4.679   5.388  0.1426  0.5398  0.2021
  117OSM   H17F12278   0.912   4.733   5.333  0.5759  1.1860  1.4237
  117OSM   H17G12279   0.822   4.729   5.487  0.3728  2.1329 -0.5498
  117OSM   C18F12280   0.707   4.686   5.299  0.7240  0.0138 -0.2287
  117OSM   H18F12281   0.624   4.658   5.367  1.7739  0.7668  1.4207
  117OSM   H18G12282   0.699   4.630   5.203  0.2866  0.8064 -0.6675
  117OSM   H18H12283   0.703   4.794   5.274  0.0529 -0.0368 -0.3459
  118OSM      N12284   2.359   2.908   7.662 -0.3667  0.6633 -0.2799
  118OSM    C1512285   2.410   2.820   7.776  0.1515  0.2462  0.1196
  118OSM   H15A12286   2.489   2.755   7.742 -1.1491 -0.3990 -1.8664
  118OSM   H15B12287   2.338   2.747   7.812 -0.6775  0.5646 -0.8326
  118OSM   H15C12288   2.432   2.871   7.868 -1.0184 -0.5069  0.8426
  118OSM    C1412289   2.241   2.986   7.711  0.4490 -0.1526 -0.5525
  118OSM   H14A12290   2.201   3.051   7.634  0.1604 -1.3164 -1.4057
  118OSM   H14B12291   2.264   3.051   7.794 -1.1168 -1.4880  1.0068
  118OSM   H14C12292   2.162   2.916   7.737  1.3505 -1.1473 -0.4398
  118OSM    C1312293   2.469   2.990   7.617  0.0087  0.1894 -0.2791
  118OSM   H13A12294   2.515   3.050   7.695 -0.2564 -0.4597  0.3883
  118OSM   H13B12295   2.447   3.043   7.525 -1.7733 -0.0287 -0.0168
  118OSM   H13C12296   2.556   2.934   7.589 -0.3001 -0.8609  0.7762
  118OSM    C1212297   2.305   2.831   7.540  0.0927  0.8085 -0.7916
  118OSM   H12A12298   2.235   2.753   7.567 -0.2772  0.7390 -1.9107
  118OSM   H12B12299   2.377   2.763   7.498 -0.3394 -0.9058  1.0729
  118OSM    C1112300   2.249   2.923   7.428  0.4615 -0.0949  0.4260
  118OSM   H11A12301   2.242   2.865   7.333 -0.0942  0.0205  0.3934
  118OSM   H11B12302   2.323   3.004   7.409 -1.3337  2.2665  2.8025
  118OSM      P12303   2.075   3.127   7.393 -0.3972  0.3507 -0.0016
  118OSM    O1312304   1.980   3.189   7.488 -0.0636 -0.3731 -0.4164
  118OSM    O1412305   2.195   3.201   7.358 -0.1703 -0.0374  0.2116
  118OSM    O1112306   2.000   3.095   7.258 -0.3538  0.2542 -0.0569
  118OSM    O1212307   2.116   2.981   7.456 -0.2024 -0.1709  0.4193
  118OSM    C1S12308   1.913   2.979   7.246  0.4775  0.5554  0.3388
  118OSM    H1S12309   1.823   2.988   7.310 -1.4204 -0.4810 -2.0394
  118OSM    H1T12310   1.962   2.894   7.298 -0.6907  0.9519  2.1681
  118OSM     NF12311   1.781   2.850   7.085 -0.0653  0.1892 -0.0835
  118OSM    HNF12312   1.797   2.766   7.034 -2.2792 -0.4856  0.2371
  118OSM    C2S12313   1.880   2.955   7.093 -0.8481  0.2028 -0.4227
  118OSM    H2S12314   1.847   3.055   7.058  1.4770  1.1694 -0.0491
  118OSM    C3S12315   2.006   2.933   7.008 -0.4377 -0.7960 -0.5584
  118OSM    H3S12316   2.042   2.829   7.023 -0.7869 -0.7996  0.3174
  118OSM     O312317   2.119   3.020   7.041 -0.2625 -0.0083 -0.2503
  118OSM    HO312318   2.102   3.054   7.129 -2.9962 -0.7663 -0.4004
  118OSM    C4S12319   1.981   2.929   6.859  0.7637 -0.0323 -0.2770
  118OSM    H4S12320   1.939   3.025   6.826  0.1254  0.3919  1.6574
  118OSM    C5S12321   2.018   2.826   6.773  0.1075  0.3532  0.0731
  118OSM    H5S12322   2.088   2.751   6.812  3.4853  2.9134 -0.5517
  118OSM    C6S12323   2.002   2.837   6.626  0.4682 -0.5788  0.4309
  118OSM    H6S12324   1.980   2.740   6.575 -3.5426  0.3045  0.1017
  118OSM    H6T12325   2.093   2.874   6.576 -1.0012  0.0824 -1.9270
  118OSM    C7S12326   1.882   2.924   6.576 -0.0345 -0.2974  0.0514
  118OSM    H7S12327   1.894   3.023   6.626 -0.7980 -0.4843  0.6128
  118OSM    H7T12328   1.793   2.875   6.620 -0.2533  1.5302  1.7636
  118OSM    C8S12329   1.873   2.966   6.427 -0.1881  0.1542  0.3070
  118OSM    H8S12330   1.953   3.041   6.408  0.7725 -0.6669  1.0481
  118OSM    H8T12331   1.775   3.015   6.409 -0.1263 -0.2648 -1.3584
  118OSM    C9S12332   1.897   2.854   6.326  0.0877  0.6055  0.0330
  118OSM    H9S12333   1.818   2.778   6.344  1.0620 -0.2265  0.9819
  118OSM    H9T12334   2.000   2.813   6.332  0.9218  2.4887 -0.6585
  118OSM   C10S12335   1.868   2.891   6.181  0.1982  0.4689 -0.2615
  118OSM   H10S12336   1.776   2.951   6.160  0.6533  0.5128 -2.3533
  118OSM   H10T12337   1.857   2.805   6.111  2.3168  0.2508 -0.3856
  118OSM   C11S12338   1.979   2.975   6.117 -0.2214 -0.0333 -0.4380
  118OSM   H11S12339   2.072   2.916   6.131 -0.7885 -0.8686 -0.0808
  118OSM   H11T12340   1.990   3.060   6.188 -0.5230 -0.9972  0.7897
  118OSM   C12S12341   1.962   3.025   5.972  0.3342  0.0345  0.2250
  118OSM   H12S12342   2.064   3.042   5.930 -0.1971  1.5724 -0.5212
  118OSM   H12T12343   1.903   3.119   5.971  0.2558 -0.0152  0.2320
  118OSM   C13S12344   1.880   2.930   5.880 -0.8548 -0.0182  0.2081
  118OSM   H13S12345   1.775   2.929   5.918 -1.6319  2.4269 -1.6241
  118OSM   H13T12346   1.928   2.830   5.890  0.6647  0.6608 -0.1397
  118OSM   C14S12347   1.877   2.980   5.734 -0.7395 -0.0165 -0.3783
  118OSM   H14S12348   1.845   3.086   5.744  0.9438  0.5639 -0.6378
  118OSM   H14T12349   1.810   2.916   5.673 -0.6121 -0.7164  0.1998
  118OSM   C15S12350   2.012   2.966   5.662 -0.6048 -1.3458 -0.1379
  118OSM   H15S12351   2.090   3.009   5.728 -0.8125 -2.7332  1.0608
  118OSM   H15T12352   2.008   3.022   5.566 -1.5162 -1.5754 -0.2444
  118OSM   C16S12353   2.055   2.822   5.634  0.4465  0.4071 -0.9418
  118OSM   H16S12354   1.984   2.784   5.558 -1.6791  4.8133 -1.4235
  118OSM   H16T12355   2.034   2.763   5.727  1.5294  0.5247 -0.6087
  118OSM   C17S12356   2.198   2.812   5.596  0.3343  0.9062  0.7566
  118OSM   H17S12357   2.248   2.878   5.671 -0.0356  1.3801  0.5956
  118OSM   H17T12358   2.209   2.857   5.495 -0.6959  4.2417  1.9838
  118OSM   C18S12359   2.254   2.671   5.596  0.3896 -0.0778  0.1553
  118OSM   H18S12360   2.201   2.613   5.674 -0.6147  0.4696 -0.1101
  118OSM   H18T12361   2.365   2.679   5.598  0.3051  2.3653 -1.2058
  118OSM   H18U12362   2.226   2.617   5.502 -0.4050 -0.3703  0.5552
  118OSM    C1F12363   1.660   2.866   7.130 -0.0663 -0.1202 -0.8421
  118OSM     OF12364   1.631   2.957   7.209 -0.5686 -0.7744 -0.4472
  118OSM    C2F12365   1.556   2.771   7.072 -0.2546 -0.2615  0.1219
  118OSM    H2F12366   1.456   2.817   7.063 -0.6734 -1.3830 -1.3015
  118OSM    H2G12367   1.538   2.690   7.146  1.0095 -0.3645  0.3316
  118OSM    C3F12368   1.589   2.702   6.935 -0.2984 -0.1309  0.5847
  118OSM    H3F12369   1.544   2.601   6.944 -2.4697  0.7584  0.3256
  118OSM    H3G12370   1.698   2.684   6.922  0.1160  2.4565  0.0193
  118OSM    C4F12371   1.534   2.780   6.820 -0.2380 -0.7066 -0.5469
  118OSM    H4F12372   1.558   2.889   6.826 -0.4229 -0.7029  0.3166
  118OSM    H4G12373   1.423   2.771   6.825 -0.2132 -0.5428  2.7363
  118OSM    C5F12374   1.565   2.707   6.689  0.3364 -0.9870  0.3430
  118OSM    H5F12375   1.530   2.602   6.697 -1.2465 -0.4830  0.4597
  118OSM    H5G12376   1.674   2.695   6.669  0.7801 -1.5695  2.8031
  118OSM    C6F12377   1.507   2.760   6.557 -0.3685 -0.1531  0.1239
  118OSM    H6F12378   1.548   2.861   6.539 -1.3692  0.6754  2.2122
  118OSM    H6G12379   1.399   2.772   6.578 -0.3701 -0.5122  0.3399
  118OSM    C7F12380   1.497   2.659   6.438  0.4674 -0.4830 -0.4191
  118OSM    H7F12381   1.451   2.565   6.476 -0.5296 -1.3221 -3.4161
  118OSM    H7G12382   1.595   2.620   6.404  0.5296 -0.1702 -0.6004
  118OSM    C8F12383   1.422   2.702   6.313  0.3747  0.5839  0.1842
  118OSM    H8F12384   1.324   2.731   6.357  0.6226 -0.9817  1.8950
  118OSM    H8G12385   1.407   2.603   6.264  2.2696 -0.5318  1.7361
  118OSM    C9F12386   1.487   2.810   6.232 -0.0263  0.1863 -0.2179
  118OSM    H9F12387   1.523   2.901   6.283  2.0407 -0.0477 -1.1587
  118OSM   C10F12388   1.491   2.811   6.097 -0.3496  0.5012 -0.4810
  118OSM   H10F12389   1.534   2.902   6.053 -0.0123 -0.0605 -1.3215
  118OSM   C11F12390   1.444   2.693   6.009  0.4399 -0.4334  0.3970
  118OSM   H11F12391   1.347   2.731   5.972  0.6146 -0.0383  0.3458
  118OSM   H11G12392   1.452   2.596   6.063  1.9821 -0.8175 -0.4612
  118OSM   C12F12393   1.529   2.689   5.882  0.0341  0.4399 -0.1083
  118OSM   H12F12394   1.489   2.602   5.825  0.0657  1.8510 -2.4372
  118OSM   H12G12395   1.630   2.657   5.915 -0.3177  0.0581  0.6225
  118OSM   C13F12396   1.526   2.811   5.790 -0.6881  1.4470 -0.3886
  118OSM   H13F12397   1.594   2.773   5.710 -0.5408 -0.7072  0.6863
  118OSM   H13G12398   1.565   2.901   5.842 -2.1388  1.2805  1.0737
  118OSM   C14F12399   1.393   2.842   5.715 -0.3835 -0.2719 -0.3509
  118OSM   H14F12400   1.317   2.869   5.792 -0.3461 -1.4896  0.1453
  118OSM   H14G12401   1.371   2.743   5.670  1.4705 -0.9626  0.1805
  118OSM   C15F12402   1.417   2.947   5.603  0.0239 -0.5778  0.0089
  118OSM   H15F12403   1.475   2.912   5.514  0.0550  2.9958 -1.5560
  118OSM   H15G12404   1.483   3.026   5.645 -1.4194  1.1282 -0.8144
  118OSM   C16F12405   1.296   3.034   5.553 -0.3420 -0.5874  0.1561
  118OSM   H16F12406   1.251   3.072   5.647  1.0647  1.8530 -0.0581
  118OSM   H16G12407   1.223   2.963   5.508 -0.4714  0.6844 -1.7689
  118OSM   C17F12408   1.323   3.144   5.450 -0.6327 -0.5029  0.0660
  118OSM   H17F12409   1.414   3.201   5.478  0.0478 -0.4648 -2.0317
  118OSM   H17G12410   1.236   3.212   5.449  0.5565  1.0691 -0.2659
  118OSM   C18F12411   1.351   3.090   5.308  0.4960  0.4525 -0.6135
  118OSM   H18F12412   1.395   3.174   5.250  3.8916 -0.5112  0.3605
  118OSM   H18G12413   1.253   3.064   5.263  0.2630 -0.2006  0.2455
  118OSM   H18H12414   1.424   3.007   5.312 -0.4409 -0.3609  2.4066
  119OSM      N12415   3.678   0.679   8.007 -0.0269 -0.2448  0.5724
  119OSM    C1512416   3.570   0.764   8.067 -0.2512  0.0297 -0.3156
  119OSM   H15A12417   3.523   0.831   7.996 -1.5648 -1.7058 -1.1630
  119OSM   H15B12418   3.594   0.821   8.155 -2.5262  0.1679  0.2969
  119OSM   H15C12419   3.495   0.692   8.098 -0.5296  0.5185  0.1597
  119OSM    C1412420   3.796   0.764   7.960  0.3756 -0.2484  0.2007
  119OSM   H14A12421   3.865   0.698   7.910 -1.2473 -0.6665 -1.6358
  119OSM   H14B12422   3.843   0.818   8.041 -0.5741  0.3623  0.3693
  119OSM   H14C12423   3.776   0.844   7.889  1.1966 -1.6446 -1.6912
  119OSM    C1312424   3.722   0.588   8.112 -0.0855  0.1427  0.3207
  119OSM   H13A12425   3.644   0.538   8.168 -0.9922  0.5115 -0.5785
  119OSM   H13B12426   3.785   0.634   8.186 -0.1338 -2.1197  1.8873
  119OSM   H13C12427   3.784   0.508   8.073 -0.1171 -0.1348  0.8344
  119OSM    C1212428   3.624   0.593   7.894  0.4190 -0.3220  0.4701
  119OSM   H12A12429   3.561   0.657   7.834  0.1937 -0.6575  0.3422
  119OSM   H12B12430   3.551   0.526   7.937  0.2722 -0.2485  0.3375
  119OSM    C1112431   3.726   0.507   7.809  0.4487 -0.2421 -0.2766
  119OSM   H11A12432   3.812   0.571   7.779  1.2189 -0.8852  0.5227
  119OSM   H11B12433   3.680   0.470   7.715  2.2314  1.3413 -1.8565
  119OSM      P12434   3.697   0.268   7.884 -0.0432  0.2485  0.1858
  119OSM    O1312435   3.758   0.181   7.986  0.2530  0.4094 -0.5783
  119OSM    O1412436   3.554   0.290   7.898 -0.0635  0.1970  0.3983
  119OSM    O1112437   3.732   0.207   7.742 -0.1594  0.8583  0.0317
  119OSM    O1212438   3.771   0.404   7.885 -0.1623  0.1352  0.0378
  119OSM    C1S12439   3.837   0.241   7.659 -0.0292  0.6218  0.0272
  119OSM    H1S12440   3.931   0.195   7.696 -0.5462 -0.1728  0.3799
  119OSM    H1T12441   3.854   0.351   7.659  0.3993  0.5801 -1.4121
  119OSM     NF12442   3.922   0.226   7.419  0.3481 -0.8542  0.0551
  119OSM    HNF12443   3.921   0.308   7.361  0.7181 -0.7624  0.1715
  119OSM    C2S12444   3.812   0.190   7.512  1.2252 -0.0700  0.5154
  119OSM    H2S12445   3.805   0.079   7.515  0.3793 -0.1796 -2.2833
  119OSM    C3S12446   3.674   0.237   7.457 -0.0542  0.2697 -0.8913
  119OSM    H3S12447   3.673   0.347   7.465  0.3865  0.1746  0.9052
  119OSM     O312448   3.568   0.192   7.536  0.8317 -0.0991 -0.1655
  119OSM    HO312449   3.598   0.175   7.625  1.1167 -1.2606 -0.4727
  119OSM    C4S12450   3.659   0.202   7.313  0.6396  0.3684 -0.1820
  119OSM    H4S12451   3.712   0.274   7.249  0.2800  0.0738 -0.8137
  119OSM    C5S12452   3.577   0.112   7.254  0.5222  0.1850  0.5594
  119OSM    H5S12453   3.506   0.061   7.320 -1.0699  1.4745 -0.0784
  119OSM    C6S12454   3.559   0.100   7.098 -0.1870 -0.3478 -0.1870
  119OSM    H6S12455   3.532  -0.006   7.074 -0.9917  0.0166 -0.9728
  119OSM    H6T12456   3.655   0.133   7.053  0.4432 -1.4510  0.3119
  119OSM    C7S12457   3.446   0.204   7.054  0.6602 -0.8486 -0.1030
  119OSM    H7S12458   3.460   0.299   7.110 -1.2044  0.2081 -1.3555
  119OSM    H7T12459   3.348   0.166   7.090  0.1725  1.4934  1.2642
  119OSM    C8S12460   3.432   0.237   6.899 -0.1779  0.5445  0.0369
  119OSM    H8S12461   3.533   0.258   6.857 -0.5703  2.2294 -0.1574
  119OSM    H8T12462   3.362   0.320   6.877 -0.4807 -0.0289 -1.2549
  119OSM    C9S12463   3.377   0.121   6.818  0.1907  0.0405 -0.2378
  119OSM    H9S12464   3.275   0.097   6.854  0.6266  0.3106  1.2721
  119OSM    H9T12465   3.455   0.042   6.828 -1.1121 -1.3013 -0.3796
  119OSM   C10S12466   3.354   0.146   6.669 -0.1771  0.0544 -0.2967
  119OSM   H10S12467   3.450   0.172   6.621 -0.4250 -2.5508 -2.3865
  119OSM   H10T12468   3.275   0.224   6.675 -0.1267  0.3727 -2.7709
  119OSM   C11S12469   3.311   0.015   6.605 -1.0057  0.1777  0.4126
  119OSM   H11S12470   3.233  -0.029   6.670  0.2934 -1.3418  1.0042
  119OSM   H11T12471   3.406  -0.041   6.614 -0.9525  0.6200  4.0532
  119OSM   C12S12472   3.269   0.033   6.463 -0.0093  0.1485 -0.2572
  119OSM   H12S12473   3.179   0.097   6.464  1.8514  2.9610  0.6930
  119OSM   H12T12474   3.249  -0.063   6.412 -0.8724  1.4599 -2.5153
  119OSM   C13S12475   3.377   0.096   6.369  0.0792  0.9186 -1.2313
  119OSM   H13S12476   3.467   0.040   6.403  0.9328  1.7705 -2.0309
  119OSM   H13T12477   3.388   0.198   6.413  0.2845 -0.3500  1.9489
  119OSM   C14S12478   3.337   0.084   6.232  0.3285  0.4320  0.1690
  119OSM   H14S12479   3.246   0.141   6.202  0.6158  0.0681 -1.5194
  119OSM   H14T12480   3.321  -0.025   6.214  1.4242  0.0779  1.2533
  119OSM   C15S12481   3.452   0.133   6.137 -0.0760 -1.2338 -0.8703
  119OSM   H15S12482   3.542   0.088   6.184 -0.3350 -0.9840 -0.1270
  119OSM   H15T12483   3.450   0.243   6.152  1.4439 -1.5088  2.1609
  119OSM   C16S12484   3.456   0.077   5.997 -0.5049  0.2716  0.0636
  119OSM   H16S12485   3.360   0.107   5.949 -1.7266 -0.5321  1.9229
  119OSM   H16T12486   3.442  -0.033   6.005 -0.7945  0.3147  0.1794
  119OSM   C17S12487   3.566   0.120   5.899 -0.4444 -0.0350  0.1992
  119OSM   H17S12488   3.655   0.129   5.964 -0.6450  2.1492  0.2604
  119OSM   H17T12489   3.548   0.216   5.845 -1.8304  0.0380  0.7316
  119OSM   C18S12490   3.593   0.013   5.789  0.7583  0.0146  0.3903
  119OSM   H18S12491   3.684   0.042   5.731  0.6534 -0.4833 -0.0326
  119OSM   H18T12492   3.502   0.012   5.725 -0.7787  1.0469  2.4652
  119OSM   H18U12493   3.606  -0.093   5.819  0.3029 -0.4907 -1.0983
  119OSM    C1F12494   4.046   0.174   7.439 -0.0776 -0.1835  0.4896
  119OSM     OF12495   4.063   0.075   7.513  0.2545 -0.1205 -0.3501
  119OSM    C2F12496   4.156   0.234   7.362 -0.2940  0.3070  0.0869
  119OSM    H2F12497   4.248   0.260   7.419 -1.8121  2.4710  1.7254
  119OSM    H2G12498   4.114   0.326   7.315 -1.0151 -0.2035 -0.2879
  119OSM    C3F12499   4.197   0.151   7.240 -0.0297  0.7878  0.5121
  119OSM    H3F12500   4.221   0.046   7.266 -2.0091  0.6889  2.2967
  119OSM    H3G12501   4.284   0.197   7.188  0.1517  0.9578  0.9623
  119OSM    C4F12502   4.080   0.127   7.138  0.6837  0.5307 -0.2281
  119OSM    H4F12503   4.040   0.230   7.123  1.5420  1.1224  1.3374
  119OSM    H4G12504   4.000   0.059   7.173  1.0338  0.6292  0.8004
  119OSM    C5F12505   4.141   0.065   7.012 -0.1180 -0.4792 -0.0535
  119OSM    H5F12506   4.154  -0.043   7.037  0.3927 -0.9248 -2.0417
  119OSM    H5G12507   4.238   0.114   6.993 -0.7984  1.2769  0.7837
  119OSM    C6F12508   4.052   0.078   6.891  0.3569  0.9352 -0.1434
  119OSM    H6F12509   4.101   0.017   6.813  0.8701  1.8509 -0.5449
  119OSM    H6G12510   4.070   0.182   6.859  3.0099  1.3873  2.3710
  119OSM    C7F12511   3.898   0.056   6.914 -0.0494 -0.3617 -0.4667
  119OSM    H7F12512   3.856   0.141   6.972  2.1743  0.0635  0.6374
  119OSM    H7G12513   3.874  -0.041   6.963 -1.8925  1.0663  1.6827
  119OSM    C8F12514   3.819   0.052   6.781  0.8850 -0.7903  0.2433
  119OSM    H8F12515   3.818   0.148   6.725 -1.5743 -0.9571 -0.1144
  119OSM    H8G12516   3.714   0.026   6.807  1.2498 -3.0213 -0.3297
  119OSM    C9F12517   3.868  -0.069   6.704  0.4117  0.3830  0.2641
  119OSM    H9F12518   3.853  -0.164   6.758 -2.6526  0.7419  0.2254
  119OSM   C10F12519   3.924  -0.059   6.585  0.0364 -0.6831  0.1187
  119OSM   H10F12520   3.960  -0.143   6.525  0.7100 -0.5689  0.3536
  119OSM   C11F12521   3.936   0.066   6.499  0.4898  0.8827  0.5214
  119OSM   H11F12522   4.021   0.133   6.524  2.7366 -0.5179 -2.6838
  119OSM   H11G12523   3.843   0.128   6.499  0.3648  0.6945  0.6183
  119OSM   C12F12524   3.953   0.029   6.352  0.4931 -0.5815  0.2566
  119OSM   H12F12525   4.044  -0.033   6.336  1.5049  1.2541 -1.6646
  119OSM   H12G12526   3.976   0.122   6.296  2.5863 -0.1150  1.7338
  119OSM   C13F12527   3.837  -0.041   6.276  0.4370 -0.0343  0.2734
  119OSM   H13F12528   3.752   0.029   6.267  0.4708 -0.2299 -2.2668
  119OSM   H13G12529   3.786  -0.122   6.332 -0.8534 -0.7499 -1.8001
  119OSM   C14F12530   3.890  -0.085   6.141 -0.1758 -0.0386  0.1157
  119OSM   H14F12531   3.805  -0.136   6.091  1.1340 -2.2329  0.0021
  119OSM   H14G12532   3.974  -0.157   6.153 -1.9187 -2.0934  0.6330
  119OSM   C15F12533   3.929   0.035   6.050 -0.2523 -0.3916  0.0735
  119OSM   H15F12534   4.019   0.087   6.089 -0.1278  0.2884 -1.0506
  119OSM   H15G12535   3.836   0.096   6.048 -0.0588 -0.0942  0.0572
  119OSM   C16F12536   3.964  -0.018   5.913 -0.2876 -0.9574  0.1608
  119OSM   H16F12537   3.892  -0.090   5.870  2.3151 -3.6770  0.0105
  119OSM   H16G12538   4.056  -0.079   5.924 -0.6324 -1.2782  1.3984
  119OSM   C17F12539   3.988   0.102   5.817 -0.1501 -0.6089  0.3481
  119OSM   H17F12540   4.084   0.156   5.835  0.2601 -1.6150  1.3127
  119OSM   H17G12541   3.897   0.166   5.811  0.1949 -0.2419 -1.8972
  119OSM   C18F12542   4.006   0.051   5.670 -0.0400  0.0027 -0.7039
  119OSM   H18F12543   3.979   0.136   5.604 -0.9017 -0.4888 -1.0046
  119OSM   H18G12544   3.941  -0.032   5.634  1.1962 -0.0992 -2.8798
  119OSM   H18H12545   4.113   0.026   5.652  0.0976  1.3844 -1.9597
  120OSM      N12546   5.852   6.561   7.823 -0.0222 -0.6314 -0.0047
  120OSM    C1512547   5.916   6.641   7.936  0.5683 -0.0803 -0.0238
  120OSM   H15A12548   5.838   6.700   7.982 -0.7026 -0.7723 -1.2304
  120OSM   H15B12549   6.001   6.698   7.902  0.2269 -0.5787 -1.8332
  120OSM   H15C12550   5.946   6.569   8.011 -0.9712 -2.3795 -1.4865
  120OSM    C1412551   5.728   6.502   7.865  0.0987  0.4232  0.4518
  120OSM   H14A12552   5.699   6.421   7.800 -0.7144  2.5168 -1.9729
  120OSM   H14B12553   5.640   6.565   7.863  0.2329  0.6664  1.5281
  120OSM   H14C12554   5.733   6.469   7.968 -1.3064 -0.5221  0.2507
  120OSM    C1312555   5.827   6.658   7.708 -0.0204  0.2839 -0.1161
  120OSM   H13A12556   5.918   6.708   7.677  1.1757 -1.8174 -0.1774
  120OSM   H13B12557   5.763   6.739   7.741  0.6818  0.7539  0.1190
  120OSM   H13C12558   5.789   6.609   7.620  1.3056  1.2593 -1.2741
  120OSM    C1212559   5.949   6.449   7.778  0.7129 -0.2406 -1.1673
  120OSM   H12A12560   5.944   6.370   7.852 -0.8337  0.7201 -0.1909
  120OSM   H12B12561   6.049   6.485   7.759  0.3563 -0.0583 -2.8069
  120OSM    C1112562   5.900   6.381   7.640 -0.1325 -0.1385  0.0491
  120OSM   H11A12563   5.981   6.309   7.616 -1.6143 -1.5591 -0.8460
  120OSM   H11B12564   5.894   6.461   7.562 -1.6782  2.0183  2.2192
  120OSM      P12565   5.767   6.176   7.672  0.2053 -0.2291 -0.2680
  120OSM    O1312566   5.839   6.152   7.800 -0.1528  0.8616 -0.1900
  120OSM    O1412567   5.625   6.145   7.690  0.2824  0.2217  0.4636
  120OSM    O1112568   5.825   6.095   7.556 -0.3952 -0.0242 -0.2108
  120OSM    O1212569   5.772   6.325   7.624 -0.0148  0.5044 -0.5542
  120OSM    C1S12570   5.779   6.121   7.421 -0.2501 -0.4308 -0.1792
  120OSM    H1S12571   5.807   6.224   7.390 -0.8187  0.1209  1.0403
  120OSM    H1T12572   5.668   6.115   7.414 -0.4061  2.2333 -1.0491
  120OSM     NF12573   5.777   6.031   7.201  0.1603 -0.3846 -0.2234
  120OSM    HNF12574   5.719   5.960   7.160 -0.3989  0.1132 -0.3067
  120OSM    C2S12575   5.846   6.019   7.324 -1.0564 -0.6209 -0.0867
  120OSM    H2S12576   5.948   6.052   7.298 -1.0745 -0.2766  0.2805
  120OSM    C3S12577   5.858   5.873   7.372  0.4845 -0.8988  0.2775
  120OSM    H3S12578   5.751   5.843   7.381  0.6847 -1.2305  1.9001
  120OSM     O312579   5.895   5.847   7.509 -0.3855 -0.2901 -0.0870
  120OSM    HO312580   5.898   5.936   7.547  4.1445 -0.8471  1.4315
  120OSM    C4S12581   5.941   5.793   7.274  0.0633  0.2010 -0.0778
  120OSM    H4S12582   5.888   5.723   7.208  0.0861  2.2704 -2.4673
  120OSM    C5S12583   6.076   5.781   7.273  0.0700 -0.7863 -0.3131
  120OSM    H5S12584   6.136   5.851   7.333 -0.4621  1.1744 -1.9440
  120OSM    C6S12585   6.146   5.690   7.176 -0.1405  0.3895  0.4935
  120OSM    H6S12586   6.152   5.592   7.229  2.7543  0.0362 -0.2958
  120OSM    H6T12587   6.242   5.736   7.143  0.9836 -0.1433  2.7857
  120OSM    C7S12588   6.088   5.656   7.031 -1.2125 -0.0095 -0.4832
  120OSM    H7S12589   5.984   5.621   7.050 -0.3862 -2.1878  0.4632
  120OSM    H7T12590   6.158   5.575   7.000  2.6717  2.7685  0.4105
  120OSM    C8S12591   6.103   5.769   6.935  0.3531  0.2879 -0.3919
  120OSM    H8S12592   6.209   5.774   6.902  0.4803 -1.6026 -0.3811
  120OSM    H8T12593   6.069   5.868   6.971  1.0418  0.5439 -0.4293
  120OSM    C9S12594   6.014   5.741   6.809 -0.4580 -0.1822 -0.5969
  120OSM    H9S12595   5.904   5.741   6.825 -0.3410 -1.7069  0.4012
  120OSM    H9T12596   6.040   5.638   6.779 -0.3502 -0.3824  0.1751
  120OSM   C10S12597   6.036   5.834   6.692 -0.9782 -0.7015 -0.3057
  120OSM   H10S12598   6.145   5.851   6.683 -0.9518 -0.3692  0.5786
  120OSM   H10T12599   5.995   5.933   6.720 -0.0387 -0.2025 -0.6492
  120OSM   C11S12600   5.994   5.776   6.559  0.2246 -0.1095 -0.0829
  120OSM   H11S12601   5.883   5.771   6.545  0.3660  0.4121 -1.5405
  120OSM   H11T12602   6.033   5.673   6.548  1.5283  0.5695 -2.5803
  120OSM   C12S12603   6.042   5.867   6.444  0.1385 -0.4374 -0.6518
  120OSM   H12S12604   6.153   5.870   6.444  0.1563 -0.1782  1.0253
  120OSM   H12T12605   6.022   5.973   6.470 -1.1175 -0.3370 -1.9400
  120OSM   C13S12606   5.984   5.815   6.313  0.3391  0.6773  0.6433
  120OSM   H13S12607   5.875   5.837   6.308  0.0459 -0.3910  1.7709
  120OSM   H13T12608   5.999   5.705   6.317 -1.2060  0.4826  1.9147
  120OSM   C14S12609   6.052   5.879   6.195 -0.8633  0.3041 -0.0018
  120OSM   H14S12610   6.160   5.873   6.216 -0.3197  2.6680 -1.7451
  120OSM   H14T12611   6.026   5.985   6.174 -1.9550 -0.3105 -2.0653
  120OSM   C15S12612   6.017   5.808   6.061  0.1725  0.3386 -0.1153
  120OSM   H15S12613   6.049   5.703   6.074  0.0061  0.5479  2.3770
  120OSM   H15T12614   6.070   5.863   5.980  1.0768 -1.1713 -0.5822
  120OSM   C16S12615   5.869   5.800   6.017 -0.9420  0.8691  0.5829
  120OSM   H16S12616   5.811   5.895   6.013 -1.3348  0.6028 -1.6110
  120OSM   H16T12617   5.813   5.732   6.085 -0.0192 -0.2195  0.3022
  120OSM   C17S12618   5.861   5.740   5.870  0.1128  0.6116 -0.8189
  120OSM   H17S12619   5.761   5.692   5.858  0.3135  0.1498 -0.6893
  120OSM   H17T12620   5.938   5.661   5.859 -0.0079  0.4819 -0.7391
  120OSM   C18S12621   5.882   5.844   5.762  0.3042 -0.1753 -0.0326
  120OSM   H18S12622   5.967   5.913   5.781 -0.2523  0.3787  0.4878
  120OSM   H18T12623   5.790   5.907   5.759 -1.5053 -2.5733  1.2404
  120OSM   H18U12624   5.883   5.789   5.666 -0.0942 -1.2756  0.5761
  120OSM    C1F12625   5.787   6.137   7.123 -0.1000  0.1309 -0.1770
  120OSM     OF12626   5.884   6.217   7.128  0.5664  0.3991 -0.4366
  120OSM    C2F12627   5.694   6.152   7.015 -0.3246  0.4505  0.7632
  120OSM    H2F12628   5.626   6.236   7.040 -0.6275  0.5763 -0.4502
  120OSM    H2G12629   5.627   6.063   7.019 -0.4901  0.5385  0.0324
  120OSM    C3F12630   5.765   6.163   6.875 -0.1561 -0.5800  0.8675
  120OSM    H3F12631   5.842   6.084   6.860 -0.4059 -0.8057  0.7667
  120OSM    H3G12632   5.823   6.257   6.875  1.5950 -1.5664 -1.2970
  120OSM    C4F12633   5.674   6.170   6.751  0.9463  0.3740  0.3075
  120OSM    H4F12634   5.608   6.259   6.745  0.3438  0.0290  1.4670
  120OSM    H4G12635   5.599   6.088   6.753  1.2061  0.1344  2.5552
  120OSM    C5F12636   5.763   6.164   6.630  0.1137  0.0800  0.5200
  120OSM    H5F12637   5.863   6.119   6.650  0.1357 -0.6104 -0.9751
  120OSM    H5G12638   5.777   6.270   6.600  2.1178 -0.9430 -2.7220
  120OSM    C6F12639   5.702   6.089   6.508 -0.1291  0.0124 -0.2896
  120OSM    H6F12640   5.591   6.101   6.509 -0.3854 -1.8117  2.2703
  120OSM    H6G12641   5.711   5.978   6.517 -1.8618 -0.2188 -0.9306
  120OSM    C7F12642   5.763   6.133   6.367 -0.2633 -0.6277 -0.6521
  120OSM    H7F12643   5.861   6.084   6.349  0.1871  0.4623 -1.2471
  120OSM    H7G12644   5.778   6.241   6.387  0.6051 -0.5690 -1.5613
  120OSM    C8F12645   5.666   6.116   6.258  0.5043 -0.3358  0.2118
  120OSM    H8F12646   5.575   6.165   6.297  0.8676  0.3516  0.2124
  120OSM    H8G12647   5.654   6.008   6.237  1.6686 -0.2146 -1.3092
  120OSM    C9F12648   5.712   6.191   6.140  0.5205 -0.4559  0.6718
  120OSM    H9F12649   5.820   6.211   6.146 -0.0199  3.5510 -0.0035
  120OSM   C10F12650   5.640   6.237   6.041  0.1533 -0.4010 -0.0262
  120OSM   H10F12651   5.698   6.283   5.960  1.8316 -0.2425  1.2216
  120OSM   C11F12652   5.491   6.225   6.024  0.3250 -1.3934 -0.3219
  120OSM   H11F12653   5.441   6.323   6.030 -2.0337 -2.5463 -0.1833
  120OSM   H11G12654   5.450   6.168   6.111 -0.3161  0.2242  0.4623
  120OSM   C12F12655   5.462   6.158   5.887 -0.1758 -0.9270  0.8922
  120OSM   H12F12656   5.514   6.060   5.895  1.6112  0.0779  2.7009
  120OSM   H12G12657   5.520   6.209   5.807  0.4979 -0.3859  1.7085
  120OSM   C13F12658   5.311   6.152   5.847  0.1263 -0.2531  0.2723
  120OSM   H13F12659   5.265   6.252   5.863  1.8428  0.7566 -0.7478
  120OSM   H13G12660   5.250   6.067   5.884 -3.0131  1.5602 -0.4533
  120OSM   C14F12661   5.292   6.119   5.693  0.2035 -0.0662  0.0917
  120OSM   H14F12662   5.195   6.068   5.675 -0.0909  0.9343 -1.3318
  120OSM   H14G12663   5.373   6.056   5.651  0.8076 -1.0267  2.5602
  120OSM   C15F12664   5.312   6.238   5.596 -0.5288  0.2480  0.2759
  120OSM   H15F12665   5.419   6.263   5.581 -1.1796  3.5108  0.4440
  120OSM   H15G12666   5.263   6.329   5.634 -1.1353  1.0677 -2.2427
  120OSM   C16F12667   5.271   6.226   5.448 -0.0174  0.2349  1.0632
  120OSM   H16F12668   5.166   6.191   5.439  0.9011 -2.2586 -1.7931
  120OSM   H16G12669   5.330   6.149   5.394 -0.1373  1.2706 -0.6518
  120OSM   C17F12670   5.307   6.356   5.369 -0.6811  0.1757  0.6344
  120OSM   H17F12671   5.418   6.366   5.379 -0.8177  0.1460  2.5328
  120OSM   H17G12672   5.258   6.442   5.419  1.2988  1.4423  0.5348
  120OSM   C18F12673   5.272   6.345   5.223  0.3889 -0.2892 -0.0256
  120OSM   H18F12674   5.164   6.325   5.210  0.4286  1.1054 -3.4071
  120OSM   H18G12675   5.336   6.266   5.179 -0.1677 -1.0089  0.4307
  120OSM   H18H12676   5.296   6.441   5.173  0.4232  2.0684  4.0455
  121OSM      N12677   0.341   0.804   7.598 -0.8487  0.2675 -0.2428
  121OSM    C1512678   0.339   0.662   7.539 -0.3198  0.2407 -0.2313
  121OSM   H15A12679   0.241   0.631   7.507 -1.1083  1.6751  0.7141
  121OSM   H15B12680   0.376   0.596   7.616  0.1449 -0.4925 -1.0546
  121OSM   H15C12681   0.408   0.650   7.456 -0.3835 -0.0748 -0.2399
  121OSM    C1412682   0.327   0.911   7.489  0.1842 -0.8065  0.0716
  121OSM   H14A12683   0.421   0.927   7.437  1.1608  0.4613  2.0878
  121OSM   H14B12684   0.318   1.000   7.550  1.4682  0.3929 -1.4040
  121OSM   H14C12685   0.240   0.903   7.426  1.3623 -2.5475 -1.4446
  121OSM    C1312686   0.229   0.815   7.688  0.1236  0.4358 -0.3951
  121OSM   H13A12687   0.236   0.740   7.766  0.3457  1.5879  0.7177
  121OSM   H13B12688   0.146   0.794   7.622  0.0257  1.2203 -0.5332
  121OSM   H13C12689   0.212   0.909   7.738  0.1868 -0.2823  1.0234
  121OSM    C1212690   0.476   0.829   7.666  0.0309  0.0600  0.1636
  121OSM   H12A12691   0.480   0.754   7.743 -2.3835 -0.0645  0.2562
  121OSM   H12B12692   0.475   0.917   7.729 -0.9972 -0.8449  1.4597
  121OSM    C1112693   0.608   0.834   7.590  0.1287  0.3116 -0.6275
  121OSM   H11A12694   0.609   0.734   7.543  0.5518 -0.6260  1.2798
  121OSM   H11B12695   0.691   0.827   7.663 -0.5966 -0.4859  0.1393
  121OSM      P12696   0.712   1.067   7.516 -0.0299  0.4487 -0.6696
  121OSM    O1312697   0.658   1.153   7.624  0.6216 -0.0489 -0.5205
  121OSM    O1412698   0.851   1.013   7.525 -0.2885  0.3417  0.1003
  121OSM    O1112699   0.703   1.143   7.378 -0.3773  0.4280  0.6690
  121OSM    O1212700   0.615   0.936   7.492 -0.0973 -0.5999 -0.1237
  121OSM    C1S12701   0.691   1.069   7.258  0.1036 -0.1828  0.7478
  121OSM    H1S12702   0.587   1.033   7.242 -0.3250  0.5809  1.6706
  121OSM    H1T12703   0.762   0.983   7.260 -0.0953 -0.3527  0.5123
  121OSM     NF12704   0.703   1.092   7.011 -0.1419  0.4703  0.1361
  121OSM    HNF12705   0.773   1.035   6.969  0.5272  2.2906 -1.3665
  121OSM    C2S12706   0.720   1.162   7.135 -0.3860 -0.0281 -0.0315
  121OSM    H2S12707   0.653   1.250   7.136 -0.9215 -0.3899  2.7627
  121OSM    C3S12708   0.869   1.217   7.136 -0.3700  0.1116  0.3611
  121OSM    H3S12709   0.945   1.140   7.115  1.8801  2.0054  1.1245
  121OSM     O312710   0.919   1.269   7.261 -0.0148 -0.2999 -0.0663
  121OSM    HO312711   0.854   1.243   7.328  0.6882 -0.3878  0.6037
  121OSM    C4S12712   0.887   1.320   7.026 -0.1209 -0.3834 -0.6386
  121OSM    H4S12713   0.791   1.371   7.008  0.0395  0.1711  0.0474
  121OSM    C5S12714   0.989   1.330   6.939  0.4885  0.1092  0.4978
  121OSM    H5S12715   1.058   1.244   6.934  0.4329  0.0737  0.3232
  121OSM    C6S12716   0.982   1.416   6.810  0.0686 -0.2307 -0.5159
  121OSM    H6S12717   1.064   1.491   6.817 -1.3482  1.3175  0.0800
  121OSM    H6T12718   0.894   1.484   6.817  0.8719  0.7554  0.2376
  121OSM    C7S12719   0.980   1.347   6.673 -0.5235 -0.0049  0.5052
  121OSM    H7S12720   0.910   1.260   6.677 -0.7909  0.2554  1.7136
  121OSM    H7T12721   1.076   1.297   6.648 -1.0219 -0.6110 -0.2898
  121OSM    C8S12722   0.939   1.444   6.552 -0.3495  0.3729  0.1256
  121OSM    H8S12723   0.986   1.545   6.557 -0.3934  0.4837 -1.3698
  121OSM    H8T12724   0.829   1.449   6.568 -0.6094 -1.5872 -0.7653
  121OSM    C9S12725   0.977   1.381   6.415  0.1725  0.3483 -0.2101
  121OSM    H9S12726   0.925   1.282   6.416 -0.0992  0.4930  0.4969
  121OSM    H9T12727   1.088   1.379   6.413  0.2037  1.4030 -0.0146
  121OSM   C10S12728   0.917   1.458   6.298 -0.3650  0.1304  0.1867
  121OSM   H10S12729   0.951   1.564   6.289 -0.3511  0.0826 -0.3850
  121OSM   H10T12730   0.809   1.466   6.319 -1.1303 -2.0772 -2.3504
  121OSM   C11S12731   0.929   1.377   6.167 -0.7241  0.2085  0.5731
  121OSM   H11S12732   0.883   1.277   6.181 -1.0988  0.2924 -0.0223
  121OSM   H11T12733   1.036   1.356   6.149 -0.5189  0.4405  1.4733
  121OSM   C12S12734   0.873   1.455   6.040  0.9334 -0.1605 -0.0827
  121OSM   H12S12735   0.920   1.555   6.034  0.8933 -0.2491 -2.5531
  121OSM   H12T12736   0.766   1.479   6.061  1.4740  2.2270  0.2535
  121OSM   C13S12737   0.902   1.376   5.914 -0.0087 -0.2504  0.4318
  121OSM   H13S12738   0.894   1.265   5.924 -2.3508 -0.5610 -3.1578
  121OSM   H13T12739   1.010   1.387   5.892 -0.5543 -0.4644 -2.7890
  121OSM   C14S12740   0.808   1.408   5.795  0.0705 -0.0747  0.3080
  121OSM   H14S12741   0.701   1.393   5.818  0.1799 -1.0777  0.2222
  121OSM   H14T12742   0.832   1.343   5.708  1.6730 -0.6484  1.1338
  121OSM   C15S12743   0.815   1.554   5.754  1.1085 -0.0794  0.2504
  121OSM   H15S12744   0.913   1.586   5.713  1.3450  1.5824  1.9678
  121OSM   H15T12745   0.794   1.616   5.844 -0.5616 -0.1884 -0.0269
  121OSM   C16S12746   0.700   1.591   5.653 -0.2122  0.0928  0.0698
  121OSM   H16S12747   0.679   1.700   5.647  0.1976  0.3386  2.2580
  121OSM   H16T12748   0.602   1.549   5.685 -0.4861 -0.1472 -1.0131
  121OSM   C17S12749   0.727   1.536   5.507  0.3212  0.0009 -0.8538
  121OSM   H17S12750   0.734   1.425   5.508 -2.7713 -0.3782  2.3533
  121OSM   H17T12751   0.822   1.580   5.470  1.9408 -0.5823  2.2507
  121OSM   C18S12752   0.616   1.572   5.406 -0.6597 -0.3167 -0.1595
  121OSM   H18S12753   0.532   1.500   5.404 -0.4640 -0.6086  1.0861
  121OSM   H18T12754   0.654   1.585   5.302 -0.0535 -1.7256 -0.1455
  121OSM   H18U12755   0.576   1.671   5.436  0.4990 -0.2350  1.2420
  121OSM    C1F12756   0.575   1.073   6.980  0.0295  0.1897 -0.3847
  121OSM     OF12757   0.487   1.102   7.050  0.1895 -0.1825 -0.1493
  121OSM    C2F12758   0.539   1.011   6.849 -0.5645  0.1804  0.3764
  121OSM    H2F12759   0.429   1.014   6.833 -0.2145  0.3453 -2.4314
  121OSM    H2G12760   0.569   0.903   6.846  0.5911  0.5012 -0.1979
  121OSM    C3F12761   0.595   1.091   6.729  0.4841 -0.0636 -0.4847
  121OSM    H3F12762   0.705   1.098   6.741  0.4411  0.8200 -0.5673
  121OSM    H3G12763   0.562   1.197   6.739  0.0776 -0.2135 -0.1575
  121OSM    C4F12764   0.566   1.032   6.592 -0.0314  0.7868 -0.6297
  121OSM    H4F12765   0.458   1.041   6.568 -0.2905 -1.3007 -0.4437
  121OSM    H4G12766   0.596   0.925   6.595  1.9717  1.2778 -1.2966
  121OSM    C5F12767   0.646   1.090   6.480 -1.1210 -0.5724  0.4873
  121OSM    H5F12768   0.749   1.050   6.485 -1.0376 -0.5412 -0.6604
  121OSM    H5G12769   0.654   1.200   6.492  0.7003 -0.4804 -1.1558
  121OSM    C6F12770   0.608   1.050   6.329 -0.4024  0.0795  0.4048
  121OSM    H6F12771   0.596   0.940   6.341  1.9264 -0.1298  1.4037
  121OSM    H6G12772   0.687   1.069   6.252 -1.5091  1.3899 -0.4567
  121OSM    C7F12773   0.488   1.129   6.287 -0.4134  0.0138 -0.3602
  121OSM    H7F12774   0.513   1.236   6.297 -0.2224  0.5357 -4.5971
  121OSM    H7G12775   0.403   1.113   6.357  0.4466  3.3016  1.6559
  121OSM    C8F12776   0.447   1.076   6.149 -0.0087 -0.5696  0.3134
  121OSM    H8F12777   0.427   0.967   6.142 -2.0209 -0.1641 -1.0969
  121OSM    H8G12778   0.541   1.084   6.091  0.2102  1.5830  0.8898
  121OSM    C9F12779   0.336   1.159   6.076 -0.0512  0.5161  0.0029
  121OSM    H9F12780   0.342   1.268   6.091  1.6403  0.5195 -0.4950
  121OSM   C10F12781   0.236   1.105   6.010  0.6755  0.4452  0.3058
  121OSM   H10F12782   0.165   1.168   5.955  0.2909 -0.1598  0.0958
  121OSM   C11F12783   0.206   0.958   5.987  0.2419 -0.8486 -0.1771
  121OSM   H11F12784   0.111   0.939   6.042 -0.2075  0.6440 -0.3992
  121OSM   H11G12785   0.279   0.881   6.021 -0.2776 -1.5035 -0.5225
  121OSM   C12F12786   0.174   0.930   5.844 -0.6575  0.0057  0.2703
  121OSM   H12F12787   0.114   1.015   5.805 -2.2111  0.0890  2.6251
  121OSM   H12G12788   0.124   0.831   5.836  1.6647 -1.1142 -1.9022
  121OSM   C13F12789   0.301   0.907   5.751 -0.1607 -0.5686 -0.2014
  121OSM   H13F12790   0.344   0.806   5.767 -1.7384 -1.4885 -1.4050
  121OSM   H13G12791   0.382   0.980   5.769 -1.7747  1.4819 -0.8201
  121OSM   C14F12792   0.279   0.932   5.598 -0.6995 -0.0186  0.1299
  121OSM   H14F12793   0.251   1.039   5.589  0.3218  0.0999 -3.1285
  121OSM   H14G12794   0.199   0.862   5.565 -0.3061 -0.8392  0.8820
  121OSM   C15F12795   0.418   0.917   5.529  0.0122  0.1420 -0.7592
  121OSM   H15F12796   0.467   0.826   5.571 -0.0671 -0.4743 -1.9681
  121OSM   H15G12797   0.487   0.996   5.567 -1.1475 -0.0781  2.1171
  121OSM   C16F12798   0.412   0.913   5.373 -0.2654  0.0373  0.1333
  121OSM   H16F12799   0.327   0.843   5.361 -1.0418  0.9169  0.3128
  121OSM   H16G12800   0.506   0.872   5.332  0.1216  0.5576  0.4847
  121OSM   C17F12801   0.377   1.042   5.300 -0.6038  0.9242 -0.0960
  121OSM   H17F12802   0.277   1.086   5.321 -0.5294  0.5635  1.0837
  121OSM   H17G12803   0.374   1.006   5.195 -1.7699  3.2697 -0.9511
  121OSM   C18F12804   0.481   1.147   5.310  0.7644  0.0898 -0.4912
  121OSM   H18F12805   0.427   1.244   5.303 -4.5791 -2.5579 -0.7001
  121OSM   H18G12806   0.557   1.142   5.229  1.5135  0.9727  0.1317
  121OSM   H18H12807   0.523   1.140   5.413  2.7184 -0.3346 -1.2644
  122OSM      N12808   1.624   3.281   7.378  0.4296  0.0231  0.0998
  122OSM    C1512809   1.503   3.215   7.323  0.3598  0.1838  0.1536
  122OSM   H15A12810   1.518   3.114   7.285 -2.4588 -0.5267  0.7118
  122OSM   H15B12811   1.445   3.276   7.256  0.0809  0.2114  0.4172
  122OSM   H15C12812   1.433   3.193   7.402  0.5503 -1.6291 -0.1275
  122OSM    C1412813   1.583   3.418   7.410  0.3962 -0.7440  0.3036
  122OSM   H14A12814   1.670   3.478   7.427 -0.6569  0.8721  0.1593
  122OSM   H14B12815   1.526   3.422   7.501 -0.5061  1.8626 -0.2910
  122OSM   H14C12816   1.528   3.466   7.330  0.3604 -0.1974  0.6586
  122OSM    C1312817   1.671   3.207   7.504 -0.8355 -0.7193  0.3051
  122OSM   H13A12818   1.733   3.126   7.467  0.8121  1.0992 -1.1528
  122OSM   H13B12819   1.592   3.169   7.566  0.2679 -1.6854  1.1665
  122OSM   H13C12820   1.739   3.269   7.561 -1.8387  0.1020  0.6416
  122OSM    C1212821   1.735   3.277   7.270  0.7550  0.4681 -0.2700
  122OSM   H12A12822   1.740   3.172   7.243  1.2667  0.3548  0.2467
  122OSM   H12B12823   1.828   3.312   7.313  1.6589 -0.5431 -1.3537
  122OSM    C1112824   1.713   3.370   7.151  0.2894 -0.4522 -0.0514
  122OSM   H11A12825   1.702   3.474   7.189  2.2880 -0.4605  0.6492
  122OSM   H11B12826   1.621   3.337   7.098  1.1101 -1.2943 -0.9941
  122OSM      P12827   1.950   3.440   7.082 -0.1103  0.5455 -0.0582
  122OSM    O1312828   1.984   3.464   7.225  0.4349 -0.2483  0.1882
  122OSM    O1412829   2.058   3.379   7.009  0.4730  0.6118  0.2223
  122OSM    O1112830   1.909   3.575   7.027  0.4840  0.5887  0.2314
  122OSM    O1212831   1.819   3.355   7.062 -0.2362  0.6541  0.1940
  122OSM    C1S12832   1.915   3.620   6.896 -0.4923 -0.5248 -0.9365
  122OSM    H1S12833   1.988   3.562   6.836 -1.1657  1.0669 -3.4707
  122OSM    H1T12834   1.942   3.728   6.900  0.4513 -0.7501  3.1627
  122OSM     NF12835   1.794   3.646   6.687  0.1223 -0.1177  0.0523
  122OSM    HNF12836   1.776   3.733   6.641  1.9707 -0.1088 -0.7138
  122OSM    C2S12837   1.776   3.623   6.827 -0.4518  0.3486 -0.3604
  122OSM    H2S12838   1.731   3.522   6.841 -2.8126  1.5177  1.1167
  122OSM    C3S12839   1.695   3.728   6.906  0.4280 -0.2673 -0.4124
  122OSM    H3S12840   1.751   3.824   6.904  2.6426 -1.4133  1.5819
  122OSM     O312841   1.678   3.706   7.049  0.0746 -0.3788  0.3186
  122OSM    HO312842   1.756   3.651   7.063  0.3322 -0.2003 -0.3423
  122OSM    C4S12843   1.561   3.766   6.838 -0.8098 -0.3342 -0.2807
  122OSM    H4S12844   1.570   3.856   6.775 -0.3276 -1.1282 -1.3833
  122OSM    C5S12845   1.441   3.710   6.864  0.3443 -1.3438  0.6021
  122OSM    H5S12846   1.441   3.639   6.948  0.1422 -0.3732  1.4311
  122OSM    C6S12847   1.308   3.763   6.825 -0.1629  0.5093 -1.0275
  122OSM    H6S12848   1.261   3.804   6.916  0.6610  0.2343 -0.4703
  122OSM    H6T12849   1.253   3.671   6.795 -1.9627  1.6429 -1.2930
  122OSM    C7S12850   1.304   3.865   6.708 -1.0132  0.5980 -0.0591
  122OSM    H7S12851   1.383   3.942   6.722 -0.7467  0.4485 -0.6967
  122OSM    H7T12852   1.205   3.915   6.704 -0.7247  1.1390 -0.9308
  122OSM    C8S12853   1.340   3.791   6.577  0.0107 -0.1531  1.0746
  122OSM    H8S12854   1.276   3.701   6.566  0.9209 -0.6506 -0.4001
  122OSM    H8T12855   1.449   3.770   6.584  0.0393  0.1677  1.6884
  122OSM    C9S12856   1.329   3.893   6.465  0.3104  0.1470  0.0853
  122OSM    H9S12857   1.397   3.975   6.496 -1.2351  1.3902  0.3312
  122OSM    H9T12858   1.229   3.938   6.445  0.0142 -0.5946 -0.1401
  122OSM   C10S12859   1.385   3.839   6.328  0.3045  0.1546 -0.2948
  122OSM   H10S12860   1.309   3.778   6.274 -1.2601  2.2010 -0.5319
  122OSM   H10T12861   1.468   3.768   6.347 -1.1351 -0.9717  2.5071
  122OSM   C11S12862   1.431   3.954   6.245 -0.2008 -0.3183 -0.0717
  122OSM   H11S12863   1.504   4.015   6.302 -1.1303  0.1079  0.6843
  122OSM   H11T12864   1.349   4.018   6.204 -0.0039 -0.3588 -0.5423
  122OSM   C12S12865   1.504   3.901   6.119 -0.1307  0.1150 -0.3996
  122OSM   H12S12866   1.426   3.837   6.073 -1.7797  0.7467  1.3636
  122OSM   H12T12867   1.589   3.842   6.159 -0.8611  0.1727  1.3172
  122OSM   C13S12868   1.533   4.013   6.023 -0.0561  0.0922  0.2864
  122OSM   H13S12869   1.598   4.080   6.084  1.3834 -2.2596  1.4878
  122OSM   H13T12870   1.446   4.068   5.983  0.4619 -0.8564 -2.3654
  122OSM   C14S12871   1.603   3.969   5.894  0.8394 -0.1525  1.0864
  122OSM   H14S12872   1.533   3.914   5.828 -0.4359  0.0967  2.1849
  122OSM   H14T12873   1.670   3.886   5.925  0.2202 -1.6827 -1.3977
  122OSM   C15S12874   1.653   4.099   5.835  0.8907  0.6088  0.0426
  122OSM   H15S12875   1.710   4.153   5.914  0.9174  1.1048 -0.3127
  122OSM   H15T12876   1.563   4.158   5.808  0.5505 -0.0910 -0.4040
  122OSM   C16S12877   1.733   4.090   5.702  0.1495 -0.1526  0.0387
  122OSM   H16S12878   1.691   4.025   5.622 -0.7406  0.5888 -0.1164
  122OSM   H16T12879   1.826   4.042   5.737 -0.3755 -2.2224 -1.2102
  122OSM   C17S12880   1.758   4.228   5.639  0.8571 -0.3848  0.3235
  122OSM   H17S12881   1.782   4.296   5.723 -0.0510 -1.9558  1.9092
  122OSM   H17T12882   1.665   4.270   5.594  0.0816 -1.0233  1.3088
  122OSM   C18S12883   1.861   4.254   5.524 -0.1339  0.8456  0.4306
  122OSM   H18S12884   1.845   4.178   5.445  1.6913  0.4130  0.4368
  122OSM   H18T12885   1.968   4.249   5.554 -0.4995  0.1844  1.7212
  122OSM   H18U12886   1.854   4.358   5.487  0.6046  1.4841  1.9975
  122OSM    C1F12887   1.835   3.547   6.605  0.3680  0.0546  0.1215
  122OSM     OF12888   1.863   3.432   6.643  0.2660 -0.0465  0.1798
  122OSM    C2F12889   1.842   3.579   6.460  0.2960  0.0071  0.7984
  122OSM    H2F12890   1.908   3.668   6.452  0.7315 -0.3474  0.3884
  122OSM    H2G12891   1.744   3.617   6.423  0.7770  0.6572  0.1577
  122OSM    C3F12892   1.902   3.462   6.373  0.5765 -0.1700  0.4925
  122OSM    H3F12893   1.849   3.364   6.380 -0.1186  0.0572 -1.0448
  122OSM    H3G12894   2.002   3.439   6.415 -0.0996 -0.0240  2.2531
  122OSM    C4F12895   1.930   3.500   6.223  0.0860 -0.2563 -0.0799
  122OSM    H4F12896   1.949   3.610   6.221 -0.5559 -0.1538 -1.1794
  122OSM    H4G12897   1.845   3.472   6.157  0.5715  2.8947 -2.2998
  122OSM    C5F12898   2.056   3.429   6.177  0.3550  0.2925  0.0777
  122OSM    H5F12899   2.035   3.323   6.202  1.3162  0.0617 -0.0544
  122OSM    H5G12900   2.150   3.460   6.228 -0.0564  0.1101  0.9547
  122OSM    C6F12901   2.058   3.448   6.019  0.4784  0.1437 -0.2287
  122OSM    H6F12902   1.951   3.446   5.992  0.0076 -1.0585  1.5081
  122OSM    H6G12903   2.111   3.359   5.977  1.8905  0.3041  1.1039
  122OSM    C7F12904   2.120   3.581   5.989  0.3279  1.0979  0.0068
  122OSM    H7F12905   2.220   3.583   6.037 -0.9366  1.2534  2.8438
  122OSM    H7G12906   2.068   3.666   6.038 -1.6350 -0.7747  1.3914
  122OSM    C8F12907   2.114   3.599   5.837  0.4649 -0.0957  0.2993
  122OSM    H8F12908   2.160   3.697   5.812 -2.2366  1.2905  0.3431
  122OSM    H8G12909   2.008   3.607   5.804  0.2225  2.1090  1.4464
  122OSM    C9F12910   2.193   3.499   5.756 -0.1708  0.0234  0.2516
  122OSM    H9F12911   2.176   3.397   5.793 -1.1932 -0.7011 -2.0367
  122OSM   C10F12912   2.277   3.514   5.661 -0.3908 -0.1237  1.1560
  122OSM   H10F12913   2.326   3.420   5.630 -0.9714 -0.3835  1.0169
  122OSM   C11F12914   2.324   3.638   5.591  0.0585 -0.2365  0.1655
  122OSM   H11F12915   2.412   3.664   5.654 -1.6029  1.2866  1.9837
  122OSM   H11G12916   2.253   3.720   5.613 -0.3112 -1.3647  3.9718
  122OSM   C12F12917   2.337   3.636   5.438  0.1155 -0.6348 -0.4348
  122OSM   H12F12918   2.415   3.564   5.406 -0.1744 -1.1221 -0.0616
  122OSM   H12G12919   2.368   3.740   5.411  0.8400 -0.7113  0.0824
  122OSM   C13F12920   2.208   3.596   5.364  0.2639 -0.6523  0.5438
  122OSM   H13F12921   2.124   3.662   5.397  0.6039 -1.1499  2.5626
  122OSM   H13G12922   2.172   3.495   5.389 -1.7364  0.1123  0.9220
  122OSM   C14F12923   2.223   3.610   5.212  0.2096  0.3165 -0.3252
  122OSM   H14F12924   2.325   3.575   5.186  0.8698 -0.5036  2.8914
  122OSM   H14G12925   2.211   3.715   5.181 -1.0158 -0.0999 -1.3614
  122OSM   C15F12926   2.116   3.523   5.141  1.4478  0.1142 -0.1549
  122OSM   H15F12927   2.016   3.551   5.181  0.4141 -2.0858 -1.0168
  122OSM   H15G12928   2.120   3.413   5.154 -1.3134  0.0464  0.6900
  122OSM   C16F12929   2.134   3.550   4.995  1.1397 -0.2882  0.4397
  122OSM   H16F12930   2.172   3.653   4.981  0.4195  0.2844  2.3924
  122OSM   H16G12931   2.031   3.541   4.952  0.5541  2.4851  1.0499
  122OSM   C17F12932   2.216   3.446   4.926  0.5519 -0.2459 -0.0628
  122OSM   H17F12933   2.162   3.349   4.934 -2.7220  1.4055 -0.4871
  122OSM   H17G12934   2.315   3.430   4.974 -0.1112 -2.9005  0.5663
  122OSM   C18F12935   2.247   3.475   4.773 -0.2532 -0.8872  0.4886
  122OSM   H18F12936   2.150   3.494   4.721  0.5941 -0.6203 -1.0544
  122OSM   H18G12937   2.301   3.391   4.724  0.8032 -0.5350  1.0183
  122OSM   H18H12938   2.306   3.569   4.773 -0.1211 -0.9687  0.2288
  123OSM      N12939   4.799   2.740   2.825 -0.5914 -0.5178 -0.4874
  123OSM    C1512940   4.748   2.601   2.852 -0.9836 -0.4784 -0.6516
  123OSM   H15A12941   4.818   2.560   2.923  0.3781  3.1799  0.3584
  123OSM   H15B12942   4.743   2.555   2.755  0.7733  1.4887 -1.7556
  123OSM   H15C12943   4.650   2.605   2.898 -0.7547  0.6276 -0.2425
  123OSM    C1412944   4.928   2.731   2.744  0.3291  0.7147 -0.1979
  123OSM   H14A12945   4.999   2.670   2.800 -1.6572  0.7683  2.6054
  123OSM   H14B12946   4.969   2.829   2.726  0.3627  0.8827  0.7206
  123OSM   H14C12947   4.908   2.683   2.649  1.8402  0.1849 -0.2781
  123OSM    C1312948   4.703   2.821   2.752 -0.4993 -0.0654  0.1271
  123OSM   H13A12949   4.613   2.834   2.811 -0.3200 -0.9252  0.6066
  123OSM   H13B12950   4.689   2.774   2.656  1.7092  0.8974 -0.7188
  123OSM   H13C12951   4.749   2.917   2.733 -2.0943  0.3314 -2.0905
  123OSM    C1212952   4.831   2.823   2.956  0.7395 -0.2056  0.6110
  123OSM   H12A12953   4.743   2.809   3.017  1.0378 -2.2257  0.6225
  123OSM   H12B12954   4.840   2.925   2.920 -1.1196 -0.9663 -2.3117
  123OSM    C1112955   4.961   2.796   3.029 -0.6927  0.2899  0.1502
  123OSM   H11A12956   4.976   2.868   3.112  1.4227  1.2701 -0.9754
  123OSM   H11B12957   5.046   2.808   2.958  0.2226 -2.7114  0.6216
  123OSM      P12958   5.096   2.582   3.115  0.0700 -0.1307  0.1946
  123OSM    O1312959   5.060   2.477   3.212  0.5287 -0.2224  0.1163
  123OSM    O1412960   5.159   2.544   2.990 -0.7322  0.0501  0.1158
  123OSM    O1112961   5.184   2.700   3.173 -0.0885  0.1630 -0.5459
  123OSM    O1212962   4.961   2.659   3.074  0.2100  0.2867  1.0740
  123OSM    C1S12963   5.162   2.749   3.308  0.0967  1.0669 -0.1896
  123OSM    H1S12964   5.138   2.667   3.378 -0.7797  1.4599 -0.0167
  123OSM    H1T12965   5.079   2.823   3.312  0.9825  2.0894 -0.0883
  123OSM     NF12966   5.256   2.883   3.492 -0.3319  0.0420 -0.2632
  123OSM    HNF12967   5.220   2.976   3.491 -0.3336  0.1272  1.9599
  123OSM    C2S12968   5.284   2.831   3.358  0.8849  0.1024  0.2839
  123OSM    H2S12969   5.367   2.756   3.366  0.3858 -0.2563  2.7460
  123OSM    C3S12970   5.325   2.935   3.253 -0.4112  0.2355 -0.3530
  123OSM    H3S12971   5.230   2.986   3.225  0.5659  2.5854  0.3214
  123OSM     O312972   5.364   2.876   3.123 -0.0982 -0.3781  0.5951
  123OSM    HO312973   5.323   2.790   3.130  0.9393 -0.7999  1.9256
  123OSM    C4S12974   5.435   3.031   3.301 -0.6921 -0.8866 -0.0280
  123OSM    H4S12975   5.397   3.126   3.341  0.5099 -0.2354 -0.3990
  123OSM    C5S12976   5.566   3.005   3.314  0.1837  0.1254 -0.5623
  123OSM    H5S12977   5.611   2.912   3.275 -0.8251 -0.2643 -0.8328
  123OSM    C6S12978   5.661   3.104   3.381 -0.5768  0.0970 -0.3742
  123OSM    H6S12979   5.618   3.197   3.424  0.2728  0.0698  0.5873
  123OSM    H6T12980   5.744   3.137   3.316 -2.0580  1.6736 -1.5715
  123OSM    C7S12981   5.729   3.038   3.506  0.3404 -0.0480 -0.6987
  123OSM    H7S12982   5.794   3.113   3.557  1.6488 -0.9193 -1.0666
  123OSM    H7T12983   5.804   2.963   3.475 -1.9519 -2.0906 -1.5675
  123OSM    C8S12984   5.620   2.988   3.606 -0.0407 -0.1824 -0.0014
  123OSM    H8S12985   5.565   2.904   3.557 -1.3135  1.5015 -1.5794
  123OSM    H8T12986   5.555   3.076   3.623  1.2800  0.3304  2.9304
  123OSM    C9S12987   5.672   2.943   3.744  0.7192 -0.0710  0.0514
  123OSM    H9S12988   5.782   2.960   3.746  1.3819 -3.7791  0.7089
  123OSM    H9T12989   5.654   2.835   3.757 -2.4409  0.5030  1.5587
  123OSM   C10S12990   5.609   3.016   3.867 -0.4401 -0.1465 -0.3086
  123OSM   H10S12991   5.498   3.013   3.863 -0.4717 -0.3816  0.5136
  123OSM   H10T12992   5.639   3.123   3.871 -1.3718  0.1953 -1.6192
  123OSM   C11S12993   5.638   2.945   3.997  0.1367  0.2682 -0.4567
  123OSM   H11S12994   5.749   2.946   4.003  0.1645 -1.6709  0.3542
  123OSM   H11T12995   5.600   2.841   3.983  0.3844  0.1715 -0.4183
  123OSM   C12S12996   5.582   3.020   4.118 -0.0451 -0.4131 -0.3005
  123OSM   H12S12997   5.472   3.028   4.104 -0.0724 -1.9146 -1.1457
  123OSM   H12T12998   5.623   3.123   4.121 -1.8934  0.4150  3.7683
  123OSM   C13S12999   5.613   2.959   4.260 -0.4714  0.3513  0.4565
  123OSM   H13S13000   5.721   2.933   4.265 -0.6670 -0.3972  0.9206
  123OSM   H13T13001   5.555   2.866   4.278  1.0370 -0.4238  1.4574
  123OSM   C14S13002   5.580   3.054   4.382  0.2521 -0.4293  0.5788
  123OSM   H14S13003   5.477   3.029   4.415 -0.8853 -0.6375 -2.7139
  123OSM   H14T13004   5.584   3.164   4.365  3.1063 -0.6071 -0.5328
  123OSM   C15S13005   5.674   3.022   4.495 -0.3093  0.0506 -0.0560
  123OSM   H15S13006   5.775   3.058   4.465 -1.7429  1.4250 -3.8817
  123OSM   H15T13007   5.665   2.914   4.518 -0.1887 -0.1067 -0.7214
  123OSM   C16S13008   5.634   3.087   4.633 -0.2482 -0.2401 -0.5381
  123OSM   H16S13009   5.556   3.026   4.682  1.0753 -2.3976 -0.9979
  123OSM   H16T13010   5.597   3.189   4.606  0.1734 -0.7632 -3.4672
  123OSM   C17S13011   5.746   3.123   4.730 -0.5578  0.2351  0.4128
  123OSM   H17S13012   5.800   3.210   4.686 -0.9316 -0.3600 -1.3107
  123OSM   H17T13013   5.818   3.038   4.731 -1.5470 -0.8074 -2.6330
  123OSM   C18S13014   5.690   3.158   4.867  0.4827  0.7106  0.1188
  123OSM   H18S13015   5.658   3.064   4.919 -1.3626  1.6195  0.7296
  123OSM   H18T13016   5.593   3.210   4.854 -0.3210 -0.4230  1.2985
  123OSM   H18U13017   5.763   3.227   4.914  3.5314 -1.5191 -1.0110
  123OSM    C1F13018   5.247   2.808   3.603 -0.3085 -0.0976 -0.2390
  123OSM     OF13019   5.275   2.691   3.601 -0.4671  0.0587  0.2565
  123OSM    C2F13020   5.220   2.884   3.731  0.3425 -0.1202 -0.7747
  123OSM    H2F13021   5.123   2.938   3.728  0.4039  0.4105  2.7810
  123OSM    H2G13022   5.290   2.969   3.745 -0.3328  0.4784 -0.9759
  123OSM    C3F13023   5.234   2.788   3.858  0.0197 -0.4556  0.6244
  123OSM    H3F13024   5.331   2.735   3.849  1.2255  1.8921 -1.2026
  123OSM    H3G13025   5.155   2.710   3.844  0.4434 -0.7714 -0.1043
  123OSM    C4F13026   5.242   2.842   4.001 -0.5370 -0.0931 -0.3189
  123OSM    H4F13027   5.140   2.881   4.022 -0.8875 -0.3890 -1.3980
  123OSM    H4G13028   5.311   2.928   4.007  0.7902 -0.9351 -2.3369
  123OSM    C5F13029   5.268   2.734   4.106 -0.1292 -0.0190 -0.0901
  123OSM    H5F13030   5.366   2.683   4.096 -0.1434 -1.1043  3.7545
  123OSM    H5G13031   5.197   2.650   4.096 -0.0358  0.0737 -1.7658
  123OSM    C6F13032   5.270   2.782   4.247 -0.3106 -0.5355 -0.2137
  123OSM    H6F13033   5.166   2.819   4.260  0.2435  1.1743 -0.4020
  123OSM    H6G13034   5.346   2.863   4.251  0.1287 -0.9783  2.6933
  123OSM    C7F13035   5.306   2.686   4.361 -0.0869 -0.2053 -0.6143
  123OSM    H7F13036   5.377   2.609   4.325  0.4982  0.8263 -1.7431
  123OSM    H7G13037   5.211   2.630   4.373 -0.4341  0.2462 -1.2282
  123OSM    C8F13038   5.338   2.745   4.498  0.1122 -0.4150  0.4139
  123OSM    H8F13039   5.241   2.774   4.546  0.2956 -1.1621  1.2651
  123OSM    H8G13040   5.407   2.831   4.488 -0.4559 -0.0241 -0.2837
  123OSM    C9F13041   5.399   2.642   4.590 -0.6287 -0.6502 -0.0401
  123OSM    H9F13042   5.425   2.549   4.537  2.0124  1.1346 -2.2161
  123OSM   C10F13043   5.420   2.653   4.720  0.2703  0.0934 -0.0868
  123OSM   H10F13044   5.474   2.565   4.760  0.7819 -0.5939 -2.1473
  123OSM   C11F13045   5.405   2.778   4.805 -1.0210 -0.4120 -0.5396
  123OSM   H11F13046   5.300   2.813   4.805 -0.4862  1.3028 -1.3367
  123OSM   H11G13047   5.456   2.862   4.753 -1.4224  0.2293  0.0819
  123OSM   C12F13048   5.464   2.750   4.943  0.2211  0.0206 -0.0612
  123OSM   H12F13049   5.398   2.671   4.985 -0.9363  1.2503  0.5009
  123OSM   H12G13050   5.453   2.844   5.001  3.9173  1.1135 -0.8877
  123OSM   C13F13051   5.611   2.711   4.953 -0.4457  0.2694  0.2726
  123OSM   H13F13052   5.685   2.758   4.884 -2.1873 -0.3191 -2.1619
  123OSM   H13G13053   5.611   2.602   4.934 -1.2011  0.4011 -0.5911
  123OSM   C14F13054   5.677   2.732   5.089  0.6247  0.5235 -0.8094
  123OSM   H14F13055   5.708   2.837   5.106  1.3844  0.0423  1.0211
  123OSM   H14G13056   5.774   2.678   5.086  0.1302 -0.3585 -1.1899
  123OSM   C15F13057   5.604   2.680   5.217 -0.1912 -0.5778  0.0837
  123OSM   H15F13058   5.580   2.573   5.203 -2.6822  0.3656 -4.4459
  123OSM   H15G13059   5.500   2.716   5.224 -0.2904 -0.7027 -0.7147
  123OSM   C16F13060   5.684   2.694   5.346  0.2922 -0.2491  0.5052
  123OSM   H16F13061   5.713   2.801   5.353 -1.7817  0.2677  2.1485
  123OSM   H16G13062   5.771   2.624   5.345  0.3811 -0.1652 -1.8065
  123OSM   C17F13063   5.606   2.674   5.476  0.7233 -0.4156 -0.3507
  123OSM   H17F13064   5.676   2.673   5.562 -0.9316 -1.5769  1.0748
  123OSM   H17G13065   5.555   2.576   5.470 -0.6195  0.2088  0.3895
  123OSM   C18F13066   5.493   2.773   5.513  0.1099  0.2942  0.6182
  123OSM   H18F13067   5.531   2.874   5.537  1.3505 -0.4154  1.8259
  123OSM   H18G13068   5.435   2.736   5.601  1.1049 -0.8919  0.8067
  123OSM   H18H13069   5.418   2.796   5.435  1.1935  0.0602 -0.5214
  124OSM      N13070   4.993   4.990   2.924 -0.7071  0.5791  0.1027
  124OSM    C1513071   5.112   5.031   2.841  0.1668 -0.1130 -0.0294
  124OSM   H15A13072   5.188   4.955   2.844 -0.2054 -0.4658  0.5945
  124OSM   H15B13073   5.163   5.120   2.875  0.5708 -1.0216  1.8648
  124OSM   H15C13074   5.074   5.051   2.742 -1.3976  1.5716  0.8523
  124OSM    C1413075   4.884   5.082   2.908 -0.1806  0.4943  0.4255
  124OSM   H14A13076   4.847   5.074   2.806 -1.9243 -0.6155  1.1060
  124OSM   H14B13077   4.899   5.185   2.936  1.5575  0.3151  0.2737
  124OSM   H14C13078   4.796   5.045   2.958  0.8320  0.5574  2.3578
  124OSM    C1313079   4.942   4.853   2.882 -0.1344 -1.0857 -0.4307
  124OSM   H13A13080   5.022   4.780   2.885  0.0351 -0.8765  0.2455
  124OSM   H13B13081   4.899   4.853   2.783  0.7092 -0.2499 -0.8217
  124OSM   H13C13082   4.858   4.813   2.935 -1.6214 -1.2612 -2.7631
  124OSM    C1213083   5.030   4.984   3.072 -0.0571  0.2028 -0.9488
  124OSM   H12A13084   5.097   4.899   3.071 -1.3973 -0.8937 -0.7892
  124OSM   H12B13085   4.943   4.954   3.130  0.0063  0.5012 -0.6950
  124OSM    C1113086   5.097   5.109   3.138  0.7096  0.6184 -0.1154
  124OSM   H11A13087   5.085   5.091   3.247  2.5722  2.2679  0.4186
  124OSM   H11B13088   5.046   5.195   3.089  1.5194  0.8231 -0.6139
  124OSM      P13089   5.336   5.222   3.077 -0.0550 -0.5571 -0.5439
  124OSM    O1313090   5.476   5.191   3.118  0.3549 -0.0675 -0.7350
  124OSM    O1413091   5.319   5.273   2.934 -0.1534  0.4219 -0.2659
  124OSM    O1113092   5.289   5.329   3.178  0.2329 -0.4246  0.2887
  124OSM    O1213093   5.238   5.104   3.105  0.2624 -0.1759 -0.1705
  124OSM    C1S13094   5.295   5.314   3.321 -0.0212  0.8508  0.8230
  124OSM    H1S13095   5.403   5.319   3.347  0.1328  3.0102  0.0006
  124OSM    H1T13096   5.252   5.213   3.338  1.6587 -0.6948 -3.0887
  124OSM     NF13097   5.232   5.403   3.541 -0.8269  0.0582  0.3804
  124OSM    HNF13098   5.165   5.342   3.583 -1.2358  1.3821  1.7462
  124OSM    C2S13099   5.218   5.429   3.401 -0.1734 -0.2926  0.1569
  124OSM    H2S13100   5.269   5.522   3.368  1.0445 -0.5740  1.1507
  124OSM    C3S13101   5.077   5.453   3.360 -0.8509 -0.1964 -0.1376
  124OSM    H3S13102   5.018   5.363   3.387 -0.4674 -0.1125  1.0503
  124OSM     O313103   5.060   5.473   3.218  0.5768  0.1255  0.7298
  124OSM    HO313104   5.104   5.394   3.185  1.2235 -0.6338  3.1678
  124OSM    C4S13105   5.013   5.574   3.436 -1.0385  0.6036  0.2011
  124OSM    H4S13106   5.085   5.655   3.416  1.3621 -0.7027  2.7667
  124OSM    C5S13107   4.908   5.572   3.522  0.1893 -0.3455  0.1399
  124OSM    H5S13108   4.855   5.477   3.536  0.8843 -1.0924 -1.9050
  124OSM    C6S13109   4.883   5.694   3.612 -0.5581  0.1856  0.6346
  124OSM    H6S13110   4.783   5.672   3.655 -0.5729  1.2137  1.1543
  124OSM    H6T13111   4.882   5.781   3.542  0.6421 -0.2731  0.0111
  124OSM    C7S13112   4.983   5.726   3.729  0.7833 -0.1216  0.2931
  124OSM    H7S13113   4.943   5.819   3.774 -0.0747  0.0148 -0.7159
  124OSM    H7T13114   5.083   5.749   3.687  1.4154 -1.7896  0.8007
  124OSM    C8S13115   4.994   5.622   3.836  0.6465 -0.4421 -0.2231
  124OSM    H8S13116   4.999   5.520   3.791 -0.7687 -0.1759 -1.0323
  124OSM    H8T13117   4.905   5.620   3.903  0.7444 -2.7938 -0.0553
  124OSM    C9S13118   5.111   5.655   3.924 -0.1164  0.1880 -0.8206
  124OSM    H9S13119   5.099   5.752   3.977  0.5692 -0.5787  0.8130
  124OSM    H9T13120   5.203   5.676   3.865  0.8625  2.0219  1.2208
  124OSM   C10S13121   5.146   5.560   4.040  0.2425 -0.4211  1.4603
  124OSM   H10S13122   5.247   5.583   4.080  0.0727  1.1503  1.0486
  124OSM   H10T13123   5.148   5.457   3.999 -0.3712 -0.6692  2.0243
  124OSM   C11S13124   5.055   5.567   4.163  0.7102 -0.7377 -0.2542
  124OSM   H11S13125   4.952   5.535   4.138  1.0645 -1.7589 -0.4542
  124OSM   H11T13126   5.044   5.676   4.183  1.8439 -1.0215  2.2243
  124OSM   C12S13127   5.103   5.499   4.294 -0.1585  0.2336  0.2157
  124OSM   H12S13128   5.210   5.523   4.311  0.4851  0.4995 -3.2913
  124OSM   H12T13129   5.104   5.388   4.287  0.3359  0.3268 -1.9613
  124OSM   C13S13130   5.023   5.536   4.418  0.9751 -0.3704  0.0242
  124OSM   H13S13131   4.914   5.522   4.397  1.0742 -1.7559  0.2927
  124OSM   H13T13132   5.049   5.641   4.440  0.4647  0.4915 -2.9737
  124OSM   C14S13133   5.053   5.444   4.534 -0.0617  0.7685  0.7679
  124OSM   H14S13134   5.164   5.435   4.542 -0.1879 -1.1054  0.8712
  124OSM   H14T13135   5.000   5.347   4.520 -0.0186  0.2156  3.7902
  124OSM   C15S13136   4.996   5.491   4.673  0.1299 -0.8085 -0.4786
  124OSM   H15S13137   4.888   5.503   4.650  0.4873  1.2910 -1.2808
  124OSM   H15T13138   5.030   5.593   4.699 -2.7324  0.3003 -0.7435
  124OSM   C16S13139   5.011   5.393   4.790  0.5411 -0.1496 -0.1265
  124OSM   H16S13140   4.946   5.303   4.783 -0.1104  0.2796  0.2719
  124OSM   H16T13141   4.975   5.445   4.882 -0.1287 -0.1200 -0.3978
  124OSM   C17S13142   5.157   5.352   4.814  0.1184  0.7388  0.5671
  124OSM   H17S13143   5.198   5.308   4.720 -2.8605  2.5570 -1.7685
  124OSM   H17T13144   5.146   5.284   4.901 -1.0798 -0.2177 -0.3065
  124OSM   C18S13145   5.242   5.474   4.850 -0.4641  0.2792 -0.0121
  124OSM   H18S13146   5.339   5.436   4.887 -0.3796  0.3393 -0.1683
  124OSM   H18T13147   5.191   5.523   4.936  0.2411 -0.0401  0.5955
  124OSM   H18U13148   5.249   5.531   4.754 -1.1798  1.8159  0.8122
  124OSM    C1F13149   5.352   5.421   3.592 -0.4293 -0.2323  0.4371
  124OSM     OF13150   5.444   5.474   3.532 -0.1935  0.7678 -0.4010
  124OSM    C2F13151   5.379   5.392   3.737  0.1251  0.6357  0.8798
  124OSM    H2F13152   5.409   5.286   3.747 -1.3451 -0.2918 -2.8844
  124OSM    H2G13153   5.288   5.408   3.798 -0.1032  2.5265  0.1343
  124OSM    C3F13154   5.501   5.486   3.780  0.1745 -0.8509 -0.4210
  124OSM    H3F13155   5.486   5.592   3.751 -2.0680 -0.7201  1.0022
  124OSM    H3G13156   5.594   5.457   3.726 -0.4554 -2.5212 -0.6793
  124OSM    C4F13157   5.517   5.491   3.930  0.5965  0.6671 -0.5449
  124OSM    H4F13158   5.531   5.392   3.978  1.1029  0.4378 -1.1521
  124OSM    H4G13159   5.422   5.517   3.981  0.7886 -1.4485  1.0173
  124OSM    C5F13160   5.636   5.570   3.978  0.1085 -0.3131 -0.2613
  124OSM    H5F13161   5.610   5.677   3.960  1.4398  0.3825  1.5850
  124OSM    H5G13162   5.728   5.548   3.921  0.0398 -0.0890 -0.4609
  124OSM    C6F13163   5.659   5.554   4.129  0.4184  0.3103 -0.2331
  124OSM    H6F13164   5.694   5.453   4.159 -1.0772  0.1814  1.1744
  124OSM    H6G13165   5.561   5.572   4.177 -0.8761 -0.9207 -2.2846
  124OSM    C7F13166   5.764   5.651   4.182  0.3559 -0.0732 -0.7173
  124OSM    H7F13167   5.726   5.755   4.172  1.1255  0.3719  0.7391
  124OSM    H7G13168   5.850   5.647   4.113 -0.7536  0.0187 -2.1691
  124OSM    C8F13169   5.817   5.609   4.320 -0.0292 -0.3108  0.1519
  124OSM    H8F13170   5.837   5.500   4.315  3.6423  0.2665 -0.6328
  124OSM    H8G13171   5.729   5.620   4.387  0.8515  0.0574  1.2830
  124OSM    C9F13172   5.930   5.689   4.369 -0.0067 -0.5399  0.3541
  124OSM    H9F13173   5.924   5.795   4.342 -0.4942 -0.2514  1.5525
  124OSM   C10F13174   6.054   5.635   4.406  0.2789 -0.3067  0.6063
  124OSM   H10F13175   6.136   5.703   4.431 -0.2790  0.9352 -0.7678
  124OSM   C11F13176   6.097   5.495   4.425  0.6298  0.0926  0.0634
  124OSM   H11F13177   6.005   5.433   4.433 -0.7056  2.0042  0.3168
  124OSM   H11G13178   6.172   5.483   4.507  0.7256  0.3725  0.0157
  124OSM   C12F13179   6.178   5.453   4.300  0.7582  0.7201  0.4891
  124OSM   H12F13180   6.216   5.352   4.325 -2.8194 -0.8308  0.2441
  124OSM   H12G13181   6.258   5.529   4.287  1.1278 -0.0737 -2.9820
  124OSM   C13F13182   6.103   5.448   4.169 -0.6163 -0.1210  0.5498
  124OSM   H13F13183   6.026   5.526   4.151 -3.2200 -1.8254  3.2752
  124OSM   H13G13184   6.043   5.357   4.190  0.6048 -1.1970 -0.4969
  124OSM   C14F13185   6.190   5.422   4.049 -0.0377 -0.1819  0.0855
  124OSM   H14F13186   6.267   5.343   4.063  0.4354 -0.0566 -1.6335
  124OSM   H14G13187   6.253   5.511   4.028  1.8808 -1.7086 -0.9522
  124OSM   C15F13188   6.107   5.402   3.920  0.3994 -0.5253  0.1848
  124OSM   H15F13189   6.037   5.486   3.902  2.9573  1.7154  0.1122
  124OSM   H15G13190   6.038   5.315   3.919  0.3446 -0.4771 -0.4103
  124OSM   C16F13191   6.205   5.385   3.802 -0.2118 -0.4867  0.2932
  124OSM   H16F13192   6.258   5.288   3.810  0.1840 -0.3410 -0.4083
  124OSM   H16G13193   6.278   5.469   3.805 -1.0917  0.2577  1.4232
  124OSM   C17F13194   6.153   5.379   3.664  0.1015 -0.5419  0.1648
  124OSM   H17F13195   6.231   5.384   3.585 -1.3475  1.7036 -1.2428
  124OSM   H17G13196   6.102   5.476   3.642  0.5910 -0.0944  0.9490
  124OSM   C18F13197   6.052   5.271   3.641  0.8743  0.1786 -0.0402
  124OSM   H18F13198   6.024   5.282   3.534 -2.0325 -0.0301  0.6161
  124OSM   H18G13199   5.961   5.286   3.703  0.0949  1.6712 -1.4454
  124OSM   H18H13200   6.094   5.170   3.661  1.0245 -0.1141 -1.6487
  125OSM      N13201   0.426   3.409   2.861  0.7666  0.2817  0.5264
  125OSM    C1513202   0.488   3.318   2.759  0.5530 -0.3767 -0.2680
  125OSM   H15A13203   0.573   3.369   2.717  2.0141 -1.5950  1.1047
  125OSM   H15B13204   0.415   3.295   2.682  0.2845 -1.7146  0.3612
  125OSM   H15C13205   0.518   3.222   2.798  2.7826  0.9621  1.5530
  125OSM    C1413206   0.506   3.420   2.990  0.3573  0.8011  0.1977
  125OSM   H14A13207   0.509   3.327   3.045 -0.2420  0.4014 -0.4278
  125OSM   H14B13208   0.446   3.484   3.054  1.0888  0.0702  1.6628
  125OSM   H14C13209   0.605   3.461   2.976  0.3509  0.9673  0.6303
  125OSM    C1313210   0.430   3.551   2.813 -0.0100  0.6004 -0.9802
  125OSM   H13A13211   0.381   3.561   2.717  0.0720  0.4935 -1.0347
  125OSM   H13B13212   0.531   3.580   2.788  1.0202 -3.4914 -2.4786
  125OSM   H13C13213   0.388   3.623   2.881  2.6411 -0.7571  2.3961
  125OSM    C1213214   0.289   3.365   2.888  0.6614  0.3910  0.2690
  125OSM   H12A13215   0.231   3.340   2.801 -1.9885 -0.4884  2.1448
  125OSM   H12B13216   0.226   3.440   2.934 -0.0447  0.2836 -0.5091
  125OSM    C1113217   0.270   3.236   2.973  0.3198  0.8258 -0.4359
  125OSM   H11A13218   0.165   3.234   3.010  0.3759  2.9018 -0.0359
  125OSM   H11B13219   0.331   3.241   3.066  1.8344  1.1422 -1.4070
  125OSM      P13220   0.198   3.015   2.850 -0.0961 -0.3790 -0.0815
  125OSM    O1313221   0.083   3.097   2.801  0.4867 -0.3715  0.0074
  125OSM    O1413222   0.265   2.926   2.753  0.0147  0.1247 -0.0207
  125OSM    O1113223   0.149   2.939   2.981 -0.6562  0.5727  0.4910
  125OSM    O1213224   0.309   3.116   2.904  0.6352  0.4206 -0.2792
  125OSM    C1S13225   0.247   2.894   3.074 -0.8132 -0.1985 -0.0881
  125OSM    H1S13226   0.352   2.919   3.047 -0.1012 -3.8771 -1.3421
  125OSM    H1T13227   0.242   2.783   3.071 -1.5645 -0.1543 -0.9324
  125OSM     NF13228   0.321   2.855   3.293 -0.2538 -0.1805 -0.1936
  125OSM    HNF13229   0.290   2.766   3.327  3.0920 -1.3933  0.0115
  125OSM    C2S13230   0.213   2.931   3.224  0.7332 -0.3403  0.5197
  125OSM    H2S13231   0.224   3.038   3.251 -2.1764 -0.0762  1.0035
  125OSM    C3S13232   0.066   2.900   3.267 -0.5039 -0.4011 -0.4792
  125OSM    H3S13233   0.046   2.795   3.236  0.2543 -0.2049 -1.6895
  125OSM     O313234  -0.034   2.990   3.209  0.3791  0.0296  0.3932
  125OSM    HO313235   0.009   3.035   3.135  0.4990 -0.1079  0.3781
  125OSM    C4S13236   0.069   2.891   3.416 -0.5117 -0.2425  0.0456
  125OSM    H4S13237   0.099   2.794   3.458 -0.3505 -0.2177 -0.0122
  125OSM    C5S13238   0.030   2.985   3.504 -0.5266  0.0414 -0.7069
  125OSM    H5S13239   0.003   3.089   3.480  0.0361  0.5793  0.8470
  125OSM    C6S13240   0.028   2.967   3.659  0.2299  0.4224  0.8170
  125OSM    H6S13241   0.042   2.858   3.676 -2.8642 -0.2299  0.0166
  125OSM    H6T13242  -0.064   2.996   3.714  0.2510  1.4153  0.3454
  125OSM    C7S13243   0.146   3.050   3.712  0.3543  0.3566  0.3619
  125OSM    H7S13244   0.135   3.154   3.676 -2.1789  0.1119  0.2359
  125OSM    H7T13245   0.244   3.007   3.679 -0.0176 -2.3085  2.3873
  125OSM    C8S13246   0.152   3.043   3.862  0.0653 -0.0692 -0.4943
  125OSM    H8S13247   0.247   3.092   3.894 -0.2147  0.9213 -1.1490
  125OSM    H8T13248   0.151   2.943   3.910 -3.3483  1.7184  3.7925
  125OSM    C9S13249   0.029   3.113   3.932  0.1276  0.1796 -0.2999
  125OSM    H9S13250  -0.065   3.055   3.922 -1.3863  2.2920  0.8865
  125OSM    H9T13251  -0.000   3.210   3.887 -1.5981 -1.0182 -1.8800
  125OSM   C10S13252   0.043   3.146   4.084 -0.6051  0.5945 -0.0840
  125OSM   H10S13253   0.025   3.063   4.155 -0.2803 -0.0819 -0.7853
  125OSM   H10T13254  -0.032   3.220   4.119  0.6917  1.2359  1.4915
  125OSM   C11S13255   0.191   3.186   4.116 -0.1065 -0.0042 -0.4131
  125OSM   H11S13256   0.224   3.263   4.043  2.9388 -1.4619 -0.7346
  125OSM   H11T13257   0.265   3.103   4.119 -0.6415 -0.5322 -1.3925
  125OSM   C12S13258   0.187   3.240   4.262  0.3350  0.0136 -0.0674
  125OSM   H12S13259   0.082   3.249   4.298 -0.3167  1.7861 -2.1475
  125OSM   H12T13260   0.231   3.342   4.261 -0.1692  0.2483  0.6887
  125OSM   C13S13261   0.268   3.149   4.358  0.0933  0.0112  0.3151
  125OSM   H13S13262   0.366   3.120   4.316  0.3444  1.6351 -0.2795
  125OSM   H13T13263   0.211   3.057   4.383 -0.6030  1.0788  3.0184
  125OSM   C14S13264   0.304   3.224   4.498  0.1115 -0.1441  0.7268
  125OSM   H14S13265   0.362   3.309   4.457  0.5182 -0.2744  1.0253
  125OSM   H14T13266   0.384   3.172   4.555  1.3764  0.8646 -0.0908
  125OSM   C15S13267   0.195   3.255   4.593 -0.0020  0.3242  0.5518
  125OSM   H15S13268   0.186   3.161   4.651  0.0207 -0.1971 -0.2706
  125OSM   H15T13269   0.098   3.270   4.539 -1.7297 -0.4857  3.2358
  125OSM   C16S13270   0.228   3.368   4.688  1.1513  0.0164 -0.3593
  125OSM   H16S13271   0.135   3.406   4.736  0.8492 -1.7540  0.5481
  125OSM   H16T13272   0.281   3.450   4.636  1.4982  0.0881  0.0992
  125OSM   C17S13273   0.318   3.333   4.807  0.5785  0.1721 -0.3020
  125OSM   H17S13274   0.406   3.275   4.771  2.1597  0.0761  3.2972
  125OSM   H17T13275   0.270   3.256   4.872  0.4004 -1.0719 -1.8438
  125OSM   C18S13276   0.359   3.451   4.893 -0.2618  0.1608  0.7713
  125OSM   H18S13277   0.427   3.511   4.829 -1.2334  0.4973  0.0340
  125OSM   H18T13278   0.419   3.427   4.983  0.6703  1.4649  0.5180
  125OSM   H18U13279   0.273   3.514   4.923  0.7872  2.1077 -0.1305
  125OSM    C1F13280   0.449   2.892   3.293  0.1136  0.2365  0.3152
  125OSM     OF13281   0.473   3.004   3.246  0.1847  0.3294 -0.2447
  125OSM    C2F13282   0.554   2.795   3.343 -0.0262  0.2350 -0.6675
  125OSM    H2F13283   0.579   2.716   3.269  1.9177 -1.0575  1.2488
  125OSM    H2G13284   0.525   2.750   3.440  0.5365 -1.1799 -1.1154
  125OSM    C3F13285   0.682   2.875   3.372  0.9814  0.2447 -0.3274
  125OSM    H3F13286   0.716   2.930   3.282 -0.7966  1.5085 -0.2784
  125OSM    H3G13287   0.758   2.798   3.398 -0.2465 -0.4961  1.2201
  125OSM    C4F13288   0.669   2.966   3.499  0.0675 -0.1794  0.3462
  125OSM    H4F13289   0.590   3.042   3.484  2.0483  2.2950  1.5535
  125OSM    H4G13290   0.767   3.019   3.508 -0.3249  1.1631 -2.4115
  125OSM    C5F13291   0.634   2.893   3.622  0.8921  0.0042  0.7836
  125OSM    H5F13292   0.698   2.803   3.629  0.0171 -0.6567  0.4574
  125OSM    H5G13293   0.529   2.855   3.622  1.2861 -1.1139  1.4560
  125OSM    C6F13294   0.650   2.982   3.743 -0.6157 -0.2884  0.1514
  125OSM    H6F13295   0.607   3.084   3.730  1.9856  0.7937 -0.7150
  125OSM    H6G13296   0.760   2.993   3.760 -0.6033 -0.3127  0.0863
  125OSM    C7F13297   0.589   2.922   3.868  0.4358 -0.4498 -0.3353
  125OSM    H7F13298   0.612   2.814   3.880 -1.2148 -0.6856  1.3506
  125OSM    H7G13299   0.479   2.938   3.870  0.4760 -0.1753  1.2923
  125OSM    C8F13300   0.644   2.985   4.000 -0.2636  0.3019  0.1133
  125OSM    H8F13301   0.754   2.968   4.006 -0.7655 -3.3540  0.9430
  125OSM    H8G13302   0.612   2.914   4.079 -1.6709  1.1169  0.3076
  125OSM    C9F13303   0.615   3.131   4.037  0.3158 -0.4439 -0.0283
  125OSM    H9F13304   0.539   3.178   3.973  0.6274 -2.6121 -2.1418
  125OSM   C10F13305   0.653   3.201   4.149 -0.3192 -0.2035  0.2185
  125OSM   H10F13306   0.623   3.305   4.166  0.0208 -0.4766  2.8902
  125OSM   C11F13307   0.748   3.159   4.262 -0.5098 -0.2803  0.4938
  125OSM   H11F13308   0.830   3.231   4.280  0.1413 -0.3382 -1.8448
  125OSM   H11G13309   0.810   3.072   4.231  1.1752  0.7991  0.7108
  125OSM   C12F13310   0.664   3.144   4.384  0.2897  0.2454  0.1608
  125OSM   H12F13311   0.577   3.076   4.371 -0.0433  0.2109  2.1345
  125OSM   H12G13312   0.623   3.242   4.417 -3.5440 -1.3267  0.6534
  125OSM   C13F13313   0.733   3.081   4.504 -0.4495 -0.0228 -0.0882
  125OSM   H13F13314   0.833   3.121   4.530 -1.0441  2.1848 -0.9974
  125OSM   H13G13315   0.774   2.984   4.466 -1.8526 -1.2998  1.5067
  125OSM   C14F13316   0.645   3.066   4.629  0.3152 -0.1015  0.2448
  125OSM   H14F13317   0.563   2.992   4.619 -1.5752  1.6783  1.5935
  125OSM   H14G13318   0.597   3.166   4.628  0.5926  0.0474  0.8832
  125OSM   C15F13319   0.724   3.042   4.751  0.1549  0.7351 -0.4910
  125OSM   H15F13320   0.816   3.104   4.754 -0.3894  1.5591  2.3012
  125OSM   H15G13321   0.760   2.937   4.754 -0.3573  0.5638 -0.2899
  125OSM   C16F13322   0.657   3.081   4.883 -0.4865  0.2873  0.5747
  125OSM   H16F13323   0.547   3.094   4.872 -0.3023  0.8491 -0.9389
  125OSM   H16G13324   0.677   3.185   4.915 -0.6274 -0.0215  1.7049
  125OSM   C17F13325   0.700   2.985   4.992 -0.3463 -0.2171  0.0348
  125OSM   H17F13326   0.809   2.970   4.976 -0.4161 -1.0142  0.2870
  125OSM   H17G13327   0.655   2.884   4.988  0.8086 -0.7019 -1.2301
  125OSM   C18F13328   0.678   3.036   5.131  0.1306  0.2174 -0.0195
  125OSM   H18F13329   0.745   3.118   5.165 -1.4790  1.0368  1.3314
  125OSM   H18G13330   0.698   2.949   5.197  1.4089 -0.4424 -1.2323
  125OSM   H18H13331   0.573   3.074   5.135  0.4749  1.1014  0.8846
  126OSM      N13332   6.301   1.821   2.817 -0.3075 -0.7628 -0.1258
  126OSM    C1513333   6.439   1.776   2.782  0.3940 -0.0526  0.5735
  126OSM   H15A13334   6.482   1.702   2.849  1.7137 -1.5755 -1.8145
  126OSM   H15B13335   6.501   1.859   2.750 -1.3848  1.9414  2.0128
  126OSM   H15C13336   6.420   1.732   2.685 -1.2456  1.1989  0.2897
  126OSM    C1413337   6.245   1.919   2.713 -0.2539 -0.2797  0.3346
  126OSM   H14A13338   6.316   1.996   2.687 -1.6096  0.2171 -2.1771
  126OSM   H14B13339   6.154   1.956   2.757 -0.0775 -1.1104  1.4492
  126OSM   H14C13340   6.211   1.858   2.631 -1.4727  0.5960  0.1618
  126OSM    C1313341   6.203   1.708   2.827  0.3791  0.8188  0.3273
  126OSM   H13A13342   6.226   1.650   2.915 -3.2991 -0.8435  0.3691
  126OSM   H13B13343   6.208   1.642   2.742 -0.2158 -0.4185  1.2182
  126OSM   H13C13344   6.098   1.730   2.839 -0.2565 -1.5331 -0.4290
  126OSM    C1213345   6.299   1.891   2.955 -0.1008 -0.4095  0.0015
  126OSM   H12A13346   6.349   1.986   2.944 -2.0206  0.9030  1.8602
  126OSM   H12B13347   6.355   1.838   3.030 -0.4479  1.0576  1.3518
  126OSM    C1113348   6.161   1.919   3.012 -0.5201  0.1188 -0.5599
  126OSM   H11A13349   6.170   1.968   3.111 -0.7677 -1.1989  0.1479
  126OSM   H11B13350   6.108   1.824   3.037  0.8248 -0.9310 -1.5092
  126OSM      P13351   6.068   2.158   2.904  0.1066 -0.3089 -0.2151
  126OSM    O1313352   6.199   2.207   2.853 -0.2106 -0.1789  0.2463
  126OSM    O1413353   5.947   2.184   2.815 -0.7132 -0.2161  0.6159
  126OSM    O1113354   6.046   2.224   3.053  0.0462 -0.5539  0.3510
  126OSM    O1213355   6.077   2.001   2.930 -0.8784  0.0833 -0.8209
  126OSM    C1S13356   5.962   2.179   3.145 -0.5269 -0.5542 -0.0920
  126OSM    H1S13357   5.984   2.072   3.166  2.4732  0.0379  0.1438
  126OSM    H1T13358   5.859   2.180   3.102 -0.1037  1.1212 -1.1462
  126OSM     NF13359   5.891   2.216   3.382 -0.0742  0.1086  0.6435
  126OSM    HNF13360   5.813   2.275   3.400 -1.4296 -1.6162  0.6918
  126OSM    C2S13361   5.975   2.263   3.273 -0.0557 -0.2207 -0.1579
  126OSM    H2S13362   6.081   2.259   3.303  0.1191 -1.5175 -0.9058
  126OSM    C3S13363   5.936   2.409   3.244  0.1530  0.5211 -0.2218
  126OSM    H3S13364   5.827   2.424   3.227  0.1599  2.8262  1.2398
  126OSM     O313365   5.986   2.464   3.121 -0.0543  0.0435 -0.1733
  126OSM    HO313366   6.026   2.386   3.082 -0.7543 -1.4394  1.9313
  126OSM    C4S13367   5.971   2.495   3.366 -0.4085 -0.3536 -0.4629
  126OSM    H4S13368   5.891   2.496   3.443 -0.4738 -1.9305 -0.4677
  126OSM    C5S13369   6.078   2.577   3.388  0.5721 -0.4490 -0.8005
  126OSM    H5S13370   6.151   2.594   3.307 -0.2440  0.8262 -1.2891
  126OSM    C6S13371   6.128   2.652   3.511 -0.0517 -0.0975 -0.4416
  126OSM    H6S13372   6.143   2.759   3.487 -1.3660 -0.0296 -1.0110
  126OSM    H6T13373   6.228   2.615   3.546 -0.1489 -1.5527 -1.5729
  126OSM    C7S13374   6.038   2.667   3.639  0.2082  0.1161  0.7268
  126OSM    H7S13375   6.011   2.564   3.671  2.4945 -0.9298 -0.4617
  126OSM    H7T13376   5.946   2.718   3.605 -0.0389  0.0320  1.2529
  126OSM    C8S13377   6.103   2.750   3.757 -0.6747  0.3389  0.2783
  126OSM    H8S13378   6.134   2.845   3.707  1.5709 -0.7435 -0.5295
  126OSM    H8T13379   6.195   2.693   3.781  0.0115  0.2955 -2.1551
  126OSM    C9S13380   6.018   2.760   3.875  0.1972 -0.8396  0.1715
  126OSM    H9S13381   5.984   2.655   3.895  0.3380 -1.6524 -3.2531
  126OSM    H9T13382   5.929   2.821   3.847  2.0163  1.9937  0.2877
  126OSM   C10S13383   6.091   2.812   4.003 -0.9813 -0.4074 -0.3272
  126OSM   H10S13384   6.154   2.892   3.960  0.0173 -0.3322  1.2065
  126OSM   H10T13385   6.157   2.730   4.040 -0.7724  0.0157  0.2630
  126OSM   C11S13386   6.014   2.854   4.124  0.6294 -0.6072  0.1056
  126OSM   H11S13387   5.961   2.765   4.162 -2.3362  0.0851 -2.0884
  126OSM   H11T13388   5.947   2.937   4.094  3.4709  2.0642  0.5672
  126OSM   C12S13389   6.092   2.903   4.243  0.0308  0.2960 -0.7712
  126OSM   H12S13390   6.123   3.009   4.234 -1.2019  0.8836  1.2219
  126OSM   H12T13391   6.190   2.852   4.256  0.6529  1.9735  2.2078
  126OSM   C13S13392   6.008   2.892   4.376  0.4276  0.4464  0.1042
  126OSM   H13S13393   5.968   2.790   4.395 -1.0167  0.7288 -1.2560
  126OSM   H13T13394   5.915   2.953   4.370  1.1293  1.3658 -2.6777
  126OSM   C14S13395   6.084   2.943   4.500 -0.6607 -0.3254  0.1543
  126OSM   H14S13396   6.066   3.050   4.523 -0.5301 -0.5135  1.1553
  126OSM   H14T13397   6.192   2.921   4.489 -0.5546  0.3995 -0.3010
  126OSM   C15S13398   6.040   2.862   4.627 -0.3648  0.1799  0.4734
  126OSM   H15S13399   6.076   2.757   4.621  1.1478  0.7277 -1.3168
  126OSM   H15T13400   5.929   2.862   4.629 -0.3628  0.5243  0.5644
  126OSM   C16S13401   6.095   2.934   4.752 -0.3101  0.0285  0.9309
  126OSM   H16S13402   6.064   3.039   4.766  1.2257  0.4918  1.0760
  126OSM   H16T13403   6.206   2.930   4.746 -0.2196 -2.6844  2.7977
  126OSM   C17S13404   6.045   2.879   4.885 -0.0379 -0.1689  0.0258
  126OSM   H17S13405   5.943   2.920   4.893 -0.0881  0.7968 -3.5945
  126OSM   H17T13406   6.102   2.926   4.968  0.8266 -1.8222  0.4162
  126OSM   C18S13407   6.050   2.727   4.895  0.5457  0.2807  0.4774
  126OSM   H18S13408   6.150   2.679   4.898 -0.3767 -1.7227  0.5420
  126OSM   H18T13409   6.004   2.680   4.805 -3.3716 -0.0845  2.4434
  126OSM   H18U13410   6.002   2.687   4.987  1.4251  0.1051  0.8747
  126OSM    C1F13411   5.905   2.100   3.446 -0.8098 -0.1193 -0.0797
  126OSM     OF13412   5.971   2.011   3.389  0.0070  0.9662 -0.6489
  126OSM    C2F13413   5.829   2.084   3.577 -0.6819  0.9282  0.0601
  126OSM    H2F13414   5.760   1.997   3.568  1.9207 -1.4857  1.6640
  126OSM    H2G13415   5.761   2.169   3.595 -0.4819  0.8792  1.1590
  126OSM    C3F13416   5.923   2.064   3.692 -0.2017 -0.0780  0.4262
  126OSM    H3F13417   5.972   2.163   3.701 -0.7619  0.2321  0.1400
  126OSM    H3G13418   5.992   1.979   3.672 -1.9777 -1.7137  0.9173
  126OSM    C4F13419   5.853   2.057   3.827 -0.8437  0.0022  0.2893
  126OSM    H4F13420   5.822   1.951   3.843 -0.1909 -0.1213  0.7870
  126OSM    H4G13421   5.764   2.122   3.838 -0.6483  0.2634  0.3316
  126OSM    C5F13422   5.952   2.091   3.945 -1.1794  0.4324 -0.5226
  126OSM    H5F13423   5.964   2.199   3.969 -0.6389 -0.0292  1.4604
  126OSM    H5G13424   6.052   2.052   3.917 -0.9150  1.6219 -1.3162
  126OSM    C6F13425   5.901   2.018   4.065  0.3618  0.5295  0.0240
  126OSM    H6F13426   5.924   1.910   4.054  0.5127  0.4820  0.7474
  126OSM    H6G13427   5.792   2.034   4.078  0.6596  2.9846 -0.0226
  126OSM    C7F13428   5.970   2.082   4.189  0.3227  0.2238  0.6509
  126OSM    H7F13429   6.002   2.188   4.176  2.1170 -0.4937 -1.4464
  126OSM    H7G13430   6.061   2.021   4.207 -0.6970 -1.2685  0.8610
  126OSM    C8F13431   5.887   2.071   4.318  0.2225  0.1636 -0.7050
  126OSM    H8F13432   5.882   1.962   4.341  1.9163 -0.1646 -1.7259
  126OSM    H8G13433   5.789   2.116   4.292  1.3116  2.1463 -1.6506
  126OSM    C9F13434   5.953   2.138   4.443 -1.1237  0.6201  0.4739
  126OSM    H9F13435   5.987   2.241   4.426 -0.6124  0.2281 -1.1006
  126OSM   C10F13436   5.977   2.073   4.557 -0.3552  0.7553  0.1035
  126OSM   H10F13437   6.029   2.134   4.633  0.9803  0.3775 -0.4623
  126OSM   C11F13438   5.957   1.929   4.604  0.1859 -0.2700  0.9650
  126OSM   H11F13439   6.060   1.891   4.587  0.7836  2.2765 -1.8284
  126OSM   H11G13440   5.893   1.860   4.545  2.1524 -1.1943 -0.1813
  126OSM   C12F13441   5.918   1.913   4.747 -0.1748  0.5822  0.1659
  126OSM   H12F13442   5.891   1.806   4.757 -2.5619  1.0804 -0.2917
  126OSM   H12G13443   5.826   1.966   4.778 -0.9480  0.0546 -1.1577
  126OSM   C13F13444   6.038   1.935   4.850  0.1118  0.3591  0.6587
  126OSM   H13F13445   5.999   1.965   4.950  0.3221 -0.0289  0.8571
  126OSM   H13G13446   6.094   2.024   4.813  1.1931  0.0384  1.4661
  126OSM   C14F13447   6.134   1.805   4.858  0.0824  0.3163 -0.1127
  126OSM   H14F13448   6.153   1.763   4.757 -0.0777 -1.0180  0.3983
  126OSM   H14G13449   6.083   1.724   4.914  2.0149  0.3901  1.8874
  126OSM   C15F13450   6.258   1.833   4.947  0.3810  0.6703 -0.7818
  126OSM   H15F13451   6.226   1.854   5.051  2.4547 -0.5295  0.1706
  126OSM   H15G13452   6.316   1.919   4.905  0.5907  1.2592  0.6698
  126OSM   C16F13453   6.358   1.722   4.961 -0.1659 -0.9378  0.1140
  126OSM   H16F13454   6.401   1.691   4.863 -1.1401  0.7981 -0.9081
  126OSM   H16G13455   6.306   1.635   5.006  2.0071 -2.2670  0.2031
  126OSM   C17F13456   6.479   1.772   5.050 -0.0400 -0.3666  1.0723
  126OSM   H17F13457   6.437   1.808   5.147 -0.6371  0.8670  0.3730
  126OSM   H17G13458   6.527   1.861   5.004  1.8197 -1.0163  1.6827
  126OSM   C18F13459   6.581   1.656   5.078 -0.8704 -0.2141  0.0213
  126OSM   H18F13460   6.551   1.592   5.164  1.3079 -1.2674  0.0618
  126OSM   H18G13461   6.684   1.692   5.097 -0.6530 -0.7289 -0.1905
  126OSM   H18H13462   6.583   1.577   5.001 -0.7786  0.9192 -1.1843
  127OSM      N13463   4.609   4.171   2.990 -0.1690 -0.0734  0.2313
  127OSM    C1513464   4.543   4.248   2.875  0.5994 -0.4379 -0.0633
  127OSM   H15A13465   4.577   4.214   2.778 -2.9185 -0.7168 -1.3159
  127OSM   H15B13466   4.560   4.355   2.875  0.2828 -0.3716 -1.3123
  127OSM   H15C13467   4.436   4.238   2.888  0.4375  1.5439  0.4538
  127OSM    C1413468   4.548   4.219   3.117 -0.1383 -0.3883 -0.8150
  127OSM   H14A13469   4.441   4.203   3.115 -0.3436 -0.5284  3.3020
  127OSM   H14B13470   4.567   4.325   3.120 -1.3540 -0.0280 -3.2332
  127OSM   H14C13471   4.582   4.168   3.206 -0.6106  0.5916 -0.0587
  127OSM    C1313472   4.582   4.026   2.978  0.1600 -0.4687  0.8262
  127OSM   H13A13473   4.616   3.990   2.882  0.2679 -0.2941  0.7982
  127OSM   H13B13474   4.476   4.007   2.976 -0.3420  1.9302  1.8443
  127OSM   H13C13475   4.637   3.969   3.052 -0.2650 -0.8017  0.8872
  127OSM    C1213476   4.750   4.200   3.000 -0.3086  0.1104  0.0474
  127OSM   H12A13477   4.769   4.306   3.009 -1.5317  0.4292 -0.9777
  127OSM   H12B13478   4.806   4.164   2.915  1.6127 -0.5803  1.5192
  127OSM    C1113479   4.830   4.161   3.131  0.1188  0.7909  0.0825
  127OSM   H11A13480   4.774   4.205   3.217  0.2080  1.2122 -0.0700
  127OSM   H11B13481   4.928   4.212   3.143  0.0688  0.4581  2.2475
  127OSM      P13482   4.955   3.937   3.074 -0.2008 -0.4241  0.0345
  127OSM    O1313483   4.928   3.792   3.093 -0.4168  0.5675  0.1503
  127OSM    O1413484   4.970   3.978   2.931 -0.5399  0.0585  0.1930
  127OSM    O1113485   5.085   3.977   3.145 -0.0734 -0.4884  0.0668
  127OSM    O1213486   4.842   4.021   3.149  0.3252 -0.0405  0.1871
  127OSM    C1S13487   5.084   3.977   3.288  0.7004 -0.2943 -0.1986
  127OSM    H1S13488   5.015   3.898   3.325 -0.3642  0.7982  0.2188
  127OSM    H1T13489   5.041   4.069   3.331 -1.9643 -0.9360 -1.2822
  127OSM     NF13490   5.223   3.949   3.502 -0.1115  0.2191 -0.3317
  127OSM    HNF13491   5.278   4.022   3.541 -1.2586 -0.3421  2.6211
  127OSM    C2S13492   5.221   3.944   3.353  0.2624  0.2048 -0.5664
  127OSM    H2S13493   5.255   3.844   3.320  1.4719  0.2336  0.5085
  127OSM    C3S13494   5.336   4.031   3.299  0.2275 -0.8097 -0.3261
  127OSM    H3S13495   5.303   4.136   3.313 -3.6095 -2.0926  1.4683
  127OSM     O313496   5.357   4.036   3.158 -0.1864  0.4094  0.4163
  127OSM    HO313497   5.281   3.999   3.113  0.0701 -0.2477  0.5176
  127OSM    C4S13498   5.468   3.999   3.357  0.0312  0.7797  0.1860
  127OSM    H4S13499   5.523   3.915   3.313 -1.2428 -0.0096  0.0461
  127OSM    C5S13500   5.521   4.065   3.464  0.0478 -0.1899  0.2121
  127OSM    H5S13501   5.460   4.150   3.501 -0.7123  0.0887 -1.5747
  127OSM    C6S13502   5.648   4.037   3.533 -0.2465 -0.6392  1.0437
  127OSM    H6S13503   5.656   4.104   3.621 -1.2529  0.2038  0.5064
  127OSM    H6T13504   5.730   4.056   3.461 -3.2245  2.0831 -1.9489
  127OSM    C7S13505   5.655   3.896   3.588 -0.4203  0.0124  0.5625
  127OSM    H7S13506   5.651   3.825   3.503 -1.6767 -0.3256  0.8902
  127OSM    H7T13507   5.567   3.871   3.651 -1.1203 -1.4867 -0.9441
  127OSM    C8S13508   5.783   3.873   3.668 -0.2427 -0.3401 -0.9894
  127OSM    H8S13509   5.864   3.937   3.627  1.3391 -0.7617  1.2747
  127OSM    H8T13510   5.830   3.773   3.656  1.1241  0.1055  0.3096
  127OSM    C9S13511   5.770   3.906   3.823  0.7576 -0.0119 -0.5713
  127OSM    H9S13512   5.682   3.853   3.863 -0.3007  1.9053 -0.2409
  127OSM    H9T13513   5.747   4.014   3.834  4.0536  0.6664  0.6851
  127OSM   C10S13514   5.895   3.886   3.911  0.0327  0.1115 -0.4924
  127OSM   H10S13515   5.975   3.937   3.852 -0.9847  0.4809 -1.6071
  127OSM   H10T13516   5.922   3.780   3.932 -1.3122 -0.2961 -0.7233
  127OSM   C11S13517   5.884   3.957   4.044  0.6776 -0.6535  0.4000
  127OSM   H11S13518   5.780   3.949   4.080  0.7869  0.7040  1.0676
  127OSM   H11T13519   5.905   4.066   4.041 -2.7025  0.0764  0.3091
  127OSM   C12S13520   5.973   3.923   4.166  0.2783  0.6319 -0.5585
  127OSM   H12S13521   6.080   3.929   4.137 -0.1675  1.3119 -2.2438
  127OSM   H12T13522   5.952   3.816   4.188 -0.5816  0.8158 -0.4553
  127OSM   C13S13523   5.945   4.015   4.283 -0.5784  0.1140  0.2193
  127OSM   H13S13524   5.836   4.017   4.306 -1.1102 -2.4346 -1.6415
  127OSM   H13T13525   5.977   4.117   4.251  2.8789 -1.3283 -1.4110
  127OSM   C14S13526   6.020   3.982   4.409  0.5190 -0.0769  0.3377
  127OSM   H14S13527   6.126   4.014   4.394  0.3361  0.1884 -0.4203
  127OSM   H14T13528   6.023   3.874   4.437  1.8427 -0.3609 -0.7819
  127OSM   C15S13529   5.971   4.068   4.527 -0.0765 -0.0714  0.2142
  127OSM   H15S13530   5.920   4.150   4.472 -0.7734 -0.7976 -0.2537
  127OSM   H15T13531   6.048   4.116   4.590  0.5396 -0.7578 -0.0037
  127OSM   C16S13532   5.878   3.984   4.606  0.1545  0.0116 -0.7846
  127OSM   H16S13533   5.932   3.894   4.643 -0.4406  0.0974  0.3273
  127OSM   H16T13534   5.795   3.951   4.538  0.8701  0.2088 -1.7706
  127OSM   C17S13535   5.815   4.051   4.726  0.9604  1.4450 -0.5049
  127OSM   H17S13536   5.741   4.125   4.688  0.1245  1.4569  1.0586
  127OSM   H17T13537   5.895   4.103   4.782  0.7299  0.0433  1.2200
  127OSM   C18S13538   5.747   3.951   4.826 -0.6841  1.0450  0.4730
  127OSM   H18S13539   5.672   3.890   4.772 -1.0602  2.4242 -0.6184
  127OSM   H18T13540   5.695   4.005   4.908 -0.3651  0.7260  0.8895
  127OSM   H18U13541   5.816   3.873   4.866 -0.3994  1.2187  0.3191
  127OSM    C1F13542   5.154   3.872   3.583  0.3872  0.1230 -0.1993
  127OSM     OF13543   5.077   3.782   3.539  0.2645 -0.8271  0.2019
  127OSM    C2F13544   5.170   3.901   3.723  0.1150 -0.1942 -0.8761
  127OSM    H2F13545   5.116   3.994   3.751  0.7766 -0.2244  0.5669
  127OSM    H2G13546   5.279   3.918   3.737 -0.4983  2.6133  1.4430
  127OSM    C3F13547   5.121   3.781   3.803  0.0839 -0.6746 -0.5783
  127OSM    H3F13548   5.194   3.702   3.778  1.1722  0.8796 -2.7195
  127OSM    H3G13549   5.013   3.759   3.790  0.4067 -1.4361 -2.3222
  127OSM    C4F13550   5.126   3.816   3.952 -0.1358 -0.0663  0.0078
  127OSM    H4F13551   5.097   3.731   4.018  3.5565 -0.7750  1.0023
  127OSM    H4G13552   5.071   3.909   3.978 -0.2655 -0.5606  1.6631
  127OSM    C5F13553   5.266   3.848   4.005 -0.1717 -0.7977 -1.0231
  127OSM    H5F13554   5.258   3.890   4.107 -0.3273 -0.2093 -1.2719
  127OSM    H5G13555   5.312   3.936   3.954  1.0702 -0.2583  0.9270
  127OSM    C6F13556   5.363   3.730   3.994  0.3265 -0.2281  0.3330
  127OSM    H6F13557   5.406   3.723   3.891  0.6825  0.3147  0.4449
  127OSM    H6G13558   5.310   3.633   4.008  4.4155 -2.8149 -0.3356
  127OSM    C7F13559   5.473   3.730   4.099  0.3054  0.6823 -0.0845
  127OSM    H7F13560   5.437   3.727   4.204 -1.0444 -1.1355 -0.5520
  127OSM    H7G13561   5.536   3.821   4.087  0.9455  0.1755 -0.7313
  127OSM    C8F13562   5.564   3.602   4.093 -0.5743 -0.7666 -0.1148
  127OSM    H8F13563   5.602   3.587   3.990 -0.9064 -1.6770 -0.1223
  127OSM    H8G13564   5.509   3.512   4.130 -0.4701 -0.6156  0.4119
  127OSM    C9F13565   5.676   3.636   4.192 -0.4221  0.3142 -0.1739
  127OSM    H9F13566   5.742   3.718   4.160 -1.1609  0.9196 -0.1815
  127OSM   C10F13567   5.700   3.584   4.312  0.5208 -0.1619 -0.3136
  127OSM   H10F13568   5.771   3.631   4.382 -0.9139 -0.1977  1.2286
  127OSM   C11F13569   5.615   3.487   4.383 -0.4659 -0.0845  0.3896
  127OSM   H11F13570   5.669   3.390   4.373 -1.1132 -0.4253  0.1013
  127OSM   H11G13571   5.530   3.455   4.319  1.5774 -1.8572 -1.5894
  127OSM   C12F13572   5.550   3.532   4.518 -0.1621  0.1442  0.6190
  127OSM   H12F13573   5.474   3.453   4.534  1.4496 -1.6054  0.0556
  127OSM   H12G13574   5.506   3.633   4.521 -2.6478 -0.8557  0.1651
  127OSM   C13F13575   5.648   3.509   4.634 -0.2111 -1.4524 -0.5006
  127OSM   H13F13576   5.728   3.585   4.621 -1.9024  0.6410  0.7576
  127OSM   H13G13577   5.698   3.412   4.612 -0.5054 -1.5568 -0.7237
  127OSM   C14F13578   5.589   3.517   4.766 -0.1521 -0.3501  0.4764
  127OSM   H14F13579   5.520   3.437   4.798  0.5205 -0.8689  0.6579
  127OSM   H14G13580   5.526   3.608   4.777 -0.3838 -0.6173  1.4353
  127OSM   C15F13581   5.696   3.524   4.874 -0.1944 -0.2334  0.1928
  127OSM   H15F13582   5.785   3.577   4.834 -0.1495 -0.4796 -0.0371
  127OSM   H15G13583   5.730   3.426   4.914  1.2587  0.4766  0.7999
  127OSM   C16F13584   5.643   3.599   4.999  0.6745 -0.3751 -0.0249
  127OSM   H16F13585   5.553   3.543   5.034  0.3308  0.4347  0.4156
  127OSM   H16G13586   5.606   3.699   4.968  0.7430 -1.0487 -2.4380
  127OSM   C17F13587   5.724   3.611   5.129 -1.0439  0.3275 -0.0468
  127OSM   H17F13588   5.771   3.517   5.167 -0.9144  0.8437  1.1085
  127OSM   H17G13589   5.662   3.639   5.217  0.3974 -0.6141  1.3278
  127OSM   C18F13590   5.833   3.710   5.111 -0.2192  0.4152 -0.3290
  127OSM   H18F13591   5.887   3.735   5.205 -0.9793  3.6220 -0.6071
  127OSM   H18G13592   5.799   3.806   5.067  3.8394  2.1156 -0.2327
  127OSM   H18H13593   5.895   3.664   5.031 -0.9012  2.1502 -1.9502
  128OSM      N13594   5.704   2.509   2.841 -0.0736 -1.1170 -0.2318
  128OSM    C1513595   5.834   2.478   2.774  0.0385  1.0019 -0.0679
  128OSM   H15A13596   5.907   2.545   2.816  0.4069  0.8027 -0.3792
  128OSM   H15B13597   5.832   2.509   2.670 -0.3799  2.0500  0.2377
  128OSM   H15C13598   5.873   2.379   2.789  2.0785  2.0032  1.6806
  128OSM    C1413599   5.670   2.652   2.827  0.4938 -0.1647 -0.3726
  128OSM   H14A13600   5.655   2.684   2.725  0.9110 -1.2290 -0.7874
  128OSM   H14B13601   5.734   2.722   2.877 -0.4542  0.4531  0.0034
  128OSM   H14C13602   5.576   2.677   2.875  2.1629  2.5801  1.7435
  128OSM    C1313603   5.584   2.432   2.777  0.8137  0.0663 -0.2279
  128OSM   H13A13604   5.501   2.446   2.845  2.4044 -2.0883  2.3883
  128OSM   H13B13605   5.611   2.328   2.776 -0.6436 -0.3380  0.2894
  128OSM   H13C13606   5.557   2.480   2.684 -1.9810 -0.8522  0.0144
  128OSM    C1213607   5.713   2.472   2.988  0.8440 -0.5790 -0.7542
  128OSM   H12A13608   5.793   2.529   3.032  1.4269 -1.6168 -0.4599
  128OSM   H12B13609   5.743   2.370   2.999 -1.4504 -1.0584  2.3561
  128OSM    C1113610   5.584   2.488   3.077 -0.0514  0.6785 -0.6544
  128OSM   H11A13611   5.541   2.590   3.067  1.8146  1.8131  1.8270
  128OSM   H11B13612   5.612   2.477   3.184 -1.7235  2.3568 -0.0098
  128OSM      P13613   5.479   2.244   3.094 -0.0797 -0.5710 -0.0829
  128OSM    O1313614   5.370   2.174   3.030  0.7782  0.3200  0.1866
  128OSM    O1413615   5.610   2.182   3.071  0.3002 -0.1883 -0.6041
  128OSM    O1113616   5.452   2.256   3.249  0.2216  0.1919 -0.0378
  128OSM    O1213617   5.482   2.391   3.041 -0.5561 -0.1728 -0.1759
  128OSM    C1S13618   5.347   2.329   3.310  0.1151  0.0850  0.1866
  128OSM    H1S13619   5.246   2.284   3.308  0.6539 -1.3038  1.4978
  128OSM    H1T13620   5.337   2.428   3.261 -1.6761 -0.2718 -0.2098
  128OSM     NF13621   5.265   2.417   3.522  0.4933 -0.2669 -0.2889
  128OSM    HNF13622   5.274   2.513   3.547  0.7965 -0.1114 -0.9638
  128OSM    C2S13623   5.385   2.361   3.459 -0.0025  0.1572 -0.1442
  128OSM    H2S13624   5.399   2.271   3.523 -2.4614  0.0734  0.3656
  128OSM    C3S13625   5.514   2.439   3.477 -0.0822 -0.3936 -0.7474
  128OSM    H3S13626   5.498   2.538   3.429 -0.6699 -0.8801 -1.5842
  128OSM     O313627   5.629   2.375   3.423 -0.8465  0.1400 -0.5041
  128OSM    HO313628   5.594   2.318   3.354  1.3745  0.4926 -2.0081
  128OSM    C4S13629   5.535   2.473   3.626 -0.6525 -0.0472 -0.8262
  128OSM    H4S13630   5.475   2.561   3.655 -0.6188  0.9585 -3.4790
  128OSM    C5S13631   5.612   2.418   3.716  0.2948 -0.5461 -0.6374
  128OSM    H5S13632   5.674   2.336   3.679 -0.1816 -2.4260  2.3943
  128OSM    C6S13633   5.619   2.449   3.856 -0.2142 -0.9815 -0.3897
  128OSM    H6S13634   5.629   2.354   3.913 -1.4261 -2.5067 -2.5695
  128OSM    H6T13635   5.518   2.486   3.885  1.1974  3.1323  0.0243
  128OSM    C7S13636   5.732   2.549   3.898  0.9393 -0.0176 -0.4617
  128OSM    H7S13637   5.715   2.642   3.840  1.3149 -1.1263 -2.4359
  128OSM    H7T13638   5.831   2.515   3.858 -1.4871 -2.1859 -5.5281
  128OSM    C8S13639   5.735   2.578   4.046  0.4976 -0.4011  0.5246
  128OSM    H8S13640   5.642   2.625   4.085  0.2418 -0.7076  0.2908
  128OSM    H8T13641   5.814   2.655   4.055 -0.8302  1.1855 -0.7465
  128OSM    C9S13642   5.772   2.461   4.136  0.7358  0.7114  0.7681
  128OSM    H9S13643   5.863   2.413   4.093  0.6352  0.8988  0.3382
  128OSM    H9T13644   5.692   2.385   4.125  0.3960  1.0100  1.1443
  128OSM   C10S13645   5.817   2.504   4.272 -0.3380 -0.1233 -0.4353
  128OSM   H10S13646   5.903   2.573   4.263  1.0636 -1.8591 -0.7499
  128OSM   H10T13647   5.850   2.413   4.326 -0.0020  0.1762 -0.1318
  128OSM   C11S13648   5.703   2.567   4.360 -0.5766 -0.5764  0.3142
  128OSM   H11S13649   5.606   2.512   4.358 -2.0419  1.8481 -0.4247
  128OSM   H11T13650   5.688   2.667   4.312  0.0350 -0.5142  0.2516
  128OSM   C12S13651   5.728   2.600   4.506  1.1132  0.3406 -0.4590
  128OSM   H12S13652   5.657   2.679   4.536  2.0580  1.5520 -1.3303
  128OSM   H12T13653   5.825   2.653   4.500  0.7451  1.2638  1.2652
  128OSM   C13S13654   5.733   2.473   4.596 -0.0642  0.4484  0.1546
  128OSM   H13S13655   5.773   2.383   4.544  1.4370  0.8569  0.5382
  128OSM   H13T13656   5.635   2.442   4.636  1.1041 -1.4556  1.7030
  128OSM   C14S13657   5.815   2.493   4.717 -0.2205  0.4520 -0.2101
  128OSM   H14S13658   5.809   2.585   4.779  0.9670 -0.8847  2.0292
  128OSM   H14T13659   5.919   2.496   4.677 -0.1896  0.4358 -0.1309
  128OSM   C15S13660   5.801   2.369   4.808 -0.1453 -0.0175  0.5305
  128OSM   H15S13661   5.845   2.284   4.752  1.2384  0.2260  1.1930
  128OSM   H15T13662   5.695   2.343   4.827 -0.4094  0.6167 -0.0129
  128OSM   C16S13663   5.888   2.373   4.934  0.5676  0.2620  0.0076
  128OSM   H16S13664   5.872   2.470   4.986 -0.4154  0.0591  0.1179
  128OSM   H16T13665   5.996   2.366   4.913  1.0105  0.8756  1.9006
  128OSM   C17S13666   5.842   2.276   5.048 -0.9676 -0.1730  0.7601
  128OSM   H17S13667   5.824   2.174   5.007 -0.9339  0.3561 -0.6064
  128OSM   H17T13668   5.747   2.302   5.099 -1.9424 -3.8528  1.1618
  128OSM   C18S13669   5.950   2.258   5.161 -0.8495  0.0244 -0.5952
  128OSM   H18S13670   6.050   2.242   5.115 -0.0292 -1.3508  1.5547
  128OSM   H18T13671   5.930   2.174   5.229  0.5042  1.5506  1.8420
  128OSM   H18U13672   5.941   2.355   5.215 -2.7139 -0.0994 -0.6248
  128OSM    C1F13673   5.154   2.348   3.542 -0.2373  0.0514 -0.8080
  128OSM     OF13674   5.155   2.226   3.540  0.5141  0.5997  0.5115
  128OSM    C2F13675   5.036   2.430   3.565  0.5634  0.3686  0.4128
  128OSM    H2F13676   4.977   2.432   3.471 -1.8947  0.4946  1.8759
  128OSM    H2G13677   5.065   2.536   3.582  1.3663  0.0663  0.9670
  128OSM    C3F13678   4.938   2.397   3.688  0.0864 -0.5890 -0.0136
  128OSM    H3F13679   4.891   2.298   3.669 -1.6433  0.4010 -1.2334
  128OSM    H3G13680   4.848   2.463   3.688  0.2839 -0.3161 -0.2548
  128OSM    C4F13681   4.991   2.423   3.827 -0.2014  0.1114 -0.1893
  128OSM    H4F13682   5.061   2.509   3.838 -0.6035  0.3472  0.5333
  128OSM    H4G13683   5.058   2.335   3.845 -2.1481 -1.8330 -1.9405
  128OSM    C5F13684   4.888   2.429   3.937  0.6884  0.3508 -1.3899
  128OSM    H5F13685   4.820   2.343   3.919 -0.5451  0.9669  0.0291
  128OSM    H5G13686   4.826   2.521   3.947 -0.1559 -0.2878 -0.4634
  128OSM    C6F13687   4.941   2.398   4.081  0.0166  0.0663 -0.6929
  128OSM    H6F13688   5.014   2.475   4.111 -0.5428  0.7644 -1.0961
  128OSM    H6G13689   4.994   2.301   4.066  0.9951  0.1567  1.8057
  128OSM    C7F13690   4.830   2.384   4.189 -0.0197 -0.3332 -0.3924
  128OSM    H7F13691   4.761   2.301   4.163 -0.1329 -0.3265 -0.1103
  128OSM    H7G13692   4.776   2.481   4.185 -1.3597 -1.0429  0.0371
  128OSM    C8F13693   4.895   2.361   4.327 -0.2304  0.2737 -0.2686
  128OSM    H8F13694   4.936   2.460   4.358 -0.7214  0.4122 -0.0547
  128OSM    H8G13695   4.978   2.288   4.313  1.3638  2.1715 -1.3001
  128OSM    C9F13696   4.789   2.321   4.423 -0.3616  0.5884  0.1432
  128OSM    H9F13697   4.709   2.270   4.368 -0.6789 -1.8605  2.6707
  128OSM   C10F13698   4.776   2.354   4.554  0.6883  0.1697  0.3297
  128OSM   H10F13699   4.677   2.328   4.594 -0.7603  0.1977 -2.9065
  128OSM   C11F13700   4.884   2.422   4.644  0.7900  0.3778 -0.4979
  128OSM   H11F13701   4.849   2.408   4.749  0.7961 -1.9442 -0.7455
  128OSM   H11G13702   4.887   2.531   4.622  2.4994  0.2511 -0.9863
  128OSM   C12F13703   5.032   2.376   4.627  0.3078  0.3939 -0.1008
  128OSM   H12F13704   5.065   2.398   4.523  1.8630 -1.5199 -0.0555
  128OSM   H12G13705   5.036   2.266   4.642  0.0675  0.3643 -0.2536
  128OSM   C13F13706   5.135   2.434   4.732 -0.5178 -0.0072  1.0323
  128OSM   H13F13707   5.138   2.545   4.734 -1.3510  0.0077  1.7970
  128OSM   H13G13708   5.235   2.398   4.698 -0.7089  0.8983 -0.6130
  128OSM   C14F13709   5.113   2.371   4.874  0.3427  0.2339 -0.5572
  128OSM   H14F13710   5.087   2.264   4.859 -1.5590  0.6233 -0.2971
  128OSM   H14G13711   5.019   2.408   4.921  0.5131 -1.2685  1.0901
  128OSM   C15F13712   5.227   2.394   4.965  0.3535 -0.1361 -0.3128
  128OSM   H15F13713   5.251   2.502   4.979  2.9910 -0.8699  1.7738
  128OSM   H15G13714   5.316   2.339   4.929  0.6912  0.8098 -0.9808
  128OSM   C16F13715   5.199   2.340   5.106 -0.9595  0.0169 -0.1063
  128OSM   H16F13716   5.180   2.231   5.097  1.7771 -0.4071 -1.7507
  128OSM   H16G13717   5.117   2.395   5.158 -1.8386 -0.2713 -1.1457
  128OSM   C17F13718   5.320   2.364   5.195  0.2852  0.1672  0.0818
  128OSM   H17F13719   5.347   2.472   5.187  1.9191  0.2680  4.3195
  128OSM   H17G13720   5.404   2.301   5.161  0.5643 -0.0642  1.1566
  128OSM   C18F13721   5.299   2.324   5.346  0.0511  0.6492  0.3291
  128OSM   H18F13722   5.270   2.216   5.350  0.9495  0.0683 -3.9806
  128OSM   H18G13723   5.214   2.368   5.402 -0.4682 -0.5086  0.4769
  128OSM   H18H13724   5.395   2.339   5.400 -0.1880  1.0917  0.6401
  129OSM      N13725   6.360   2.584   2.841  0.6003 -0.0170  0.5771
  129OSM    C1513726   6.281   2.571   2.721 -0.1934  0.4279 -0.1305
  129OSM   H15A13727   6.181   2.605   2.744 -0.2439 -0.5743  1.2128
  129OSM   H15B13728   6.286   2.472   2.680 -0.9272  1.1319 -2.0332
  129OSM   H15C13729   6.310   2.627   2.633 -1.3857  1.5840  0.1773
  129OSM    C1413730   6.327   2.707   2.912 -0.7227 -0.0007  0.1400
  129OSM   H14A13731   6.380   2.712   3.006  0.1613 -0.8575 -0.2886
  129OSM   H14B13732   6.224   2.716   2.940 -0.5271  3.8895  0.1719
  129OSM   H14C13733   6.343   2.797   2.854  1.1046  0.5295  1.3871
  129OSM    C1313734   6.323   2.474   2.933  0.2355  0.5932 -0.6377
  129OSM   H13A13735   6.318   2.374   2.892  0.1642  0.8143 -1.1768
  129OSM   H13B13736   6.223   2.484   2.972  0.7294 -0.4412  0.9725
  129OSM   H13C13737   6.384   2.469   3.022  0.7026 -0.3079 -0.9947
  129OSM    C1213738   6.512   2.590   2.815 -0.1715 -0.2571  0.8896
  129OSM   H12A13739   6.560   2.611   2.909 -1.3586  0.5905  1.3303
  129OSM   H12B13740   6.536   2.673   2.750  0.4787 -1.5570 -0.6210
  129OSM    C1113741   6.579   2.464   2.749  0.1991 -0.3579 -0.3838
  129OSM   H11A13742   6.670   2.496   2.693  0.3140  0.8956  0.4753
  129OSM   H11B13743   6.522   2.424   2.662  0.0502  0.6546 -0.7762
  129OSM      P13744   6.725   2.385   2.949 -0.0376 -0.5755  0.4444
  129OSM    O1313745   6.781   2.257   2.979 -0.1836  0.1446 -0.4600
  129OSM    O1413746   6.818   2.490   2.896  0.1267  0.3865  0.5693
  129OSM    O1113747   6.639   2.441   3.068  0.5854  0.1759 -0.3107
  129OSM    O1213748   6.607   2.361   2.851  0.9834  0.3041  0.5272
  129OSM    C1S13749   6.557   2.349   3.148  0.7388 -0.3012  0.1076
  129OSM    H1S13750   6.587   2.242   3.148 -0.7516 -0.7801  2.2780
  129OSM    H1T13751   6.448   2.355   3.127  0.5626  0.8555  1.2690
  129OSM     NF13752   6.543   2.283   3.388 -0.0258  0.1688  0.7603
  129OSM    HNF13753   6.458   2.258   3.433 -0.3799  0.5043  0.2736
  129OSM    C2S13754   6.558   2.395   3.298 -0.1275  0.3943  0.1231
  129OSM    H2S13755   6.658   2.442   3.315  0.3067 -0.3201 -0.3843
  129OSM    C3S13756   6.453   2.507   3.322 -0.2555  0.0317  0.2313
  129OSM    H3S13757   6.349   2.469   3.329 -1.9809  3.8394 -1.9598
  129OSM     O313758   6.460   2.595   3.212  0.1566 -0.3023 -0.2053
  129OSM    HO313759   6.536   2.559   3.167  1.4532  1.2051  0.6603
  129OSM    C4S13760   6.495   2.580   3.449  0.5280 -0.7320 -0.1228
  129OSM    H4S13761   6.457   2.521   3.534 -0.3538  0.8288  0.6278
  129OSM    C5S13762   6.537   2.705   3.469 -0.4421 -0.0309 -0.6207
  129OSM    H5S13763   6.539   2.772   3.383  2.2850  0.9736  0.1234
  129OSM    C6S13764   6.548   2.767   3.608  0.9638 -0.4811 -0.2305
  129OSM    H6S13765   6.517   2.873   3.597  0.0326 -0.5869  1.1738
  129OSM    H6T13766   6.656   2.780   3.633  1.3955 -2.2834 -1.0250
  129OSM    C7S13767   6.482   2.699   3.729  0.2402 -0.1518  0.2171
  129OSM    H7S13768   6.537   2.604   3.746 -2.1320 -1.4636  1.1988
  129OSM    H7T13769   6.376   2.678   3.702  0.2037  1.8346 -1.4798
  129OSM    C8S13770   6.492   2.797   3.847 -0.4995  0.2441 -0.9483
  129OSM    H8S13771   6.430   2.888   3.841 -0.8827 -0.0652 -1.8181
  129OSM    H8T13772   6.600   2.825   3.841  0.2585 -2.1395  0.0953
  129OSM    C9S13773   6.476   2.734   3.989 -0.0235  0.3376 -0.4735
  129OSM    H9S13774   6.542   2.645   4.000  1.7465  1.7504  0.6854
  129OSM    H9T13775   6.369   2.705   3.994 -0.5685  2.3854  0.2352
  129OSM   C10S13776   6.505   2.824   4.115 -0.0973 -0.2771 -0.3855
  129OSM   H10S13777   6.423   2.898   4.128  0.0281  0.0444 -1.3809
  129OSM   H10T13778   6.601   2.876   4.096 -0.4145  0.0995 -0.9828
  129OSM   C11S13779   6.507   2.748   4.250 -0.4794  0.6737  1.1006
  129OSM   H11S13780   6.578   2.663   4.239  0.4939  1.4968  0.9118
  129OSM   H11T13781   6.412   2.695   4.273  0.1762 -1.9228 -1.6049
  129OSM   C12S13782   6.546   2.844   4.361  0.3712 -0.7024  0.5091
  129OSM   H12S13783   6.464   2.916   4.381  0.2039  0.1197 -2.6654
  129OSM   H12T13784   6.636   2.906   4.337  0.8414 -1.5080  0.1678
  129OSM   C13S13785   6.573   2.768   4.491  0.4961 -0.2211 -0.2648
  129OSM   H13S13786   6.659   2.706   4.457  2.1071  1.2429  0.9579
  129OSM   H13T13787   6.494   2.692   4.512 -0.0094 -0.4887 -2.7971
  129OSM   C14S13788   6.606   2.853   4.612 -0.4214  0.0042  0.6411
  129OSM   H14S13789   6.518   2.909   4.649  0.5430  1.0658  1.4229
  129OSM   H14T13790   6.686   2.927   4.589 -0.8027 -0.5267 -2.9835
  129OSM   C15S13791   6.652   2.784   4.736 -0.7801  0.2103  0.0091
  129OSM   H15S13792   6.663   2.863   4.813  0.3566 -0.1617  0.2447
  129OSM   H15T13793   6.754   2.741   4.735 -1.2197 -0.8619 -0.8822
  129OSM   C16S13794   6.549   2.688   4.799 -0.0812 -0.2657  0.3302
  129OSM   H16S13795   6.526   2.606   4.727  0.9664  0.3632 -0.7451
  129OSM   H16T13796   6.450   2.739   4.809 -0.3205 -0.6333 -0.0954
  129OSM   C17S13797   6.600   2.629   4.934 -0.3924  0.1197 -0.0306
  129OSM   H17S13798   6.705   2.598   4.918 -1.0743 -1.6188 -1.6077
  129OSM   H17T13799   6.541   2.536   4.954 -2.2661  1.4209  0.7988
  129OSM   C18S13800   6.590   2.718   5.056  0.1891 -0.7632 -0.0773
  129OSM   H18S13801   6.624   2.664   5.146 -1.2060  0.4324  1.2204
  129OSM   H18T13802   6.488   2.757   5.079  0.5997 -1.1740  2.8240
  129OSM   H18U13803   6.652   2.808   5.043 -4.2889  2.3034 -3.3289
  129OSM    C1F13804   6.651   2.208   3.401  0.3318 -0.1558 -0.3817
  129OSM     OF13805   6.759   2.258   3.388 -0.8037  0.0548 -1.0258
  129OSM    C2F13806   6.632   2.064   3.444  0.8703 -0.3827 -0.4610
  129OSM    H2F13807   6.634   2.004   3.351  3.3494 -1.8842  0.4758
  129OSM    H2G13808   6.529   2.057   3.486  0.8613  2.0330  0.0565
  129OSM    C3F13809   6.741   2.004   3.528 -0.5228  0.6872  0.8661
  129OSM    H3F13810   6.834   2.001   3.467 -1.3819  1.2894 -0.5150
  129OSM    H3G13811   6.702   1.901   3.543 -0.8709  0.6688 -0.1144
  129OSM    C4F13812   6.763   2.060   3.671  0.5953  1.3075 -0.1171
  129OSM    H4F13813   6.675   2.031   3.733  0.8245 -1.7718 -1.0700
  129OSM    H4G13814   6.777   2.170   3.669  1.4747  1.1874 -1.6396
  129OSM    C5F13815   6.895   2.000   3.727  0.0829  0.1829  0.8604
  129OSM    H5F13816   6.966   2.000   3.642 -0.4521 -1.3288  0.3699
  129OSM    H5G13817   6.870   1.896   3.757 -0.2330 -0.8257 -2.4588
  129OSM    C6F13818   6.952   2.078   3.841 -0.4651 -0.2412 -0.2074
  129OSM    H6F13819   6.965   2.187   3.822 -1.1546 -0.4578 -2.1590
  129OSM    H6G13820   7.044   2.025   3.875 -0.9838 -1.0074  0.0356
  129OSM    C7F13821   6.848   2.060   3.959  0.1011 -0.0948 -0.2256
  129OSM    H7F13822   6.787   1.970   3.941  1.3953 -1.2941  1.0870
  129OSM    H7G13823   6.780   2.147   3.958 -0.9060 -0.7996  1.6034
  129OSM    C8F13824   6.911   2.057   4.096  0.5295 -0.4345 -0.1084
  129OSM    H8F13825   6.978   2.144   4.114 -1.1263  1.3072 -2.0174
  129OSM    H8G13826   6.973   1.965   4.101 -0.4366 -1.1150 -0.4441
  129OSM    C9F13827   6.821   2.042   4.211  0.8826 -0.4879  0.1137
  129OSM    H9F13828   6.760   1.951   4.202  1.5263 -0.8805 -0.4172
  129OSM   C10F13829   6.789   2.131   4.307  0.7065 -0.1627 -0.1430
  129OSM   H10F13830   6.717   2.087   4.379  0.1163 -0.6082 -0.9897
  129OSM   C11F13831   6.850   2.267   4.333 -0.3073  0.3776  0.4070
  129OSM   H11F13832   6.765   2.337   4.345 -1.7164 -0.9109 -1.4107
  129OSM   H11G13833   6.913   2.292   4.244  0.2197 -2.3189 -0.0731
  129OSM   C12F13834   6.939   2.275   4.456 -0.0806 -0.8113  0.0502
  129OSM   H12F13835   7.014   2.357   4.446 -0.3655 -0.2657  1.9650
  129OSM   H12G13836   6.994   2.179   4.465  2.2562  0.0360 -3.2536
  129OSM   C13F13837   6.865   2.290   4.592  0.2967  0.1198 -0.0428
  129OSM   H13F13838   6.784   2.216   4.609 -0.6338  1.0518 -0.2692
  129OSM   H13G13839   6.805   2.382   4.580 -1.0975 -0.1749  3.3602
  129OSM   C14F13840   6.961   2.310   4.706  0.6207  0.6884  0.4035
  129OSM   H14F13841   7.034   2.390   4.683 -0.7170  2.2225  1.3062
  129OSM   H14G13842   7.022   2.218   4.715 -0.2581 -0.1411 -1.5497
  129OSM   C15F13843   6.906   2.356   4.845 -0.7893  0.1213 -0.0683
  129OSM   H15F13844   6.832   2.276   4.868 -0.5740 -0.7651 -2.2908
  129OSM   H15G13845   6.844   2.447   4.833  0.9954  1.3963  0.0382
  129OSM   C16F13846   7.012   2.380   4.951  0.0023  0.0749 -0.1534
  129OSM   H16F13847   7.072   2.466   4.914 -1.1148  0.7003 -0.5725
  129OSM   H16G13848   7.076   2.289   4.956 -0.2613 -0.1500 -0.7845
  129OSM   C17F13849   6.959   2.404   5.099 -0.2722 -0.1522  1.1689
  129OSM   H17F13850   6.875   2.333   5.108 -2.6644  2.5921  1.8039
  129OSM   H17G13851   6.925   2.510   5.096  1.3555  0.4071  0.9750
  129OSM   C18F13852   7.071   2.383   5.204  0.1286 -0.0569  0.5397
  129OSM   H18F13853   7.115   2.283   5.181 -1.5258 -0.5563 -0.6799
  129OSM   H18G13854   7.030   2.371   5.307 -1.4047 -2.3315 -0.2538
  129OSM   H18H13855   7.145   2.466   5.204 -0.5355  0.5513 -0.4095
  130OSM      N13856   6.023   5.226   2.933  0.5116 -0.0832  0.0986
  130OSM    C1513857   5.970   5.227   2.787 -0.8649 -0.0472 -1.1623
  130OSM   H15A13858   6.047   5.269   2.724 -0.6180 -0.0426 -0.8593
  130OSM   H15B13859   5.884   5.292   2.774 -0.9646 -0.2345 -1.4436
  130OSM   H15C13860   5.961   5.129   2.743 -0.8081 -0.3520 -0.4892
  130OSM    C1413861   6.059   5.366   2.965  0.5684 -0.1703 -0.0020
  130OSM   H14A13862   6.095   5.365   3.067 -1.4492 -0.3324  0.7621
  130OSM   H14B13863   5.972   5.430   2.957  0.7339 -0.0765 -1.2276
  130OSM   H14C13864   6.143   5.403   2.908  0.5022  0.5362  0.3464
  130OSM    C1313865   5.917   5.185   3.028 -0.2551  0.7644 -0.8746
  130OSM   H13A13866   5.960   5.160   3.124 -0.0165  1.4989 -0.7834
  130OSM   H13B13867   5.879   5.091   2.989 -0.1456  1.4374 -2.7127
  130OSM   H13C13868   5.834   5.253   3.028 -0.1539  0.9120  0.1937
  130OSM    C1213869   6.146   5.139   2.943 -0.0279 -0.0479 -0.2127
  130OSM   H12A13870   6.213   5.161   2.861 -0.3190 -2.0164 -1.0317
  130OSM   H12B13871   6.114   5.039   2.918  1.4561 -1.2751  2.3853
  130OSM    C1113872   6.221   5.108   3.071  0.6493  0.1051 -0.2413
  130OSM   H11A13873   6.279   5.193   3.114 -0.5103  1.2470 -0.8866
  130OSM   H11B13874   6.295   5.031   3.038  0.2393  0.1290 -1.2364
  130OSM      P13875   6.127   4.909   3.213 -0.0360 -0.5545  0.5653
  130OSM    O1313876   6.037   4.896   3.329 -0.4678  0.5931 -0.1951
  130OSM    O1413877   6.097   4.820   3.096 -0.1627 -0.4921 -0.3978
  130OSM    O1113878   6.273   4.885   3.263 -0.5083 -0.2410  0.8471
  130OSM    O1213879   6.136   5.059   3.171 -0.0110  0.0729  0.0894
  130OSM    C1S13880   6.340   4.958   3.371 -0.1401  0.4017  0.1247
  130OSM    H1S13881   6.261   5.012   3.427 -3.4492 -1.6192 -2.2121
  130OSM    H1T13882   6.416   5.034   3.341  0.8733 -1.2789 -1.7911
  130OSM     NF13883   6.485   4.933   3.573 -0.4578 -0.3471 -0.1461
  130OSM    HNF13884   6.584   4.935   3.578 -0.2914 -0.7662 -2.4943
  130OSM    C2S13885   6.418   4.859   3.460 -0.4321  0.3010 -0.2854
  130OSM    H2S13886   6.338   4.797   3.506 -0.8421 -0.2460 -1.6955
  130OSM    C3S13887   6.504   4.762   3.386 -1.0420 -0.9820  0.0946
  130OSM    H3S13888   6.597   4.812   3.350 -0.3467 -1.0574  1.6870
  130OSM     O313889   6.446   4.705   3.270 -0.1429  0.3267 -0.1948
  130OSM    HO313890   6.358   4.743   3.260 -1.1431 -1.6854  0.3449
  130OSM    C4S13891   6.533   4.641   3.468  0.4778  0.8520  0.1875
  130OSM    H4S13892   6.441   4.583   3.486 -0.4170  2.9595  3.0849
  130OSM    C5S13893   6.646   4.593   3.521 -0.7424 -0.2468  0.2068
  130OSM    H5S13894   6.742   4.646   3.509 -0.0204 -1.5222  0.0427
  130OSM    C6S13895   6.665   4.475   3.610 -0.3745 -0.0231  0.4258
  130OSM    H6S13896   6.715   4.395   3.550 -0.0512  0.8096 -0.4505
  130OSM    H6T13897   6.571   4.438   3.654  0.4035 -2.3736  0.2756
  130OSM    C7S13898   6.760   4.503   3.731 -0.1684 -0.7632  0.2282
  130OSM    H7S13899   6.853   4.544   3.686 -0.3671 -0.9498 -0.3756
  130OSM    H7T13900   6.789   4.409   3.783 -1.5875 -3.2681 -3.0789
  130OSM    C8S13901   6.711   4.606   3.834 -0.1040  0.1335  0.0238
  130OSM    H8S13902   6.634   4.560   3.899 -0.8638  0.9384 -0.2708
  130OSM    H8T13903   6.658   4.692   3.788 -3.0717 -0.2841  2.3618
  130OSM    C9S13904   6.817   4.655   3.939 -0.8348 -0.2630 -1.2014
  130OSM    H9S13905   6.912   4.687   3.892 -0.6961  0.5098 -0.4327
  130OSM    H9T13906   6.847   4.563   3.993  0.5514  1.1554  0.5930
  130OSM   C10S13907   6.766   4.757   4.042 -0.0435  0.1062 -0.0722
  130OSM   H10S13908   6.655   4.754   4.046 -0.0795  0.5720 -0.6064
  130OSM   H10T13909   6.803   4.858   4.013 -0.7915  0.3157 -0.3200
  130OSM   C11S13910   6.807   4.723   4.184 -0.0994  0.4770 -0.0594
  130OSM   H11S13911   6.918   4.716   4.183 -0.1498 -0.4596  0.3755
  130OSM   H11T13912   6.783   4.616   4.201  0.1020  0.5798  0.8939
  130OSM   C12S13913   6.751   4.805   4.301 -0.5959 -0.0544  0.3810
  130OSM   H12S13914   6.642   4.785   4.306 -1.0572  2.1516  0.3599
  130OSM   H12T13915   6.763   4.914   4.279 -1.0272  0.0142  0.4894
  130OSM   C13S13916   6.815   4.770   4.436 -0.4221  0.3245  0.1898
  130OSM   H13S13917   6.924   4.788   4.434 -0.3988  0.1589 -0.3071
  130OSM   H13T13918   6.802   4.660   4.444  3.0633 -0.1855  0.3624
  130OSM   C14S13919   6.764   4.843   4.557  0.1222  0.1609  0.5447
  130OSM   H14S13920   6.654   4.852   4.571  0.1339 -0.6028  1.2461
  130OSM   H14T13921   6.801   4.947   4.549  0.9698 -0.2340 -1.0092
  130OSM   C15S13922   6.807   4.778   4.693  0.0827 -0.1250 -0.2578
  130OSM   H15S13923   6.808   4.864   4.763  0.9537  0.2925 -0.7670
  130OSM   H15T13924   6.909   4.735   4.685 -0.0563 -0.2884 -1.4462
  130OSM   C16S13925   6.704   4.669   4.742  0.2430 -0.4056  0.6315
  130OSM   H16S13926   6.697   4.591   4.662  0.0962  0.4889 -0.2476
  130OSM   H16T13927   6.609   4.724   4.755  0.2857 -0.2140  0.1550
  130OSM   C17S13928   6.742   4.622   4.883  1.0902  0.6725  0.0069
  130OSM   H17S13929   6.745   4.714   4.945 -1.8641  2.4140 -2.1847
  130OSM   H17T13930   6.846   4.583   4.876  1.3327  1.0192  1.4198
  130OSM   C18S13931   6.648   4.519   4.949 -0.1923 -0.0418  0.0190
  130OSM   H18S13932   6.613   4.430   4.891  1.1906  1.4475 -3.4064
  130OSM   H18T13933   6.557   4.570   4.989 -0.8343 -0.6337 -0.6383
  130OSM   H18U13934   6.697   4.481   5.041 -0.0402  0.7149  0.2621
  130OSM    C1F13935   6.415   5.006   3.663 -1.0649 -0.4144  0.3071
  130OSM     OF13936   6.296   4.986   3.670  0.2220 -0.4342  0.4536
  130OSM    C2F13937   6.490   5.098   3.756  0.3106 -0.0529 -0.7035
  130OSM    H2F13938   6.467   5.206   3.742 -2.4173 -0.1424  1.9961
  130OSM    H2G13939   6.599   5.102   3.733  0.5427 -2.9437 -0.4181
  130OSM    C3F13940   6.466   5.059   3.902  0.4488 -0.6239  0.1889
  130OSM    H3F13941   6.473   4.952   3.931  1.3925 -0.0861  2.1350
  130OSM    H3G13942   6.360   5.081   3.926  0.1637 -0.5503 -1.1100
  130OSM    C4F13943   6.555   5.139   3.998  0.0697  0.0153  0.5171
  130OSM    H4F13944   6.542   5.249   3.989  2.3661  0.4022  1.2691
  130OSM    H4G13945   6.662   5.115   3.980  0.4724  2.3643 -0.6634
  130OSM    C5F13946   6.518   5.091   4.143  0.0351 -0.2580  0.1867
  130OSM    H5F13947   6.553   4.988   4.166  0.1675 -0.2614 -0.0327
  130OSM    H5G13948   6.410   5.108   4.165  0.5097  0.7688  1.9503
  130OSM    C6F13949   6.585   5.175   4.256  0.1928 -0.3135 -0.1566
  130OSM    H6F13950   6.555   5.282   4.243 -0.4003 -0.3626  0.7102
  130OSM    H6G13951   6.695   5.171   4.244  0.7059 -2.2695  3.8257
  130OSM    C7F13952   6.537   5.137   4.396  0.0342  0.6012  0.2612
  130OSM    H7F13953   6.575   5.034   4.414 -0.9114  0.5750  2.3205
  130OSM    H7G13954   6.426   5.134   4.396 -0.2771  4.4708  2.9603
  130OSM    C8F13955   6.590   5.231   4.499  0.2804  0.5943  0.4420
  130OSM    H8F13956   6.543   5.324   4.460  0.8652  0.1628 -1.4034
  130OSM    H8G13957   6.701   5.230   4.484  0.3994 -0.0802  1.3090
  130OSM    C9F13958   6.560   5.208   4.640 -0.5446  0.6257 -0.2529
  130OSM    H9F13959   6.451   5.207   4.654 -0.9003 -0.8955 -2.4578
  130OSM   C10F13960   6.641   5.170   4.737  0.9136 -0.3231 -0.7071
  130OSM   H10F13961   6.589   5.144   4.831 -1.3744 -1.0324 -2.0932
  130OSM   C11F13962   6.791   5.178   4.726  0.0497  0.0586 -0.7801
  130OSM   H11F13963   6.831   5.173   4.623  0.8991 -1.4427 -0.4071
  130OSM   H11G13964   6.831   5.085   4.771  3.3118  1.9952  0.7251
  130OSM   C12F13965   6.863   5.294   4.804  0.4687  0.3507  1.0091
  130OSM   H12F13966   6.827   5.394   4.770  2.4026 -0.2044 -3.3352
  130OSM   H12G13967   6.970   5.292   4.773  0.4143  3.5179  0.2026
  130OSM   C13F13968   6.846   5.293   4.962  0.8555 -0.2947  0.9908
  130OSM   H13F13969   6.867   5.192   5.005  0.4400 -0.5930  0.5022
  130OSM   H13G13970   6.740   5.311   4.990  0.8026  2.7362 -0.7047
  130OSM   C14F13971   6.930   5.396   5.030 -0.6340 -0.4895  0.6367
  130OSM   H14F13972   6.903   5.494   4.986 -0.1561 -0.9656 -0.7930
  130OSM   H14G13973   7.037   5.374   5.011 -0.6319  0.9566 -1.3039
  130OSM   C15F13974   6.903   5.397   5.177  0.3353 -0.0827 -0.1356
  130OSM   H15F13975   6.800   5.436   5.197  0.7373  0.5308  0.7918
  130OSM   H15G13976   6.973   5.470   5.224 -1.5517  0.1217  2.6253
  130OSM   C16F13977   6.927   5.263   5.250 -0.0554  0.3508 -0.2406
  130OSM   H16F13978   7.026   5.226   5.217 -0.6967 -2.2726  0.5540
  130OSM   H16G13979   6.847   5.197   5.210  0.7897 -0.7577 -0.1431
  130OSM   C17F13980   6.918   5.283   5.402  0.6413 -0.3068  0.0631
  130OSM   H17F13981   6.907   5.191   5.464  1.1518 -0.4049  0.0156
  130OSM   H17G13982   6.826   5.344   5.418  2.0389  1.8158  0.4411
  130OSM   C18F13983   7.043   5.351   5.456  0.0857 -0.0110  0.0860
  130OSM   H18F13984   7.045   5.461   5.440 -1.4840 -0.1540 -1.3318
  130OSM   H18G13985   7.125   5.302   5.401  0.2065  0.9388 -0.6023
  130OSM   H18H13986   7.054   5.345   5.567  0.7341  1.2049  0.0985
  131OSM      N13987   4.242   1.889   2.710  0.2070 -0.2371 -0.3413
  131OSM    C1513988   4.275   2.014   2.630  0.1577  0.1508 -0.6159
  131OSM   H15A13989   4.243   2.103   2.682  1.2097  0.6538 -0.7973
  131OSM   H15B13990   4.232   2.008   2.531  0.8208 -3.5173 -0.8459
  131OSM   H15C13991   4.382   2.016   2.610 -0.0742  1.3547 -1.8899
  131OSM    C1413992   4.095   1.891   2.750  0.1820  0.2400 -0.6936
  131OSM   H14A13993   4.061   1.807   2.809  2.7265 -2.1549 -2.3771
  131OSM   H14B13994   4.032   1.896   2.662 -0.7504 -0.3353 -0.0774
  131OSM   H14C13995   4.068   1.983   2.801  2.2909 -0.0762  1.1481
  131OSM    C1313996   4.276   1.768   2.630  0.3996 -0.7671  0.7141
  131OSM   H13A13997   4.383   1.760   2.616  0.8746  2.3034  1.6610
  131OSM   H13B13998   4.236   1.773   2.530  1.2913  0.0904  0.3746
  131OSM   H13C13999   4.242   1.683   2.687 -0.6561  0.4559  1.9711
  131OSM    C1214000   4.334   1.895   2.833 -0.2575  0.2128 -0.3145
  131OSM   H12A14001   4.428   1.894   2.780  1.0559 -1.1712  1.8470
  131OSM   H12B14002   4.347   1.796   2.875  2.3981  0.0066 -1.4520
  131OSM    C1114003   4.320   2.015   2.935  0.0494 -0.0961  0.2206
  131OSM   H11A14004   4.407   2.003   3.003 -0.3068  0.5823  0.8010
  131OSM   H11B14005   4.227   2.010   2.994 -1.4602 -3.4361 -2.0955
  131OSM      P14006   4.455   2.240   2.882 -0.2022  0.1351 -0.1215
  131OSM    O1314007   4.557   2.186   2.788  0.2495 -0.7362  0.4207
  131OSM    O1414008   4.408   2.376   2.864  0.2278  0.5250  0.0422
  131OSM    O1114009   4.496   2.215   3.036 -0.4869  0.3523 -0.4841
  131OSM    O1214010   4.332   2.140   2.874  0.1747  0.3440  0.3238
  131OSM    C1S14011   4.587   2.314   3.089  0.1933 -0.1113 -0.6126
  131OSM    H1S14012   4.548   2.416   3.071  1.1543  0.3236 -0.3068
  131OSM    H1T14013   4.686   2.298   3.041 -0.0406 -2.3165 -0.4557
  131OSM     NF14014   4.680   2.414   3.303  0.9056 -0.4750 -0.2802
  131OSM    HNF14015   4.774   2.403   3.336  0.7248  1.2329  0.9739
  131OSM    C2S14016   4.595   2.308   3.241  0.6477 -0.5552  0.2081
  131OSM    H2S14017   4.493   2.316   3.284  0.6509  2.7923 -0.1874
  131OSM    C3S14018   4.646   2.163   3.280 -1.0593  0.1110 -0.5614
  131OSM    H3S14019   4.749   2.142   3.243 -1.3505 -1.1873 -0.6670
  131OSM     O314020   4.558   2.063   3.231  0.0795  0.3263  0.0033
  131OSM    HO314021   4.514   2.109   3.159  0.6988  1.3726  0.2650
  131OSM    C4S14022   4.662   2.157   3.430  0.2950  0.1211  0.1749
  131OSM    H4S14023   4.753   2.211   3.460  1.9327 -0.6490 -3.0348
  131OSM    C5S14024   4.591   2.080   3.516 -0.9477  0.0332 -0.3740
  131OSM    H5S14025   4.502   2.023   3.485 -0.8956  1.6110 -3.8846
  131OSM    C6S14026   4.626   2.060   3.661  0.1133  0.3298  0.4874
  131OSM    H6S14027   4.533   2.035   3.717 -1.2541  0.5941 -1.5606
  131OSM    H6T14028   4.664   2.156   3.701  0.1610  0.4887  0.0637
  131OSM    C7S14029   4.734   1.952   3.667  0.0072 -0.3106 -0.2158
  131OSM    H7S14030   4.817   1.972   3.596  0.9058  0.5920  1.0534
  131OSM    H7T14031   4.693   1.851   3.643 -2.4420  1.0807 -2.4484
  131OSM    C8S14032   4.810   1.965   3.800  0.4284  0.6824 -0.0717
  131OSM    H8S14033   4.867   2.060   3.808  2.8727 -0.7471  0.8758
  131OSM    H8T14034   4.892   1.889   3.801  1.2098  1.5129 -0.1332
  131OSM    C9S14035   4.723   1.916   3.915  0.1698 -0.1353  0.4868
  131OSM    H9S14036   4.798   1.871   3.984  2.7846  1.2725 -1.2254
  131OSM    H9T14037   4.651   1.835   3.894 -0.6362  0.7310 -0.1391
  131OSM   C10S14038   4.651   2.036   3.982 -0.9374 -0.3260 -0.9990
  131OSM   H10S14039   4.568   2.076   3.921 -0.3024  1.2634 -0.8576
  131OSM   H10T14040   4.723   2.120   3.996 -2.9048  1.0718  1.6279
  131OSM   C11S14041   4.598   2.000   4.125  0.5351 -0.5352  0.1954
  131OSM   H11S14042   4.542   1.905   4.120  3.1712 -2.1568 -0.5694
  131OSM   H11T14043   4.531   2.080   4.163  0.6513 -1.4285  2.4448
  131OSM   C12S14044   4.712   2.001   4.226  1.2422 -0.1828 -0.3022
  131OSM   H12S14045   4.761   2.101   4.230 -0.6018  0.7536  0.2282
  131OSM   H12T14046   4.790   1.931   4.191  0.5566 -0.9993 -0.2293
  131OSM   C13S14047   4.656   1.966   4.367  0.0262  0.4866 -0.1789
  131OSM   H13S14048   4.627   1.861   4.349 -0.8241  0.7974 -0.6422
  131OSM   H13T14049   4.567   2.031   4.376 -1.5392 -1.6225  0.3245
  131OSM   C14S14050   4.743   1.978   4.490 -0.5193  0.4711  0.6839
  131OSM   H14S14051   4.795   2.076   4.487  0.1778  0.1040 -2.0304
  131OSM   H14T14052   4.835   1.917   4.477 -0.7079  0.1473  0.8542
  131OSM   C15S14053   4.676   1.968   4.629 -0.2824  0.1204  0.1223
  131OSM   H15S14054   4.613   1.876   4.625 -2.1719  1.3845 -0.1040
  131OSM   H15T14055   4.616   2.060   4.646  0.6248  0.7668 -0.1210
  131OSM   C16S14056   4.779   1.952   4.747  0.2086  0.0486  0.1013
  131OSM   H16S14057   4.875   1.911   4.710 -0.2971 -2.2179  1.1095
  131OSM   H16T14058   4.753   1.884   4.831  3.2906 -1.9683 -0.3913
  131OSM   C17S14059   4.814   2.088   4.816 -0.0300 -0.2799  0.6347
  131OSM   H17S14060   4.725   2.143   4.853  0.4488  1.1917 -0.3217
  131OSM   H17T14061   4.869   2.153   4.745  1.4531 -1.9675  0.1568
  131OSM   C18S14062   4.910   2.063   4.930  0.4540  0.2142 -0.1906
  131OSM   H18S14063   4.938   2.158   4.980  0.1231  0.1451  0.1314
  131OSM   H18T14064   4.988   1.991   4.897 -0.9125 -0.7674 -1.4220
  131OSM   H18U14065   4.848   2.001   4.999 -1.4731 -0.0134 -2.0356
  131OSM    C1F14066   4.650   2.540   3.304 -0.3869  0.1065  0.6283
  131OSM     OF14067   4.538   2.581   3.278 -0.1881  0.3162 -0.2592
  131OSM    C2F14068   4.753   2.639   3.342 -0.2084 -0.7872 -0.3967
  131OSM    H2F14069   4.776   2.708   3.258 -0.5390 -1.0176 -0.6811
  131OSM    H2G14070   4.856   2.599   3.351  0.3806  0.9087  0.9927
  131OSM    C3F14071   4.718   2.704   3.476  0.1808  0.2234 -0.3818
  131OSM    H3F14072   4.693   2.636   3.560  1.9420 -0.0049  0.0078
  131OSM    H3G14073   4.628   2.765   3.455 -0.6813 -1.0697 -0.5436
  131OSM    C4F14074   4.818   2.809   3.512  0.1677  0.2886 -0.5331
  131OSM    H4F14075   4.834   2.863   3.416  0.7231  0.4724 -0.3404
  131OSM    H4G14076   4.903   2.756   3.560 -1.6592 -3.9781 -1.5653
  131OSM    C5F14077   4.753   2.908   3.611 -0.3250  0.3338  0.8650
  131OSM    H5F14078   4.642   2.910   3.601 -0.3664  2.2995  1.2173
  131OSM    H5G14079   4.783   3.010   3.579 -3.3441  0.8866 -0.6093
  131OSM    C6F14080   4.799   2.883   3.758  0.0372 -0.0430 -0.0792
  131OSM    H6F14081   4.910   2.887   3.752  0.0662  0.3341  0.6278
  131OSM    H6G14082   4.767   2.782   3.791  0.5775 -0.1881  0.0060
  131OSM    C7F14083   4.747   2.978   3.866 -0.2114 -0.0919  0.4589
  131OSM    H7F14084   4.636   2.968   3.859  0.0351 -1.9408 -1.8625
  131OSM    H7G14085   4.773   3.080   3.831 -2.6419  0.8414  1.1568
  131OSM    C8F14086   4.808   2.945   4.007 -0.2399  0.4482  0.2804
  131OSM    H8F14087   4.916   2.967   4.007  0.0983 -1.0530  0.4018
  131OSM    H8G14088   4.812   2.834   4.016 -2.7028  0.1872 -0.7133
  131OSM    C9F14089   4.728   3.015   4.112 -0.5343  0.3183 -0.0936
  131OSM    H9F14090   4.654   3.088   4.077 -2.5621 -2.0221 -1.0440
  131OSM   C10F14091   4.754   3.019   4.242  0.3650 -0.1853 -0.1977
  131OSM   H10F14092   4.699   3.089   4.307  1.2380  3.4482 -3.0600
  131OSM   C11F14093   4.857   2.937   4.314  0.1480  0.0705  0.3040
  131OSM   H11F14094   4.959   2.977   4.292 -0.0170  1.3269  1.6688
  131OSM   H11G14095   4.857   2.828   4.291 -0.1190 -0.3060  1.9979
  131OSM   C12F14096   4.823   2.949   4.464 -0.4098 -0.2102  0.0225
  131OSM   H12F14097   4.717   2.918   4.473 -0.7159  0.7126 -0.2476
  131OSM   H12G14098   4.847   3.053   4.495  2.3871 -0.5959 -0.6215
  131OSM   C13F14099   4.905   2.858   4.557  0.8124 -0.8251  0.8331
  131OSM   H13F14100   5.014   2.880   4.552  0.7229 -0.3673  0.8429
  131OSM   H13G14101   4.896   2.752   4.526  1.8163 -0.3357 -1.3077
  131OSM   C14F14102   4.862   2.878   4.701  0.6255 -0.2188  0.2334
  131OSM   H14F14103   4.759   2.836   4.704  0.9871 -1.4763 -2.1855
  131OSM   H14G14104   4.858   2.988   4.719  1.1993  0.0741 -1.2841
  131OSM   C15F14105   4.948   2.806   4.799 -0.4125  0.1947  0.2943
  131OSM   H15F14106   5.056   2.829   4.791 -0.1926 -0.0973  2.0082
  131OSM   H15G14107   4.944   2.696   4.783  0.8950 -0.4431  3.5510
  131OSM   C16F14108   4.915   2.830   4.954  0.6939 -0.5806  0.2027
  131OSM   H16F14109   4.923   2.937   4.981  0.2390 -0.1047 -1.4334
  131OSM   H16G14110   4.982   2.780   5.027 -0.6606  1.1355  2.7356
  131OSM   C17F14111   4.774   2.784   4.979  0.3461  0.9034 -0.1679
  131OSM   H17F14112   4.752   2.681   4.942 -0.8958 -0.1572  3.1278
  131OSM   H17G14113   4.705   2.850   4.923 -1.1166  0.2492  0.7962
  131OSM   C18F14114   4.728   2.781   5.130  0.1592 -0.5696  0.1653
  131OSM   H18F14115   4.767   2.693   5.186 -0.7658  1.0026  3.5327
  131OSM   H18G14116   4.617   2.781   5.138  0.0794  1.7976 -0.4131
  131OSM   H18H14117   4.764   2.871   5.183  1.2222 -0.8782 -0.0124
  132OSM      N14118   3.792   2.805   2.513 -0.4187 -0.4610  0.3340
  132OSM    C1514119   3.677   2.708   2.542 -0.7250  0.6556  0.2322
  132OSM   H15A14120   3.589   2.759   2.578 -2.7607 -2.2726 -0.2275
  132OSM   H15B14121   3.704   2.637   2.619 -1.1455  1.4556  1.1263
  132OSM   H15C14122   3.640   2.652   2.457  0.1256 -1.5955  1.2515
  132OSM    C1414123   3.758   2.878   2.391  0.1790  0.6766 -0.7854
  132OSM   H14A14124   3.838   2.930   2.339 -0.9215  2.2084 -1.0212
  132OSM   H14B14125   3.678   2.946   2.416  0.6747  2.9491 -4.5896
  132OSM   H14C14126   3.721   2.807   2.318  0.7001  0.4556 -0.8403
  132OSM    C1314127   3.797   2.905   2.626 -0.4904 -0.4101 -0.1530
  132OSM   H13A14128   3.858   2.990   2.602  0.7352 -1.1141  0.3620
  132OSM   H13B14129   3.828   2.854   2.716 -1.1579  1.0972  0.9674
  132OSM   H13C14130   3.701   2.949   2.650 -0.6422  0.6350 -2.4895
  132OSM    C1214131   3.928   2.742   2.502  0.1452 -0.0869  0.6175
  132OSM   H12A14132   4.001   2.822   2.499 -0.4807  0.7041  3.4785
  132OSM   H12B14133   3.925   2.685   2.410  0.3366  2.0094 -0.7486
  132OSM    C1114134   3.962   2.646   2.614  0.0483  0.4858 -1.2704
  132OSM   H11A14135   4.045   2.576   2.591 -1.2450 -2.0830  1.2237
  132OSM   H11B14136   3.879   2.573   2.629 -0.3749  1.0682 -0.7009
  132OSM      P14137   4.131   2.788   2.746  0.2446  0.7196  0.3478
  132OSM    O1314138   4.236   2.683   2.750 -0.0113  0.2947 -0.2340
  132OSM    O1414139   4.150   2.890   2.639  0.2599 -0.5652  0.1465
  132OSM    O1114140   4.119   2.866   2.881  0.0501  0.3447 -0.1347
  132OSM    O1214141   3.987   2.718   2.738  0.0591  0.2571  0.1110
  132OSM    C1S14142   4.008   2.936   2.931 -0.1037  0.6787  0.2260
  132OSM    H1S14143   3.917   2.872   2.927  1.1396 -1.1393 -0.3535
  132OSM    H1T14144   3.992   3.027   2.869  1.1021 -0.1079 -1.2890
  132OSM     NF14145   3.892   2.996   3.138 -0.4578 -0.4142  0.5689
  132OSM    HNF14146   3.870   3.091   3.160 -2.7097 -0.4304 -1.2225
  132OSM    C2S14147   4.022   2.982   3.079  0.0275  0.0365 -0.5179
  132OSM    H2S14148   4.069   2.897   3.133 -0.0866 -0.0825 -0.6064
  132OSM    C3S14149   4.128   3.098   3.095 -0.4039  0.1893 -0.5211
  132OSM    H3S14150   4.087   3.190   3.048 -0.0524  0.3492 -0.5177
  132OSM     O314151   4.246   3.063   3.027 -0.3423 -0.0997  0.4787
  132OSM    HO314152   4.219   2.988   2.973  0.2262 -0.1349  0.2414
  132OSM    C4S14153   4.157   3.142   3.239  0.8889 -0.4284 -0.2744
  132OSM    H4S14154   4.090   3.224   3.268 -1.5774 -0.9883 -3.6817
  132OSM    C5S14155   4.244   3.089   3.323 -0.0815  0.6079 -0.0784
  132OSM    H5S14156   4.311   3.005   3.302  0.4831  1.0145  0.0658
  132OSM    C6S14157   4.256   3.137   3.461 -0.4449 -0.3929 -0.4466
  132OSM    H6S14158   4.177   3.209   3.492  0.1203  0.5220 -1.0719
  132OSM    H6T14159   4.347   3.201   3.468 -0.8876  0.2997 -0.9134
  132OSM    C7S14160   4.276   3.020   3.561  0.7590  1.0386  0.1880
  132OSM    H7S14161   4.367   2.963   3.533 -0.2621 -1.1900  1.1570
  132OSM    H7T14162   4.191   2.949   3.572  0.3736  1.4527 -0.1141
  132OSM    C8S14163   4.298   3.076   3.700 -0.9976 -0.1538 -0.9866
  132OSM    H8S14164   4.209   3.133   3.733 -1.0854 -0.2888 -0.9896
  132OSM    H8T14165   4.378   3.152   3.690  1.2609 -2.0761  0.8665
  132OSM    C9S14166   4.335   2.965   3.807  0.2087  0.7346 -0.8653
  132OSM    H9S14167   4.425   2.909   3.773  0.6547 -0.5579  2.1535
  132OSM    H9T14168   4.263   2.881   3.813  0.1465  0.8803  0.9423
  132OSM   C10S14169   4.382   3.017   3.944 -0.1354  0.1857  0.1903
  132OSM   H10S14170   4.457   3.098   3.937 -2.2106  2.3131  1.1255
  132OSM   H10T14171   4.428   2.931   3.997 -0.3274 -0.6776 -1.0148
  132OSM   C11S14172   4.267   3.053   4.041  0.1070 -0.2713 -0.2160
  132OSM   H11S14173   4.221   2.958   4.076 -0.5196  0.9931  2.6805
  132OSM   H11T14174   4.191   3.122   4.000  0.2824  1.0275  1.4858
  132OSM   C12S14175   4.326   3.124   4.171 -0.3409  0.4327  0.4743
  132OSM   H12S14176   4.375   3.217   4.133 -0.5760  0.8754  1.2377
  132OSM   H12T14177   4.400   3.066   4.230 -0.6578  0.4345  0.8726
  132OSM   C13S14178   4.222   3.154   4.279  0.6934 -0.0986  0.1552
  132OSM   H13S14179   4.185   3.057   4.317 -1.3050  0.2239 -0.8219
  132OSM   H13T14180   4.136   3.203   4.228 -0.1473 -0.4154  1.2526
  132OSM   C14S14181   4.276   3.241   4.386 -0.3084 -0.4679 -0.1913
  132OSM   H14S14182   4.317   3.332   4.336  1.4359 -0.0649  1.7876
  132OSM   H14T14183   4.369   3.192   4.422  0.7747  0.4037 -1.6746
  132OSM   C15S14184   4.174   3.266   4.500 -0.7607 -0.0857  0.8178
  132OSM   H15S14185   4.117   3.176   4.531  1.2568 -1.3169  1.1491
  132OSM   H15T14186   4.110   3.344   4.453  2.6021  0.6702 -3.1230
  132OSM   C16S14187   4.242   3.334   4.622  0.2441  0.3612  0.8132
  132OSM   H16S14188   4.304   3.421   4.592  1.0574 -1.1266 -2.3184
  132OSM   H16T14189   4.311   3.259   4.667  0.2389 -0.7453 -0.9035
  132OSM   C17S14190   4.125   3.395   4.707  0.6015  0.2963 -0.1818
  132OSM   H17S14191   4.055   3.310   4.723  2.3550 -0.9873  0.9987
  132OSM   H17T14192   4.060   3.470   4.658  1.5511  1.1683 -0.1304
  132OSM   C18S14193   4.160   3.444   4.851 -0.2637  0.3550  0.2630
  132OSM   H18S14194   4.075   3.490   4.905  0.9701  1.3743  1.3996
  132OSM   H18T14195   4.247   3.512   4.846 -1.7103  2.2652 -0.2165
  132OSM   H18U14196   4.195   3.354   4.906 -2.9091 -2.9082 -2.8489
  132OSM    C1F14197   3.819   2.891   3.180  0.2716  0.3297  0.0572
  132OSM     OF14198   3.831   2.778   3.135 -0.5933  0.4447  0.3184
  132OSM    C2F14199   3.704   2.918   3.274 -0.4025 -0.4067  0.5024
  132OSM    H2F14200   3.640   2.828   3.276  2.3332 -2.5413 -1.4393
  132OSM    H2G14201   3.649   3.005   3.232 -0.0003 -1.0247 -1.3876
  132OSM    C3F14202   3.746   2.948   3.418  0.4780 -0.6318  0.1973
  132OSM    H3F14203   3.666   3.003   3.473  1.3661  0.8014  0.0999
  132OSM    H3G14204   3.832   3.017   3.422  0.6268 -0.8393  0.6493
  132OSM    C4F14205   3.795   2.828   3.490 -1.1242 -0.4311 -0.5413
  132OSM    H4F14206   3.860   2.772   3.420  0.9743  1.9489 -0.6343
  132OSM    H4G14207   3.705   2.767   3.515 -1.1993 -0.5363 -1.0593
  132OSM    C5F14208   3.863   2.869   3.625  0.7019 -0.1475 -0.3699
  132OSM    H5F14209   3.811   2.948   3.684 -1.2270 -1.6103 -0.0041
  132OSM    H5G14210   3.962   2.912   3.599  1.9473 -1.7361  1.4398
  132OSM    C6F14211   3.903   2.757   3.724 -0.0292  0.4219 -0.4468
  132OSM    H6F14212   3.988   2.712   3.668  0.4010  1.0905 -0.3321
  132OSM    H6G14213   3.842   2.666   3.743 -0.4331  0.9722  0.9731
  132OSM    C7F14214   3.979   2.812   3.847  0.6943  0.0230 -0.8510
  132OSM    H7F14215   4.022   2.908   3.811  0.1634  0.3809 -0.5384
  132OSM    H7G14216   4.070   2.757   3.880 -0.0375 -0.3838  0.5851
  132OSM    C8F14217   3.897   2.858   3.970 -0.4019 -0.1122  0.0361
  132OSM    H8F14218   3.802   2.905   3.938  0.1624  0.8279 -0.2807
  132OSM    H8G14219   3.943   2.932   4.039  1.0377 -0.0837 -0.9061
  132OSM    C9F14220   3.874   2.728   4.036  0.1327 -0.6499  0.1822
  132OSM    H9F14221   3.859   2.651   3.959  1.1873 -0.9082  0.2258
  132OSM   C10F14222   3.901   2.687   4.159 -0.5067 -0.0059  0.0626
  132OSM   H10F14223   3.883   2.582   4.188  1.1392 -0.4153 -0.2472
  132OSM   C11F14224   3.957   2.773   4.273  0.7919  0.5362 -0.3450
  132OSM   H11F14225   3.935   2.881   4.260  1.3122  0.9777  1.9456
  132OSM   H11G14226   4.067   2.762   4.284  0.8021  0.4601 -0.5148
  132OSM   C12F14227   3.908   2.731   4.420  0.4381 -0.3446  0.8964
  132OSM   H12F14228   3.998   2.699   4.476 -0.0848  0.4023  2.1940
  132OSM   H12G14229   3.841   2.643   4.404 -0.0608  0.0721  0.6615
  132OSM   C13F14230   3.840   2.848   4.491  0.2693 -0.2637  0.4879
  132OSM   H13F14231   3.747   2.873   4.436  2.2843  2.1105 -2.1152
  132OSM   H13G14232   3.910   2.932   4.471 -0.9299  0.5046 -0.6647
  132OSM   C14F14233   3.804   2.817   4.631 -0.3879 -0.2299  0.2418
  132OSM   H14F14234   3.896   2.784   4.685  1.5163  1.6522 -1.6641
  132OSM   H14G14235   3.726   2.739   4.637 -0.2073 -0.7041 -2.6097
  132OSM   C15F14236   3.769   2.955   4.700 -0.2569 -0.2039 -0.6591
  132OSM   H15F14237   3.692   3.006   4.638 -0.1713 -0.0119 -0.6073
  132OSM   H15G14238   3.855   3.025   4.703 -0.5720  0.2631 -1.9158
  132OSM   C16F14239   3.723   2.931   4.841 -0.4225  0.0924 -0.1722
  132OSM   H16F14240   3.633   2.867   4.858 -2.1352  2.4914  0.2442
  132OSM   H16G14241   3.684   3.029   4.874  1.3658  0.9617 -0.5299
  132OSM   C17F14242   3.835   2.879   4.949  0.7414 -0.2076 -0.4627
  132OSM   H17F14243   3.877   2.781   4.920 -1.4607 -1.4083  0.1688
  132OSM   H17G14244   3.780   2.857   5.043  2.1589 -1.6477  0.0510
  132OSM   C18F14245   3.953   2.980   4.984  1.1973  0.1117  0.6323
  132OSM   H18F14246   4.041   2.964   4.918  2.4428  0.7889  2.0957
  132OSM   H18G14247   3.987   2.972   5.089  0.5131  4.6288  1.3985
  132OSM   H18H14248   3.925   3.085   4.960  0.9373  0.4847  2.4717
  133OSM      N14249   2.901   3.241   2.833  0.3377  0.1164 -0.2348
  133OSM    C1514250   2.801   3.172   2.928 -0.1546 -1.2095  0.5376
  133OSM   H15A14251   2.760   3.081   2.888 -1.4373 -1.2169  1.7990
  133OSM   H15B14252   2.715   3.236   2.943  1.3085  0.9447  0.2423
  133OSM   H15C14253   2.848   3.150   3.023 -0.2718 -2.0205  0.4136
  133OSM    C1414254   2.949   3.375   2.886  0.0456  1.4508 -0.0680
  133OSM   H14A14255   3.003   3.374   2.979  0.2419  1.8915 -0.1748
  133OSM   H14B14256   2.858   3.433   2.892  0.4418  2.4290 -2.3605
  133OSM   H14C14257   3.004   3.428   2.809 -0.8059  2.4411 -0.0153
  133OSM    C1314258   3.021   3.145   2.818 -0.5591  0.0664  0.6500
  133OSM   H13A14259   2.996   3.049   2.777  0.3388  0.7932 -1.7379
  133OSM   H13B14260   3.066   3.127   2.915  0.2457 -0.7524  0.1365
  133OSM   H13C14261   3.101   3.188   2.760 -0.6943 -0.0502  0.3802
  133OSM    C1214262   2.848   3.257   2.693  0.4750  0.3259 -0.4316
  133OSM   H12A14263   2.835   3.155   2.660 -2.0359  0.0139  1.2536
  133OSM   H12B14264   2.915   3.312   2.628 -0.1904  1.1858 -0.4014
  133OSM    C1114265   2.714   3.328   2.682  0.2096 -0.3551 -0.2911
  133OSM   H11A14266   2.634   3.275   2.739  1.7101 -2.0531  0.3130
  133OSM   H11B14267   2.689   3.316   2.575  0.1866  0.4763 -0.3914
  133OSM      P14268   2.620   3.562   2.732  0.0092 -0.0711  0.2021
  133OSM    O1314269   2.678   3.688   2.794  0.9238 -0.0254  0.1949
  133OSM    O1414270   2.552   3.580   2.601  0.1506 -0.5882 -0.0633
  133OSM    O1114271   2.529   3.485   2.829 -0.2896  0.3547  0.0607
  133OSM    O1214272   2.742   3.464   2.712  0.0575 -0.6674  0.3981
  133OSM    C1S14273   2.564   3.432   2.963  0.3088 -0.9217  1.5329
  133OSM    H1S14274   2.673   3.414   2.945  0.4451  1.8026 -1.3166
  133OSM    H1T14275   2.516   3.333   2.981 -2.6917  0.2555  0.5665
  133OSM     NF14276   2.597   3.476   3.212  0.3996 -0.8088  0.3176
  133OSM    HNF14277   2.541   3.434   3.284  1.0205 -3.3939 -0.5901
  133OSM    C2S14278   2.538   3.529   3.088 -0.9851  0.0547 -0.2068
  133OSM    H2S14279   2.587   3.627   3.075  0.4371 -0.6078  0.0171
  133OSM    C3S14280   2.387   3.558   3.099 -0.4305  0.1774  0.2241
  133OSM    H3S14281   2.342   3.459   3.122  1.0975 -0.5712  0.1488
  133OSM     O314282   2.322   3.605   2.976  0.2305 -0.0962  0.1435
  133OSM    HO314283   2.376   3.563   2.909 -0.7507 -1.6354  0.2849
  133OSM    C4S14284   2.366   3.660   3.211 -0.0633 -0.5206  0.1977
  133OSM    H4S14285   2.457   3.720   3.226  0.2140 -1.1373  1.1089
  133OSM    C5S14286   2.267   3.666   3.303 -0.6960 -0.8083  0.3687
  133OSM    H5S14287   2.185   3.594   3.286 -0.8674 -0.0412 -2.6732
  133OSM    C6S14288   2.256   3.762   3.424  0.2307  0.7753  0.1499
  133OSM    H6S14289   2.157   3.799   3.456 -0.0227 -1.1168  1.6908
  133OSM    H6T14290   2.328   3.846   3.412  1.3746 -0.2063 -0.0377
  133OSM    C7S14291   2.315   3.676   3.542  0.0298 -0.3540 -0.5416
  133OSM    H7S14292   2.409   3.627   3.509 -0.0395  0.4426 -2.0029
  133OSM    H7T14293   2.255   3.589   3.577 -1.6670  0.5539 -1.0742
  133OSM    C8S14294   2.333   3.753   3.670 -0.0441 -0.0760 -0.6184
  133OSM    H8S14295   2.228   3.784   3.692 -0.0610 -0.3965 -0.2296
  133OSM    H8T14296   2.387   3.845   3.641  1.1896 -0.1914  1.1710
  133OSM    C9S14297   2.401   3.661   3.770 -0.3377  0.6342 -0.5892
  133OSM    H9S14298   2.501   3.632   3.731  0.6011  1.1926  1.2967
  133OSM    H9T14299   2.328   3.577   3.774 -0.0705  0.4462  0.6465
  133OSM   C10S14300   2.417   3.717   3.908 -0.3567 -0.1752 -0.0092
  133OSM   H10S14301   2.477   3.810   3.915 -2.8830  1.7234 -1.6242
  133OSM   H10T14302   2.470   3.637   3.964  2.1882  0.4080 -1.4083
  133OSM   C11S14303   2.289   3.753   3.980  0.0806 -0.0244  0.4914
  133OSM   H11S14304   2.215   3.693   3.923 -1.0547  2.6873 -1.0708
  133OSM   H11T14305   2.260   3.859   3.962 -1.5959 -0.2922  1.4124
  133OSM   C12S14306   2.269   3.713   4.123 -0.0035 -0.6606 -0.1162
  133OSM   H12S14307   2.291   3.810   4.172 -0.9283  0.4619 -1.8462
  133OSM   H12T14308   2.342   3.642   4.169  0.3334  1.5753  3.2347
  133OSM   C13S14309   2.127   3.660   4.151 -0.1131  0.0276 -0.5274
  133OSM   H13S14310   2.125   3.558   4.107 -2.3420 -0.1550 -0.1435
  133OSM   H13T14311   2.056   3.738   4.115  1.4316  2.1677  0.8206
  133OSM   C14S14312   2.094   3.642   4.303  0.7648  0.0661  0.9284
  133OSM   H14S14313   2.126   3.738   4.349 -1.1632  1.9243 -1.3337
  133OSM   H14T14314   2.153   3.555   4.339 -1.7156 -3.5357 -2.8752
  133OSM   C15S14315   1.945   3.620   4.336 -0.0126  0.2319 -0.1135
  133OSM   H15S14316   1.926   3.511   4.351 -2.1080  0.3565 -1.4403
  133OSM   H15T14317   1.885   3.653   4.248 -0.9894 -1.8596 -0.3078
  133OSM   C16S14318   1.913   3.691   4.464  0.5558  0.2883 -0.8100
  133OSM   H16S14319   1.803   3.701   4.480  0.6245 -0.0018 -0.1019
  133OSM   H16T14320   1.943   3.797   4.451  1.4335  0.0074 -1.1607
  133OSM   C17S14321   1.949   3.632   4.597 -0.6140 -0.5519 -0.4131
  133OSM   H17S14322   1.952   3.715   4.671 -0.6720 -1.0712  0.1787
  133OSM   H17T14323   2.057   3.604   4.590 -0.2364  0.8409 -0.4438
  133OSM   C18S14324   1.868   3.511   4.628  0.3634  0.6612  0.3979
  133OSM   H18S14325   1.900   3.479   4.729  1.0343  2.2480  0.7234
  133OSM   H18T14326   1.881   3.426   4.557 -1.4865 -0.4500  1.3271
  133OSM   H18U14327   1.760   3.532   4.642 -0.4901 -1.8419 -1.6364
  133OSM    C1F14328   2.724   3.480   3.223  0.3420  0.2040 -0.8844
  133OSM     OF14329   2.800   3.525   3.134 -0.2841  0.7204 -0.0452
  133OSM    C2F14330   2.775   3.430   3.353  0.5553  0.0493 -0.4810
  133OSM    H2F14331   2.738   3.325   3.358 -1.7115  0.8422  1.1372
  133OSM    H2G14332   2.724   3.479   3.438  0.3506  0.0790 -0.6193
  133OSM    C3F14333   2.928   3.442   3.375 -0.1784  0.5951  0.1701
  133OSM    H3F14334   2.942   3.550   3.396 -1.8650  1.4338 -2.5888
  133OSM    H3G14335   2.990   3.428   3.284 -0.1291 -0.7022  0.3875
  133OSM    C4F14336   2.984   3.344   3.486 -1.0994  0.3435  0.4746
  133OSM    H4F14337   2.955   3.238   3.472  0.3339 -0.1542  1.1313
  133OSM    H4G14338   2.942   3.380   3.583 -1.5063  2.1621 -0.3304
  133OSM    C5F14339   3.138   3.362   3.501  0.3807 -0.2843 -0.5789
  133OSM    H5F14340   3.170   3.468   3.510 -1.5208  0.2833 -0.1772
  133OSM    H5G14341   3.185   3.320   3.410 -0.2772 -0.0949 -1.0151
  133OSM    C6F14342   3.203   3.288   3.626 -0.3270 -0.3653  0.9538
  133OSM    H6F14343   3.314   3.294   3.622 -0.2950 -0.8561  1.0578
  133OSM    H6G14344   3.168   3.183   3.633 -1.0748 -0.1917 -0.0148
  133OSM    C7F14345   3.162   3.348   3.761  0.2385 -0.4160 -0.1172
  133OSM    H7F14346   3.058   3.310   3.761  0.7927 -1.9738  0.0370
  133OSM    H7G14347   3.165   3.459   3.759  0.7114 -0.3582  1.5793
  133OSM    C8F14348   3.236   3.292   3.883 -0.6876 -0.0492  0.0645
  133OSM    H8F14349   3.322   3.363   3.884 -0.7500  0.0300  0.8438
  133OSM    H8G14350   3.268   3.188   3.863 -2.7583 -0.1981 -3.1598
  133OSM    C9F14351   3.159   3.286   4.015 -0.3097  0.1737 -0.6122
  133OSM    H9F14352   3.051   3.285   3.994 -0.2283  0.9127 -1.1109
  133OSM   C10F14353   3.196   3.308   4.144 -0.1614  0.8746 -0.4424
  133OSM   H10F14354   3.110   3.299   4.212  0.6103 -0.5653  0.3827
  133OSM   C11F14355   3.331   3.336   4.204  0.3824 -0.1314  0.2097
  133OSM   H11F14356   3.341   3.447   4.194 -1.8713  0.1532  0.4636
  133OSM   H11G14357   3.407   3.289   4.139  0.3848  0.8368 -0.5104
  133OSM   C12F14358   3.355   3.297   4.353  0.0847  0.1508  0.8685
  133OSM   H12F14359   3.304   3.364   4.426 -0.6568 -1.4814  1.8946
  133OSM   H12G14360   3.464   3.303   4.371  0.2877 -3.8405  1.7672
  133OSM   C13F14361   3.316   3.158   4.395  0.3523 -0.1467 -0.8694
  133OSM   H13F14362   3.353   3.075   4.330  0.3575 -1.4284  0.6948
  133OSM   H13G14363   3.206   3.147   4.400  0.4149 -0.7961 -0.8261
  133OSM   C14F14364   3.360   3.124   4.541  0.3363 -0.1078 -0.4724
  133OSM   H14F14365   3.331   3.211   4.605 -0.9525 -0.7239 -0.1814
  133OSM   H14G14366   3.469   3.104   4.542 -0.1952 -3.5991 -0.7523
  133OSM   C15F14367   3.284   3.008   4.606  0.1529  0.5925  0.5430
  133OSM   H15F14368   3.281   2.917   4.542 -1.8888 -0.0627  1.5039
  133OSM   H15G14369   3.174   3.019   4.616  0.1882  2.3504 -0.5830
  133OSM   C16F14370   3.350   2.957   4.733  0.4590  0.3741  0.0304
  133OSM   H16F14371   3.459   2.936   4.724  1.0579  2.9029  0.5824
  133OSM   H16G14372   3.297   2.869   4.775  0.2784  1.0331  1.2261
  133OSM   C17F14373   3.340   3.069   4.835  0.0305  0.7301 -0.0952
  133OSM   H17F14374   3.239   3.113   4.828 -1.2126 -1.9691 -0.2026
  133OSM   H17G14375   3.418   3.145   4.812  0.0378  0.5141 -0.7910
  133OSM   C18F14376   3.358   3.017   4.985  0.1738 -0.0929  0.0821
  133OSM   H18F14377   3.351   3.093   5.065  0.1662 -0.3669  0.3459
  133OSM   H18G14378   3.449   2.955   5.001 -0.6000 -1.1770  0.4088
  133OSM   H18H14379   3.274   2.946   5.002 -0.6986  0.6942 -0.8621
  134OSM      N14380   0.622   1.180   2.276 -0.0123 -0.9441 -0.3889
  134OSM    C1514381   0.623   1.332   2.246 -0.0567  0.5755 -0.2963
  134OSM   H15A14382   0.587   1.393   2.328  0.2684  1.8453 -1.0682
  134OSM   H15B14383   0.567   1.353   2.157  1.1608  0.0101 -1.2212
  134OSM   H15C14384   0.724   1.367   2.228 -0.5284  2.0591 -0.2542
  134OSM    C1414385   0.492   1.149   2.326 -0.2490  0.5418 -0.1859
  134OSM   H14A14386   0.482   1.183   2.428 -0.0141  0.4733 -0.1398
  134OSM   H14B14387   0.463   1.045   2.333 -2.4572  1.1915  1.5703
  134OSM   H14C14388   0.414   1.208   2.280  0.8994  1.8413 -0.5580
  134OSM    C1314389   0.631   1.110   2.142 -0.2296 -0.1477  0.2426
  134OSM   H13A14390   0.721   1.141   2.091 -0.0423  3.0414  2.1963
  134OSM   H13B14391   0.546   1.136   2.080  1.8645  0.0947 -2.7156
  134OSM   H13C14392   0.627   1.003   2.150  0.3494 -0.0769  1.5913
  134OSM    C1214393   0.728   1.140   2.381  0.6369  0.1309  0.3159
  134OSM   H12A14394   0.825   1.180   2.355  0.4328 -1.1048 -2.8813
  134OSM   H12B14395   0.746   1.034   2.368  0.4017  0.3463 -2.4577
  134OSM    C1114396   0.706   1.188   2.529  0.4716  0.5640  0.5586
  134OSM   H11A14397   0.614   1.136   2.562 -1.2175  1.3511 -2.5194
  134OSM   H11B14398   0.691   1.298   2.532 -2.9580  0.2338 -0.1604
  134OSM      P14399   0.890   1.019   2.617  0.0315 -0.2397 -0.2458
  134OSM    O1314400   0.796   0.907   2.599 -0.3864  0.1063  0.4181
  134OSM    O1414401   1.019   1.008   2.539  0.0349 -0.2043  0.9112
  134OSM    O1114402   0.922   1.032   2.774 -0.0774  0.4372  0.0749
  134OSM    O1214403   0.824   1.158   2.595 -0.2896  0.2087  0.6245
  134OSM    C1S14404   0.823   1.087   2.865  0.8694 -0.3597  0.9640
  134OSM    H1S14405   0.748   1.007   2.883 -0.1562  0.2111 -0.5948
  134OSM    H1T14406   0.758   1.165   2.821 -1.5266 -2.5900  0.2741
  134OSM     NF14407   0.774   1.180   3.082 -0.7265 -0.1781 -0.4568
  134OSM    HNF14408   0.768   1.276   3.110  1.6688 -0.2170  0.4598
  134OSM    C2S14409   0.890   1.142   2.994  0.5106 -0.6249 -0.2415
  134OSM    H2S14410   0.940   1.061   3.052 -0.0544  1.2652  3.1903
  134OSM    C3S14411   0.993   1.250   2.963  0.2251 -1.0256  0.3859
  134OSM    H3S14412   0.922   1.327   2.926  0.3358 -1.5577 -0.9672
  134OSM     O314413   1.080   1.228   2.849 -1.2368  0.4257  0.0418
  134OSM    HO314414   1.041   1.149   2.811  1.6712 -0.6462 -0.9649
  134OSM    C4S14415   1.061   1.283   3.090  0.8827 -0.6397 -1.1015
  134OSM    H4S14416   1.114   1.199   3.137  0.7394 -1.1133 -1.7688
  134OSM    C5S14417   1.067   1.410   3.143 -0.3570 -0.1997  0.1203
  134OSM    H5S14418   1.018   1.499   3.102  0.7822  0.0009 -0.8520
  134OSM    C6S14419   1.146   1.428   3.264 -0.1394  0.3139  0.3004
  134OSM    H6S14420   1.208   1.520   3.273  0.5441 -0.2302  1.4383
  134OSM    H6T14421   1.216   1.342   3.277 -3.2334 -2.0886  3.0539
  134OSM    C7S14422   1.045   1.420   3.378  0.0469  0.1497 -0.4095
  134OSM    H7S14423   0.986   1.327   3.364  0.0761  0.1411 -0.4753
  134OSM    H7T14424   0.973   1.504   3.375 -0.7543 -0.4069  1.6466
  134OSM    C8S14425   1.113   1.401   3.516  0.0374 -0.5681  0.4274
  134OSM    H8S14426   1.188   1.480   3.538 -0.3487 -0.2857  0.7521
  134OSM    H8T14427   1.168   1.306   3.507 -1.3919 -1.4181  0.3934
  134OSM    C9S14428   1.005   1.364   3.624 -0.3778  0.3262 -0.0956
  134OSM    H9S14429   0.968   1.259   3.626  1.4959 -0.4370  3.3054
  134OSM    H9T14430   0.916   1.430   3.617 -0.6510  0.0153  0.3605
  134OSM   C10S14431   1.058   1.382   3.766 -0.1338  0.5704 -0.0839
  134OSM   H10S14432   0.974   1.362   3.836 -1.5001  0.3906 -1.6862
  134OSM   H10T14433   1.082   1.490   3.775  2.1590  0.1797 -0.8125
  134OSM   C11S14434   1.188   1.307   3.798  0.9862 -0.4763  0.0627
  134OSM   H11S14435   1.276   1.321   3.732  1.3210 -2.2833  0.0764
  134OSM   H11T14436   1.156   1.202   3.779 -1.8645  0.3005 -0.0208
  134OSM   C12S14437   1.229   1.333   3.945  0.4868  0.3424 -0.3339
  134OSM   H12S14438   1.136   1.357   4.002  1.4208 -0.2518  1.5065
  134OSM   H12T14439   1.289   1.427   3.944  2.5839 -0.9316  0.7542
  134OSM   C13S14440   1.301   1.216   4.013  0.5272  0.4473  0.1207
  134OSM   H13S14441   1.389   1.179   3.955  0.5856  2.7491 -1.4016
  134OSM   H13T14442   1.216   1.144   4.012 -0.6785  1.7913  1.4598
  134OSM   C14S14443   1.334   1.250   4.158 -0.2941  0.3832 -0.2309
  134OSM   H14S14444   1.236   1.270   4.208 -0.4474 -0.1076 -0.3340
  134OSM   H14T14445   1.392   1.344   4.170  2.4760 -1.2656 -0.0707
  134OSM   C15S14446   1.393   1.133   4.241 -0.3643 -0.3212 -0.1253
  134OSM   H15S14447   1.492   1.107   4.197  1.3340  0.5102  2.9002
  134OSM   H15T14448   1.322   1.049   4.229 -0.8337  0.0281  0.1526
  134OSM   C16S14449   1.409   1.187   4.382  0.1002  1.0799 -0.5074
  134OSM   H16S14450   1.304   1.213   4.409 -0.5764  1.3462 -3.1257
  134OSM   H16T14451   1.477   1.274   4.389 -0.6535  1.6356  0.2202
  134OSM   C17S14452   1.448   1.070   4.482  0.1013 -0.2695 -0.0608
  134OSM   H17S14453   1.482   1.121   4.575 -0.6171  2.9685 -1.4453
  134OSM   H17T14454   1.537   1.017   4.443  1.4271  2.2186 -0.6322
  134OSM   C18S14455   1.337   0.963   4.508 -0.2562 -0.0280  0.0395
  134OSM   H18S14456   1.236   1.007   4.496 -1.4806 -3.2285 -3.6973
  134OSM   H18T14457   1.344   0.919   4.610 -0.1501 -0.5581 -0.1886
  134OSM   H18U14458   1.352   0.885   4.430  1.1574  1.0091 -0.7866
  134OSM    C1F14459   0.690   1.093   3.134 -0.0674 -0.3514  0.2258
  134OSM     OF14460   0.718   0.973   3.140  0.0342  0.4015  0.4950
  134OSM    C2F14461   0.562   1.149   3.194  0.0937  0.2619 -0.0915
  134OSM    H2F14462   0.481   1.073   3.207 -1.0554  1.5018  0.1917
  134OSM    H2G14463   0.520   1.216   3.116  0.7223  0.1967 -0.4943
  134OSM    C3F14464   0.594   1.215   3.327  0.4863  0.4963  0.5246
  134OSM    H3F14465   0.507   1.281   3.350  0.5574  0.5868  0.5344
  134OSM    H3G14466   0.689   1.273   3.332 -0.4284  2.1081  0.1847
  134OSM    C4F14467   0.593   1.108   3.438 -0.0105 -0.1387  0.3394
  134OSM    H4F14468   0.658   1.023   3.407 -1.4099 -0.0867 -3.2336
  134OSM    H4G14469   0.495   1.056   3.429 -0.4624  0.8966 -1.3375
  134OSM    C5F14470   0.640   1.147   3.582  0.3273 -0.6549  0.0048
  134OSM    H5F14471   0.739   1.196   3.566  0.5390 -1.5001 -1.4543
  134OSM    H5G14472   0.657   1.048   3.629 -2.9213 -1.7632 -0.8965
  134OSM    C6F14473   0.527   1.220   3.654 -0.1181 -0.0463  0.0812
  134OSM    H6F14474   0.442   1.152   3.674 -0.9974  1.0324  0.1199
  134OSM    H6G14475   0.498   1.306   3.589  0.6655  0.8199  0.8483
  134OSM    C7F14476   0.559   1.285   3.792  0.1909 -1.0934 -0.1417
  134OSM    H7F14477   0.639   1.362   3.784 -0.9126  0.3083  1.5173
  134OSM    H7G14478   0.591   1.199   3.854 -0.4944 -0.8933  0.4995
  134OSM    C8F14479   0.435   1.356   3.851  0.3573  0.4309  0.4333
  134OSM    H8F14480   0.350   1.285   3.861 -0.0674  0.7455 -0.7830
  134OSM    H8G14481   0.394   1.433   3.781  4.1455  2.9518  0.7241
  134OSM    C9F14482   0.471   1.427   3.983  0.1165  0.7894  0.4115
  134OSM    H9F14483   0.567   1.480   3.991  0.9386 -0.7408  1.2659
  134OSM   C10F14484   0.411   1.397   4.102  0.3328 -0.4729  0.1547
  134OSM   H10F14485   0.452   1.464   4.180 -2.4224  0.8428  0.6088
  134OSM   C11F14486   0.304   1.302   4.136  0.3484  0.3721  0.1096
  134OSM   H11F14487   0.266   1.244   4.049  1.6163 -1.6460  0.8385
  134OSM   H11G14488   0.221   1.353   4.190  0.8276  0.5670  0.6657
  134OSM   C12F14489   0.366   1.197   4.236  0.2847  0.1352 -0.1941
  134OSM   H12F14490   0.438   1.130   4.186  0.5466 -0.3445  0.7922
  134OSM   H12G14491   0.288   1.123   4.266 -2.1286  2.6327  0.1959
  134OSM   C13F14492   0.440   1.263   4.355 -0.7020  0.1797 -0.5835
  134OSM   H13F14493   0.375   1.348   4.384  1.5930  1.8188 -0.0359
  134OSM   H13G14494   0.538   1.299   4.317 -0.2309 -2.1289 -1.7348
  134OSM   C14F14495   0.456   1.162   4.471 -0.4892  0.2711 -0.5368
  134OSM   H14F14496   0.507   1.071   4.432 -0.1860  0.5582 -0.8215
  134OSM   H14G14497   0.353   1.131   4.500 -0.2609 -0.6606 -0.6726
  134OSM   C15F14498   0.528   1.229   4.575 -0.7421 -0.2565  0.6917
  134OSM   H15F14499   0.497   1.336   4.582  1.7062  0.4727  1.4265
  134OSM   H15G14500   0.638   1.229   4.557 -0.7050 -0.4816  0.9089
  134OSM   C16F14501   0.502   1.172   4.719  0.4261  0.1784 -0.2805
  134OSM   H16F14502   0.532   1.065   4.716 -2.4211 -0.8044  1.8071
  134OSM   H16G14503   0.395   1.173   4.748  0.9335  0.3010  1.7319
  134OSM   C17F14504   0.565   1.244   4.840 -0.5842  0.2225 -0.0976
  134OSM   H17F14505   0.675   1.237   4.831 -0.5304  0.0912  0.6091
  134OSM   H17G14506   0.544   1.184   4.931 -1.1711  0.4431 -0.0792
  134OSM   C18F14507   0.542   1.397   4.863  0.0245  0.6477  0.1246
  134OSM   H18F14508   0.587   1.448   4.775 -0.1595  2.6190  1.1037
  134OSM   H18G14509   0.601   1.431   4.952  0.0685  0.3459  0.2112
  134OSM   H18H14510   0.440   1.440   4.875  0.4380  1.8311 -0.4083
  135OSM      N14511   4.440   4.028   2.360  0.0327 -0.6919  0.0696
  135OSM    C1514512   4.551   3.964   2.430 -0.1295  0.2392  0.8693
  135OSM   H15A14513   4.518   3.931   2.528  1.6387 -0.8249  1.1441
  135OSM   H15B14514   4.630   4.035   2.449  0.1132  0.0996  0.4033
  135OSM   H15C14515   4.596   3.885   2.372  0.2673  2.0109 -1.3408
  135OSM    C1414516   4.469   4.103   2.238  0.0869  0.1105 -0.0701
  135OSM   H14A14517   4.386   4.160   2.201  1.4648  1.2268 -1.5457
  135OSM   H14B14518   4.500   4.030   2.165 -1.4451  0.4179 -1.0539
  135OSM   H14C14519   4.545   4.178   2.253 -0.4192  1.0962 -2.1351
  135OSM    C1314520   4.323   3.941   2.338  0.7821  0.3238  0.2046
  135OSM   H13A14521   4.279   3.892   2.423  1.2210 -1.5352 -0.5860
  135OSM   H13B14522   4.339   3.855   2.275 -0.0264 -1.2209  2.0190
  135OSM   H13C14523   4.233   3.989   2.304 -0.3421  0.5945  3.3226
  135OSM    C1214524   4.401   4.140   2.463  0.3933  0.3381 -0.8525
  135OSM   H12A14525   4.305   4.180   2.433 -0.4219  0.0347  1.1806
  135OSM   H12B14526   4.465   4.227   2.458  2.2872 -0.9465 -0.1577
  135OSM    C1114527   4.387   4.091   2.610  0.1800 -0.4694 -0.2893
  135OSM   H11A14528   4.344   4.171   2.674  0.1108 -1.9901  1.6760
  135OSM   H11B14529   4.485   4.066   2.656  0.4906  2.8225  1.1079
  135OSM      P14530   4.270   3.893   2.728 -0.1457  0.0616  0.1969
  135OSM    O1314531   4.144   3.829   2.698 -0.0204  0.2824 -0.3423
  135OSM    O1414532   4.385   3.805   2.732 -0.1469  0.5190  0.2642
  135OSM    O1114533   4.271   3.982   2.861  0.2156  0.0407 -0.2165
  135OSM    O1214534   4.285   3.990   2.614 -0.0270 -0.2809  0.4736
  135OSM    C1S14535   4.185   4.097   2.879 -0.1473  1.1571  0.0482
  135OSM    H1S14536   4.112   4.114   2.796 -0.1126 -0.8834 -0.4390
  135OSM    H1T14537   4.250   4.187   2.882  0.6164  0.6223 -0.2560
  135OSM     NF14538   3.996   4.180   3.009 -0.1154 -0.4732 -0.0395
  135OSM    HNF14539   4.038   4.264   3.043 -0.7838  0.1725 -0.7394
  135OSM    C2S14540   4.102   4.080   3.006 -0.5154  0.2527 -0.3280
  135OSM    H2S14541   4.051   3.981   3.010  2.2831 -1.3371 -1.1305
  135OSM    C3S14542   4.196   4.075   3.130  0.0849 -0.3057 -0.2498
  135OSM    H3S14543   4.249   4.172   3.140 -2.2206  1.0267 -0.0225
  135OSM     O314544   4.294   3.966   3.124  0.0604 -0.0803 -0.2429
  135OSM    HO314545   4.297   3.933   3.034  0.0188 -0.0169 -0.2672
  135OSM    C4S14546   4.112   4.062   3.258 -0.0286  0.3855  0.4043
  135OSM    H4S14547   4.090   4.158   3.308 -1.2359 -0.0195  0.6942
  135OSM    C5S14548   4.093   3.948   3.328  0.5035  0.0551 -0.1604
  135OSM    H5S14549   4.135   3.859   3.279  4.4286  2.4579 -1.6773
  135OSM    C6S14550   4.019   3.926   3.453 -0.0667  0.0176  0.0520
  135OSM    H6S14551   4.075   3.904   3.546 -1.6410 -0.8305  0.8451
  135OSM    H6T14552   3.965   3.833   3.422 -0.6939  0.8534 -1.5057
  135OSM    C7S14553   3.907   4.030   3.493 -0.6735 -0.0428  0.0025
  135OSM    H7S14554   3.842   4.064   3.409 -2.1839 -3.7227 -0.5047
  135OSM    H7T14555   3.957   4.115   3.544 -0.9321 -0.7520  1.5219
  135OSM    C8S14556   3.803   3.988   3.595 -0.2838  0.1794  0.7052
  135OSM    H8S14557   3.738   3.910   3.549 -0.0820  0.7948 -0.6587
  135OSM    H8T14558   3.732   4.074   3.595 -0.2157  0.3711 -2.4925
  135OSM    C9S14559   3.864   3.946   3.728  0.5136  0.1363 -0.0735
  135OSM    H9S14560   3.958   4.005   3.741 -0.4775  1.4209  1.7556
  135OSM    H9T14561   3.902   3.842   3.722 -0.9916 -0.6009  1.8979
  135OSM   C10S14562   3.780   3.984   3.856  0.8967 -0.5168 -0.1812
  135OSM   H10S14563   3.684   3.928   3.861 -1.0877  2.6988  0.5617
  135OSM   H10T14564   3.745   4.089   3.847 -3.3952 -1.6754  0.6402
  135OSM   C11S14565   3.859   3.951   3.985  0.0822 -0.9493 -0.0529
  135OSM   H11S14566   3.948   4.017   3.994 -1.0518  0.5732  0.6497
  135OSM   H11T14567   3.892   3.846   3.979 -0.0878 -1.2405  2.8063
  135OSM   C12S14568   3.781   3.969   4.109  0.3630 -0.9848  0.3116
  135OSM   H12S14569   3.713   3.881   4.121  1.9656 -2.4754 -1.0573
  135OSM   H12T14570   3.711   4.055   4.104  1.2096 -0.2379  0.8983
  135OSM   C13S14571   3.866   3.979   4.237 -0.1724 -0.6953  0.5292
  135OSM   H13S14572   3.938   4.062   4.219 -1.1956 -0.2061 -1.6201
  135OSM   H13T14573   3.927   3.892   4.271 -0.5317 -0.2896  2.2954
  135OSM   C14S14574   3.776   4.017   4.360 -0.0111  0.4945  0.4350
  135OSM   H14S14575   3.713   3.931   4.389  0.2814  0.6187  1.4860
  135OSM   H14T14576   3.703   4.095   4.331 -2.2009 -1.6503 -0.1119
  135OSM   C15S14577   3.859   4.055   4.479 -0.6848 -0.4076  0.0058
  135OSM   H15S14578   3.808   4.111   4.560 -0.1658  0.3249 -0.1600
  135OSM   H15T14579   3.939   4.127   4.451 -0.5341 -0.1379  1.0714
  135OSM   C16S14580   3.920   3.930   4.536 -0.5430 -0.1222 -0.3902
  135OSM   H16S14581   3.960   3.861   4.458  2.1233  1.5905 -0.6557
  135OSM   H16T14582   3.842   3.874   4.592  0.4477 -2.0836 -0.8802
  135OSM   C17S14583   4.031   3.956   4.635  0.3270  0.2310 -0.6769
  135OSM   H17S14584   3.976   3.997   4.723  0.2869 -0.2905 -0.4577
  135OSM   H17T14585   4.096   4.031   4.586  1.0495  0.1337  0.1183
  135OSM   C18S14586   4.100   3.832   4.693  0.0779  0.4176  0.3490
  135OSM   H18S14587   4.138   3.766   4.613 -0.6884  1.8667 -1.2776
  135OSM   H18T14588   4.046   3.775   4.772  0.8530 -1.1354 -0.2023
  135OSM   H18U14589   4.190   3.858   4.753 -1.0919  1.1643  1.8284
  135OSM    C1F14590   3.897   4.185   2.926  0.3937  0.0952  0.5668
  135OSM     OF14591   3.872   4.084   2.858  0.3537 -0.1637 -0.5517
  135OSM    C2F14592   3.829   4.312   2.913 -0.1083  0.3350 -0.1105
  135OSM    H2F14593   3.881   4.380   2.842 -0.5308 -0.4143 -1.1657
  135OSM    H2G14594   3.844   4.353   3.015  0.0397  1.6562 -0.6343
  135OSM    C3F14595   3.680   4.316   2.877 -0.1891  0.2114  0.2759
  135OSM    H3F14596   3.678   4.248   2.790  0.5163 -3.9165  3.2029
  135OSM    H3G14597   3.639   4.417   2.854  0.7722  0.5305 -0.0937
  135OSM    C4F14598   3.597   4.255   2.984  0.0729 -0.1658  0.4775
  135OSM    H4F14599   3.652   4.173   3.035  0.9213 -0.1590 -0.4027
  135OSM    H4G14600   3.495   4.228   2.951 -0.6077 -1.2795  3.2245
  135OSM    C5F14601   3.561   4.360   3.090 -0.2612  0.1541 -0.5086
  135OSM    H5F14602   3.506   4.448   3.051  0.3896  0.8499  0.0902
  135OSM    H5G14603   3.660   4.406   3.111  0.4028 -1.9620  1.4709
  135OSM    C6F14604   3.495   4.309   3.214  0.5555  0.7607 -0.0928
  135OSM    H6F14605   3.550   4.218   3.247  2.3896  1.5973 -0.7192
  135OSM    H6G14606   3.392   4.286   3.181  1.0661 -0.0791 -1.1969
  135OSM    C7F14607   3.496   4.405   3.333 -0.1776 -0.1437  0.0645
  135OSM    H7F14608   3.434   4.495   3.315 -0.1428  0.1183  1.1769
  135OSM    H7G14609   3.601   4.435   3.352  0.7846 -1.3500 -2.7705
  135OSM    C8F14610   3.446   4.342   3.470 -0.0509  0.1696 -0.2144
  135OSM    H8F14611   3.505   4.248   3.479  2.4367  1.7202  0.5067
  135OSM    H8G14612   3.341   4.309   3.450 -0.2329 -0.0509  1.0100
  135OSM    C9F14613   3.452   4.439   3.585  0.6701  0.3695  0.8214
  135OSM    H9F14614   3.452   4.546   3.561  0.9357  0.5151  1.4345
  135OSM   C10F14615   3.480   4.407   3.714 -0.2363 -0.1378 -0.4932
  135OSM   H10F14616   3.471   4.483   3.793 -3.1532 -1.2306  0.3487
  135OSM   C11F14617   3.514   4.275   3.772 -0.5735  0.6853  0.3865
  135OSM   H11F14618   3.623   4.256   3.765 -0.8790 -1.1778  0.2551
  135OSM   H11G14619   3.460   4.196   3.714  0.0876 -0.4978  1.3414
  135OSM   C12F14620   3.454   4.254   3.910  0.4872 -0.5050 -0.1916
  135OSM   H12F14621   3.446   4.145   3.933 -2.4406 -0.6226 -1.3075
  135OSM   H12G14622   3.353   4.300   3.913 -0.1508 -1.7978 -0.9197
  135OSM   C13F14623   3.531   4.313   4.028 -0.4406  0.1588  0.2630
  135OSM   H13F14624   3.544   4.423   4.019 -0.4370  0.2225  0.9508
  135OSM   H13G14625   3.634   4.273   4.042  0.2259  2.0902  1.2348
  135OSM   C14F14626   3.455   4.279   4.163 -0.1347  0.4833 -0.6284
  135OSM   H14F14627   3.470   4.171   4.183 -0.4390  0.4655 -0.4911
  135OSM   H14G14628   3.346   4.292   4.144 -0.1531  1.2252 -0.0531
  135OSM   C15F14629   3.500   4.374   4.274 -0.6212  0.6244  0.0291
  135OSM   H15F14630   3.474   4.475   4.234 -0.0214  0.1756 -1.5901
  135OSM   H15G14631   3.609   4.380   4.299 -0.7616  1.0074  0.5584
  135OSM   C16F14632   3.416   4.346   4.404  0.1188  0.3127  0.4210
  135OSM   H16F14633   3.435   4.238   4.418 -0.2092 -0.0256 -1.5691
  135OSM   H16G14634   3.311   4.374   4.382  0.4541 -0.1874 -2.0039
  135OSM   C17F14635   3.454   4.428   4.527  0.0089  0.2620  0.2563
  135OSM   H17F14636   3.561   4.455   4.521 -0.5464  2.7244  0.3110
  135OSM   H17G14637   3.444   4.378   4.626 -0.5010  1.6125  0.9125
  135OSM   C18F14638   3.380   4.552   4.538  0.1217 -0.1448 -0.1832
  135OSM   H18F14639   3.271   4.537   4.556 -0.2615  1.1947 -1.1940
  135OSM   H18G14640   3.379   4.610   4.443  1.3141 -1.0682 -0.7812
  135OSM   H18H14641   3.407   4.628   4.615 -2.7606  2.0513 -1.1480
  136OSM      N14642   0.287   6.774   3.210 -0.1004  0.1664  0.2110
  136OSM    C1514643   0.367   6.860   3.305 -0.2608  0.4728  0.0440
  136OSM   H15A14644   0.458   6.811   3.336 -0.2433  0.4901  0.0216
  136OSM   H15B14645   0.307   6.887   3.390 -2.3979  1.8330 -1.7787
  136OSM   H15C14646   0.388   6.953   3.254 -1.4888 -1.4864 -4.5278
  136OSM    C1414647   0.193   6.861   3.133 -0.2185  0.2389 -0.1728
  136OSM   H14A14648   0.118   6.901   3.200 -2.2968 -1.4217 -1.3505
  136OSM   H14B14649   0.134   6.801   3.065  0.2774  0.8949 -1.2083
  136OSM   H14C14650   0.236   6.941   3.074  0.2770 -0.3384 -0.6128
  136OSM    C1314651   0.377   6.720   3.104  0.1960  0.0301 -0.3321
  136OSM   H13A14652   0.465   6.671   3.142  0.1163  1.5967  2.0593
  136OSM   H13B14653   0.416   6.805   3.048  0.1414  1.5184  1.7843
  136OSM   H13C14654   0.328   6.660   3.029  2.0475 -1.8548 -0.1070
  136OSM    C1214655   0.208   6.665   3.286 -0.1009 -0.4328  0.3263
  136OSM   H12A14656   0.291   6.609   3.328  1.6194  1.2550 -0.6954
  136OSM   H12B14657   0.157   6.608   3.209 -0.2600 -0.2373  0.2874
  136OSM    C1114658   0.124   6.701   3.410 -1.0700 -0.1914  0.7873
  136OSM   H11A14659   0.177   6.756   3.490 -1.3386  1.4626 -0.1407
  136OSM   H11B14660   0.087   6.611   3.464  2.7701 -1.3295  1.8909
  136OSM      P14661  -0.110   6.740   3.293  0.2127  0.5402  0.1319
  136OSM    O1314662  -0.184   6.862   3.247  0.7594  0.1406 -0.0047
  136OSM    O1414663  -0.079   6.639   3.184 -0.3027 -0.1656 -0.1278
  136OSM    O1114664  -0.194   6.673   3.404  0.3612 -0.3115 -0.3600
  136OSM    O1214665   0.019   6.789   3.372 -0.0112 -1.2192 -0.2198
  136OSM    C1S14666  -0.217   6.735   3.536  0.8960 -0.4302  0.1803
  136OSM    H1S14667  -0.118   6.760   3.580  1.2986 -1.4253 -0.1242
  136OSM    H1T14668  -0.260   6.655   3.600 -0.9672 -1.6952 -2.4518
  136OSM     NF14669  -0.325   6.905   3.669  0.4371 -0.8517 -0.8972
  136OSM    HNF14670  -0.405   6.879   3.723  0.9329 -0.1216  0.2207
  136OSM    C2S14671  -0.320   6.853   3.539 -0.2951  0.4046  0.2039
  136OSM    H2S14672  -0.294   6.940   3.474 -0.8594  1.5850  1.5047
  136OSM    C3S14673  -0.457   6.800   3.481  0.5025 -0.3833 -0.3341
  136OSM    H3S14674  -0.474   6.706   3.538  0.5487 -0.2102 -0.0323
  136OSM     O314675  -0.460   6.767   3.345 -0.2118 -0.0276 -0.1785
  136OSM    HO314676  -0.367   6.758   3.324 -0.7836  0.3991 -3.5014
  136OSM    C4S14677  -0.559   6.902   3.513  0.6069 -0.4829  0.6884
  136OSM    H4S14678  -0.544   6.991   3.450  0.0830 -1.0670 -0.3018
  136OSM    C5S14679  -0.652   6.905   3.610  0.4155  0.8909  0.1826
  136OSM    H5S14680  -0.679   6.810   3.659 -0.3807  1.3152  0.5862
  136OSM    C6S14681  -0.761   7.005   3.630 -1.2810  0.8804 -0.0026
  136OSM    H6S14682  -0.754   7.083   3.551  1.4115 -1.2285 -2.0154
  136OSM    H6T14683  -0.741   7.047   3.731  0.1902 -1.6658  0.8653
  136OSM    C7S14684  -0.899   6.935   3.609  0.6351 -0.5325 -0.1556
  136OSM    H7S14685  -0.904   6.883   3.511  0.6409  0.1734 -0.5392
  136OSM    H7T14686  -0.975   7.014   3.590 -0.0171 -1.0688  0.1828
  136OSM    C8S14687  -0.980   6.868   3.730 -0.2167  0.2712  0.4332
  136OSM    H8S14688  -0.917   6.779   3.749 -0.6996  0.0652  1.0657
  136OSM    H8T14689  -1.089   6.851   3.716 -0.1703  0.6272 -0.4485
  136OSM    C9S14690  -0.987   6.961   3.853 -0.2051  0.8682  0.3352
  136OSM    H9S14691  -1.034   7.058   3.826 -0.7151  0.6180  0.3013
  136OSM    H9T14692  -0.881   6.970   3.884  0.4409 -4.2193  0.5243
  136OSM   C10S14693  -1.077   6.893   3.956 -0.3824 -0.6363  0.5617
  136OSM   H10S14694  -1.034   6.791   3.969  0.9329  0.0470  1.7861
  136OSM   H10T14695  -1.180   6.886   3.915  0.2807 -4.4479 -0.9048
  136OSM   C11S14696  -1.085   6.973   4.084  0.4353  0.1674 -0.1711
  136OSM   H11S14697  -1.115   7.076   4.054 -1.4732  0.0442  1.1333
  136OSM   H11T14698  -0.985   6.968   4.133  0.0462 -0.7652  0.5594
  136OSM   C12S14699  -1.189   6.914   4.182  0.1985 -0.1623  0.4004
  136OSM   H12S14700  -1.164   6.808   4.200  1.0297  0.3375  2.4974
  136OSM   H12T14701  -1.294   6.929   4.150 -0.2414 -2.2520  0.7341
  136OSM   C13S14702  -1.172   6.988   4.312  0.2513 -0.5059  0.0385
  136OSM   H13S14703  -1.183   7.095   4.282  3.2136 -0.2356 -0.3794
  136OSM   H13T14704  -1.066   6.977   4.340  0.1787  2.1597  1.7305
  136OSM   C14S14705  -1.264   6.929   4.426 -0.5776 -0.7512 -0.5576
  136OSM   H14S14706  -1.261   6.819   4.414 -0.6124 -0.8641  0.4254
  136OSM   H14T14707  -1.367   6.972   4.422 -1.3914 -2.6572 -3.8529
  136OSM   C15S14708  -1.204   6.955   4.563  0.5775  0.9545  0.2885
  136OSM   H15S14709  -1.177   7.062   4.573  1.5455  0.6594  0.9666
  136OSM   H15T14710  -1.119   6.887   4.582  0.1876 -0.0937 -1.4912
  136OSM   C16S14711  -1.301   6.915   4.674  0.4962 -0.2876 -0.0062
  136OSM   H16S14712  -1.299   6.805   4.665 -0.0101 -0.1207 -4.2716
  136OSM   H16T14713  -1.405   6.953   4.661 -0.4004 -1.1404  3.6097
  136OSM   C17S14714  -1.257   6.958   4.813 -0.2092  0.2034  0.5812
  136OSM   H17S14715  -1.163   6.905   4.839  0.8108  1.5943 -0.1619
  136OSM   H17T14716  -1.328   6.941   4.898 -0.3663  1.8648  0.8316
  136OSM   C18S14717  -1.218   7.110   4.827  0.1353 -0.0145  0.5928
  136OSM   H18S14718  -1.108   7.125   4.824  0.4596 -1.8685  1.5419
  136OSM   H18T14719  -1.263   7.152   4.919  0.0864  0.1986  0.4727
  136OSM   H18U14720  -1.283   7.152   4.747 -1.2743 -1.2966  1.0099
  136OSM    C1F14721  -0.214   6.951   3.733 -0.5530  0.0683  0.7081
  136OSM     OF14722  -0.122   7.006   3.666  0.6648 -0.4326  0.0239
  136OSM    C2F14723  -0.187   6.905   3.875 -0.0629  0.4672 -0.3804
  136OSM    H2F14724  -0.083   6.866   3.879 -0.5073 -0.6398  0.7469
  136OSM    H2G14725  -0.255   6.826   3.913  0.9851  1.1986  3.4346
  136OSM    C3F14726  -0.182   7.026   3.973  0.4128 -0.2632 -0.0665
  136OSM    H3F14727  -0.123   7.111   3.931  1.0406  0.0827  1.4186
  136OSM    H3G14728  -0.135   6.983   4.064  0.5358  1.0604  0.5193
  136OSM    C4F14729  -0.317   7.072   4.022 -0.2234 -0.7455  0.4936
  136OSM    H4F14730  -0.391   6.992   4.043  0.3233 -1.3422  0.2150
  136OSM    H4G14731  -0.363   7.124   3.936  1.0675  0.1131  0.2887
  136OSM    C5F14732  -0.311   7.174   4.131  0.1590 -0.1114 -0.5584
  136OSM    H5F14733  -0.414   7.204   4.161  1.0354  0.4122  2.2418
  136OSM    H5G14734  -0.270   7.265   4.081  1.6842  1.1808  2.7465
  136OSM    C6F14735  -0.233   7.132   4.253 -0.1194  0.0814 -0.1475
  136OSM    H6F14736  -0.128   7.120   4.218 -0.1417  4.0180 -2.1012
  136OSM    H6G14737  -0.279   7.040   4.295 -0.4487 -0.0430 -0.7646
  136OSM    C7F14738  -0.217   7.246   4.356 -0.8359  0.7112  0.0155
  136OSM    H7F14739  -0.170   7.325   4.294  0.9700 -0.8421 -0.7241
  136OSM    H7G14740  -0.150   7.209   4.437 -0.1422  0.5819 -0.6041
  136OSM    C8F14741  -0.336   7.305   4.428  0.2671  0.3021  0.4206
  136OSM    H8F14742  -0.402   7.226   4.471  2.7209 -1.2075  1.6253
  136OSM    H8G14743  -0.406   7.332   4.346  2.3970 -0.2794 -1.6861
  136OSM    C9F14744  -0.304   7.428   4.510 -0.3617  0.2790 -0.3589
  136OSM    H9F14745  -0.289   7.526   4.461 -1.9289  0.5029 -0.4487
  136OSM   C10F14746  -0.301   7.426   4.641  0.4569 -0.0073  0.4389
  136OSM   H10F14747  -0.273   7.521   4.688  1.0470  0.1062 -0.1220
  136OSM   C11F14748  -0.305   7.305   4.732 -0.3514  0.8438  0.2697
  136OSM   H11F14749  -0.202   7.265   4.742  1.6621  5.3192 -0.0956
  136OSM   H11G14750  -0.365   7.221   4.692  1.6536 -0.6489  0.2591
  136OSM   C12F14751  -0.337   7.326   4.886  0.4096  0.9418 -0.1874
  136OSM   H12F14752  -0.440   7.367   4.888  0.8502  2.0570  0.4639
  136OSM   H12G14753  -0.272   7.401   4.936  1.0816  0.0748  0.2733
  136OSM   C13F14754  -0.319   7.191   4.960  0.8042 -0.5520 -0.3718
  136OSM   H13F14755  -0.212   7.173   4.985  0.4445  0.0054  1.8162
  136OSM   H13G14756  -0.373   7.115   4.899  1.2245 -0.4639 -0.8544
  136OSM   C14F14757  -0.398   7.189   5.094 -0.1669  0.4084  0.1451
  136OSM   H14F14758  -0.446   7.092   5.116  0.4209  0.2712  0.8836
  136OSM   H14G14759  -0.489   7.251   5.080 -0.8448 -0.4697  0.6134
  136OSM   C15F14760  -0.332   7.247   5.219  0.3260  0.6098  0.0681
  136OSM   H15F14761  -0.223   7.221   5.217  0.0154 -0.9500  1.1017
  136OSM   H15G14762  -0.362   7.186   5.308 -1.3992  1.2654 -0.0402
  136OSM   C16F14763  -0.347   7.392   5.248 -0.4247  0.4163  0.4509
  136OSM   H16F14764  -0.294   7.448   5.168 -0.5558  0.2602  0.2549
  136OSM   H16G14765  -0.286   7.418   5.337 -0.5403 -0.8341  0.9130
  136OSM   C17F14766  -0.488   7.459   5.261 -0.5783  0.1509  0.5654
  136OSM   H17F14767  -0.569   7.431   5.190 -1.3238 -0.7265  1.7231
  136OSM   H17G14768  -0.476   7.566   5.234  1.6644  0.2690  1.8038
  136OSM   C18F14769  -0.540   7.445   5.405 -0.0972  0.3503 -0.5512
  136OSM   H18F14770  -0.566   7.343   5.438  0.9104  0.1902 -0.2378
  136OSM   H18G14771  -0.626   7.514   5.418 -0.5617 -0.5296  1.2301
  136OSM   H18H14772  -0.468   7.494   5.474  1.4901 -0.7584 -1.3524
  137OSM      N14773   2.795   5.042   2.822  0.4881  1.0434 -1.0310
  137OSM    C1514774   2.706   4.981   2.932 -0.6675 -0.6670 -0.2134
  137OSM   H15A14775   2.675   4.881   2.907  1.8783 -0.8467 -3.3008
  137OSM   H15B14776   2.617   5.042   2.941  0.4087  1.1414 -1.1485
  137OSM   H15C14777   2.749   4.987   3.031 -2.7204  2.6817  0.6650
  137OSM    C1414778   2.708   5.030   2.695  0.2819  0.5161  0.5612
  137OSM   H14A14779   2.690   4.931   2.655 -1.1657  0.7983  0.4797
  137OSM   H14B14780   2.747   5.103   2.625 -0.3538  0.6368  0.3325
  137OSM   H14C14781   2.608   5.063   2.718 -1.0309 -1.6924 -1.5573
  137OSM    C1314782   2.823   5.185   2.837 -0.1303 -0.4912  0.5720
  137OSM   H13A14783   2.737   5.248   2.817 -1.0501 -2.3717 -1.7349
  137OSM   H13B14784   2.902   5.209   2.767  1.6217  1.1419  2.9045
  137OSM   H13C14785   2.868   5.213   2.932 -0.2855 -2.3524  1.2339
  137OSM    C1214786   2.925   4.966   2.807  0.1569 -0.7119  0.3803
  137OSM   H12A14787   2.899   4.863   2.787  2.7459 -1.2316 -0.7665
  137OSM   H12B14788   2.972   4.957   2.904 -0.7837 -3.3061  0.6687
  137OSM    C1114789   3.021   4.991   2.676  0.7662  0.1454 -0.2074
  137OSM   H11A14790   2.948   4.966   2.595 -0.0451 -1.6774  1.0005
  137OSM   H11B14791   3.104   4.918   2.682  0.7680  0.2772  1.9290
  137OSM      P14792   3.191   5.163   2.736  0.4183 -0.1048 -0.4082
  137OSM    O1314793   3.289   5.049   2.742  0.0706 -0.7934  0.1899
  137OSM    O1414794   3.246   5.290   2.672 -0.1793  0.3723 -0.0515
  137OSM    O1114795   3.133   5.192   2.874  0.1830 -0.1354 -0.3874
  137OSM    O1214796   3.057   5.129   2.672  0.5920 -0.1793  0.6230
  137OSM    C1S14797   3.211   5.274   2.962  0.3321 -0.0852 -0.1443
  137OSM    H1S14798   3.194   5.381   2.934 -0.5728  0.1232  1.1176
  137OSM    H1T14799   3.321   5.258   2.962  0.2896 -0.4736 -1.4044
  137OSM     NF14800   3.260   5.343   3.189  0.0933  0.2793 -0.1723
  137OSM    HNF14801   3.301   5.292   3.265 -2.0187  1.1822  1.6971
  137OSM    C2S14802   3.170   5.263   3.107 -0.2218  0.0648  0.0596
  137OSM    H2S14803   3.064   5.294   3.119 -1.2982 -2.6165 -1.6202
  137OSM    C3S14804   3.172   5.113   3.143 -0.0240  0.2786 -0.5012
  137OSM    H3S14805   3.273   5.070   3.123  0.1823 -0.3899  1.7389
  137OSM     O314806   3.078   5.023   3.087 -0.1398  0.2670 -0.1451
  137OSM    HO314807   3.035   5.058   3.009  0.3695 -2.6897 -1.9146
  137OSM    C4S14808   3.154   5.099   3.294 -0.1264  0.5631 -1.2627
  137OSM    H4S14809   3.052   5.120   3.330 -0.3787 -0.8637 -1.1048
  137OSM    C5S14810   3.251   5.058   3.375  0.3798  0.2709  0.3974
  137OSM    H5S14811   3.342   5.021   3.325  0.0055 -0.0105 -0.0790
  137OSM    C6S14812   3.252   5.058   3.523 -0.4976 -0.6715  0.4886
  137OSM    H6S14813   3.342   5.120   3.547 -0.2333 -0.3332 -1.2827
  137OSM    H6T14814   3.270   4.951   3.550  0.9990 -1.5516 -3.3630
  137OSM    C7S14815   3.139   5.123   3.596  0.0765 -0.1621  0.0651
  137OSM    H7S14816   3.040   5.078   3.574 -1.7403  2.1931  2.7526
  137OSM    H7T14817   3.121   5.229   3.570 -0.9298 -0.7603 -1.8826
  137OSM    C8S14818   3.158   5.099   3.754  0.5476 -0.4658 -0.0195
  137OSM    H8S14819   3.190   4.995   3.772 -3.0260 -1.7129 -0.0150
  137OSM    H8T14820   3.058   5.103   3.803  1.3847  0.1652  1.7111
  137OSM    C9S14821   3.242   5.202   3.835  0.0526  0.0780 -0.3894
  137OSM    H9S14822   3.190   5.300   3.840  0.6305  0.3944 -0.5285
  137OSM    H9T14823   3.336   5.215   3.777  0.0660  0.0597 -0.3718
  137OSM   C10S14824   3.275   5.153   3.971  0.3707 -0.2536 -0.3193
  137OSM   H10S14825   3.345   5.227   4.016  0.9113 -1.2847  0.5854
  137OSM   H10T14826   3.329   5.056   3.963  0.9719  0.2439 -3.0721
  137OSM   C11S14827   3.151   5.133   4.057 -0.1167  0.3792  1.1052
  137OSM   H11S14828   3.100   5.035   4.048 -0.2485  0.3849  1.7271
  137OSM   H11T14829   3.075   5.210   4.030 -1.2808 -0.7650  1.0329
  137OSM   C12S14830   3.171   5.130   4.212 -0.6820  0.2549  0.0511
  137OSM   H12S14831   3.260   5.192   4.235  1.5280 -2.8452  0.4673
  137OSM   H12T14832   3.190   5.025   4.243 -2.8335 -0.4103 -0.7178
  137OSM   C13S14833   3.050   5.186   4.285 -0.0492  0.5982 -0.8372
  137OSM   H13S14834   3.044   5.293   4.259 -0.2868  0.6508 -0.5690
  137OSM   H13T14835   3.070   5.185   4.394  0.4851  1.9218 -0.9173
  137OSM   C14S14836   2.931   5.089   4.270  0.4933 -0.1659 -0.2515
  137OSM   H14S14837   2.958   4.983   4.292 -1.5259 -0.6894 -0.1142
  137OSM   H14T14838   2.890   5.093   4.167  3.7453 -1.4732 -1.7260
  137OSM   C15S14839   2.818   5.125   4.370  0.2515  0.6123 -0.0745
  137OSM   H15S14840   2.798   5.233   4.355 -0.9581  0.1866 -1.9476
  137OSM   H15T14841   2.841   5.117   4.478 -0.9017  2.8271  0.3892
  137OSM   C16S14842   2.689   5.042   4.344 -0.3348 -0.1663  0.6926
  137OSM   H16S14843   2.707   4.932   4.340  1.6343  0.1340 -1.7990
  137OSM   H16T14844   2.655   5.053   4.239  0.8079 -1.7962  0.1068
  137OSM   C17S14845   2.574   5.079   4.437  0.2796 -0.2779 -0.4551
  137OSM   H17S14846   2.479   5.034   4.402 -0.8681  0.9841  0.8989
  137OSM   H17T14847   2.560   5.189   4.449 -0.2607 -0.4766  1.0664
  137OSM   C18S14848   2.582   5.040   4.592 -0.7480 -0.2328  0.2455
  137OSM   H18S14849   2.586   4.929   4.603  1.0570 -0.0789  1.5903
  137OSM   H18T14850   2.504   5.094   4.650  1.0086  2.0287  0.6332
  137OSM   H18U14851   2.676   5.085   4.629 -1.0785  0.2096  0.5625
  137OSM    C1F14852   3.254   5.476   3.193  0.0496  0.1368 -0.2163
  137OSM     OF14853   3.186   5.526   3.106  0.5557  0.0876 -0.1401
  137OSM    C2F14854   3.331   5.549   3.300  0.2530  0.5914 -0.2985
  137OSM    H2F14855   3.354   5.653   3.268 -0.1632  0.8558  0.2563
  137OSM    H2G14856   3.427   5.493   3.297 -0.5430 -0.7810 -1.3298
  137OSM    C3F14857   3.267   5.549   3.445 -0.5059  0.9543  0.1465
  137OSM    H3F14858   3.274   5.443   3.476  1.6656  1.5094  1.7744
  137OSM    H3G14859   3.159   5.573   3.440 -1.7056 -3.5156  0.9940
  137OSM    C4F14860   3.331   5.634   3.553 -0.5531  0.7907  0.0098
  137OSM    H4F14861   3.431   5.594   3.577 -0.8119  0.0917 -0.0533
  137OSM    H4G14862   3.275   5.620   3.648  0.0749  0.4132  0.3306
  137OSM    C5F14863   3.329   5.781   3.521 -0.0743 -0.4244  0.4375
  137OSM    H5F14864   3.241   5.835   3.563  1.6643  0.6413  2.9230
  137OSM    H5G14865   3.331   5.802   3.412 -2.1469  1.5215  0.6995
  137OSM    C6F14866   3.445   5.860   3.585 -0.0457 -0.5781 -0.3658
  137OSM    H6F14867   3.425   5.965   3.557 -0.5196 -0.4746  0.3275
  137OSM    H6G14868   3.545   5.829   3.548  0.7114  2.7557 -1.4122
  137OSM    C7F14869   3.446   5.842   3.739 -0.2686 -0.1459  0.5189
  137OSM    H7F14870   3.463   5.735   3.762 -1.6044 -0.6802 -0.8311
  137OSM    H7G14871   3.346   5.860   3.783 -0.4310 -1.2430  0.6304
  137OSM    C8F14872   3.546   5.940   3.800 -0.3435  0.0827  0.2186
  137OSM    H8F14873   3.526   5.961   3.908  0.0052 -0.4941  0.4007
  137OSM    H8G14874   3.532   6.035   3.744 -0.8864  1.7347  2.9546
  137OSM    C9F14875   3.696   5.894   3.788  0.1463  0.3079 -0.2273
  137OSM    H9F14876   3.737   5.913   3.688  0.0945 -1.5102 -0.6307
  137OSM   C10F14877   3.768   5.828   3.879 -0.0487 -0.4259  0.5825
  137OSM   H10F14878   3.871   5.809   3.847  1.2025  0.6359  3.6371
  137OSM   C11F14879   3.732   5.774   4.010  0.2475 -0.3950  0.3825
  137OSM   H11F14880   3.799   5.690   4.041 -1.1258 -1.3207  0.9451
  137OSM   H11G14881   3.635   5.720   4.005  0.4747 -0.9085  1.2595
  137OSM   C12F14882   3.735   5.889   4.105  0.3707 -0.2083  0.2755
  137OSM   H12F14883   3.668   5.973   4.076  1.2595  1.0518  1.6683
  137OSM   H12G14884   3.836   5.934   4.115  0.7303 -1.2752  2.0028
  137OSM   C13F14885   3.691   5.847   4.246 -0.5223 -0.5720 -0.2233
  137OSM   H13F14886   3.719   5.741   4.263 -0.6592 -1.1194 -2.9655
  137OSM   H13G14887   3.581   5.839   4.235 -0.9256  1.6847  1.3965
  137OSM   C14F14888   3.732   5.951   4.344  0.2541 -0.6439  0.0719
  137OSM   H14F14889   3.695   6.051   4.312  0.1068 -0.7955 -0.2342
  137OSM   H14G14890   3.841   5.955   4.366  0.1419  2.5692  0.4936
  137OSM   C15F14891   3.667   5.934   4.487  0.1158  0.3417  0.2009
  137OSM   H15F14892   3.679   5.829   4.520  2.0855 -0.0330 -1.5111
  137OSM   H15G14893   3.561   5.963   4.477  1.0926  4.3935 -0.0703
  137OSM   C16F14894   3.730   6.029   4.590  0.8349  0.3597 -0.3571
  137OSM   H16F14895   3.730   6.123   4.532  1.1522  0.0325 -0.8912
  137OSM   H16G14896   3.835   5.997   4.613  1.2083  0.9439 -1.2151
  137OSM   C17F14897   3.676   6.046   4.736  0.3133  0.1668 -0.0223
  137OSM   H17F14898   3.568   6.071   4.727  0.5206  1.0653 -0.1030
  137OSM   H17G14899   3.732   6.137   4.765  0.0454  0.9545 -1.8126
  137OSM   C18F14900   3.695   5.935   4.837 -0.0968 -0.8703 -0.2751
  137OSM   H18F14901   3.637   5.845   4.809  1.9977 -1.5814 -2.7341
  137OSM   H18G14902   3.673   5.986   4.933  1.3782  2.3178 -1.4856
  137OSM   H18H14903   3.803   5.910   4.836 -0.0363 -0.6046 -0.7465
  138OSM      N14904   1.216   2.919   2.865 -0.8065 -0.6132  0.0060
  138OSM    C1514905   1.249   2.794   2.782  0.3627  0.0452  0.4940
  138OSM   H15A14906   1.188   2.806   2.694 -0.2208  0.3014  0.9319
  138OSM   H15B14907   1.222   2.703   2.834  0.4913 -1.4008 -1.8148
  138OSM   H15C14908   1.354   2.790   2.757  0.4700 -0.2302  0.9637
  138OSM    C1414909   1.248   3.045   2.785 -0.1573  0.0672 -0.3613
  138OSM   H14A14910   1.205   3.033   2.687 -0.5516  0.4015 -0.2333
  138OSM   H14B14911   1.356   3.046   2.784 -0.1054  1.6781  1.1516
  138OSM   H14C14912   1.220   3.140   2.829 -0.4306  0.0391 -0.4710
  138OSM    C1314913   1.067   2.926   2.892  0.4020 -0.4892 -0.0999
  138OSM   H13A14914   1.045   2.995   2.973 -0.3881 -1.8703  0.8993
  138OSM   H13B14915   1.029   2.833   2.931  1.1994 -0.3608  1.0588
  138OSM   H13C14916   1.002   2.955   2.811  0.6262 -0.2157 -0.1852
  138OSM    C1214917   1.293   2.909   2.996  0.4142 -0.0769  0.0333
  138OSM   H12A14918   1.267   2.822   3.055 -1.4805 -0.2023 -0.9099
  138OSM   H12B14919   1.263   2.993   3.057 -0.8741  0.3604 -1.1516
  138OSM    C1114920   1.443   2.911   2.980 -0.0273 -0.1655  0.3494
  138OSM   H11A14921   1.479   2.842   2.901 -0.2639  0.0359  0.0682
  138OSM   H11B14922   1.498   2.877   3.071  0.7675  0.2524  0.0354
  138OSM      P14923   1.502   3.172   3.020  0.0146  0.6316  0.2043
  138OSM    O1314924   1.628   3.219   2.959  0.2458 -1.1244  0.1440
  138OSM    O1414925   1.378   3.251   3.014 -0.2683 -0.1502  0.2949
  138OSM    O1114926   1.534   3.119   3.161 -0.1187 -0.1051 -0.0345
  138OSM    O1214927   1.483   3.036   2.941  0.0593 -0.2723  0.0890
  138OSM    C1S14928   1.664   3.108   3.220  0.5075 -0.2180  0.6798
  138OSM    H1S14929   1.724   3.201   3.223  1.3752 -0.7621  0.5792
  138OSM    H1T14930   1.728   3.045   3.155 -0.6155 -2.0709  1.2636
  138OSM     NF14931   1.792   3.075   3.409 -1.1131 -0.5875 -0.3903
  138OSM    HNF14932   1.857   3.000   3.404  3.2772  2.7385  0.4511
  138OSM    C2S14933   1.657   3.060   3.365 -0.6213 -0.1663  0.0199
  138OSM    H2S14934   1.591   3.129   3.422  0.7910  0.2602  1.1967
  138OSM    C3S14935   1.600   2.919   3.365  0.1575 -0.0142 -0.2660
  138OSM    H3S14936   1.657   2.847   3.303  0.1089  0.3908 -0.7788
  138OSM     O314937   1.470   2.913   3.311  0.7631  0.0065 -0.4434
  138OSM    HO314938   1.465   2.997   3.266 -0.8900  0.2908  0.1634
  138OSM    C4S14939   1.582   2.869   3.502  0.6113  0.3865  0.3731
  138OSM    H4S14940   1.484   2.885   3.548 -0.9891  0.4762 -2.7986
  138OSM    C5S14941   1.655   2.769   3.552 -0.0958  0.2184 -0.4984
  138OSM    H5S14942   1.732   2.720   3.492 -0.6952 -0.9954 -0.3036
  138OSM    C6S14943   1.624   2.709   3.684  0.1229 -0.2436 -0.3305
  138OSM    H6S14944   1.540   2.637   3.676  0.2711 -0.5669  0.8687
  138OSM    H6T14945   1.588   2.787   3.755  0.8609  0.7176 -0.9804
  138OSM    C7S14946   1.752   2.644   3.752  0.2555 -0.8900 -1.0165
  138OSM    H7S14947   1.826   2.725   3.768  1.1893 -1.3228 -2.8313
  138OSM    H7T14948   1.793   2.562   3.689  0.3324 -2.2992  0.7947
  138OSM    C8S14949   1.709   2.598   3.891 -0.5439 -0.2273 -0.0905
  138OSM    H8S14950   1.642   2.509   3.886 -0.9842  0.0595  0.5570
  138OSM    H8T14951   1.643   2.674   3.938 -2.8803 -2.3333  0.2858
  138OSM    C9S14952   1.834   2.570   3.973 -0.3773  0.1203 -0.6447
  138OSM    H9S14953   1.870   2.675   3.974 -0.7808  0.2906 -2.0146
  138OSM    H9T14954   1.896   2.504   3.909 -0.0037  0.3781 -0.5497
  138OSM   C10S14955   1.807   2.517   4.115 -0.0767 -0.1278 -0.1213
  138OSM   H10S14956   1.745   2.425   4.108  0.7005 -0.6712 -0.0241
  138OSM   H10T14957   1.755   2.598   4.171 -1.0440 -0.4987 -0.4686
  138OSM   C11S14958   1.932   2.493   4.200  0.3204 -0.0260  0.0579
  138OSM   H11S14959   2.012   2.559   4.162  2.1256 -1.4378  1.2404
  138OSM   H11T14960   1.968   2.388   4.204  0.9804  0.1794 -0.2844
  138OSM   C12S14961   1.902   2.533   4.351  0.0022  0.4809  0.2945
  138OSM   H12S14962   1.812   2.479   4.384  0.6675 -0.3827  0.7403
  138OSM   H12T14963   1.890   2.644   4.355  3.9189  1.0265  1.3126
  138OSM   C13S14964   2.018   2.502   4.440  1.0691  0.2931  0.5167
  138OSM   H13S14965   2.103   2.567   4.410  0.1007  0.6081 -1.7527
  138OSM   H13T14966   2.046   2.397   4.416 -1.4319 -0.2791 -0.1801
  138OSM   C14S14967   1.992   2.535   4.581 -0.5095  0.2341  0.1749
  138OSM   H14S14968   1.942   2.634   4.590 -0.4445  0.1883  1.1810
  138OSM   H14T14969   2.095   2.532   4.623 -0.4095  1.7499  0.0788
  138OSM   C15S14970   1.909   2.423   4.645  0.7007 -0.4467 -0.0018
  138OSM   H15S14971   1.964   2.328   4.629  2.0024  0.2821  0.0204
  138OSM   H15T14972   1.807   2.413   4.602 -0.0609 -1.4005  1.9147
  138OSM   C16S14973   1.884   2.457   4.789 -0.3296 -0.1371  0.2034
  138OSM   H16S14974   1.843   2.560   4.791 -0.7043 -0.2659 -0.5951
  138OSM   H16T14975   1.988   2.460   4.827 -1.1218  0.1444  2.5445
  138OSM   C17S14976   1.785   2.363   4.855 -0.1720  0.2540  0.4923
  138OSM   H17S14977   1.837   2.265   4.859 -1.1767 -0.3173  0.1049
  138OSM   H17T14978   1.701   2.346   4.784 -0.1193  0.5572  0.3583
  138OSM   C18S14979   1.731   2.398   4.989 -0.6889 -1.4868 -0.2483
  138OSM   H18S14980   1.818   2.398   5.057 -2.4589 -3.0714  2.1713
  138OSM   H18T14981   1.659   2.326   5.034  0.6875 -1.8616  1.4167
  138OSM   H18U14982   1.693   2.503   4.995  0.6088 -0.9737 -0.6653
  138OSM    C1F14983   1.841   3.190   3.450 -0.7919  0.5366  0.0504
  138OSM     OF14984   1.779   3.291   3.455  0.1136 -0.0908 -0.2364
  138OSM    C2F14985   1.983   3.184   3.496 -0.5906  0.0193 -0.7416
  138OSM    H2F14986   2.019   3.285   3.528 -0.1768 -0.5654  0.7594
  138OSM    H2G14987   2.038   3.146   3.408  0.9203  1.9605 -0.7178
  138OSM    C3F14988   1.998   3.085   3.609  0.7906  0.0476 -0.5015
  138OSM    H3F14989   2.107   3.061   3.616  1.0989  1.7372  1.9715
  138OSM    H3G14990   1.941   2.992   3.587 -1.4541  1.2863 -0.2400
  138OSM    C4F14991   1.954   3.143   3.745 -0.0752 -0.5223 -0.1406
  138OSM    H4F14992   1.845   3.160   3.736 -0.3515 -1.8647  0.4012
  138OSM    H4G14993   2.005   3.241   3.761  0.4230 -0.7150 -0.5069
  138OSM    C5F14994   1.983   3.048   3.864 -0.2887 -0.3245 -0.1571
  138OSM    H5F14995   2.091   3.026   3.874  0.3593  1.7160 -1.8912
  138OSM    H5G14996   1.932   2.954   3.837 -0.2029 -0.0952 -1.1884
  138OSM    C6F14997   1.930   3.094   4.000  0.1859 -0.4151  0.1013
  138OSM    H6F14998   1.819   3.086   3.994  0.2624 -2.2129  0.7554
  138OSM    H6G14999   1.959   3.201   4.014 -1.0686  0.5259 -3.3478
  138OSM    C7F15000   1.987   3.008   4.119 -0.9600 -0.2363  0.2899
  138OSM    H7F15001   2.097   3.011   4.133 -1.0133  0.3117  0.6435
  138OSM    H7G15002   1.966   2.904   4.087  1.1959 -0.4230 -0.7283
  138OSM    C8F15003   1.933   3.048   4.256 -0.0497  0.0660  0.2653
  138OSM    H8F15004   1.968   2.971   4.328  1.4666  2.1352  1.8598
  138OSM    H8G15005   1.823   3.040   4.242  0.1119  2.0288 -3.3125
  138OSM    C9F15006   1.975   3.192   4.292 -0.0788  0.8989  0.1823
  138OSM    H9F15007   1.967   3.266   4.210 -0.6915  0.8952  0.2307
  138OSM   C10F15008   2.035   3.224   4.405 -0.1814 -0.2010 -0.2818
  138OSM   H10F15009   2.071   3.327   4.415  2.9245 -1.2042 -0.0569
  138OSM   C11F15010   2.074   3.138   4.525  0.0940 -0.0114 -0.5238
  138OSM   H11F15011   2.121   3.202   4.603 -0.1291  0.0877 -0.4684
  138OSM   H11G15012   2.148   3.060   4.497 -0.5110 -1.1983  1.0589
  138OSM   C12F15013   1.958   3.072   4.604  0.0980 -0.3587 -0.3654
  138OSM   H12F15014   1.875   3.036   4.538  0.1336 -2.2923  0.5667
  138OSM   H12G15015   1.916   3.149   4.671  0.3161 -0.4237 -0.1549
  138OSM   C13F15016   2.013   2.963   4.701  0.2542  0.2458  0.5031
  138OSM   H13F15017   2.088   3.013   4.766 -0.2719 -1.9673  2.9798
  138OSM   H13G15018   2.063   2.881   4.646  0.7387 -0.1924  1.5683
  138OSM   C14F15019   1.910   2.893   4.788  0.1517 -0.9638 -0.1717
  138OSM   H14F15020   1.842   2.827   4.729  0.1097 -0.7116 -0.4075
  138OSM   H14G15021   1.846   2.969   4.837  1.6361  0.7870 -0.8557
  138OSM   C15F15022   1.961   2.803   4.899  0.1167 -0.2193  0.3284
  138OSM   H15F15023   2.029   2.722   4.862  1.7283  1.5780 -0.8350
  138OSM   H15G15024   1.875   2.757   4.951 -0.2676  0.3067  0.1660
  138OSM   C16F15025   2.060   2.881   4.982  0.6582 -0.1928 -0.2802
  138OSM   H16F15026   1.999   2.965   5.022  0.9971 -0.8290  1.7250
  138OSM   H16G15027   2.150   2.904   4.921  1.7240 -0.9822  0.9239
  138OSM   C17F15028   2.117   2.798   5.104  0.2202 -0.1883  0.7538
  138OSM   H17F15029   2.189   2.862   5.159 -0.0975  1.2615 -0.4353
  138OSM   H17G15030   2.174   2.712   5.063 -1.3748 -2.0457  2.2151
  138OSM   C18F15031   2.009   2.741   5.197  0.0497  0.5485 -0.5363
  138OSM   H18F15032   1.938   2.821   5.227 -0.8393 -0.3516 -0.1989
  138OSM   H18G15033   2.049   2.694   5.290 -3.9693 -2.6575 -0.1050
  138OSM   H18H15034   1.942   2.663   5.154 -0.1446  0.2043  0.3560
  139OSM      N15035   5.555   4.488   3.066  0.2433  0.3936 -0.2444
  139OSM    C1515036   5.693   4.542   3.040 -0.4761 -0.5253  0.0145
  139OSM   H15A15037   5.753   4.490   3.113 -0.4296 -1.9052 -0.9491
  139OSM   H15B15038   5.699   4.650   3.046  3.4359 -0.5880  0.0793
  139OSM   H15C15039   5.726   4.507   2.943  1.5290 -0.7491  0.7263
  139OSM    C1415040   5.462   4.517   2.945 -0.2626  0.3891 -0.6040
  139OSM   H14A15041   5.461   4.624   2.937 -1.9954  0.7411  2.5592
  139OSM   H14B15042   5.363   4.478   2.964 -0.2788  0.8752  0.3588
  139OSM   H14C15043   5.499   4.477   2.852 -0.0698  2.1461 -1.3027
  139OSM    C1315044   5.569   4.336   3.082 -0.0262  0.0094  0.3311
  139OSM   H13A15045   5.476   4.290   3.112 -0.0510  0.4544  0.9539
  139OSM   H13B15046   5.647   4.330   3.156 -1.1028 -0.0118  1.4899
  139OSM   H13C15047   5.587   4.287   2.987 -0.5218 -0.4237  0.4524
  139OSM    C1215048   5.509   4.554   3.190 -0.2007 -0.0373 -0.4212
  139OSM   H12A15049   5.492   4.659   3.167 -2.1153 -0.2171 -0.0275
  139OSM   H12B15050   5.570   4.546   3.279  0.4235  0.2336 -0.8172
  139OSM    C1115051   5.368   4.505   3.246  0.1756 -0.1749 -0.4374
  139OSM   H11A15052   5.348   4.546   3.347 -0.2140  0.5950 -0.8122
  139OSM   H11B15053   5.383   4.395   3.247 -0.2150 -0.2444  1.5079
  139OSM      P15054   5.147   4.640   3.166 -0.2555 -0.2081 -0.7080
  139OSM    O1315055   5.210   4.772   3.170 -0.1753 -0.6452 -0.0600
  139OSM    O1415056   5.047   4.620   3.064  0.7405  0.1981  0.0205
  139OSM    O1115057   5.082   4.638   3.309  0.9385  0.3290 -0.1050
  139OSM    O1215058   5.255   4.526   3.156  0.0741  0.0642 -0.0246
  139OSM    C1S15059   5.022   4.508   3.350  0.0910 -0.5127  0.5664
  139OSM    H1S15060   5.088   4.419   3.337 -0.2545 -0.3912 -2.8855
  139OSM    H1T15061   4.933   4.474   3.293  0.0574  0.3538  0.0901
  139OSM     NF15062   4.888   4.384   3.520 -0.7967  0.1447 -0.0777
  139OSM    HNF15063   4.789   4.377   3.506 -0.2762 -2.2841 -4.2553
  139OSM    C2S15064   4.959   4.511   3.491 -0.0659 -0.5343 -0.6450
  139OSM    H2S15065   5.038   4.519   3.569 -1.9564  1.1564  1.2329
  139OSM    C3S15066   4.860   4.626   3.514 -0.0630 -0.0082 -0.0744
  139OSM    H3S15067   4.764   4.598   3.466 -0.1084 -1.6355  0.8980
  139OSM     O315068   4.898   4.753   3.466  0.4195  0.0627 -0.3720
  139OSM    HO315069   4.978   4.718   3.427 -0.7813 -0.5910 -2.4147
  139OSM    C4S15070   4.842   4.637   3.665 -0.2474  1.0782 -0.4230
  139OSM    H4S15071   4.910   4.708   3.714  1.0976  1.7589 -3.1178
  139OSM    C5S15072   4.736   4.586   3.731  0.0570 -0.5054  0.1810
  139OSM    H5S15073   4.648   4.545   3.679 -0.6260  2.7861 -1.5749
  139OSM    C6S15074   4.717   4.595   3.876 -0.1630 -0.0646 -0.5367
  139OSM    H6S15075   4.624   4.543   3.907  0.6238 -1.1361  0.1031
  139OSM    H6T15076   4.720   4.700   3.911 -2.0349 -0.1021 -0.1423
  139OSM    C7S15077   4.837   4.522   3.945  0.3617  0.2472  0.4915
  139OSM    H7S15078   4.931   4.576   3.925  0.9152 -0.1710  1.8177
  139OSM    H7T15079   4.845   4.418   3.907 -0.1182 -0.3487  1.9544
  139OSM    C8S15080   4.830   4.510   4.096 -0.1038  0.1557 -0.8316
  139OSM    H8S15081   4.806   4.612   4.134  3.7137  1.3387 -1.1840
  139OSM    H8T15082   4.931   4.499   4.140 -0.7722 -1.3735  0.4252
  139OSM    C9S15083   4.730   4.408   4.151 -0.2736 -0.7604 -0.6851
  139OSM    H9S15084   4.765   4.304   4.135  0.3369 -0.6067 -0.3828
  139OSM    H9T15085   4.633   4.421   4.099 -0.2377 -0.1245 -0.6074
  139OSM   C10S15086   4.708   4.415   4.304 -0.5258  0.2491  0.2825
  139OSM   H10S15087   4.609   4.365   4.318 -0.1896 -0.1423  1.3347
  139OSM   H10T15088   4.681   4.518   4.336 -1.0192 -0.0803  0.9667
  139OSM   C11S15089   4.818   4.343   4.381  0.0996  0.0319  1.0151
  139OSM   H11S15090   4.911   4.401   4.360  0.4365 -0.1132  2.0552
  139OSM   H11T15091   4.831   4.245   4.331 -1.1165 -0.2690  1.2506
  139OSM   C12S15092   4.803   4.314   4.532 -0.0071  0.4118  0.7280
  139OSM   H12S15093   4.905   4.281   4.563 -0.6278 -2.3147  0.1349
  139OSM   H12T15094   4.736   4.226   4.548 -0.0150 -0.8861 -4.5352
  139OSM   C13S15095   4.751   4.424   4.622  0.4418 -0.6180  0.3337
  139OSM   H13S15096   4.642   4.434   4.600  0.8449  0.8151 -1.2123
  139OSM   H13T15097   4.798   4.523   4.605 -1.9506  0.5756  0.2325
  139OSM   C14S15098   4.770   4.389   4.763 -0.3672 -0.8433 -0.0793
  139OSM   H14S15099   4.877   4.393   4.791  0.0589 -1.4069 -1.5088
  139OSM   H14T15100   4.733   4.288   4.794  0.7914 -1.1462  0.3679
  139OSM   C15S15101   4.681   4.482   4.842  0.4299  0.2583  0.5190
  139OSM   H15S15102   4.573   4.459   4.826  0.6662  0.1427 -0.9847
  139OSM   H15T15103   4.694   4.589   4.816  0.1677  0.8734  2.6767
  139OSM   C16S15104   4.726   4.451   4.983 -0.1775 -0.6366  0.5586
  139OSM   H16S15105   4.836   4.465   4.991  0.0183 -1.3676 -0.6351
  139OSM   H16T15106   4.711   4.342   4.998 -1.1413 -0.6871 -0.6074
  139OSM   C17S15107   4.680   4.534   5.095 -0.4470 -0.2019  0.4224
  139OSM   H17S15108   4.698   4.642   5.076 -0.8101 -0.2038  0.0452
  139OSM   H17T15109   4.745   4.512   5.183 -1.4842 -1.1673  0.9668
  139OSM   C18S15110   4.532   4.509   5.124 -0.1465 -0.0101  0.4051
  139OSM   H18S15111   4.512   4.405   5.158  0.8525 -0.4037 -0.1530
  139OSM   H18T15112   4.475   4.526   5.029  2.2851  0.4039 -1.0589
  139OSM   H18U15113   4.498   4.580   5.201  1.2618  0.1465  0.9006
  139OSM    C1F15114   4.947   4.268   3.542 -0.3673  0.1525 -0.2963
  139OSM     OF15115   5.067   4.269   3.528 -0.2523  0.4922 -0.3994
  139OSM    C2F15116   4.874   4.147   3.583  0.1193  0.8683  0.1435
  139OSM    H2F15117   4.936   4.055   3.584 -0.6654  0.3230 -0.5689
  139OSM    H2G15118   4.797   4.129   3.505 -0.7195  0.9814  0.9311
  139OSM    C3F15119   4.815   4.164   3.727 -0.3911  0.5885  0.3099
  139OSM    H3F15120   4.749   4.250   3.752  0.3334  0.4522  2.9875
  139OSM    H3G15121   4.898   4.165   3.800  2.0471 -0.2040 -2.2603
  139OSM    C4F15122   4.722   4.048   3.766  0.0858 -0.9173 -0.2504
  139OSM    H4F15123   4.789   3.962   3.745  0.6047 -0.5069 -0.3038
  139OSM    H4G15124   4.642   4.038   3.689 -1.0675 -0.1227  0.7933
  139OSM    C5F15125   4.673   4.061   3.912  0.2641  0.4505 -0.3426
  139OSM    H5F15126   4.579   4.006   3.935 -0.4529  1.9597  0.5215
  139OSM    H5G15127   4.652   4.167   3.938 -1.1375 -0.0418  0.6692
  139OSM    C6F15128   4.792   4.007   3.998 -0.6420  0.7701  0.1265
  139OSM    H6F15129   4.887   4.061   3.977 -0.6160  1.2855  1.4372
  139OSM    H6G15130   4.814   3.905   3.959 -2.2051  0.6934 -0.6351
  139OSM    C7F15131   4.758   3.992   4.147  0.7441 -0.0282  0.1028
  139OSM    H7F15132   4.682   3.913   4.165 -2.0432  2.4105 -0.1477
  139OSM    H7G15133   4.713   4.085   4.189 -0.7921 -0.6628 -0.0553
  139OSM    C8F15134   4.880   3.946   4.237 -0.3692 -0.2858  0.0748
  139OSM    H8F15135   4.957   4.026   4.234 -1.4895  0.8249 -1.8991
  139OSM    H8G15136   4.914   3.861   4.174 -1.2891  0.5221 -1.6039
  139OSM    C9F15137   4.850   3.892   4.372  0.3304  0.2833 -0.3068
  139OSM    H9F15138   4.778   3.946   4.436  0.1386 -2.3420  1.8463
  139OSM   C10F15139   4.925   3.793   4.434  0.3821  0.2351  0.4283
  139OSM   H10F15140   4.896   3.757   4.533 -1.1527  1.2734  0.3994
  139OSM   C11F15141   5.047   3.733   4.376  0.2938 -0.1813  0.0781
  139OSM   H11F15142   5.105   3.801   4.310 -0.9628  0.6565 -0.2148
  139OSM   H11G15143   5.010   3.651   4.312 -1.2376  0.9605 -0.5659
  139OSM   C12F15144   5.132   3.677   4.491 -0.3730  0.3911 -0.4069
  139OSM   H12F15145   5.208   3.620   4.435 -1.7170 -0.7898 -1.0999
  139OSM   H12G15146   5.067   3.607   4.549  1.0064 -0.9311 -0.4092
  139OSM   C13F15147   5.207   3.773   4.583  0.0786 -0.3812 -0.6875
  139OSM   H13F15148   5.147   3.861   4.617 -0.0221 -0.9192  0.5894
  139OSM   H13G15149   5.297   3.806   4.528  1.6504 -2.1379  0.6849
  139OSM   C14F15150   5.279   3.714   4.699 -0.3597  0.2276  0.2836
  139OSM   H14F15151   5.348   3.791   4.738  0.7087 -1.4223  1.8114
  139OSM   H14G15152   5.329   3.620   4.667  1.8228  1.9270 -1.6423
  139OSM   C15F15153   5.175   3.687   4.808 -0.2952  0.2089  0.9255
  139OSM   H15F15154   5.095   3.626   4.761  1.1958 -0.1577 -1.2485
  139OSM   H15G15155   5.131   3.782   4.845  1.6580  0.8911  1.6220
  139OSM   C16F15156   5.250   3.615   4.919 -0.4521  1.0529 -0.5748
  139OSM   H16F15157   5.346   3.669   4.933 -0.4245  0.6509  1.0057
  139OSM   H16G15158   5.268   3.509   4.891  0.1789  1.1736 -0.6464
  139OSM   C17F15159   5.181   3.625   5.055 -0.5412 -0.5376 -0.4069
  139OSM   H17F15160   5.185   3.732   5.086  1.5616 -0.2507 -1.4881
  139OSM   H17G15161   5.251   3.585   5.132 -1.5122 -1.0464  0.2274
  139OSM   C18F15162   5.042   3.559   5.064  0.7471 -0.9089 -0.3449
  139OSM   H18F15163   4.973   3.610   4.993 -0.5764 -1.7151  0.3279
  139OSM   H18G15164   5.000   3.563   5.167  1.6817  0.6601  0.0070
  139OSM   H18H15165   5.048   3.456   5.022 -1.9191 -1.5398  0.6306
  140OSM      N15166   3.186   1.555   2.662  0.1010 -0.9125 -0.1690
  140OSM    C1515167   3.145   1.623   2.537  0.2639 -0.7144  0.4874
  140OSM   H15A15168   3.206   1.608   2.450  0.4544  0.4466  0.4052
  140OSM   H15B15169   3.144   1.729   2.557  0.6239 -0.4643 -0.7694
  140OSM   H15C15170   3.046   1.601   2.499 -0.3778 -0.6017  1.9940
  140OSM    C1415171   3.171   1.408   2.650 -0.5940 -0.6708  0.2923
  140OSM   H14A15172   3.206   1.357   2.739  0.2832 -1.0937 -0.2800
  140OSM   H14B15173   3.224   1.365   2.566  0.6389 -0.7875  1.1130
  140OSM   H14C15174   3.067   1.384   2.635 -0.8932  0.4847  0.4509
  140OSM    C1315175   3.332   1.595   2.673  0.4156  0.7890  0.9336
  140OSM   H13A15176   3.374   1.555   2.765 -0.9041  2.1954  2.2018
  140OSM   H13B15177   3.348   1.702   2.675  0.7522  0.7522  0.3904
  140OSM   H13C15178   3.383   1.561   2.584 -1.6534  0.2403 -0.0863
  140OSM    C1215179   3.112   1.609   2.780  0.4416  0.9613  1.0256
  140OSM   H12A15180   3.006   1.585   2.785  0.7033  0.0662  2.7928
  140OSM   H12B15181   3.121   1.717   2.786  0.5424  1.3763 -3.2920
  140OSM    C1115182   3.167   1.561   2.919 -0.3812 -0.7858 -0.6211
  140OSM   H11A15183   3.114   1.626   2.993  2.2765 -0.2698  0.9773
  140OSM   H11B15184   3.272   1.591   2.941 -0.2244 -0.0948 -2.1805
  140OSM      P15185   3.001   1.363   2.963 -0.2801 -0.5891  0.0875
  140OSM    O1315186   2.900   1.457   2.905  0.4006 -0.2232 -0.2429
  140OSM    O1415187   2.999   1.229   2.910 -0.5403 -0.1698  0.3012
  140OSM    O1115188   2.988   1.377   3.119 -0.3113 -0.0807  0.4710
  140OSM    O1215189   3.148   1.420   2.939 -0.0609 -0.6915 -0.2386
  140OSM    C1S15190   3.068   1.311   3.220  1.0590 -0.0412 -0.4864
  140OSM    H1S15191   3.137   1.238   3.174  0.6120 -2.0629  1.8948
  140OSM    H1T15192   2.997   1.248   3.278  1.6860 -1.9852 -1.7549
  140OSM     NF15193   3.158   1.311   3.441 -0.0917 -0.5482 -0.0054
  140OSM    HNF15194   3.088   1.317   3.512  0.3438  0.7263  0.3264
  140OSM    C2S15195   3.131   1.404   3.325 -0.6799 -0.0161  0.7008
  140OSM    H2S15196   3.225   1.434   3.274 -0.6397 -2.0421 -0.5331
  140OSM    C3S15197   3.030   1.521   3.363 -1.4976  0.3507 -0.5202
  140OSM    H3S15198   2.934   1.470   3.384 -1.1953 -0.6200 -1.3419
  140OSM     O315199   3.001   1.609   3.259 -0.3563  0.0547 -0.2551
  140OSM    HO315200   3.040   1.566   3.182 -1.6713  1.7669 -1.9759
  140OSM    C4S15201   3.067   1.600   3.479 -0.3330 -0.4651  0.3386
  140OSM    H4S15202   3.017   1.568   3.572 -1.0628  1.6911  0.7420
  140OSM    C5S15203   3.146   1.703   3.493  0.5915 -0.0806  0.2759
  140OSM    H5S15204   3.204   1.745   3.409  0.1781  2.2356  1.0788
  140OSM    C6S15205   3.172   1.763   3.624  0.1883  0.7733 -0.0857
  140OSM    H6S15206   3.147   1.871   3.619 -1.2282  0.8679  4.3189
  140OSM    H6T15207   3.281   1.761   3.643  0.9631  2.0315 -3.5506
  140OSM    C7S15208   3.105   1.701   3.746 -0.0676 -0.4713 -0.2551
  140OSM    H7S15209   3.127   1.592   3.742 -1.0836 -0.6951 -0.1575
  140OSM    H7T15210   2.994   1.706   3.733 -0.2204  1.0568  1.2268
  140OSM    C8S15211   3.123   1.783   3.879 -0.1791 -0.7444  0.1151
  140OSM    H8S15212   3.106   1.891   3.858  1.5227 -0.2806  0.9780
  140OSM    H8T15213   3.225   1.782   3.923 -0.1800  0.0402  0.1371
  140OSM    C9S15214   3.038   1.737   4.000  0.8658 -0.0267 -0.1162
  140OSM    H9S15215   3.043   1.626   4.009  0.3150  0.0561  1.4766
  140OSM    H9T15216   2.932   1.764   3.977  0.2443 -1.5780  0.7049
  140OSM   C10S15217   3.089   1.807   4.128  0.1899  0.0814 -0.3245
  140OSM   H10S15218   3.081   1.917   4.120  1.6823  0.4706  2.2571
  140OSM   H10T15219   3.198   1.782   4.129  0.8814  2.7799 -1.2022
  140OSM   C11S15220   3.009   1.745   4.244  0.7310  0.5536  0.1855
  140OSM   H11S15221   3.027   1.636   4.239  0.1150  0.4217  0.7844
  140OSM   H11T15222   2.907   1.785   4.222  0.9439  1.6101  1.0203
  140OSM   C12S15223   3.047   1.801   4.382  0.7167  0.1847  0.7243
  140OSM   H12S15224   3.017   1.907   4.395  0.2545  0.1836 -0.2891
  140OSM   H12T15225   3.158   1.804   4.385  0.7401 -0.2626  0.4407
  140OSM   C13S15226   2.984   1.730   4.502  0.6235  0.5043  0.0696
  140OSM   H13S15227   3.016   1.624   4.509 -0.6466  0.2178  2.6568
  140OSM   H13T15228   2.874   1.728   4.490  0.4636  1.5444  1.1307
  140OSM   C14S15229   3.018   1.796   4.633  0.1257 -0.1980  0.1242
  140OSM   H14S15230   2.984   1.901   4.624 -1.2486 -0.5934  0.3891
  140OSM   H14T15231   3.128   1.782   4.643 -0.1896 -1.9856  1.7539
  140OSM   C15S15232   2.946   1.727   4.755  0.2704 -0.9064  0.5186
  140OSM   H15S15233   2.948   1.617   4.745 -1.9154 -0.8589 -1.1589
  140OSM   H15T15234   2.838   1.751   4.754  0.5280  0.4003 -0.5711
  140OSM   C16S15235   3.003   1.782   4.884 -0.4844  0.8835 -0.5833
  140OSM   H16S15236   3.010   1.893   4.891 -0.3221  0.7793  1.6945
  140OSM   H16T15237   3.109   1.749   4.891 -0.5960  0.3508 -1.2448
  140OSM   C17S15238   2.938   1.736   5.013 -0.1606  0.0561 -0.0445
  140OSM   H17S15239   2.927   1.625   5.004  2.4578 -0.3692  1.0222
  140OSM   H17T15240   2.836   1.778   5.027 -0.2502 -0.0168 -0.4826
  140OSM   C18S15241   3.022   1.773   5.139 -0.4281 -0.3518  0.3770
  140OSM   H18S15242   2.957   1.739   5.222 -2.6530  0.8139 -0.7866
  140OSM   H18T15243   3.036   1.883   5.154  0.2450 -0.0896 -1.7639
  140OSM   H18U15244   3.122   1.724   5.142 -0.1793 -0.2053 -2.5440
  140OSM    C1F15245   3.266   1.228   3.460 -0.2500  0.5545 -0.5270
  140OSM     OF15246   3.343   1.207   3.362  0.1520 -0.2243  0.1177
  140OSM    C2F15247   3.274   1.163   3.588  0.7698 -0.0330 -0.5624
  140OSM    H2F15248   3.195   1.087   3.575 -0.8783  1.8312 -2.0569
  140OSM    H2G15249   3.251   1.232   3.673  0.5741 -1.0799  0.2472
  140OSM    C3F15250   3.411   1.102   3.637  0.2627  0.1796 -0.7820
  140OSM    H3F15251   3.494   1.176   3.631  1.1262 -0.3780  2.5673
  140OSM    H3G15252   3.444   1.019   3.571  3.5610 -0.9712  2.0291
  140OSM    C4F15253   3.404   1.055   3.785  0.1345  0.2819 -0.3605
  140OSM    H4F15254   3.320   0.985   3.804 -0.4473  1.4537  1.6507
  140OSM    H4G15255   3.379   1.150   3.838 -0.1454  1.6055 -2.6849
  140OSM    C5F15256   3.535   1.006   3.847  0.1873 -0.0027 -0.7286
  140OSM    H5F15257   3.596   1.099   3.847 -1.8873  1.4282  0.1833
  140OSM    H5G15258   3.570   0.919   3.788  0.8127 -0.6571  0.5822
  140OSM    C6F15259   3.536   0.952   3.986 -0.1366 -0.4691  0.0024
  140OSM    H6F15260   3.640   0.951   4.027 -0.3375 -0.3588  0.5204
  140OSM    H6G15261   3.498   0.848   3.981  2.2215 -1.4093  0.0344
  140OSM    C7F15262   3.455   1.032   4.093  0.2376 -0.3715 -0.5079
  140OSM    H7F15263   3.345   1.018   4.083 -0.1317  2.2544 -1.0422
  140OSM    H7G15264   3.477   1.138   4.067  1.1817 -0.6146 -0.7428
  140OSM    C8F15265   3.507   1.001   4.234 -0.1123  0.0372 -0.7699
  140OSM    H8F15266   3.618   0.998   4.236 -0.0352  0.5052 -2.3191
  140OSM    H8G15267   3.469   0.898   4.248  1.3771 -0.1738  2.7602
  140OSM    C9F15268   3.443   1.096   4.331 -0.0325  0.2019  0.6038
  140OSM    H9F15269   3.375   1.171   4.288 -0.8875 -1.3858 -0.9779
  140OSM   C10F15270   3.463   1.080   4.461 -0.0787  0.5870  0.8457
  140OSM   H10F15271   3.414   1.147   4.534 -0.3526  0.2417  0.9851
  140OSM   C11F15272   3.544   0.978   4.540 -0.4044 -0.0089  0.0141
  140OSM   H11F15273   3.626   1.045   4.575 -1.3657  1.3777 -0.3120
  140OSM   H11G15274   3.589   0.898   4.478  2.9462  0.3032  1.7859
  140OSM   C12F15275   3.462   0.930   4.665 -1.0841  0.8190 -0.5210
  140OSM   H12F15276   3.454   1.019   4.730 -1.0861  0.2536  0.2627
  140OSM   H12G15277   3.517   0.852   4.722 -0.9704  0.7056 -0.7796
  140OSM   C13F15278   3.314   0.880   4.635  0.1403  0.1310 -0.8639
  140OSM   H13F15279   3.324   0.793   4.567 -0.1317 -1.5910  1.1816
  140OSM   H13G15280   3.253   0.963   4.594 -2.4825 -0.5140  1.4535
  140OSM   C14F15281   3.244   0.818   4.757  1.0674  0.4312 -0.3698
  140OSM   H14F15282   3.300   0.731   4.796  0.8832  0.6342  0.3581
  140OSM   H14G15283   3.147   0.786   4.713  0.9526  1.1348 -0.6452
  140OSM   C15F15284   3.215   0.913   4.871  0.4870 -0.2240 -0.0540
  140OSM   H15F15285   3.152   0.997   4.834  2.6350  1.2505 -0.5651
  140OSM   H15G15286   3.313   0.959   4.896 -0.1387 -0.0316  2.3031
  140OSM   C16F15287   3.150   0.841   4.994  0.2429  0.1761 -0.0769
  140OSM   H16F15288   3.049   0.802   4.967 -0.4452  0.5292  1.7955
  140OSM   H16G15289   3.141   0.927   5.063  0.0165  2.1322 -2.4347
  140OSM   C17F15290   3.229   0.726   5.056 -0.1631 -0.0465 -0.0527
  140OSM   H17F15291   3.224   0.640   4.985  1.9387 -2.0472  2.0403
  140OSM   H17G15292   3.189   0.692   5.154  2.8093  0.7736  1.5510
  140OSM   C18F15293   3.379   0.759   5.086 -0.3173  0.0622  0.1368
  140OSM   H18F15294   3.387   0.833   5.169 -2.6390 -0.8379  1.2526
  140OSM   H18G15295   3.433   0.807   5.001 -0.1594  2.2432  1.3834
  140OSM   H18H15296   3.435   0.666   5.109 -3.3811 -2.0607 -0.4407
  141OSM      N15297   4.155   5.778   2.673  0.4238  0.2135 -0.2537
  141OSM    C1515298   4.218   5.667   2.584  0.0246  0.0574 -0.3701
  141OSM   H15A15299   4.307   5.633   2.633 -0.3860  0.1171  0.4422
  141OSM   H15B15300   4.225   5.708   2.484  2.2321 -0.9030 -0.6676
  141OSM   H15C15301   4.152   5.581   2.580 -1.5378  0.9851  2.7086
  141OSM    C1415302   4.250   5.893   2.691  0.8862 -0.1234  0.0899
  141OSM   H14A15303   4.350   5.852   2.690  0.6622 -0.6823  0.0502
  141OSM   H14B15304   4.231   5.950   2.780  1.0958 -0.2171  0.1941
  141OSM   H14C15305   4.258   5.967   2.613  1.0302  1.4172  1.5201
  141OSM    C1315306   4.030   5.828   2.605  0.6859 -0.6519  0.1779
  141OSM   H13A15307   4.055   5.859   2.505 -1.0993 -0.7305 -0.3266
  141OSM   H13B15308   4.004   5.924   2.646 -0.4037 -0.5162 -0.7828
  141OSM   H13C15309   3.946   5.760   2.605 -0.0397  0.1716 -1.6728
  141OSM    C1215310   4.113   5.723   2.814  0.2492  0.7348  0.7224
  141OSM   H12A15311   4.021   5.666   2.806 -0.0394  0.8887  2.5340
  141OSM   H12B15312   4.088   5.807   2.877 -0.3363 -0.6991  2.4829
  141OSM    C1115313   4.224   5.646   2.895 -0.2135 -0.3240 -0.5031
  141OSM   H11A15314   4.259   5.565   2.827 -0.4703  0.3766 -1.4952
  141OSM   H11B15315   4.176   5.599   2.983 -1.9025  1.7074 -0.2658
  141OSM      P15316   4.483   5.697   2.898  0.8360  0.2213 -0.1654
  141OSM    O1315317   4.494   5.630   2.765 -0.0174 -0.5790  0.2476
  141OSM    O1415318   4.569   5.818   2.909  0.3795 -0.6506 -0.7679
  141OSM    O1115319   4.514   5.602   3.019 -0.1986  0.1227 -0.3619
  141OSM    O1215320   4.334   5.733   2.926 -0.0918  0.3530 -0.3956
  141OSM    C1S15321   4.523   5.658   3.152  0.7044 -0.0195  0.3403
  141OSM    H1S15322   4.510   5.768   3.151 -0.5715  0.0843 -5.3229
  141OSM    H1T15323   4.620   5.623   3.193 -0.3887 -1.7734  1.5941
  141OSM     NF15324   4.463   5.622   3.388 -0.5639 -0.6145  0.4366
  141OSM    HNF15325   4.513   5.564   3.451  2.1895  1.9627  0.8874
  141OSM    C2S15326   4.422   5.581   3.253 -0.9309 -0.4636  0.3374
  141OSM    H2S15327   4.326   5.631   3.229 -1.1700 -0.6349  0.9167
  141OSM    C3S15328   4.419   5.426   3.234  0.5530 -0.2398 -0.4324
  141OSM    H3S15329   4.516   5.379   3.259 -0.5915 -1.9820  1.0803
  141OSM     O315330   4.404   5.383   3.101  0.7000 -0.4692  0.1481
  141OSM    HO315331   4.416   5.461   3.046 -0.4374  0.7082  1.4905
  141OSM    C4S15332   4.333   5.361   3.331 -0.0297  0.8315  0.1305
  141OSM    H4S15333   4.364   5.360   3.436  0.2523 -1.4781  0.0645
  141OSM    C5S15334   4.199   5.325   3.313  0.6865  1.0769 -0.4245
  141OSM    H5S15335   4.161   5.336   3.210  0.0183 -0.8106 -0.4170
  141OSM    C6S15336   4.106   5.255   3.406 -0.2239  0.1112 -0.3563
  141OSM    H6S15337   4.058   5.165   3.363 -1.7503  0.1881  1.1062
  141OSM    H6T15338   4.032   5.332   3.437 -1.3754 -1.8559  2.0802
  141OSM    C7S15339   4.164   5.201   3.535 -0.1408  0.1990 -0.3170
  141OSM    H7S15340   4.236   5.270   3.584 -0.1994 -0.4093  0.6566
  141OSM    H7T15341   4.217   5.104   3.524  1.2501  0.7690  0.9537
  141OSM    C8S15342   4.058   5.169   3.649  0.8150 -1.0455  0.1579
  141OSM    H8S15343   3.973   5.121   3.596  0.4233 -1.1058  0.8254
  141OSM    H8T15344   4.018   5.265   3.689 -0.0517 -1.4686  0.3428
  141OSM    C9S15345   4.116   5.076   3.759 -0.1284  0.2483 -0.6884
  141OSM    H9S15346   4.224   5.097   3.778 -1.1823  1.5945  7.3066
  141OSM    H9T15347   4.117   4.968   3.735  0.4625 -0.1357  0.9121
  141OSM   C10S15348   4.051   5.096   3.904  0.0511  0.1312  0.5657
  141OSM   H10S15349   3.944   5.082   3.881 -0.4067 -0.4381  2.7571
  141OSM   H10T15350   4.049   5.201   3.941 -0.3321 -0.3037  1.8562
  141OSM   C11S15351   4.093   5.009   4.022  0.2149 -0.2979  0.2316
  141OSM   H11S15352   4.203   5.013   4.038  0.0676 -1.6084  1.9912
  141OSM   H11T15353   4.063   4.904   4.002 -1.4824  0.5222 -1.7601
  141OSM   C12S15354   4.023   5.046   4.148 -0.2250  0.5743 -0.8105
  141OSM   H12S15355   3.914   5.030   4.131 -0.1728 -1.2852  0.3082
  141OSM   H12T15356   4.040   5.149   4.186 -0.2079 -0.2522  1.5833
  141OSM   C13S15357   4.044   4.949   4.270  0.4797 -0.3867 -0.1035
  141OSM   H13S15358   4.150   4.968   4.297  1.1869 -1.8098 -1.7525
  141OSM   H13T15359   4.035   4.842   4.242 -1.2858 -0.4420  0.5305
  141OSM   C14S15360   3.967   4.977   4.400 -0.1712 -0.7470  0.1180
  141OSM   H14S15361   3.860   4.949   4.389  0.2860 -3.0115  0.8417
  141OSM   H14T15362   3.977   5.085   4.422  0.3543 -0.7724  0.0002
  141OSM   C15S15363   4.024   4.891   4.518  0.5717  0.1017 -0.3778
  141OSM   H15S15364   4.130   4.915   4.540  0.2422  1.6136 -0.3317
  141OSM   H15T15365   4.012   4.789   4.474 -0.9025  0.3104 -0.5131
  141OSM   C16S15366   3.941   4.903   4.646  0.0492 -0.4966 -0.2621
  141OSM   H16S15367   3.833   4.880   4.634 -0.2031 -0.7783  2.1417
  141OSM   H16T15368   3.932   5.010   4.675 -1.1003 -0.5309 -0.4583
  141OSM   C17S15369   4.005   4.827   4.769  0.2950  0.7559  0.5502
  141OSM   H17S15370   4.110   4.863   4.765  0.4459  0.3607  0.8397
  141OSM   H17T15371   4.006   4.720   4.741 -0.3846  1.1436 -1.0616
  141OSM   C18S15372   3.941   4.848   4.906  0.3587  0.7519 -0.6469
  141OSM   H18S15373   3.838   4.806   4.900  0.0579  0.9950  1.8041
  141OSM   H18T15374   3.940   4.957   4.926 -0.0487  1.2073 -2.8723
  141OSM   H18U15375   4.006   4.793   4.976 -2.6444 -0.9247  1.0459
  141OSM    C1F15376   4.432   5.743   3.439 -0.3042 -0.1112  0.6885
  141OSM     OF15377   4.400   5.842   3.373  0.3300 -0.3154 -0.3625
  141OSM    C2F15378   4.463   5.758   3.586  0.0151 -0.4695 -0.6583
  141OSM    H2F15379   4.570   5.727   3.591 -0.1632 -1.1100 -0.7879
  141OSM    H2G15380   4.401   5.696   3.655  2.2459 -1.0434  0.9487
  141OSM    C3F15381   4.451   5.902   3.647  0.2599 -0.1295 -0.7544
  141OSM    H3F15382   4.355   5.956   3.631  1.4002  1.9273 -1.0308
  141OSM    H3G15383   4.532   5.958   3.594  1.1660 -0.9347 -0.2475
  141OSM    C4F15384   4.488   5.906   3.796 -0.4311  0.3609  0.1009
  141OSM    H4F15385   4.428   5.832   3.853 -1.0212  1.0328  0.3549
  141OSM    H4G15386   4.461   6.008   3.828  2.5530  1.6069 -1.0181
  141OSM    C5F15387   4.633   5.879   3.819 -0.1135 -0.1025  0.4822
  141OSM    H5F15388   4.693   5.942   3.750 -0.0195 -1.2222 -0.5001
  141OSM    H5G15389   4.658   5.772   3.803  0.9794  0.5187 -2.6590
  141OSM    C6F15390   4.685   5.921   3.960 -0.7574  0.2028  0.7859
  141OSM    H6F15391   4.657   6.024   3.989  0.3417  0.4051  1.1697
  141OSM    H6G15392   4.796   5.921   3.958 -0.7703  0.2326 -0.4450
  141OSM    C7F15393   4.639   5.814   4.060 -0.1887  0.3921 -1.0369
  141OSM    H7F15394   4.626   5.710   4.023 -0.6428 -0.4141  1.2124
  141OSM    H7G15395   4.538   5.851   4.089  0.0999  1.9645 -1.9026
  141OSM    C8F15396   4.728   5.803   4.191  0.1104 -0.0536 -0.3272
  141OSM    H8F15397   4.829   5.764   4.166  1.1107  0.0131  3.0969
  141OSM    H8G15398   4.683   5.715   4.242  0.5818 -1.8248 -2.7941
  141OSM    C9F15399   4.730   5.933   4.272  0.5203 -0.1394 -0.0879
  141OSM    H9F15400   4.746   6.027   4.217 -1.0416  1.0804  1.4487
  141OSM   C10F15401   4.752   5.930   4.409  0.1754  0.4034 -0.5312
  141OSM   H10F15402   4.756   6.027   4.461 -2.9283  0.5714 -0.4012
  141OSM   C11F15403   4.755   5.822   4.517  0.5260 -0.4923 -0.8126
  141OSM   H11F15404   4.855   5.816   4.564  0.5600  1.1667 -0.6015
  141OSM   H11G15405   4.741   5.722   4.471  0.3372 -0.9503  0.2122
  141OSM   C12F15406   4.664   5.850   4.635  0.5649 -0.5017  0.5326
  141OSM   H12F15407   4.562   5.869   4.595  0.1977 -1.3447  1.0355
  141OSM   H12G15408   4.694   5.941   4.691  0.4862 -1.0046  1.4037
  141OSM   C13F15409   4.663   5.726   4.728 -0.0925 -0.6426 -0.1087
  141OSM   H13F15410   4.686   5.631   4.675 -1.1000 -1.2535  0.5070
  141OSM   H13G15411   4.562   5.713   4.772  0.3352  4.5747  3.2394
  141OSM   C14F15412   4.756   5.744   4.846 -0.5233  0.2264  0.0672
  141OSM   H14F15413   4.734   5.834   4.908 -1.8016 -1.3709  2.0720
  141OSM   H14G15414   4.861   5.767   4.816 -1.1401  1.3973 -1.3035
  141OSM   C15F15415   4.754   5.621   4.946  0.6240  0.0158 -1.0024
  141OSM   H15F15416   4.825   5.645   5.028  0.4659 -2.1724 -0.1842
  141OSM   H15G15417   4.769   5.530   4.885 -2.8096 -2.2513  1.1149
  141OSM   C16F15418   4.619   5.601   5.010  0.0795  0.8460  0.6629
  141OSM   H16F15419   4.625   5.509   5.073  0.1501  0.3852 -0.0053
  141OSM   H16G15420   4.541   5.568   4.939 -1.2951  0.3404  2.3295
  141OSM   C17F15421   4.576   5.716   5.097 -0.6777 -0.2308 -0.1626
  141OSM   H17F15422   4.551   5.803   5.032  3.2639  2.6643  1.7400
  141OSM   H17G15423   4.657   5.762   5.158 -0.3316  0.8969 -1.4314
  141OSM   C18F15424   4.464   5.674   5.186 -0.2871  0.0462  0.0030
  141OSM   H18F15425   4.499   5.591   5.252 -0.7922  0.2859  0.5768
  141OSM   H18G15426   4.380   5.631   5.128  0.4089 -0.6443 -0.5099
  141OSM   H18H15427   4.440   5.761   5.251  1.5188  0.8033 -0.2764
  142OSM      N15428   5.577   1.473   3.045  0.4148  0.1377  0.8130
  142OSM    C1515429   5.642   1.375   3.130 -0.0595  0.4340 -0.2312
  142OSM   H15A15430   5.570   1.301   3.159 -0.0502 -0.1118 -1.5265
  142OSM   H15B15431   5.701   1.424   3.206  0.6925 -0.5699 -0.1589
  142OSM   H15C15432   5.728   1.330   3.082  2.7587  2.5663  2.3783
  142OSM    C1415433   5.487   1.543   3.133  0.9820 -0.1213 -0.7910
  142OSM   H14A15434   5.416   1.480   3.184  0.9043  0.1039 -0.6199
  142OSM   H14B15435   5.439   1.621   3.075 -2.7213 -0.7727  1.0931
  142OSM   H14C15436   5.542   1.593   3.211  2.6016 -0.4262 -1.7062
  142OSM    C1315437   5.679   1.569   2.986  0.3671  0.1226  0.1459
  142OSM   H13A15438   5.628   1.648   2.933  2.7216  0.9077 -1.0838
  142OSM   H13B15439   5.756   1.521   2.928 -0.1556 -0.8408  0.2400
  142OSM   H13C15440   5.735   1.606   3.070  1.1736 -0.4158 -0.1450
  142OSM    C1215441   5.510   1.405   2.928  0.3441 -0.1467 -0.1612
  142OSM   H12A15442   5.583   1.338   2.885  0.3888 -0.4368  0.3646
  142OSM   H12B15443   5.482   1.480   2.855  1.9242  0.6475  0.0056
  142OSM    C1115444   5.400   1.309   2.959 -0.0208  0.0601 -0.0803
  142OSM   H11A15445   5.342   1.282   2.869 -2.1877  1.5542  0.7841
  142OSM   H11B15446   5.337   1.358   3.036  1.2138  1.4836  0.0602
  142OSM      P15447   5.365   1.061   3.039 -0.1163  0.1847 -0.1514
  142OSM    O1315448   5.252   1.053   2.946  0.1902 -0.1888  0.4560
  142OSM    O1415449   5.455   0.938   3.039 -0.6202 -0.7457  0.5394
  142OSM    O1115450   5.301   1.070   3.182  0.0071 -0.0505 -0.1887
  142OSM    O1215451   5.454   1.190   3.023 -0.0274  0.5649 -0.0439
  142OSM    C1S15452   5.370   1.132   3.288  0.0466 -0.1948 -0.4279
  142OSM    H1S15453   5.419   1.224   3.249  2.6933 -1.2241  0.2748
  142OSM    H1T15454   5.443   1.065   3.337  0.3142 -0.9394 -1.7854
  142OSM     NF15455   5.363   1.245   3.495 -0.0569  0.1766  0.5079
  142OSM    HNF15456   5.407   1.194   3.568 -1.7964 -0.3846  1.1995
  142OSM    C2S15457   5.278   1.171   3.403 -0.3659  0.0838 -0.4662
  142OSM    H2S15458   5.197   1.236   3.364 -1.1783 -0.5677  0.0902
  142OSM    C3S15459   5.204   1.053   3.475  0.7907  0.0326 -0.0202
  142OSM    H3S15460   5.281   0.984   3.515 -1.6111 -2.4927  0.5219
  142OSM     O315461   5.142   0.965   3.388  0.3790 -0.2552 -0.0236
  142OSM    HO315462   5.167   1.004   3.305  1.6867  1.1706  0.9899
  142OSM    C4S15463   5.125   1.105   3.593 -0.7420 -0.3295 -0.0882
  142OSM    H4S15464   5.189   1.115   3.681  0.3134  0.1757 -0.8943
  142OSM    C5S15465   5.000   1.144   3.588  0.7735 -0.3363  0.2741
  142OSM    H5S15466   4.953   1.152   3.488  3.6416 -1.1688 -1.2587
  142OSM    C6S15467   4.922   1.202   3.706 -1.1766  0.1641 -0.0562
  142OSM    H6S15468   4.822   1.156   3.691 -1.0608  0.1327 -0.7497
  142OSM    H6T15469   4.920   1.311   3.683  0.5783  1.0109  3.2062
  142OSM    C7S15470   4.977   1.187   3.851  0.0092 -0.1827 -0.0684
  142OSM    H7S15471   5.071   1.244   3.866  1.0708 -1.1675 -2.3620
  142OSM    H7T15472   4.987   1.077   3.865 -0.7580 -0.2977 -0.4019
  142OSM    C8S15473   4.873   1.242   3.942 -0.3017  0.1151  0.1569
  142OSM    H8S15474   4.780   1.190   3.910 -0.2217 -0.7297  1.2356
  142OSM    H8T15475   4.856   1.349   3.917  1.3893  0.1010 -1.2090
  142OSM    C9S15476   4.914   1.224   4.090 -0.1263 -0.0444 -0.1745
  142OSM    H9S15477   5.002   1.285   4.119  1.2823 -0.7253 -2.7145
  142OSM    H9T15478   4.946   1.120   4.113 -0.2994 -0.2448 -0.8149
  142OSM   C10S15479   4.807   1.275   4.185 -0.0896 -0.7477 -0.4353
  142OSM   H10S15480   4.711   1.242   4.141 -0.2304 -2.0745  0.8032
  142OSM   H10T15481   4.820   1.386   4.185  2.1331 -0.9495 -1.0879
  142OSM   C11S15482   4.829   1.225   4.328  0.1605 -0.4721  0.5997
  142OSM   H11S15483   4.937   1.236   4.351 -0.0810 -0.6080  1.8308
  142OSM   H11T15484   4.815   1.115   4.324  2.9367 -0.8688 -0.4642
  142OSM   C12S15485   4.751   1.298   4.437 -0.3824  0.5392  0.4086
  142OSM   H12S15486   4.649   1.319   4.399  0.9165  2.0206 -2.6665
  142OSM   H12T15487   4.796   1.398   4.454  1.7501 -0.7661  3.1660
  142OSM   C13S15488   4.745   1.218   4.568 -0.1532 -0.1288 -0.4515
  142OSM   H13S15489   4.851   1.188   4.583 -0.0804 -0.6189 -1.8339
  142OSM   H13T15490   4.689   1.124   4.549  0.6914 -1.2645  2.2177
  142OSM   C14S15491   4.687   1.297   4.682 -0.3563  0.2689 -0.0397
  142OSM   H14S15492   4.580   1.323   4.668 -0.2277  2.6209  2.4568
  142OSM   H14T15493   4.741   1.393   4.694 -1.0533  0.4333  2.3319
  142OSM   C15S15494   4.682   1.219   4.814  0.5190 -0.2933 -0.0387
  142OSM   H15S15495   4.775   1.171   4.854  0.4997  0.9798  1.6203
  142OSM   H15T15496   4.608   1.139   4.792 -0.8333  1.0044 -0.2996
  142OSM   C16S15497   4.611   1.306   4.925  0.3215 -0.0933  0.1480
  142OSM   H16S15498   4.553   1.247   4.999 -0.8806 -0.0392 -0.7279
  142OSM   H16T15499   4.548   1.380   4.872 -0.2335  1.7630  3.2039
  142OSM   C17S15500   4.720   1.380   5.012 -0.0306  0.3113 -0.3248
  142OSM   H17S15501   4.798   1.424   4.947  0.9915 -0.0941  0.5982
  142OSM   H17T15502   4.772   1.308   5.078 -2.7668 -1.0575  0.5052
  142OSM   C18S15503   4.663   1.502   5.083 -0.4666  0.3447  0.9095
  142OSM   H18S15504   4.746   1.534   5.150  0.5667 -0.1356 -0.1047
  142OSM   H18T15505   4.572   1.489   5.145  0.2860 -1.0738  1.7630
  142OSM   H18U15506   4.646   1.572   4.998  0.3315  0.0033  0.4526
  142OSM    C1F15507   5.407   1.366   3.465 -0.1798 -0.0637  0.9946
  142OSM     OF15508   5.355   1.430   3.377 -0.1085 -0.1653  0.4987
  142OSM    C2F15509   5.509   1.431   3.557  0.5606 -0.1308  0.4485
  142OSM    H2F15510   5.608   1.427   3.506  0.2480 -2.5990 -0.0616
  142OSM    H2G15511   5.506   1.389   3.660 -1.5264  1.0708  0.9223
  142OSM    C3F15512   5.491   1.587   3.572 -0.0597 -0.3912 -0.4933
  142OSM    H3F15513   5.396   1.596   3.629  0.5680  0.1983  0.4952
  142OSM    H3G15514   5.494   1.635   3.472 -0.5648 -0.1972 -0.4206
  142OSM    C4F15515   5.600   1.649   3.663 -0.6737  0.2632 -0.2722
  142OSM    H4F15516   5.585   1.759   3.665  0.2520  0.5066 -2.7757
  142OSM    H4G15517   5.702   1.627   3.626  0.8134  2.3256  2.2015
  142OSM    C5F15518   5.596   1.594   3.803  0.0930  0.0352  0.0455
  142OSM    H5F15519   5.646   1.495   3.810 -0.0687 -0.0684 -0.2307
  142OSM    H5G15520   5.491   1.586   3.837  0.1806 -0.6788  0.1633
  142OSM    C6F15521   5.665   1.686   3.918  0.7021 -0.3498  0.3177
  142OSM    H6F15522   5.673   1.791   3.882  1.3983 -0.7106 -0.6207
  142OSM    H6G15523   5.758   1.631   3.942 -1.1108 -3.2984  1.0943
  142OSM    C7F15524   5.581   1.698   4.041  0.2109 -0.0219 -0.2475
  142OSM    H7F15525   5.484   1.747   4.018  0.3940 -0.9876 -3.5723
  142OSM    H7G15526   5.636   1.768   4.108  1.6656  0.3260 -1.7379
  142OSM    C8F15527   5.560   1.567   4.120  0.0586 -0.2937 -0.2003
  142OSM    H8F15528   5.663   1.535   4.145  0.3182  1.9172  1.8834
  142OSM    H8G15529   5.517   1.486   4.057 -1.7598  0.4391  0.0360
  142OSM    C9F15530   5.480   1.578   4.245 -0.6998 -0.8041 -0.9115
  142OSM    H9F15531   5.372   1.577   4.225 -0.6678 -0.1139 -1.1626
  142OSM   C10F15532   5.532   1.581   4.368 -0.2645 -0.3385  0.1833
  142OSM   H10F15533   5.468   1.605   4.454 -1.3695 -0.6615 -0.5341
  142OSM   C11F15534   5.683   1.602   4.400  0.0004  0.5291 -0.0401
  142OSM   H11F15535   5.728   1.685   4.342  1.8799 -0.1058  0.4462
  142OSM   H11G15536   5.735   1.506   4.380 -0.7791  0.3072 -1.0533
  142OSM   C12F15537   5.720   1.641   4.550  0.0397 -0.2689 -0.2055
  142OSM   H12F15538   5.703   1.749   4.571  3.0257  0.2818 -0.1473
  142OSM   H12G15539   5.829   1.624   4.563  0.0896 -1.2231 -1.6990
  142OSM   C13F15540   5.649   1.553   4.657  0.5860 -0.4383 -0.6995
  142OSM   H13F15541   5.691   1.452   4.641  1.2181 -0.1704 -0.7704
  142OSM   H13G15542   5.539   1.560   4.644  0.2622 -0.0051  1.7825
  142OSM   C14F15543   5.690   1.593   4.804 -0.4086 -0.0404 -0.5127
  142OSM   H14F15544   5.652   1.695   4.828  0.4626 -0.2720  2.0823
  142OSM   H14G15545   5.801   1.591   4.810 -0.4562 -1.3334  0.4428
  142OSM   C15F15546   5.629   1.489   4.889  0.3873 -0.4090  0.2805
  142OSM   H15F15547   5.655   1.387   4.854 -1.3539 -0.9603  0.5182
  142OSM   H15G15548   5.520   1.482   4.870  0.7391 -0.3941 -2.0716
  142OSM   C16F15549   5.655   1.506   5.036  0.1478  0.4640 -0.9137
  142OSM   H16F15550   5.575   1.570   5.078 -0.9174 -1.4668  0.1077
  142OSM   H16G15551   5.751   1.558   5.055  0.4634 -1.1014  2.4188
  142OSM   C17F15552   5.628   1.372   5.111  0.4583  0.1444 -0.3645
  142OSM   H17F15553   5.692   1.297   5.059 -1.3327 -0.7143 -1.3980
  142OSM   H17G15554   5.522   1.343   5.102  0.9673 -1.4671 -1.6867
  142OSM   C18F15555   5.655   1.375   5.260 -0.3309  0.5336  0.5012
  142OSM   H18F15556   5.668   1.271   5.295  3.5795  1.0891  1.1780
  142OSM   H18G15557   5.576   1.416   5.327 -0.7103 -0.9971  1.0349
  142OSM   H18H15558   5.753   1.427   5.268 -0.4551  0.8803 -0.1498
  143OSM      N15559   4.399   0.633   2.702  0.3517  0.4143  0.9010
  143OSM    C1515560   4.494   0.629   2.589  1.0401 -0.0075 -0.5452
  143OSM   H15A15561   4.441   0.620   2.496  0.7293 -1.2387 -0.2671
  143OSM   H15B15562   4.557   0.542   2.585 -0.6257 -1.2269 -1.3612
  143OSM   H15C15563   4.561   0.714   2.592  0.7493  0.2136 -0.1111
  143OSM    C1415564   4.322   0.755   2.698  0.0586  0.0743  0.1477
  143OSM   H14A15565   4.288   0.797   2.604 -0.8522 -0.4585  0.2289
  143OSM   H14B15566   4.389   0.834   2.731  1.2023 -0.0437 -1.7272
  143OSM   H14C15567   4.233   0.752   2.760 -0.8676  0.0828 -1.1471
  143OSM    C1315568   4.295   0.520   2.667  0.0532  0.1500  0.2280
  143OSM   H13A15569   4.341   0.422   2.665  0.5322  0.3285 -2.7687
  143OSM   H13B15570   4.253   0.539   2.569 -0.3212 -0.6693  0.2265
  143OSM   H13C15571   4.216   0.527   2.739 -0.6764  1.7867 -0.6742
  143OSM    C1215572   4.461   0.599   2.838 -0.6341  0.3764 -0.0104
  143OSM   H12A15573   4.534   0.669   2.875  2.0520 -2.5049  0.5770
  143OSM   H12B15574   4.512   0.506   2.816  1.5834  2.0347 -2.5012
  143OSM    C1115575   4.357   0.592   2.965  0.3073 -0.2377  0.3423
  143OSM   H11A15576   4.287   0.679   2.958 -0.5386 -0.9212  0.1189
  143OSM   H11B15577   4.412   0.606   3.060  1.7391  0.6955 -0.5877
  143OSM      P15578   4.347   0.334   3.003 -0.1468 -0.0215 -0.2183
  143OSM    O1315579   4.266   0.229   2.933 -0.1631 -0.2358  0.2536
  143OSM    O1415580   4.495   0.333   2.984  0.4358  0.4880  0.1845
  143OSM    O1115581   4.324   0.328   3.162  0.0032 -0.6782 -0.2812
  143OSM    O1215582   4.283   0.475   2.961  0.2799  0.4250  0.1484
  143OSM    C1S15583   4.189   0.353   3.213 -0.3228 -0.5039 -0.2467
  143OSM    H1S15584   4.126   0.265   3.192 -0.1178 -0.3072 -1.8110
  143OSM    H1T15585   4.140   0.436   3.158  2.1005  1.5988  0.5426
  143OSM     NF15586   4.040   0.409   3.379 -0.7479 -0.2816  0.8253
  143OSM    HNF15587   3.989   0.492   3.358  1.6428  1.0744 -0.0023
  143OSM    C2S15588   4.184   0.397   3.355  0.0840  0.6384 -0.1462
  143OSM    H2S15589   4.219   0.311   3.416 -0.0593 -0.3050 -1.3729
  143OSM    C3S15590   4.277   0.515   3.398 -0.1594 -0.6441  0.0593
  143OSM    H3S15591   4.246   0.602   3.337 -1.8971 -0.6855  0.8072
  143OSM     O315592   4.410   0.491   3.363 -0.2220  0.0248 -0.2840
  143OSM    HO315593   4.409   0.413   3.308  0.0314 -0.8654  0.9290
  143OSM    C4S15594   4.257   0.550   3.545 -0.0102  0.0666  0.4315
  143OSM    H4S15595   4.195   0.640   3.561 -1.7988 -0.8371 -0.9286
  143OSM    C5S15596   4.331   0.513   3.648  0.0301 -0.6945 -0.2490
  143OSM    H5S15597   4.421   0.454   3.628 -0.0998 -1.6710  1.8236
  143OSM    C6S15598   4.334   0.587   3.778  0.5451 -0.8990  0.7012
  143OSM    H6S15599   4.241   0.648   3.787  0.9368 -0.3193  0.8728
  143OSM    H6T15600   4.424   0.649   3.797 -0.2199  0.3525  0.4137
  143OSM    C7S15601   4.325   0.477   3.889 -0.2018 -0.2091 -0.0154
  143OSM    H7S15602   4.429   0.439   3.896 -0.5225 -1.0463  0.4807
  143OSM    H7T15603   4.271   0.380   3.876  0.5667 -1.0673  2.6239
  143OSM    C8S15604   4.292   0.522   4.034  0.7280  0.0187 -0.3809
  143OSM    H8S15605   4.192   0.560   4.064  0.1375 -1.7517 -0.0448
  143OSM    H8T15606   4.362   0.608   4.044 -0.6691  1.0790  0.7145
  143OSM    C9S15607   4.335   0.420   4.139 -0.0886  0.4107  1.1497
  143OSM    H9S15608   4.445   0.410   4.130 -0.2698 -0.3111 -0.6852
  143OSM    H9T15609   4.289   0.324   4.105 -0.1594  1.2076 -1.2270
  143OSM   C10S15610   4.300   0.470   4.281  0.6896  0.6721  0.3749
  143OSM   H10S15611   4.203   0.524   4.281  0.0813 -0.3545 -1.0946
  143OSM   H10T15612   4.366   0.551   4.319  0.5530  2.5778 -3.0028
  143OSM   C11S15613   4.293   0.356   4.377  0.0223  0.3943 -0.2063
  143OSM   H11S15614   4.396   0.323   4.405 -0.2769  0.2798  0.7841
  143OSM   H11T15615   4.247   0.268   4.328  1.2125 -0.5150  0.2543
  143OSM   C12S15616   4.210   0.398   4.505 -0.0013 -0.3040  0.2875
  143OSM   H12S15617   4.107   0.422   4.473  0.7758  0.1502 -2.1586
  143OSM   H12T15618   4.268   0.484   4.544  0.4252  0.5097 -1.9898
  143OSM   C13S15619   4.195   0.294   4.610 -0.2175  0.0847  0.1340
  143OSM   H13S15620   4.294   0.257   4.644 -0.1713 -0.3665 -0.4880
  143OSM   H13T15621   4.135   0.209   4.571 -0.1532 -0.1203  0.4781
  143OSM   C14S15622   4.132   0.354   4.739  0.1834 -0.3825 -0.8318
  143OSM   H14S15623   4.057   0.280   4.774 -0.7324  0.1762 -1.5553
  143OSM   H14T15624   4.085   0.451   4.714 -0.9823 -0.7211 -0.0477
  143OSM   C15S15625   4.231   0.390   4.849  0.2582 -0.5945  0.8649
  143OSM   H15S15626   4.313   0.444   4.797 -0.2566 -1.2215 -0.6788
  143OSM   H15T15627   4.274   0.296   4.890  0.9550 -0.0035  1.4954
  143OSM   C16S15628   4.172   0.478   4.958  0.4205  0.3158 -0.5306
  143OSM   H16S15629   4.118   0.563   4.910 -0.6647 -0.4815 -0.7474
  143OSM   H16T15630   4.257   0.522   5.015  0.3660  1.7331 -1.4752
  143OSM   C17S15631   4.073   0.393   5.041 -0.8482 -0.6166 -0.1973
  143OSM   H17S15632   3.986   0.348   4.987  0.3208 -2.6000 -0.5273
  143OSM   H17T15633   4.042   0.450   5.131  0.7756 -0.7932  0.4944
  143OSM   C18S15634   4.139   0.275   5.115 -0.2107 -0.0586  0.4512
  143OSM   H18S15635   4.083   0.255   5.208  0.4993 -0.6932  0.7582
  143OSM   H18T15636   4.241   0.302   5.150 -0.6154  0.3618  1.3306
  143OSM   H18U15637   4.158   0.184   5.054 -0.5741  0.1385  0.0375
  143OSM    C1F15638   3.973   0.304   3.421  0.2479 -0.4479 -0.4230
  143OSM     OF15639   4.027   0.198   3.451  0.1088 -0.3303  0.3386
  143OSM    C2F15640   3.826   0.319   3.448  0.3971  0.2124  0.0885
  143OSM    H2F15641   3.785   0.217   3.430  0.2719  0.6352 -2.5330
  143OSM    H2G15642   3.793   0.379   3.360  3.4700 -0.5768 -1.7354
  143OSM    C3F15643   3.806   0.386   3.590  0.2977  0.1573  0.2296
  143OSM    H3F15644   3.697   0.390   3.608  0.4369  0.5536  1.0151
  143OSM    H3G15645   3.838   0.492   3.601 -2.2686  0.9453  0.6570
  143OSM    C4F15646   3.874   0.306   3.687 -0.8130  0.4893  0.3261
  143OSM    H4F15647   3.982   0.330   3.685 -0.9758  1.2398 -1.0065
  143OSM    H4G15648   3.866   0.197   3.668 -1.6456  0.2543  1.8073
  143OSM    C5F15649   3.811   0.322   3.825  0.6328  0.6927  0.1462
  143OSM    H5F15650   3.711   0.275   3.829  1.8679 -2.0037  2.2584
  143OSM    H5G15651   3.799   0.432   3.839  1.5703  0.9831 -1.0601
  143OSM    C6F15652   3.887   0.272   3.944  0.5185  0.3715  0.4502
  143OSM    H6F15653   3.991   0.308   3.926  2.0883 -3.6848  0.2661
  143OSM    H6G15654   3.888   0.161   3.943 -1.5218  0.3079  1.0551
  143OSM    C7F15655   3.825   0.311   4.081  0.0244 -0.1141  0.3731
  143OSM    H7F15656   3.730   0.253   4.083  1.5413 -2.9132 -1.4445
  143OSM    H7G15657   3.800   0.419   4.084  3.9526  0.9556  0.0972
  143OSM    C8F15658   3.911   0.275   4.203  0.6800  0.1435  0.1445
  143OSM    H8F15659   4.003   0.331   4.177 -0.8572  4.0960  2.3642
  143OSM    H8G15660   3.915   0.164   4.193  0.2031  0.3392 -4.7353
  143OSM    C9F15661   3.839   0.319   4.329 -0.0270 -0.6928  0.4184
  143OSM    H9F15662   3.802   0.423   4.329 -1.2246 -1.0042 -2.8619
  143OSM   C10F15663   3.829   0.249   4.441 -0.9313 -0.4546  0.3420
  143OSM   H10F15664   3.762   0.288   4.519  1.5871 -0.5277  2.6936
  143OSM   C11F15665   3.872   0.105   4.466 -0.1257 -0.1288 -0.5704
  143OSM   H11F15666   3.977   0.085   4.434  0.7613 -0.4964  2.2909
  143OSM   H11G15667   3.797   0.034   4.425 -0.1095 -0.5792  0.1628
  143OSM   C12F15668   3.865   0.076   4.622  0.0065  0.2322 -0.4993
  143OSM   H12F15669   3.760   0.101   4.652 -0.6375 -1.8904 -0.8263
  143OSM   H12G15670   3.938   0.132   4.684 -0.5356 -1.0214  1.3606
  143OSM   C13F15671   3.899  -0.069   4.660  0.5689 -0.0239 -0.1151
  143OSM   H13F15672   4.007  -0.090   4.644  0.4100 -1.0959  0.1826
  143OSM   H13G15673   3.851  -0.128   4.579  1.9321  1.2020 -1.9046
  143OSM   C14F15674   3.850  -0.108   4.797 -0.4145  0.0911  0.1968
  143OSM   H14F15675   3.836  -0.218   4.802 -0.5860  0.0199 -1.3461
  143OSM   H14G15676   3.744  -0.082   4.813 -0.3282  0.7287 -0.2505
  143OSM   C15F15677   3.917  -0.047   4.923  0.3950  0.2773  0.6028
  143OSM   H15F15678   3.928   0.061   4.902 -1.9507  0.5847  0.6426
  143OSM   H15G15679   4.018  -0.091   4.937  0.6217  0.6162  0.0450
  143OSM   C16F15680   3.835  -0.058   5.046 -0.3764 -0.1157  0.3450
  143OSM   H16F15681   3.817  -0.166   5.068 -2.7859 -0.5233 -2.8930
  143OSM   H16G15682   3.736  -0.013   5.020 -0.6549 -1.3844 -0.9506
  143OSM   C17F15683   3.880   0.024   5.160  0.1238  0.2638 -0.1102
  143OSM   H17F15684   3.803   0.068   5.226  1.7688  1.9418  0.7957
  143OSM   H17G15685   3.942   0.108   5.123  1.4224 -1.1920 -1.4193
  143OSM   C18F15686   3.980  -0.060   5.248 -0.2722 -0.3376  0.6784
  143OSM   H18F15687   4.074  -0.071   5.189 -0.5935  0.4718  0.0008
  143OSM   H18G15688   3.924  -0.155   5.260  0.5646 -0.9160  0.1286
  143OSM   H18H15689   4.001  -0.011   5.346  0.0536 -3.2540  2.1651
  144OSM      N15690   4.023   6.702   3.207 -0.7619 -0.0860 -0.0879
  144OSM    C1515691   3.954   6.601   3.129  0.0546  0.0463 -0.7773
  144OSM   H15A15692   4.026   6.541   3.076  1.5630  0.3387  0.8394
  144OSM   H15B15693   3.885   6.644   3.058  0.8787  0.9350 -1.0588
  144OSM   H15C15694   3.896   6.543   3.200  1.8704  0.0288  0.7942
  144OSM    C1415695   4.110   6.634   3.300  0.2169  0.3733  0.1768
  144OSM   H14A15696   4.131   6.677   3.397 -0.7106 -1.1376  1.1140
  144OSM   H14B15697   4.203   6.608   3.253  1.2963 -0.2273  2.4984
  144OSM   H14C15698   4.072   6.535   3.320 -1.1873  0.0513 -3.4323
  144OSM    C1315699   4.116   6.779   3.117  0.2193  0.6445 -0.0371
  144OSM   H13A15700   4.202   6.719   3.090 -0.4831 -0.5472  0.2695
  144OSM   H13B15701   4.169   6.849   3.180  2.4708 -1.7850  0.9785
  144OSM   H13C15702   4.079   6.817   3.023  1.4119 -0.2240 -0.8814
  144OSM    C1215703   3.922   6.794   3.272  0.3760  0.4679  0.1440
  144OSM   H12A15704   3.972   6.849   3.350  1.8115  0.8915 -1.0333
  144OSM   H12B15705   3.850   6.729   3.319  0.5159  1.6049  2.0281
  144OSM    C1115706   3.841   6.883   3.179 -0.4098 -0.3300  0.5551
  144OSM   H11A15707   3.916   6.949   3.132  0.3857  1.3305  3.8917
  144OSM   H11B15708   3.773   6.944   3.242 -2.1398 -2.0372  0.4716
  144OSM      P15709   3.622   6.852   3.047  0.2719 -0.3267  0.5526
  144OSM    O1315710   3.634   6.963   2.953 -0.3274 -0.2832 -0.6814
  144OSM    O1415711   3.545   6.737   3.000 -0.1253 -0.1331  0.3571
  144OSM    O1115712   3.550   6.901   3.177  0.0701 -0.0158 -0.5840
  144OSM    O1215713   3.763   6.808   3.093  0.2230 -0.6326  0.5585
  144OSM    C1S15714   3.535   6.820   3.295 -0.4907 -0.7245  0.6726
  144OSM    H1S15715   3.633   6.775   3.323 -0.5208 -0.6839  0.8427
  144OSM    H1T15716   3.446   6.754   3.292  0.2382 -1.6973 -0.0775
  144OSM     NF15717   3.493   6.843   3.541 -0.2495 -0.0579 -0.3473
  144OSM    HNF15718   3.402   6.813   3.570 -0.5267 -0.1989 -1.3209
  144OSM    C2S15719   3.498   6.918   3.418  1.1451 -0.5572 -0.8393
  144OSM    H2S15720   3.571   7.002   3.420 -2.3328  2.7995 -2.3452
  144OSM    C3S15721   3.362   6.994   3.387  0.5041 -0.8478 -0.7747
  144OSM    H3S15722   3.283   6.922   3.415  0.6883 -0.3959  1.0765
  144OSM     O315723   3.340   7.038   3.253  0.1603 -0.1842  0.1293
  144OSM    HO315724   3.410   7.006   3.195 -0.5748 -0.3350 -0.7051
  144OSM    C4S15725   3.335   7.107   3.487 -0.1606 -0.0717 -0.2609
  144OSM    H4S15726   3.262   7.085   3.567 -0.9468  3.0846  0.0299
  144OSM    C5S15727   3.371   7.239   3.473 -0.1318  0.2705 -0.4244
  144OSM    H5S15728   3.413   7.287   3.383 -2.0797  0.2553 -1.3761
  144OSM    C6S15729   3.318   7.344   3.566  0.6312  0.5972 -0.2111
  144OSM    H6S15730   3.215   7.323   3.599  0.4690 -1.0282 -1.5819
  144OSM    H6T15731   3.313   7.441   3.512 -1.9960  1.2630  1.1210
  144OSM    C7S15732   3.394   7.392   3.691 -0.0288 -0.4670  0.6056
  144OSM    H7S15733   3.361   7.490   3.732  3.2120  1.9499 -1.9051
  144OSM    H7T15734   3.499   7.408   3.659 -0.5552  2.4301  0.0744
  144OSM    C8S15735   3.394   7.285   3.798 -0.0894 -0.3465  0.4102
  144OSM    H8S15736   3.444   7.196   3.752 -0.2222 -0.6609  0.8717
  144OSM    H8T15737   3.291   7.262   3.830 -1.0346  2.3737 -0.4166
  144OSM    C9S15738   3.469   7.319   3.930 -0.7730  0.3115  0.1865
  144OSM    H9S15739   3.451   7.421   3.971  1.6196  0.7728  0.2212
  144OSM    H9T15740   3.577   7.310   3.907 -0.7027 -0.4418  0.7399
  144OSM   C10S15741   3.442   7.220   4.039  0.2231 -0.5165 -0.2690
  144OSM   H10S15742   3.504   7.135   4.004  1.0472  0.3197 -0.8851
  144OSM   H10T15743   3.332   7.203   4.040  0.2278 -0.8115  2.8219
  144OSM   C11S15744   3.488   7.253   4.182 -0.3736  1.1083  0.1926
  144OSM   H11S15745   3.596   7.277   4.177  1.0830 -3.1934  3.9609
  144OSM   H11T15746   3.480   7.165   4.248  0.0884 -1.1128 -2.5481
  144OSM   C12S15747   3.398   7.365   4.237 -0.4026  0.9015 -0.2134
  144OSM   H12S15748   3.292   7.332   4.245  0.3000 -2.3808 -2.4832
  144OSM   H12T15749   3.411   7.458   4.177 -3.7551  0.6186 -1.5755
  144OSM   C13S15750   3.457   7.419   4.369 -0.8648  0.5755  0.1678
  144OSM   H13S15751   3.404   7.513   4.394  3.4447  2.9745  1.4329
  144OSM   H13T15752   3.562   7.450   4.347 -0.6741  0.3039  0.6704
  144OSM   C14S15753   3.480   7.314   4.480 -0.7133 -0.5711  0.2340
  144OSM   H14S15754   3.509   7.385   4.561 -2.5473 -0.7441  1.0792
  144OSM   H14T15755   3.570   7.252   4.460 -0.0319  0.9519 -1.8475
  144OSM   C15S15756   3.365   7.230   4.528  0.2698 -0.3768  0.1283
  144OSM   H15S15757   3.320   7.185   4.436  0.6757  0.6211 -0.5809
  144OSM   H15T15758   3.289   7.296   4.575 -2.6959 -1.3081 -2.9415
  144OSM   C16S15759   3.407   7.118   4.623  0.0533 -0.6149  0.8129
  144OSM   H16S15760   3.450   7.159   4.717 -0.4890  1.3483  0.2621
  144OSM   H16T15761   3.485   7.055   4.575 -1.6589 -1.5536 -0.8806
  144OSM   C17S15762   3.286   7.038   4.668 -0.0191  0.3718  0.0034
  144OSM   H17S15763   3.240   6.986   4.580 -1.5360 -0.8635  1.4682
  144OSM   H17T15764   3.214   7.109   4.713  1.7375  1.8392  0.6236
  144OSM   C18S15765   3.324   6.932   4.773  0.0390 -0.0782  0.5804
  144OSM   H18S15766   3.348   6.965   4.876  0.6609 -1.6509  0.9607
  144OSM   H18T15767   3.411   6.875   4.735 -0.0493 -0.2936  0.7036
  144OSM   H18U15768   3.249   6.851   4.767  0.9791 -0.8918 -0.6396
  144OSM    C1F15769   3.598   6.795   3.602  0.5734 -0.1733 -0.2642
  144OSM     OF15770   3.707   6.820   3.562 -0.1671 -0.3639 -0.3474
  144OSM    C2F15771   3.582   6.708   3.717 -0.0598 -0.4613  0.0254
  144OSM    H2F15772   3.658   6.628   3.704  0.9633  0.7259 -1.6702
  144OSM    H2G15773   3.486   6.653   3.708  0.3284 -1.1266 -0.1218
  144OSM    C3F15774   3.609   6.783   3.856  0.2483  0.3682  0.7959
  144OSM    H3F15775   3.708   6.831   3.845  1.1239 -1.6878 -1.0350
  144OSM    H3G15776   3.614   6.712   3.941 -3.7197  0.7117  1.5075
  144OSM    C4F15777   3.505   6.885   3.899  0.5860  0.1533  0.3508
  144OSM    H4F15778   3.504   6.957   3.814 -0.8848 -0.3179 -0.0631
  144OSM    H4G15779   3.552   6.927   3.990 -0.2257 -2.1277  1.9178
  144OSM    C5F15780   3.359   6.837   3.929  0.1338  0.5827 -0.3978
  144OSM    H5F15781   3.322   6.784   3.839  0.6859 -0.3051 -0.1145
  144OSM    H5G15782   3.300   6.925   3.965 -2.0959 -0.2502 -1.8153
  144OSM    C6F15783   3.377   6.731   4.039 -0.0741  0.7507 -0.3424
  144OSM    H6F15784   3.430   6.777   4.126  0.0305  0.2612 -0.1373
  144OSM    H6G15785   3.445   6.646   4.014  0.2567  0.3771  1.6290
  144OSM    C7F15786   3.234   6.683   4.071 -0.1368 -0.8484  0.4473
  144OSM    H7F15787   3.191   6.628   3.985 -0.6301 -0.5807  0.5233
  144OSM    H7G15788   3.175   6.777   4.070  0.4583 -0.4640  0.7371
  144OSM    C8F15789   3.192   6.632   4.209 -0.3774  0.0490 -0.0451
  144OSM    H8F15790   3.240   6.532   4.212 -0.3872  0.0324  2.8263
  144OSM    H8G15791   3.081   6.629   4.215 -0.4482 -0.0333 -1.1654
  144OSM    C9F15792   3.238   6.705   4.328 -0.7260 -0.3138  1.2555
  144OSM    H9F15793   3.225   6.813   4.314  1.4423 -0.2969 -1.4500
  144OSM   C10F15794   3.327   6.664   4.425 -0.9724 -0.0535  0.4621
  144OSM   H10F15795   3.362   6.735   4.501  0.2113 -0.9345  0.7734
  144OSM   C11F15796   3.387   6.528   4.438  0.4242  0.6024  0.2759
  144OSM   H11F15797   3.465   6.525   4.359  0.0005 -0.4348 -0.1245
  144OSM   H11G15798   3.315   6.446   4.416 -0.4404  1.1628  0.9114
  144OSM   C12F15799   3.457   6.493   4.577  0.9518  0.0832  0.3246
  144OSM   H12F15800   3.542   6.563   4.590  0.1119  0.9567  1.2909
  144OSM   H12G15801   3.500   6.391   4.569 -0.5307 -0.5207 -0.4063
  144OSM   C13F15802   3.355   6.503   4.693  0.2468  0.5971  1.0050
  144OSM   H13F15803   3.283   6.425   4.659 -1.3432  2.6649 -0.7168
  144OSM   H13G15804   3.307   6.603   4.696  1.8552  1.7537 -3.2978
  144OSM   C14F15805   3.415   6.477   4.827  0.1291  0.5705 -0.0525
  144OSM   H14F15806   3.492   6.553   4.852 -0.3194  0.2699  2.4719
  144OSM   H14G15807   3.469   6.380   4.824  3.0982  2.0352  1.6751
  144OSM   C15F15808   3.311   6.496   4.935  0.4178  0.5201  0.4642
  144OSM   H15F15809   3.357   6.455   5.027  0.7275 -0.4388 -0.0995
  144OSM   H15G15810   3.233   6.419   4.922  1.7072 -0.3794 -3.2676
  144OSM   C16F15811   3.254   6.637   4.961 -0.1769 -0.4147  1.2822
  144OSM   H16F15812   3.206   6.680   4.870  0.8332 -1.0911  0.4017
  144OSM   H16G15813   3.337   6.706   4.985 -1.2492  1.1092  0.7798
  144OSM   C17F15814   3.159   6.642   5.083  1.1647  0.0297  0.1065
  144OSM   H17F15815   3.204   6.588   5.168 -1.6597 -1.1963  0.9270
  144OSM   H17G15816   3.065   6.595   5.047  0.1742  0.5441  1.8864
  144OSM   C18F15817   3.138   6.788   5.123  0.1394 -0.5457  0.0274
  144OSM   H18F15818   3.228   6.840   5.162  0.2012 -0.3274 -0.3883
  144OSM   H18G15819   3.061   6.782   5.202  0.2650  1.2967  0.3401
  144OSM   H18H15820   3.094   6.852   5.043 -0.0125 -1.1695 -0.3997
  145SAPE     N15821   4.295   1.371   7.554  0.0565  0.1266 -0.0261
  145SAPE   HN115822   4.345   1.287   7.521 -0.8991 -0.9779  1.2275
  145SAPE   HN215823   4.335   1.462   7.524 -0.5293  1.5923  3.2040
  145SAPE   HN315824   4.316   1.371   7.656  0.3109  0.3536 -0.0785
  145SAPE   C1215825   4.145   1.379   7.528  0.5765  0.4752 -0.6391
  145SAPE  H12A15826   4.107   1.476   7.567 -1.5846  1.3613 -4.4290
  145SAPE  H12B15827   4.095   1.306   7.594  0.1694  0.1755 -1.2718
  145SAPE   C1115828   4.113   1.352   7.381 -0.1245 -1.0687  0.1964
  145SAPE  H11A15829   4.156   1.429   7.314 -1.1103  1.6437  2.4610
  145SAPE  H11B15830   4.004   1.369   7.363  0.6300  1.8922 -2.3829
  145SAPE     P15831   4.086   1.096   7.356  0.4053  0.0958  0.5125
  145SAPE   O1315832   4.123   0.987   7.263  0.6820  0.1334 -0.5027
  145SAPE   O1415833   4.094   1.069   7.506 -0.1315  0.0952 -0.3214
  145SAPE   O1215834   4.166   1.222   7.327 -0.0609 -0.1885 -0.1295
  145SAPE   O1115835   3.943   1.140   7.312 -0.3109  0.1437  0.2688
  145SAPE    C115836   3.915   1.173   7.171  0.5804 -0.6579  0.5606
  145SAPE    HA15837   3.868   1.273   7.164  2.0585 -0.0361 -2.0871
  145SAPE    HB15838   4.009   1.180   7.112 -0.4895  1.7635 -0.9999
  145SAPE    C215839   3.819   1.079   7.093 -0.7914 -0.0076 -0.5423
  145SAPE    HS15840   3.781   1.138   7.007 -2.3023 -1.5491 -0.9715
  145SAPE   O2115841   3.702   1.033   7.172 -0.0177  0.0526  0.6287
  145SAPE   C2115842   3.623   1.121   7.226  0.7043  0.2767  1.1917
  145SAPE   O2215843   3.617   1.243   7.195 -0.3756 -0.0741  0.5995
  145SAPE   C2215844   3.550   1.047   7.332 -0.1936 -0.2744 -0.2253
  145SAPE   H2R15845   3.521   0.947   7.294 -2.9312 -1.0773  3.4230
  145SAPE   H2S15846   3.619   1.019   7.414 -0.5970 -0.2986  0.1108
  145SAPE    C315847   3.898   0.959   7.034  0.4459 -0.3013 -0.2652
  145SAPE    HX15848   3.904   0.887   7.118 -1.0457  0.1365  0.2347
  145SAPE    HY15849   4.001   0.998   7.018  0.4635 -0.2763 -0.0911
  145SAPE   O3115850   3.832   0.905   6.923 -0.3325  0.2946  0.1354
  145SAPE   C3115851   3.881   0.944   6.800 -0.3046  0.0195  0.2275
  145SAPE   O3215852   3.974   1.020   6.787  0.9665  0.3597  0.6121
  145SAPE   C3215853   3.787   0.890   6.698  0.1076 -0.1247  0.0768
  145SAPE   H2X15854   3.696   0.852   6.750 -0.4443 -0.0500 -0.8084
  145SAPE   H2Y15855   3.841   0.806   6.650  2.1157 -0.2159  2.3442
  145SAPE   C2315856   3.431   1.115   7.402 -0.0912  0.3422 -0.2142
  145SAPE   H3R15857   3.476   1.203   7.454  0.2822  0.3723 -0.5821
  145SAPE   H3S15858   3.398   1.041   7.478 -1.6849 -2.2406 -3.1732
  145SAPE   C2415859   3.325   1.141   7.296  0.3755 -0.4614  0.4785
  145SAPE   H4R15860   3.372   1.218   7.231 -0.6732  0.2567  0.5603
  145SAPE   H4S15861   3.238   1.187   7.346 -1.0549 -0.7010 -1.6592
  145SAPE   C2515862   3.269   1.023   7.227  0.7998  0.3017 -0.4215
  145SAPE   H5R15863   3.239   0.935   7.284  2.1020 -1.5328 -2.3917
  145SAPE   C2615864   3.259   1.005   7.092 -0.1907 -0.4407 -0.1541
  145SAPE   H6R15865   3.188   0.935   7.044 -1.3837  0.1153  0.7537
  145SAPE   C2715866   3.325   1.087   6.984 -0.2359  0.0761  0.4942
  145SAPE   H7R15867   3.380   1.018   6.917 -1.0282 -2.5794  2.4236
  145SAPE   H7S15868   3.405   1.156   7.019  0.3746  0.0258 -0.7273
  145SAPE   C2815869   3.227   1.160   6.895 -0.5979 -0.3938  0.2823
  145SAPE   H8R15870   3.163   1.228   6.955 -1.5366  0.0445 -1.1571
  145SAPE   C2915871   3.191   1.124   6.770  0.5065  0.1951  0.3199
  145SAPE   H9R15872   3.119   1.196   6.729  0.2822  1.0445  2.0907
  145SAPE  C21015873   3.255   1.024   6.681  0.1243  1.0975 -0.1408
  145SAPE  H10R15874   3.342   0.979   6.734 -1.0849  0.7285  1.6038
  145SAPE  H10S15875   3.278   1.070   6.582 -0.1311 -1.2352 -1.3367
  145SAPE  C21115876   3.159   0.907   6.663  0.6033 -0.3406 -0.3160
  145SAPE  H11R15877   3.107   0.867   6.752 -0.5428  1.2001 -0.2573
  145SAPE  C21215878   3.132   0.843   6.542  0.4242  0.0690 -0.0832
  145SAPE  H12R15879   3.058   0.762   6.549 -0.0223  0.5606  1.1483
  145SAPE  C21315880   3.185   0.870   6.404  0.2819 -0.3376 -0.0519
  145SAPE  H13R15881   3.159   0.783   6.339 -1.3543  0.7188 -0.8827
  145SAPE  H13S15882   3.296   0.876   6.405  0.2302  1.0201  0.1453
  145SAPE  C21415883   3.146   1.002   6.338 -0.1719  0.6248 -0.2288
  145SAPE  H14R15884   3.175   1.092   6.394  2.3973  0.2907 -0.9193
  145SAPE  C21515885   3.087   1.031   6.217 -0.5443  0.3649 -0.3501
  145SAPE  H15R15886   3.062   1.132   6.182 -0.1435  0.2217 -1.0938
  145SAPE  C21615887   3.027   0.923   6.129 -0.0414  0.9674 -0.6297
  145SAPE  H16R15888   2.927   0.946   6.087 -0.6690 -1.2703 -0.4835
  145SAPE  H16S15889   3.018   0.826   6.182  1.2016  1.0284 -0.2703
  145SAPE  C21715890   3.107   0.891   6.000 -0.1585  0.2974 -0.2763
  145SAPE  H17R15891   3.074   0.793   5.959  1.7886 -0.2714 -0.6318
  145SAPE  H17S15892   3.214   0.872   6.025  0.5957  4.1828 -0.0207
  145SAPE  C21815893   3.090   1.005   5.896  0.0973 -1.1197 -0.2847
  145SAPE  H18R15894   3.168   0.997   5.818 -0.4067 -1.5997 -0.7424
  145SAPE  H18S15895   3.104   1.103   5.947  2.9825 -1.1686 -0.8130
  145SAPE  C21915896   2.953   0.991   5.830  0.0021  0.5232 -0.1277
  145SAPE  H19R15897   2.868   0.984   5.901  0.9994  0.3210  1.0869
  145SAPE  H19S15898   2.945   0.909   5.756  1.3194  2.2163 -2.2712
  145SAPE  C22015899   2.928   1.118   5.748 -0.9777 -0.8711  0.4780
  145SAPE  H20R15900   2.918   1.207   5.814  0.9088  0.6432 -1.1283
  145SAPE  H20S15901   2.845   1.117   5.674 -0.3804  1.0521 -0.2810
  145SAPE  H20T15902   3.022   1.144   5.695 -1.1076  1.4625  1.2551
  145SAPE   C3315903   3.747   0.996   6.592 -0.0791 -0.4095 -0.7751
  145SAPE   H3X15904   3.840   1.042   6.552  0.1462 -0.3266 -0.1657
  145SAPE   H3Y15905   3.686   1.062   6.657  1.0557 -1.0114  0.9780
  145SAPE   C3415906   3.679   0.948   6.466 -0.9875  0.2076  0.3408
  145SAPE   H4X15907   3.682   1.017   6.379  1.4924 -1.0132 -0.6407
  145SAPE   H4Y15908   3.573   0.942   6.499 -1.3031 -1.6372 -0.8308
  145SAPE   C3515909   3.724   0.815   6.410 -0.4703 -0.6007 -0.3678
  145SAPE   H5X15910   3.724   0.745   6.496 -1.6608 -1.0872 -0.7431
  145SAPE   H5Y15911   3.826   0.815   6.364 -0.2857 -2.2431 -0.0345
  145SAPE   C3615912   3.626   0.749   6.314 -0.3839 -0.1048 -0.6043
  145SAPE   H6X15913   3.528   0.778   6.357 -0.3521  0.6848 -1.0377
  145SAPE   H6Y15914   3.633   0.639   6.325  0.0787 -0.0486 -0.2861
  145SAPE   C3715915   3.636   0.781   6.172 -0.4104 -0.5588 -0.1901
  145SAPE   H7X15916   3.733   0.742   6.134  0.4023 -0.6751  1.8720
  145SAPE   H7Y15917   3.647   0.891   6.177  2.1414 -0.7940  0.4985
  145SAPE   C3815918   3.524   0.740   6.079 -0.1202 -0.2024  0.8635
  145SAPE   H8X15919   3.429   0.741   6.136  0.8337 -0.5162  2.5225
  145SAPE   H8Y15920   3.549   0.638   6.045  1.5327  0.9985 -1.8370
  145SAPE   C3915921   3.508   0.830   5.956 -0.4692 -0.0393 -0.1453
  145SAPE   H9X15922   3.403   0.819   5.921 -0.8960  0.5437  0.8762
  145SAPE   H9Y15923   3.577   0.805   5.873 -0.0661  3.5935 -1.0967
  145SAPE  C31015924   3.534   0.982   5.982  0.0996 -0.6882 -0.2407
  145SAPE  H10X15925   3.645   0.990   5.993  0.0520 -0.0841 -0.1545
  145SAPE  H10Y15926   3.487   1.021   6.075  0.2926 -2.6876  0.7362
  145SAPE  C31115927   3.486   1.070   5.867 -0.8109  1.0301  0.0108
  145SAPE  H11X15928   3.538   1.168   5.865 -1.4542  1.3784 -2.1247
  145SAPE  H11Y15929   3.378   1.093   5.880 -0.6515  2.2897 -0.7133
  145SAPE  C31215930   3.496   1.011   5.728 -0.1226 -0.1312 -0.0226
  145SAPE  H12X15931   3.399   0.958   5.721 -1.0589  1.4133  0.7525
  145SAPE  H12Y15932   3.566   0.926   5.714 -1.6594 -1.2933 -0.9469
  145SAPE  C31315933   3.508   1.110   5.607  0.3721  0.1771  0.7790
  145SAPE  H13X15934   3.555   1.058   5.520 -0.1989  2.4220 -0.9505
  145SAPE  H13Y15935   3.578   1.193   5.631  1.1467 -0.0574 -0.5692
  145SAPE  C31415936   3.373   1.165   5.560 -0.5246  0.4566 -0.0757
  145SAPE  H14X15937   3.329   1.249   5.618 -2.3915  0.8265 -1.9231
  145SAPE  H14Y15938   3.292   1.090   5.554 -0.2036 -0.1829  2.4426
  145SAPE  C31515939   3.391   1.227   5.423  0.5081 -0.1985 -0.1467
  145SAPE  H15X15940   3.410   1.144   5.352  2.9414  1.6283 -1.7959
  145SAPE  H15Y15941   3.481   1.290   5.418  0.7545 -0.5654 -0.4194
  145SAPE  C31615942   3.266   1.284   5.345 -0.2363  0.4007 -0.2457
  145SAPE  H16X15943   3.277   1.393   5.329  2.7567  0.1113 -0.7525
  145SAPE  H16Y15944   3.180   1.251   5.407  0.4093 -2.1783 -0.5842
  145SAPE  C31715945   3.237   1.213   5.207  0.0028  0.1677  0.1366
  145SAPE  H17X15946   3.144   1.263   5.172  0.2046 -0.1310 -0.8409
  145SAPE  H17Y15947   3.214   1.106   5.229 -1.7601 -0.0499 -2.3678
  145SAPE  C31815948   3.345   1.226   5.095  1.3035  0.2084 -0.3237
  145SAPE  H18X15949   3.318   1.169   5.004 -0.9475  0.4087  0.1596
  145SAPE  H18Y15950   3.440   1.188   5.137  0.2553 -1.9564  0.2102
  145SAPE  H18Z15951   3.360   1.335   5.078  0.3099  0.7102  1.6087
  146SAPE     N15952   5.904   2.068   7.580 -0.5636 -0.1888 -0.1528
  146SAPE   HN115953   5.943   2.136   7.512 -0.9320  1.1049  0.8767
  146SAPE   HN215954   5.842   2.130   7.637  0.5504  0.0820  0.8034
  146SAPE   HN315955   5.992   2.035   7.623  0.1445  3.8384  1.9993
  146SAPE   C1215956   5.827   1.968   7.499 -0.0904  0.1925 -0.2341
  146SAPE  H12A15957   5.824   1.872   7.555 -2.7665  0.4929  0.2876
  146SAPE  H12B15958   5.885   1.936   7.410 -0.2428 -2.3765  0.4952
  146SAPE   C1115959   5.688   2.015   7.453  0.1367  0.0921  0.6331
  146SAPE  H11A15960   5.659   1.943   7.374  1.5465  1.1141 -0.9034
  146SAPE  H11B15961   5.716   2.110   7.402 -1.6925 -1.4924 -3.8925
  146SAPE     P15962   5.461   2.097   7.536 -0.2878  0.2744 -0.0878
  146SAPE   O1315963   5.341   2.014   7.565  0.2245 -0.0134 -0.3481
  146SAPE   O1415964   5.465   2.230   7.605 -0.3763  0.1760 -0.2113
  146SAPE   O1215965   5.599   2.021   7.568  0.0692  0.2836 -0.3560
  146SAPE   O1115966   5.464   2.099   7.377 -0.3476 -0.2199 -0.0982
  146SAPE    C115967   5.501   2.220   7.306  0.1442  0.5225 -0.3744
  146SAPE    HA15968   5.578   2.277   7.363 -0.6961 -1.1163  2.5780
  146SAPE    HB15969   5.553   2.189   7.212  1.2869 -1.0086  0.7267
  146SAPE    C215970   5.385   2.302   7.260  0.1169 -0.5473  0.2029
  146SAPE    HS15971   5.344   2.348   7.353 -0.2675 -1.2532  0.3857
  146SAPE   O2115972   5.285   2.215   7.200  0.3918 -1.1904 -0.4358
  146SAPE   C2115973   5.160   2.266   7.206 -0.0110 -0.6166 -0.3423
  146SAPE   O2215974   5.129   2.380   7.227  0.2165 -0.2395  0.8266
  146SAPE   C2215975   5.060   2.157   7.166  0.8277 -0.8197  0.1918
  146SAPE   H2R15976   5.108   2.071   7.114 -0.1449 -0.3564 -1.5370
  146SAPE   H2S15977   5.003   2.126   7.256  0.4200  1.8003  0.9253
  146SAPE    C315978   5.433   2.423   7.168 -0.4786 -0.7722  0.6887
  146SAPE    HX15979   5.520   2.472   7.215  0.2128 -0.2025 -1.0957
  146SAPE    HY15980   5.349   2.494   7.154 -0.4602 -0.6089  1.4011
  146SAPE   O3115981   5.481   2.376   7.036  0.0566 -0.5133 -0.6193
  146SAPE   C3115982   5.535   2.477   6.963 -0.5883 -0.6087 -0.2372
  146SAPE   O3215983   5.539   2.595   6.994 -0.0304 -0.4184 -0.2774
  146SAPE   C3215984   5.586   2.412   6.833 -0.5375  0.6746  0.1146
  146SAPE   H2X15985   5.500   2.377   6.771  1.6934 -1.3832 -2.0254
  146SAPE   H2Y15986   5.640   2.319   6.858 -0.9465  0.7694  1.4272
  146SAPE   C2315987   4.954   2.216   7.068  0.2439 -0.6050 -0.4293
  146SAPE   H3R15988   4.917   2.317   7.098  0.7191 -0.8689  1.1112
  146SAPE   H3S15989   4.869   2.151   7.097  0.6430 -0.0116  2.3635
  146SAPE   C2415990   4.979   2.221   6.921 -0.3382 -0.9914 -0.2476
  146SAPE   H4R15991   4.883   2.231   6.866 -2.0049  3.7227  2.8902
  146SAPE   H4S15992   5.014   2.119   6.894  0.9736 -0.5656 -0.2443
  146SAPE   C2515993   5.079   2.333   6.880  0.2298 -0.5119 -0.1323
  146SAPE   H5R15994   5.085   2.426   6.938 -1.2054 -1.0155  0.8702
  146SAPE   C2615995   5.181   2.315   6.794  0.1528 -0.3083  0.8336
  146SAPE   H6R15996   5.247   2.397   6.761  0.5227 -1.2558 -0.9289
  146SAPE   C2715997   5.228   2.183   6.733  1.1107  0.0426  0.4486
  146SAPE   H7R15998   5.302   2.204   6.653  1.1267  0.3945  0.5504
  146SAPE   H7S15999   5.139   2.138   6.684 -1.1244 -0.1068  4.2764
  146SAPE   C2816000   5.296   2.091   6.831 -0.5798 -0.5546 -0.2772
  146SAPE   H8R16001   5.323   2.132   6.929 -0.4448  2.3693 -1.4607
  146SAPE   C2916002   5.352   1.970   6.809  0.3064  0.4554 -0.0837
  146SAPE   H9R16003   5.393   1.918   6.896 -1.8684 -0.8911  0.1940
  146SAPE  C21016004   5.368   1.905   6.669 -0.0268 -0.0519  0.0112
  146SAPE  H10R16005   5.349   1.978   6.588  1.1306 -0.9702 -1.1220
  146SAPE  H10S16006   5.302   1.815   6.662  0.8445 -0.8030  1.0433
  146SAPE  C21116007   5.515   1.859   6.665  2.0194 -0.1775  0.1507
  146SAPE  H11R16008   5.568   1.887   6.757 -0.0135  0.3836  1.1994
  146SAPE  C21216009   5.571   1.794   6.567  0.4181 -0.0251  0.9117
  146SAPE  H12R16010   5.677   1.764   6.564  0.8190  1.2087  1.8533
  146SAPE  C21316011   5.500   1.750   6.440  0.2978  0.5888  0.0659
  146SAPE  H13R16012   5.403   1.802   6.421  0.0847  0.4692  0.8052
  146SAPE  H13S16013   5.460   1.647   6.453  0.7853  0.1779 -1.4194
  146SAPE  C21416014   5.596   1.757   6.320 -0.2598  0.2645 -0.7253
  146SAPE  H14R16015   5.695   1.713   6.337 -0.4015  0.2238  0.0424
  146SAPE  C21516016   5.577   1.807   6.198  1.1083 -0.3428  0.4419
  146SAPE  H15R16017   5.650   1.786   6.119  0.5203 -2.9387  0.5138
  146SAPE  C21616018   5.446   1.862   6.138 -0.4408 -0.7442  0.0172
  146SAPE  H16R16019   5.363   1.851   6.212  0.0592  2.3819  1.1760
  146SAPE  H16S16020   5.426   1.813   6.040 -0.4051 -1.0365  0.1542
  146SAPE  C21716021   5.467   2.008   6.108 -0.3302 -0.0245 -0.4329
  146SAPE  H17R16022   5.498   2.057   6.203  3.5277 -1.4103 -0.7957
  146SAPE  H17S16023   5.370   2.043   6.066  0.9243  1.8354 -1.9194
  146SAPE  C21816024   5.589   2.033   6.002  0.7942  0.7583 -0.0677
  146SAPE  H18R16025   5.681   1.997   6.054  0.7005 -0.9700 -1.0273
  146SAPE  H18S16026   5.597   2.142   5.985  2.0216  0.7589  0.4492
  146SAPE  C21916027   5.577   1.960   5.864  0.2108 -0.1704  0.1390
  146SAPE  H19R16028   5.572   1.853   5.893  3.3382  0.0299  1.9882
  146SAPE  H19S16029   5.670   1.977   5.805 -1.6614  1.0627 -2.6615
  146SAPE  C22016030   5.463   2.001   5.778  0.6195 -0.3907 -1.1152
  146SAPE  H20R16031   5.436   1.953   5.682 -3.0547 -1.2750  0.1736
  146SAPE  H20S16032   5.461   2.112   5.768  0.2926 -0.3464 -0.6094
  146SAPE  H20T16033   5.371   1.976   5.836  1.3151  0.0796  0.2345
  146SAPE   C3316034   5.686   2.498   6.757 -0.0255 -0.4025 -0.2940
  146SAPE   H3X16035   5.744   2.430   6.691  1.8447  1.5850 -0.8170
  146SAPE   H3Y16036   5.756   2.546   6.829  0.2465 -1.8085  0.4082
  146SAPE   C3416037   5.629   2.612   6.674 -0.7598 -0.3464  0.3560
  146SAPE   H4X16038   5.587   2.698   6.731 -0.2890  0.8169 -1.0170
  146SAPE   H4Y16039   5.540   2.577   6.617  0.3587 -1.0639 -1.0050
  146SAPE   C3516040   5.740   2.668   6.587  1.0283 -0.2851 -0.6332
  146SAPE   H5X16041   5.810   2.588   6.555  1.7705  0.7116 -1.5723
  146SAPE   H5Y16042   5.809   2.734   6.644  1.8070 -1.3761 -0.2634
  146SAPE   C3616043   5.694   2.744   6.463  0.1474 -0.6783  0.1433
  146SAPE   H6X16044   5.604   2.808   6.477 -0.0458 -0.4154 -1.9263
  146SAPE   H6Y16045   5.665   2.658   6.398  1.1609 -2.1295  1.5574
  146SAPE   C3716046   5.811   2.817   6.396  0.1455 -0.5701  0.1645
  146SAPE   H7X16047   5.878   2.733   6.365  1.9171  0.3636  1.2900
  146SAPE   H7Y16048   5.877   2.889   6.449 -0.2336 -0.0454 -0.0675
  146SAPE   C3816049   5.770   2.893   6.265  0.6818  0.1435 -0.1650
  146SAPE   H8X16050   5.692   2.967   6.290 -1.5947 -2.0096 -0.4795
  146SAPE   H8Y16051   5.727   2.818   6.195 -0.4469  1.6554 -1.1359
  146SAPE   C3916052   5.876   2.945   6.175 -0.7660  0.5462 -0.2658
  146SAPE   H9X16053   5.943   2.859   6.154  0.5077  1.5433 -0.4072
  146SAPE   H9Y16054   5.938   3.029   6.214  1.1150 -0.7937 -0.2571
  146SAPE  C31016055   5.818   2.973   6.032  0.7700 -0.5963  0.6264
  146SAPE  H10X16056   5.725   3.033   6.044  0.4864 -0.9513  0.2009
  146SAPE  H10Y16057   5.799   2.878   5.978  2.1034  1.0452 -3.0004
  146SAPE  C31116058   5.906   3.052   5.933 -0.0668  0.1140 -0.1089
  146SAPE  H11X16059   6.003   2.997   5.935  0.5423  1.1841  0.7711
  146SAPE  H11Y16060   5.919   3.158   5.963 -0.8610 -0.0879  1.0065
  146SAPE  C31216061   5.854   3.042   5.792  0.3249 -0.7260  0.1208
  146SAPE  H12X16062   5.757   3.090   5.767 -1.0567 -3.4739 -0.2037
  146SAPE  H12Y16063   5.838   2.935   5.769 -2.0356 -0.4560  0.2885
  146SAPE  C31316064   5.945   3.093   5.681 -0.5126 -0.0240 -0.0485
  146SAPE  H13X16065   6.032   3.025   5.692 -1.1468 -0.8212  0.0824
  146SAPE  H13Y16066   5.968   3.199   5.705 -2.2999  0.3947 -0.0491
  146SAPE  C31416067   5.875   3.074   5.548 -0.3880 -0.2387  0.3314
  146SAPE  H14X16068   5.783   3.136   5.547 -1.4306 -1.7092  0.6153
  146SAPE  H14Y16069   5.843   2.967   5.545 -0.4536 -0.2651  1.4591
  146SAPE  C31516070   5.961   3.104   5.432  0.6015  0.0816  0.5201
  146SAPE  H15X16071   6.058   3.050   5.432  0.6758  0.1880 -0.7060
  146SAPE  H15Y16072   5.982   3.213   5.419 -1.1147  0.2677 -1.0143
  146SAPE  C31616073   5.888   3.066   5.302 -0.0893 -0.4038  0.0222
  146SAPE  H16X16074   5.816   3.150   5.288 -1.0037 -0.9903  1.1025
  146SAPE  H16Y16075   5.842   2.966   5.313  0.5918 -0.6798  0.4208
  146SAPE  C31716076   5.971   3.066   5.170  0.0622  0.1247  0.2346
  146SAPE  H17X16077   5.908   3.032   5.085 -0.9253 -1.9192  1.7086
  146SAPE  H17Y16078   6.054   2.992   5.166  0.0513  0.1603 -1.6502
  146SAPE  C31816079   6.029   3.196   5.140 -0.9298 -0.0331  0.1583
  146SAPE  H18X16080   6.073   3.194   5.038  0.1039 -3.0878  0.5820
  146SAPE  H18Y16081   6.111   3.217   5.212 -0.3648  1.1249 -0.7861
  146SAPE  H18Z16082   5.958   3.279   5.162  0.1126  0.5653  1.3911
  147SAPE     N16083   5.217   5.158   7.966  0.2319 -0.0328  0.3119
  147SAPE   HN116084   5.258   5.132   8.058 -0.2821  1.6667  1.0667
  147SAPE   HN216085   5.126   5.109   7.962  0.3540 -0.6157  3.0203
  147SAPE   HN316086   5.280   5.132   7.887 -2.5778 -1.3887 -1.6269
  147SAPE   C1216087   5.198   5.305   7.970  0.0899  0.5803  0.5466
  147SAPE  H12A16088   5.296   5.356   7.962  0.3348  0.1870  0.9840
  147SAPE  H12B16089   5.148   5.328   8.067 -0.0306 -0.8646  0.8566
  147SAPE   C1116090   5.114   5.359   7.858 -0.8239 -0.1923  0.5211
  147SAPE  H11A16091   5.172   5.362   7.763  0.7572  2.5975  1.4593
  147SAPE  H11B16092   5.094   5.466   7.880  0.8672 -0.0255  1.4241
  147SAPE     P16093   4.922   5.259   7.708 -0.0728 -0.0574 -0.1244
  147SAPE   O1316094   4.913   5.110   7.716 -0.0528 -0.0652  0.5282
  147SAPE   O1416095   4.793   5.323   7.684 -0.3255  0.1823 -0.3056
  147SAPE   O1216096   4.988   5.299   7.841 -0.2527 -0.3396  0.3396
  147SAPE   O1116097   5.031   5.296   7.603 -0.0340 -0.4174 -0.2047
  147SAPE    C116098   5.034   5.429   7.549 -0.2549  0.3303 -0.3639
  147SAPE    HA16099   4.966   5.498   7.605  0.5023  0.1021  0.8599
  147SAPE    HB16100   5.136   5.473   7.553 -0.5559  0.9158  1.1705
  147SAPE    C216101   4.986   5.438   7.404  0.2240  0.7031  0.6320
  147SAPE    HS16102   4.891   5.382   7.402  1.1128 -0.8416 -0.4590
  147SAPE   O2116103   5.081   5.372   7.323  0.0110  0.2800  0.6268
  147SAPE   C2116104   5.059   5.239   7.288  0.7575 -0.6470 -0.5960
  147SAPE   O2216105   4.957   5.181   7.320 -0.3887 -0.1345  0.3472
  147SAPE   C2216106   5.168   5.195   7.192  0.1723  0.5549  0.6743
  147SAPE   H2R16107   5.260   5.253   7.216  2.2347 -1.1185 -2.4844
  147SAPE   H2S16108   5.197   5.088   7.205  1.1368  0.9394  1.9409
  147SAPE    C316109   4.960   5.587   7.370 -0.1025 -0.1100 -0.3456
  147SAPE    HX16110   5.064   5.622   7.350 -0.1439  2.1963  2.8277
  147SAPE    HY16111   4.918   5.645   7.455 -2.9683 -0.6380 -1.2728
  147SAPE   O3116112   4.876   5.598   7.254  0.2540 -0.3579 -0.0621
  147SAPE   C3116113   4.745   5.591   7.281 -0.2058  0.1462 -0.6844
  147SAPE   O3216114   4.696   5.561   7.390 -0.4919  0.5045  0.1893
  147SAPE   C3216115   4.661   5.617   7.155 -0.1788  0.3135 -0.1923
  147SAPE   H2X16116   4.678   5.725   7.135  1.5817  0.0412 -0.3591
  147SAPE   H2Y16117   4.555   5.597   7.179 -0.8694  2.2039 -1.4489
  147SAPE   C2316118   5.136   5.222   7.039 -0.4544 -0.3418 -0.2759
  147SAPE   H3R16119   5.034   5.180   7.029 -0.2479 -0.9018 -0.0876
  147SAPE   H3S16120   5.207   5.166   6.974 -1.2709  0.1289 -1.6146
  147SAPE   C2416121   5.139   5.374   7.002 -0.7577  0.4755 -0.2450
  147SAPE   H4R16122   5.240   5.413   7.028 -0.8014  1.0491 -0.8806
  147SAPE   H4S16123   5.076   5.442   7.064 -1.4617  0.3292 -0.7889
  147SAPE   C2516124   5.097   5.383   6.856 -0.6851  0.2781 -0.0476
  147SAPE   H5R16125   4.995   5.355   6.827  0.6919 -2.7001 -2.7150
  147SAPE   C2616126   5.177   5.422   6.753  0.1633 -0.3631  0.3434
  147SAPE   H6R16127   5.127   5.426   6.655 -0.1951  2.4191  0.5597
  147SAPE   C2716128   5.322   5.469   6.768  0.5608  0.1961 -1.1612
  147SAPE   H7R16129   5.382   5.396   6.710 -1.1759 -0.0464 -2.7627
  147SAPE   H7S16130   5.357   5.470   6.873 -0.0142 -0.9904 -0.9451
  147SAPE   C2816131   5.360   5.606   6.717 -0.2958 -0.5903 -0.0470
  147SAPE   H8R16132   5.382   5.686   6.790  0.7001 -1.5063  0.6809
  147SAPE   C2916133   5.384   5.639   6.592  0.7894 -0.6697  0.7243
  147SAPE   H9R16134   5.420   5.742   6.576 -2.2722  0.6647  1.7102
  147SAPE  C21016135   5.376   5.556   6.471 -0.1738 -0.5308 -0.1184
  147SAPE  H10R16136   5.269   5.541   6.443 -0.3012  0.5973 -0.2967
  147SAPE  H10S16137   5.414   5.453   6.483  0.8101 -0.1586  0.0034
  147SAPE  C21116138   5.447   5.618   6.354  0.1378  0.4066  0.3495
  147SAPE  H11R16139   5.557   5.624   6.355  0.5962 -4.1681  2.3912
  147SAPE  C21216140   5.388   5.665   6.242 -0.4320 -0.0612 -0.2057
  147SAPE  H12R16141   5.452   5.713   6.166 -1.8823  1.1961 -0.6819
  147SAPE  C21316142   5.235   5.688   6.222 -0.8358  0.3937  0.2547
  147SAPE  H13R16143   5.197   5.707   6.325 -0.5867  0.6985  0.2920
  147SAPE  H13S16144   5.196   5.587   6.196 -0.5142 -0.1370  1.7283
  147SAPE  C21416145   5.198   5.782   6.116 -0.5399 -0.6977  1.0330
  147SAPE  H14R16146   5.165   5.880   6.154  2.0634 -0.6105  3.4606
  147SAPE  C21516147   5.197   5.757   5.980  0.0303 -0.0347 -0.2530
  147SAPE  H15R16148   5.187   5.846   5.916  0.3812  2.5623  3.0362
  147SAPE  C21616149   5.250   5.630   5.914 -0.3357  0.2860  0.0721
  147SAPE  H16R16150   5.176   5.581   5.846  0.0946 -0.0381 -0.1700
  147SAPE  H16S16151   5.289   5.553   5.983  1.0348 -0.3648 -1.3683
  147SAPE  C21716152   5.361   5.652   5.816  0.8021 -0.7223 -0.8047
  147SAPE  H17R16153   5.417   5.556   5.813  3.2975  0.6177  0.1827
  147SAPE  H17S16154   5.433   5.729   5.850  0.0528 -0.7839  1.0601
  147SAPE  C21816155   5.317   5.673   5.668 -0.3958  0.4734  0.8520
  147SAPE  H18R16156   5.268   5.773   5.662 -0.6739  0.2492 -2.2689
  147SAPE  H18S16157   5.249   5.595   5.629  1.6034 -0.7556 -0.3337
  147SAPE  C21916158   5.437   5.659   5.582  0.2946  0.3452  0.6421
  147SAPE  H19R16159   5.410   5.664   5.474 -2.5381 -0.8939  1.2005
  147SAPE  H19S16160   5.486   5.559   5.586 -0.6596 -0.2046 -0.4878
  147SAPE  C22016161   5.546   5.759   5.612  0.5789 -0.2451 -0.7056
  147SAPE  H20R16162   5.606   5.729   5.700 -0.6587 -1.2852 -0.1779
  147SAPE  H20S16163   5.512   5.864   5.625  2.0156  0.0336  1.2574
  147SAPE  H20T16164   5.605   5.754   5.519 -0.7402  0.1018 -1.5946
  147SAPE   C3316165   4.706   5.524   7.040 -0.0963 -0.3066 -0.0570
  147SAPE   H3X16166   4.693   5.417   7.065 -2.5600  0.2529  1.3676
  147SAPE   H3Y16167   4.816   5.537   7.037 -0.2187  0.7776 -0.6478
  147SAPE   C3416168   4.649   5.559   6.898  0.1097  0.5412 -0.4577
  147SAPE   H4X16169   4.688   5.492   6.818 -1.5801 -1.1247  0.0236
  147SAPE   H4Y16170   4.668   5.666   6.876  1.2779 -0.0350 -2.4588
  147SAPE   C3516171   4.497   5.526   6.885 -0.2936 -0.4860 -0.4775
  147SAPE   H5X16172   4.438   5.550   6.976 -3.3381  0.3775 -2.5366
  147SAPE   H5Y16173   4.498   5.415   6.887  1.7374 -0.5030 -0.3823
  147SAPE   C3616174   4.435   5.591   6.759  0.2191  0.6163 -0.0388
  147SAPE   H6X16175   4.450   5.701   6.761 -0.3524  0.6968  1.3941
  147SAPE   H6Y16176   4.327   5.580   6.784  0.3229  0.3789  0.3258
  147SAPE   C3716177   4.476   5.530   6.625 -0.4459 -0.2282 -0.3586
  147SAPE   H7X16178   4.456   5.421   6.629 -1.9346  0.0453  1.2501
  147SAPE   H7Y16179   4.583   5.544   6.599 -1.0015  0.6726 -2.3547
  147SAPE   C3816180   4.387   5.576   6.512  0.1179 -0.5154 -0.1194
  147SAPE   H8X16181   4.414   5.684   6.502 -1.9850 -0.0111 -0.8478
  147SAPE   H8Y16182   4.280   5.567   6.538  0.6382 -0.4697  2.2557
  147SAPE   C3916183   4.442   5.508   6.378 -0.1396  0.9856 -0.0561
  147SAPE   H9X16184   4.413   5.401   6.378 -1.8888  1.4229 -0.9109
  147SAPE   H9Y16185   4.551   5.525   6.364  0.6965 -2.1969  1.6022
  147SAPE  C31016186   4.365   5.562   6.253 -0.3327  0.4364  0.4687
  147SAPE  H10X16187   4.362   5.673   6.256  0.1591  0.4923 -0.6933
  147SAPE  H10Y16188   4.260   5.526   6.260 -0.5944  1.2007  0.5660
  147SAPE  C31116189   4.426   5.519   6.119 -0.4269 -0.3767  0.5538
  147SAPE  H11X16190   4.412   5.410   6.102  1.0403 -0.2528 -1.9496
  147SAPE  H11Y16191   4.535   5.540   6.113 -0.2539 -1.0404  1.2352
  147SAPE  C31216192   4.372   5.591   6.000 -0.2350  0.7147  0.3815
  147SAPE  H12X16193   4.366   5.702   6.007  0.7599  0.7477  0.8576
  147SAPE  H12Y16194   4.267   5.561   5.981  0.0275  1.5220 -2.8462
  147SAPE  C31316195   4.439   5.557   5.867 -0.1584  0.5530 -0.6880
  147SAPE  H13X16196   4.409   5.453   5.841 -2.3491  1.1239 -0.6179
  147SAPE  H13Y16197   4.548   5.550   5.884  0.0586  0.6109 -1.9380
  147SAPE  C31416198   4.403   5.643   5.748 -0.2745  0.1855  0.4987
  147SAPE  H14X16199   4.417   5.749   5.780 -0.4805  1.0422 -2.0052
  147SAPE  H14Y16200   4.294   5.628   5.735 -0.3579  1.3667 -0.3003
  147SAPE  C31516201   4.488   5.594   5.641  0.0671  0.0749  0.1719
  147SAPE  H15X16202   4.440   5.622   5.544  0.6664  0.0000 -0.1515
  147SAPE  H15Y16203   4.493   5.483   5.637  2.0822  0.1596 -1.2101
  147SAPE  C31616204   4.632   5.649   5.635  0.3443  0.8506 -0.8797
  147SAPE  H16X16205   4.688   5.607   5.721  0.0050  0.9198 -0.6257
  147SAPE  H16Y16206   4.626   5.759   5.649 -0.2346  0.6182  1.0512
  147SAPE  C31716207   4.698   5.626   5.505 -0.2488 -0.2504  0.6379
  147SAPE  H17X16208   4.777   5.702   5.492  0.1892 -0.9588 -1.1672
  147SAPE  H17Y16209   4.629   5.647   5.420 -1.5757 -0.1438  1.7100
  147SAPE  C31816210   4.763   5.489   5.485  0.3294 -0.4227 -0.3355
  147SAPE  H18X16211   4.835   5.467   5.567  1.4645  1.0506 -0.8826
  147SAPE  H18Y16212   4.833   5.500   5.399 -0.8393  1.9582 -1.0933
  147SAPE  H18Z16213   4.694   5.407   5.457  1.1562 -1.3896  0.3879
  148SAPE     N16214   2.217   5.136   7.032 -0.0051 -0.0189 -0.9465
  148SAPE   HN116215   2.166   5.085   6.957  1.3824 -0.3208 -1.7136
  148SAPE   HN216216   2.292   5.081   7.080  1.7757  1.5855 -1.7767
  148SAPE   HN316217   2.151   5.163   7.108 -0.2499 -0.6767 -0.9146
  148SAPE   C1216218   2.261   5.257   6.962 -0.3002 -0.9682 -0.4259
  148SAPE  H12A16219   2.311   5.229   6.866  2.6846  0.6537  0.5178
  148SAPE  H12B16220   2.327   5.314   7.031  1.0018  0.3323 -2.6199
  148SAPE   C1116221   2.142   5.338   6.929  0.2756 -1.3958 -0.1304
  148SAPE  H11A16222   2.069   5.290   6.860 -1.2970  0.2794  0.2605
  148SAPE  H11B16223   2.182   5.428   6.878  0.1673 -1.9408 -1.1969
  148SAPE     P16224   2.127   5.487   7.151  0.0125  0.1783  0.2312
  148SAPE   O1316225   2.031   5.587   7.190 -0.1651  0.2318 -0.3619
  148SAPE   O1416226   2.196   5.414   7.260 -0.3881  0.2849  0.5386
  148SAPE   O1216227   2.070   5.382   7.049 -0.5741 -0.3426 -0.6933
  148SAPE   O1116228   2.237   5.563   7.070 -0.6951 -0.0732 -0.3824
  148SAPE    C116229   2.222   5.699   7.035  0.1356  0.1212  0.0544
  148SAPE    HA16230   2.116   5.707   7.001 -0.4530 -0.6942  1.5909
  148SAPE    HB16231   2.242   5.775   7.114  0.9046  1.5766 -1.4788
  148SAPE    C216232   2.312   5.721   6.914  0.2533  0.0521  1.0381
  148SAPE    HS16233   2.313   5.828   6.885  1.4805  0.2466  1.6938
  148SAPE   O2116234   2.267   5.648   6.794 -0.1954 -1.0331 -0.1788
  148SAPE   C2116235   2.161   5.688   6.736 -0.3850 -0.1836  0.2857
  148SAPE   O2216236   2.095   5.793   6.754 -0.3346 -0.5964 -0.1034
  148SAPE   C2216237   2.123   5.577   6.646 -0.1074  0.5648  0.0352
  148SAPE   H2R16238   2.212   5.516   6.621 -0.8742 -0.1093 -1.1287
  148SAPE   H2S16239   2.049   5.511   6.695 -1.2945  1.0985 -0.9996
  148SAPE    C316240   2.461   5.673   6.945  0.0068  0.5186  0.1278
  148SAPE    HX16241   2.455   5.562   6.952 -3.8726  0.5149 -0.7525
  148SAPE    HY16242   2.496   5.715   7.041 -0.2838  1.2294 -0.0724
  148SAPE   O3116243   2.556   5.715   6.842 -0.4025 -0.3286 -0.2390
  148SAPE   C3116244   2.572   5.635   6.739  0.1097 -0.6669  0.4801
  148SAPE   O3216245   2.530   5.520   6.732 -0.3558 -0.1252 -0.7442
  148SAPE   C3216246   2.665   5.694   6.630 -0.1943  0.5017 -1.3382
  148SAPE   H2X16247   2.750   5.622   6.624  1.2736  1.8985  1.0335
  148SAPE   H2Y16248   2.690   5.797   6.661 -0.5766 -0.2398  1.7867
  148SAPE   C2316249   2.061   5.621   6.508 -0.1439 -0.3122 -0.4981
  148SAPE   H3R16250   1.981   5.694   6.530  1.1104  1.3670 -1.3156
  148SAPE   H3S16251   2.011   5.530   6.467 -2.9108 -0.4120  2.6071
  148SAPE   C2416252   2.155   5.693   6.412  0.0975 -0.7224 -0.0002
  148SAPE   H4R16253   2.218   5.757   6.478 -3.1013  2.7029  0.0504
  148SAPE   H4S16254   2.096   5.764   6.351  1.9437 -0.2332 -1.3061
  148SAPE   C2516255   2.235   5.592   6.334  0.2562 -0.3034  0.2282
  148SAPE   H5R16256   2.317   5.541   6.386  1.1424 -1.1405 -1.8658
  148SAPE   C2616257   2.213   5.563   6.205 -0.3211  0.2359 -0.2669
  148SAPE   H6R16258   2.283   5.500   6.147  1.0191  0.9257  0.5600
  148SAPE   C2716259   2.094   5.618   6.134  0.5215  0.5415  0.0076
  148SAPE   H7R16260   2.120   5.714   6.084  0.9899 -0.1307 -1.0772
  148SAPE   H7S16261   2.003   5.631   6.196  0.3944 -0.0870 -0.0425
  148SAPE   C2816262   2.071   5.512   6.023 -0.1543  0.2312  0.3732
  148SAPE   H8R16263   2.034   5.415   6.059  0.1319 -0.3452 -0.8570
  148SAPE   C2916264   2.096   5.534   5.891  0.1229  0.1698 -0.0152
  148SAPE   H9R16265   2.080   5.450   5.822 -1.0115 -2.7694  3.5104
  148SAPE  C21016266   2.171   5.646   5.831  0.0903 -0.5179  0.2239
  148SAPE  H10R16267   2.258   5.603   5.776  1.4993  0.3969  1.6682
  148SAPE  H10S16268   2.212   5.724   5.898 -0.8523  1.0764 -1.0009
  148SAPE  C21116269   2.088   5.726   5.727 -0.5821  0.0324 -0.5618
  148SAPE  H11R16270   1.984   5.692   5.731 -0.3912 -0.4477  0.9948
  148SAPE  C21216271   2.140   5.822   5.642  0.6770  0.6948  0.1051
  148SAPE  H12R16272   2.069   5.874   5.576 -1.0261 -0.8538  0.6369
  148SAPE  C21316273   2.284   5.857   5.624 -1.1026  0.0693 -0.1372
  148SAPE  H13R16274   2.339   5.761   5.632  1.0434  1.3931  2.2095
  148SAPE  H13S16275   2.314   5.932   5.700  1.8683 -0.4678 -0.6858
  148SAPE  C21416276   2.299   5.933   5.496  0.4006  0.1360 -0.5777
  148SAPE  H14R16277   2.250   6.031   5.493  1.7468  0.9369  1.5016
  148SAPE  C21516278   2.410   5.921   5.418  0.1505  0.0684 -0.7310
  148SAPE  H15R16279   2.432   5.996   5.341  0.7924  0.7558  0.1060
  148SAPE  C21616280   2.503   5.807   5.407 -0.5769  0.4554  0.3326
  148SAPE  H16R16281   2.485   5.757   5.309  1.0069  1.4207 -0.4906
  148SAPE  H16S16282   2.497   5.729   5.486 -2.5116 -0.7611 -0.9401
  148SAPE  C21716283   2.649   5.853   5.404 -0.5058  0.4681  0.4797
  148SAPE  H17R16284   2.712   5.762   5.393  1.6036  1.7646  1.0692
  148SAPE  H17S16285   2.671   5.901   5.502 -1.9054 -1.5491  1.8757
  148SAPE  C21816286   2.668   5.949   5.290 -0.4708 -0.3299  0.2175
  148SAPE  H18R16287   2.599   6.037   5.298  0.9431  0.8425 -0.0318
  148SAPE  H18S16288   2.648   5.908   5.189  0.2134  0.6327 -0.3369
  148SAPE  C21916289   2.805   6.014   5.296 -0.3495  0.1746  0.4498
  148SAPE  H19R16290   2.833   6.029   5.403  2.1447 -1.6836  0.1440
  148SAPE  H19S16291   2.799   6.110   5.241  0.5532  1.4585  2.4365
  148SAPE  C22016292   2.901   5.913   5.229  0.2559  0.1631 -0.5330
  148SAPE  H20R16293   2.905   5.818   5.288  0.1157  1.6020  1.9459
  148SAPE  H20S16294   2.998   5.963   5.214  1.2642 -0.8546  2.0375
  148SAPE  H20T16295   2.869   5.894   5.124  0.8555 -1.5039 -0.4492
  148SAPE   C3316296   2.587   5.723   6.501  0.2821 -0.5018 -0.6820
  148SAPE   H3X16297   2.553   5.829   6.500 -0.7653 -0.8225 -0.1982
  148SAPE   H3Y16298   2.501   5.652   6.501  0.2687 -0.4874 -0.8940
  148SAPE   C3416299   2.665   5.686   6.376 -0.2769  0.3114 -0.4451
  148SAPE   H4X16300   2.686   5.578   6.371 -1.6912  0.0526 -1.1926
  148SAPE   H4Y16301   2.765   5.735   6.375  0.3484 -0.9187 -1.9771
  148SAPE   C3516302   2.594   5.719   6.252 -0.7659 -0.0072 -0.8187
  148SAPE   H5X16303   2.566   5.827   6.246  2.5987  1.0699  0.5360
  148SAPE   H5Y16304   2.507   5.650   6.248  0.4960 -1.6089 -1.9550
  148SAPE   C3616305   2.678   5.686   6.128 -0.2104  0.2297 -1.0895
  148SAPE   H6X16306   2.713   5.581   6.123 -2.6882 -0.7013 -0.4932
  148SAPE   H6Y16307   2.770   5.749   6.127  0.1786 -0.2861  0.1151
  148SAPE   C3716308   2.599   5.738   6.005 -0.0848  0.4650 -0.1441
  148SAPE   H7X16309   2.565   5.839   6.033  1.6267  1.0783 -0.1381
  148SAPE   H7Y16310   2.517   5.664   5.993  0.1949  0.2744 -1.0082
  148SAPE   C3816311   2.687   5.740   5.881  0.0910 -0.1425  0.6025
  148SAPE   H8X16312   2.771   5.812   5.896 -0.4239  0.8147 -0.7954
  148SAPE   H8Y16313   2.622   5.773   5.797  0.1854 -3.7322 -1.0699
  148SAPE   C3916314   2.734   5.597   5.844 -0.3316 -0.3637 -0.4785
  148SAPE   H9X16315   2.660   5.532   5.895 -0.8372  1.5444  1.3501
  148SAPE   H9Y16316   2.835   5.586   5.888 -0.0629 -2.1505 -1.4567
  148SAPE  C31016317   2.743   5.564   5.701  0.0757  0.5465  0.0049
  148SAPE  H10X16318   2.826   5.491   5.687 -0.5514 -0.5825  1.8946
  148SAPE  H10Y16319   2.762   5.661   5.649  1.8056 -1.9113 -4.5641
  148SAPE  C31116320   2.606   5.512   5.644 -0.5886 -0.1025 -0.0737
  148SAPE  H11X16321   2.520   5.579   5.668 -1.1938 -0.6784 -0.6006
  148SAPE  H11Y16322   2.589   5.418   5.700  3.4899 -1.5610 -0.9349
  148SAPE  C31216323   2.610   5.477   5.496 -0.3409 -0.1191 -0.2450
  148SAPE  H12X16324   2.684   5.394   5.497 -0.9094 -0.6715  1.9117
  148SAPE  H12Y16325   2.650   5.565   5.442  1.1042 -0.9165 -0.5260
  148SAPE  C31316326   2.479   5.449   5.430  0.2440  0.7274 -0.0686
  148SAPE  H13X16327   2.406   5.529   5.455  0.3658  0.5477  0.9166
  148SAPE  H13Y16328   2.445   5.349   5.464  1.1503  1.0186  1.8123
  148SAPE  C31416329   2.509   5.430   5.275  0.8871 -0.5851 -0.7655
  148SAPE  H14X16330   2.573   5.339   5.265 -0.3678 -1.9074  1.9527
  148SAPE  H14Y16331   2.574   5.516   5.249  0.4309  1.0755  2.9337
  148SAPE  C31516332   2.383   5.411   5.197 -0.2687 -0.0499  0.5968
  148SAPE  H15X16333   2.327   5.333   5.252 -1.0227  0.0744  0.0165
  148SAPE  H15Y16334   2.399   5.374   5.093  0.8387 -0.2387  0.8206
  148SAPE  C31616335   2.284   5.528   5.198 -0.5045 -0.3241 -0.2480
  148SAPE  H16X16336   2.285   5.590   5.290 -1.4827  0.4587 -0.7527
  148SAPE  H16Y16337   2.187   5.476   5.188 -0.9880  0.8510 -2.0775
  148SAPE  C31716338   2.306   5.632   5.087  0.2750  0.8910  0.2047
  148SAPE  H17X16339   2.283   5.572   4.997  1.9720 -1.8259  1.4615
  148SAPE  H17Y16340   2.410   5.668   5.081  0.9941 -0.3962  3.1195
  148SAPE  C31816341   2.211   5.750   5.100  0.2316 -0.6607  0.3173
  148SAPE  H18X16342   2.107   5.721   5.127 -0.8293  0.7326 -1.8823
  148SAPE  H18Y16343   2.195   5.795   4.999 -2.7262 -2.1521  0.0170
  148SAPE  H18Z16344   2.246   5.822   5.176 -0.7860  0.1822  0.0227
  149SAPE     N16345   3.382   2.130   7.523  0.3731  0.4851  0.1316
  149SAPE   HN116346   3.483   2.139   7.500 -0.0829  1.4440 -1.6439
  149SAPE   HN216347   3.349   2.224   7.552 -0.8254  0.8630 -2.2157
  149SAPE   HN316348   3.360   2.051   7.588  0.0581  0.0937 -0.4402
  149SAPE   C1216349   3.311   2.106   7.391 -0.0255 -0.7365  0.3416
  149SAPE  H12A16350   3.319   2.000   7.356 -2.1841 -0.3257 -1.6760
  149SAPE  H12B16351   3.366   2.167   7.316  0.3403 -1.0011  0.3894
  149SAPE   C1116352   3.162   2.129   7.398 -0.2150 -0.4300 -0.6500
  149SAPE  H11A16353   3.116   2.110   7.299  1.0292 -1.8654 -0.9855
  149SAPE  H11B16354   3.159   2.239   7.411  0.9582 -0.3165 -1.1992
  149SAPE     P16355   3.038   2.101   7.631 -0.1544 -0.0902 -0.5308
  149SAPE   O1316356   2.952   1.994   7.686 -0.5725 -0.2587  0.2187
  149SAPE   O1416357   3.142   2.146   7.722 -0.0087  0.4976 -0.6352
  149SAPE   O1216358   3.093   2.050   7.491 -0.2644 -0.2423  0.0637
  149SAPE   O1116359   2.951   2.230   7.594 -0.2814 -0.0025  0.1261
  149SAPE    C116360   2.823   2.220   7.540  0.2048  0.1107 -0.4303
  149SAPE    HA16361   2.770   2.124   7.559  0.1967  0.2624  0.3488
  149SAPE    HB16362   2.762   2.287   7.605  0.7917  0.4362 -0.2026
  149SAPE    C216363   2.794   2.278   7.398  0.5259 -0.0551  0.0460
  149SAPE    HS16364   2.683   2.276   7.394  0.5677 -1.1893 -1.4551
  149SAPE   O2116365   2.854   2.191   7.292  0.1643 -0.2864 -0.5811
  149SAPE   C2116366   2.787   2.081   7.272  0.8626  1.0803 -0.1531
  149SAPE   O2216367   2.680   2.049   7.323 -0.4885  0.3006  0.4164
  149SAPE   C2216368   2.875   1.989   7.185  0.0358 -0.2641 -0.4659
  149SAPE   H2R16369   2.903   2.055   7.100 -0.6315  1.4434  0.5791
  149SAPE   H2S16370   2.962   1.977   7.253 -2.3657  2.0388  3.4189
  149SAPE    C316371   2.856   2.415   7.375 -0.1316 -0.1742  0.6296
  149SAPE    HX16372   2.967   2.419   7.378 -0.1526  0.8927  3.6711
  149SAPE    HY16373   2.823   2.484   7.456  2.0698 -2.3737  3.6159
  149SAPE   O3116374   2.815   2.467   7.243 -0.4396 -0.6218 -0.3141
  149SAPE   C3116375   2.844   2.599   7.227  0.6959  0.4472  0.1632
  149SAPE   O3216376   2.882   2.676   7.313  0.1582 -0.7984 -0.0463
  149SAPE   C3216377   2.818   2.642   7.081 -0.2447  0.5561 -0.6803
  149SAPE   H2X16378   2.804   2.752   7.078 -1.1939  0.4377 -0.8945
  149SAPE   H2Y16379   2.729   2.584   7.049  0.7115 -0.3069 -1.8766
  149SAPE   C2316380   2.817   1.846   7.142  0.2105 -0.6211 -0.4595
  149SAPE   H3R16381   2.768   1.791   7.225  0.0160  1.1459  0.6480
  149SAPE   H3S16382   2.906   1.789   7.107 -0.2433 -2.3939  1.1225
  149SAPE   C2416383   2.718   1.856   7.023  0.5311  0.1474 -0.6942
  149SAPE   H4R16384   2.774   1.898   6.937 -0.9590 -2.3898 -3.0371
  149SAPE   H4S16385   2.640   1.926   7.060  0.5278 -1.7088  3.3877
  149SAPE   C2516386   2.667   1.725   6.986  0.0467 -0.3071  0.2353
  149SAPE   H5R16387   2.648   1.661   7.073 -0.1696  1.4695  1.5696
  149SAPE   C2616388   2.628   1.684   6.864 -0.4881  0.1234  0.1625
  149SAPE   H6R16389   2.592   1.582   6.844  0.2442 -0.1572  0.2678
  149SAPE   C2716390   2.636   1.764   6.735  0.2055 -0.9255  0.4243
  149SAPE   H7R16391   2.621   1.871   6.760  0.7446 -0.8516  0.4385
  149SAPE   H7S16392   2.550   1.748   6.667 -2.5525 -0.6444  3.5643
  149SAPE   C2816393   2.769   1.741   6.666  0.0146 -0.3881  0.1207
  149SAPE   H8R16394   2.854   1.732   6.735 -0.1530  3.0693  0.9871
  149SAPE   C2916395   2.783   1.711   6.535 -0.0080 -0.6120 -0.6805
  149SAPE   H9R16396   2.884   1.685   6.500  0.1840 -1.3534  0.3701
  149SAPE  C21016397   2.673   1.732   6.432  0.2952  0.3813  0.0272
  149SAPE  H10R16398   2.581   1.685   6.472  0.5782  0.2280  0.5051
  149SAPE  H10S16399   2.706   1.678   6.341  1.2326 -2.3447  1.8587
  149SAPE  C21116400   2.660   1.875   6.407 -0.3351 -1.1994 -0.4090
  149SAPE  H11R16401   2.608   1.928   6.488  1.0213  0.0111 -0.2852
  149SAPE  C21216402   2.671   1.947   6.293 -0.3391  0.2668  0.6203
  149SAPE  H12R16403   2.667   2.057   6.297 -0.1111  0.3267 -0.4937
  149SAPE  C21316404   2.719   1.908   6.157  0.7169  0.3943 -0.0215
  149SAPE  H13R16405   2.819   1.860   6.164  0.6091  0.3557  1.6147
  149SAPE  H13S16406   2.734   2.002   6.100 -0.4640 -0.2785 -1.4850
  149SAPE  C21416407   2.635   1.804   6.086 -0.1905 -0.1881  0.3799
  149SAPE  H14R16408   2.567   1.751   6.155  0.3088  0.7725  1.6289
  149SAPE  C21516409   2.633   1.766   5.957  0.2832 -0.0115 -0.7177
  149SAPE  H15R16410   2.572   1.680   5.924  1.8050 -1.1300 -0.7382
  149SAPE  C21616411   2.722   1.823   5.854 -0.1261 -0.0086 -0.5856
  149SAPE  H16R16412   2.791   1.747   5.810 -1.1298 -0.7125 -1.0001
  149SAPE  H16S16413   2.783   1.900   5.905 -0.7543  0.8715 -1.1502
  149SAPE  C21716414   2.646   1.902   5.743 -0.8325  0.0623 -0.2060
  149SAPE  H17R16415   2.601   1.990   5.793 -1.4003 -0.1281 -0.3681
  149SAPE  H17S16416   2.552   1.852   5.710 -1.1904  1.8743 -2.2175
  149SAPE  C21816417   2.729   1.922   5.619  0.2840  0.1310  0.0691
  149SAPE  H18R16418   2.747   1.830   5.558  3.6266  0.2379  0.6914
  149SAPE  H18S16419   2.824   1.974   5.643 -0.3485  2.2932 -1.7550
  149SAPE  C21916420   2.655   2.032   5.533 -0.3787  0.0875  0.0615
  149SAPE  H19R16421   2.650   2.121   5.599  0.9887  0.0324  0.2804
  149SAPE  H19S16422   2.554   2.005   5.497 -1.1729  3.4263 -0.6250
  149SAPE  C22016423   2.732   2.079   5.413 -0.4913  0.1940  0.2267
  149SAPE  H20R16424   2.701   2.177   5.370 -1.3375 -0.4412 -0.6770
  149SAPE  H20S16425   2.715   2.008   5.329  0.9422  0.2209 -0.1157
  149SAPE  H20T16426   2.841   2.087   5.432 -0.4800  1.6338 -0.3573
  149SAPE   C3316427   2.926   2.591   6.981 -0.4049 -0.6816 -0.6521
  149SAPE   H3X16428   2.942   2.481   6.974 -0.7887 -0.7384 -0.6322
  149SAPE   H3Y16429   3.020   2.640   7.015 -0.0929 -2.2666  0.9215
  149SAPE   C3416430   2.896   2.638   6.839 -0.0334  0.1896 -0.6023
  149SAPE   H4X16431   2.913   2.748   6.833 -1.2428  0.3703 -0.9020
  149SAPE   H4Y16432   2.790   2.621   6.812 -0.3082 -0.2731  0.6675
  149SAPE   C3516433   3.005   2.586   6.742 -0.0046  0.3225  0.0755
  149SAPE   H5X16434   3.000   2.475   6.749 -0.5814  0.1695 -2.1030
  149SAPE   H5Y16435   3.108   2.609   6.776  0.2650 -1.7125  0.7593
  149SAPE   C3616436   3.000   2.636   6.596  0.2681  0.2077  0.1671
  149SAPE   H6X16437   2.989   2.747   6.595 -2.1528  0.0318 -1.5097
  149SAPE   H6Y16438   2.903   2.592   6.566  0.7905 -0.8264 -0.0360
  149SAPE   C3716439   3.110   2.591   6.508  0.0020  0.1601  0.1552
  149SAPE   H7X16440   3.130   2.482   6.520  1.7998  0.4010 -0.3697
  149SAPE   H7Y16441   3.198   2.649   6.543  0.9794 -0.0780 -1.7828
  149SAPE   C3816442   3.086   2.630   6.362 -0.4235  0.4385  0.1786
  149SAPE   H8X16443   3.050   2.735   6.359 -2.0184 -0.0874 -0.1497
  149SAPE   H8Y16444   3.000   2.585   6.308  0.4028  0.0338 -0.8560
  149SAPE   C3916445   3.198   2.593   6.268  0.0655  0.2379 -0.5624
  149SAPE   H9X16446   3.208   2.482   6.263 -0.5332  0.1836 -0.7244
  149SAPE   H9Y16447   3.299   2.629   6.296  1.3479  0.1637 -4.5409
  149SAPE  C31016448   3.171   2.642   6.130 -0.1085 -0.5100  1.0046
  149SAPE  H10X16449   3.157   2.752   6.136  0.4400 -0.3757 -0.0409
  149SAPE  H10Y16450   3.072   2.605   6.095  0.3623 -0.4308 -0.4703
  149SAPE  C31116451   3.272   2.599   6.026  0.2996 -0.3003  0.1860
  149SAPE  H11X16452   3.264   2.489   6.014 -0.1659 -0.0622 -2.0214
  149SAPE  H11Y16453   3.376   2.626   6.057  0.7230  0.1238 -1.4737
  149SAPE  C31216454   3.256   2.664   5.888  0.9155 -0.1295  0.3307
  149SAPE  H12X16455   3.252   2.775   5.889  0.9572 -0.1282  0.3793
  149SAPE  H12Y16456   3.157   2.634   5.848  0.5457  2.4947 -0.8835
  149SAPE  C31316457   3.361   2.607   5.786  0.0596 -0.2740  0.4467
  149SAPE  H13X16458   3.367   2.497   5.786 -1.8765 -0.4742 -2.1882
  149SAPE  H13Y16459   3.460   2.648   5.814  1.3501 -2.1445 -1.1883
  149SAPE  C31416460   3.341   2.656   5.641  0.0140 -0.6535  0.1637
  149SAPE  H14X16461   3.241   2.636   5.597  1.0206 -2.4478 -1.4908
  149SAPE  H14Y16462   3.417   2.612   5.572 -0.1954 -0.8389  0.0507
  149SAPE  C31516463   3.346   2.813   5.632 -0.3075 -0.0505 -0.3987
  149SAPE  H15X16464   3.421   2.847   5.706  0.9038 -0.0854 -1.5743
  149SAPE  H15Y16465   3.250   2.860   5.661  0.7326 -0.4373  4.5956
  149SAPE  C31616466   3.388   2.862   5.494 -0.5831 -0.4626  0.0694
  149SAPE  H16X16467   3.317   2.835   5.412 -0.3164 -2.6558  0.4894
  149SAPE  H16Y16468   3.481   2.811   5.459 -1.2885 -1.1073 -0.9114
  149SAPE  C31716469   3.418   3.006   5.514  0.2592 -0.4122  0.7093
  149SAPE  H17X16470   3.504   3.025   5.581  1.1418  0.4443 -0.6287
  149SAPE  H17Y16471   3.334   3.062   5.561  1.5600  2.5906 -0.2934
  149SAPE  C31816472   3.429   3.086   5.385 -0.0884  0.1014 -0.1271
  149SAPE  H18X16473   3.502   3.035   5.318  0.0093  0.7349 -0.5042
  149SAPE  H18Y16474   3.470   3.187   5.404  1.5502 -0.5135 -0.3073
  149SAPE  H18Z16475   3.331   3.076   5.332 -0.6581 -1.4218  1.1054
  150SAPE     N16476   0.970   3.447   8.012  0.0066 -0.8688 -0.4161
  150SAPE   HN116477   0.966   3.544   8.048  3.0254  0.3265 -2.8109
  150SAPE   HN216478   0.882   3.393   8.023 -1.0742  1.2713  2.5995
  150SAPE   HN316479   1.056   3.409   8.057 -1.4095 -2.0387  1.4112
  150SAPE   C1216480   0.987   3.453   7.863 -0.5331  0.1241  0.3896
  150SAPE  H12A16481   1.007   3.350   7.827 -0.1711  0.0844  0.6900
  150SAPE  H12B16482   1.090   3.491   7.845 -0.4529 -0.4647 -0.4984
  150SAPE   C1116483   0.883   3.540   7.795 -0.8085 -0.0369  0.3011
  150SAPE  H11A16484   0.924   3.560   7.694 -2.0947  1.8149  0.1022
  150SAPE  H11B16485   0.866   3.640   7.842 -0.3720 -0.0020  0.3884
  150SAPE     P16486   0.716   3.384   7.671  0.1658  0.0962  0.0890
  150SAPE   O1316487   0.827   3.291   7.649  0.3374  0.1218  0.0721
  150SAPE   O1416488   0.584   3.325   7.696  0.0263  0.5148 -0.4050
  150SAPE   O1216489   0.759   3.472   7.793  1.0348 -0.2425  0.5454
  150SAPE   O1116490   0.714   3.481   7.552  0.2463  0.5177  0.5811
  150SAPE    C116491   0.639   3.603   7.558  0.0480 -0.3708  0.2494
  150SAPE    HA16492   0.544   3.587   7.613  1.1718 -2.0730  1.8144
  150SAPE    HB16493   0.697   3.679   7.615  1.1616 -2.0311  1.4064
  150SAPE    C216494   0.619   3.680   7.421 -0.2038  0.4082  0.2211
  150SAPE    HS16495   0.548   3.764   7.436 -1.4969  0.2131 -3.6430
  150SAPE   O2116496   0.578   3.590   7.317  0.2141  0.2943  0.0072
  150SAPE   C2116497   0.460   3.539   7.342 -0.0207 -0.3636  0.4479
  150SAPE   O2216498   0.389   3.575   7.438 -0.6979  0.3437  0.0925
  150SAPE   C2216499   0.432   3.426   7.240  0.2489  0.2710  0.0597
  150SAPE   H2R16500   0.456   3.476   7.144 -0.9437 -0.4088 -0.6116
  150SAPE   H2S16501   0.512   3.350   7.249  1.7314  1.6762 -0.6590
  150SAPE    C316502   0.753   3.737   7.383 -0.0341 -0.8053 -0.0210
  150SAPE    HX16503   0.822   3.651   7.401 -1.5138 -1.6786  1.8460
  150SAPE    HY16504   0.788   3.821   7.447  4.5231  0.1911 -3.3069
  150SAPE   O3116505   0.763   3.782   7.239  0.2391 -0.2174  0.0322
  150SAPE   C3116506   0.825   3.704   7.155 -0.2565  0.6288 -0.1404
  150SAPE   O3216507   0.912   3.618   7.180  0.2443  0.0885 -0.0729
  150SAPE   C3216508   0.780   3.739   7.016  0.6583 -0.2788 -0.5576
  150SAPE   H2X16509   0.796   3.848   7.002  0.2412 -0.5621 -4.3019
  150SAPE   H2Y16510   0.671   3.722   7.000  1.0589 -0.8742 -3.1492
  150SAPE   C2316511   0.288   3.377   7.239 -0.0976  0.3791 -0.0203
  150SAPE   H3R16512   0.218   3.462   7.223 -1.4278 -0.1346  2.4269
  150SAPE   H3S16513   0.254   3.347   7.341  1.8876 -0.6656  0.3931
  150SAPE   C2416514   0.258   3.269   7.132  0.4906  0.1918  0.3110
  150SAPE   H4R16515   0.281   3.302   7.028 -0.6301 -0.8856 -0.3033
  150SAPE   H4S16516   0.148   3.252   7.133  0.2901  1.2239 -0.7205
  150SAPE   C2516517   0.317   3.138   7.175 -0.8081  0.4115 -0.3178
  150SAPE   H5R16518   0.278   3.103   7.271 -2.8627 -1.7102 -1.8212
  150SAPE   C2616519   0.412   3.058   7.118 -0.3109  0.0517 -0.5061
  150SAPE   H6R16520   0.442   2.964   7.167 -0.8557 -0.9037 -1.9621
  150SAPE   C2716521   0.471   3.102   6.985  0.5886 -0.0852  0.5684
  150SAPE   H7R16522   0.416   3.180   6.927  0.3029 -1.6863 -1.4434
  150SAPE   H7S16523   0.474   3.015   6.915 -2.0607  0.9978 -1.0399
  150SAPE   C2816524   0.610   3.150   7.010 -0.0073  0.5640  0.0952
  150SAPE   H8R16525   0.673   3.080   7.066 -2.3452 -1.4789  0.3117
  150SAPE   C2916526   0.661   3.269   6.981 -0.2467  0.2007  0.0234
  150SAPE   H9R16527   0.769   3.286   6.998  0.0316 -0.2995 -1.1165
  150SAPE  C21016528   0.587   3.385   6.918 -0.1813  0.3483  0.5427
  150SAPE  H10R16529   0.621   3.480   6.963 -0.1921  0.4226  0.3965
  150SAPE  H10S16530   0.482   3.392   6.953 -0.0244  2.3119  0.7133
  150SAPE  C21116531   0.598   3.393   6.764 -0.7991  0.4903  0.6008
  150SAPE  H11R16532   0.658   3.314   6.717  0.1487  1.5413  0.0238
  150SAPE  C21216533   0.528   3.473   6.680  0.1379  0.4169 -0.1702
  150SAPE  H12R16534   0.545   3.468   6.571 -1.1421  1.1718 -0.4339
  150SAPE  C21316535   0.451   3.590   6.716  0.7490 -0.3827 -1.0788
  150SAPE  H13R16536   0.472   3.633   6.816 -1.4239  0.9083 -1.1122
  150SAPE  H13S16537   0.350   3.558   6.749  0.8344  0.8643  0.5236
  150SAPE  C21416538   0.451   3.697   6.608  0.0414  0.1801 -0.6076
  150SAPE  H14R16539   0.532   3.768   6.632 -0.0408 -0.2330  1.0053
  150SAPE  C21516540   0.371   3.713   6.500 -0.9568  0.4009 -0.3168
  150SAPE  H15R16541   0.386   3.798   6.431  1.4415  0.1246 -0.2378
  150SAPE  C21616542   0.255   3.631   6.460 -0.4430  0.9248  0.2144
  150SAPE  H16R16543   0.162   3.645   6.519  0.3643 -2.3441  2.5616
  150SAPE  H16S16544   0.270   3.521   6.465 -2.0552  0.7201  1.0242
  150SAPE  C21716545   0.202   3.649   6.312  0.1172 -0.5937 -0.0881
  150SAPE  H17R16546   0.171   3.753   6.287  0.0521 -0.7000 -0.4425
  150SAPE  H17S16547   0.125   3.577   6.279  1.4410 -0.6615 -3.4093
  150SAPE  C21816548   0.312   3.629   6.197 -0.0222 -0.5839 -0.3551
  150SAPE  H18R16549   0.394   3.700   6.220 -1.4912  0.2819  2.8405
  150SAPE  H18S16550   0.267   3.661   6.101  1.9590  0.9637 -0.8386
  150SAPE  C21916551   0.368   3.490   6.183  0.1051 -0.3465  0.2659
  150SAPE  H19R16552   0.284   3.428   6.143 -0.6659  0.0345  1.2538
  150SAPE  H19S16553   0.407   3.454   6.280 -2.0928 -1.8798  0.6678
  150SAPE  C22016554   0.472   3.472   6.067  0.6113  0.1551  0.2445
  150SAPE  H20R16555   0.539   3.560   6.070  0.4314  0.3707 -1.3324
  150SAPE  H20S16556   0.421   3.493   5.970 -0.8081  1.9922  1.3182
  150SAPE  H20T16557   0.523   3.373   6.067  1.4508  0.5679  1.6302
  150SAPE   C3316558   0.855   3.664   6.901 -0.2784 -0.1896  0.2322
  150SAPE   H3X16559   0.840   3.554   6.908  0.6092 -0.2400  2.0218
  150SAPE   H3Y16560   0.963   3.680   6.922 -0.1072 -0.9788 -0.0100
  150SAPE   C3416561   0.826   3.720   6.760 -0.0470  0.0719 -0.3696
  150SAPE   H4X16562   0.822   3.831   6.763 -2.9340  0.0354  1.7491
  150SAPE   H4Y16563   0.723   3.686   6.733  0.1661 -0.9176 -0.0007
  150SAPE   C3516564   0.915   3.669   6.644  0.1129  0.1814  0.0344
  150SAPE   H5X16565   0.899   3.559   6.639  3.5064 -0.3664 -2.4913
  150SAPE   H5Y16566   1.020   3.679   6.677 -0.4927  0.3859  2.0497
  150SAPE   C3616567   0.878   3.726   6.506 -0.1262  0.4970  0.2305
  150SAPE   H6X16568   0.904   3.834   6.499  0.1142  0.4044 -0.3546
  150SAPE   H6Y16569   0.768   3.711   6.503 -0.0874  0.1076  0.6984
  150SAPE   C3716570   0.956   3.659   6.399  0.6906  0.1557  0.1613
  150SAPE   H7X16571   0.945   3.549   6.417 -1.0381  0.1459 -0.7318
  150SAPE   H7Y16572   1.063   3.671   6.425  1.2051 -1.4077 -1.0460
  150SAPE   C3816573   0.929   3.698   6.252  0.8356  0.4657 -0.3402
  150SAPE   H8X16574   0.914   3.808   6.259 -1.1402  0.1858  0.4744
  150SAPE   H8Y16575   0.836   3.659   6.204  0.6209 -0.3704  0.7227
  150SAPE   C3916576   1.044   3.656   6.175 -0.3610 -0.4754 -0.4525
  150SAPE   H9X16577   1.072   3.549   6.176  0.8103 -0.2141 -1.9399
  150SAPE   H9Y16578   1.126   3.718   6.216  0.8856 -1.0954 -1.9191
  150SAPE  C31016579   1.022   3.696   6.025 -0.4136 -0.3583 -0.7824
  150SAPE  H10X16580   1.013   3.807   6.032 -0.3319 -0.4133  0.4874
  150SAPE  H10Y16581   0.930   3.646   5.989 -2.2004  2.1815 -0.0459
  150SAPE  C31116582   1.150   3.662   5.957  0.1466  0.2557  0.6650
  150SAPE  H11X16583   1.166   3.552   5.961 -0.9260 -0.0470 -1.4884
  150SAPE  H11Y16584   1.234   3.710   6.010  1.1723  0.1460 -0.8111
  150SAPE  C31216585   1.158   3.697   5.809 -0.7478 -0.3756 -0.2392
  150SAPE  H12X16586   1.263   3.675   5.780 -0.3683  0.7545  0.2135
  150SAPE  H12Y16587   1.153   3.808   5.803 -2.3502 -0.4361 -0.5189
  150SAPE  C31316588   1.059   3.627   5.715 -0.7875  0.0518  0.0605
  150SAPE  H13X16589   0.959   3.660   5.749  0.7525  1.8644  3.2871
  150SAPE  H13Y16590   1.075   3.517   5.722  1.9887  0.3413 -0.4936
  150SAPE  C31416591   1.083   3.675   5.572  0.3442  0.5400  0.1469
  150SAPE  H14X16592   1.077   3.785   5.567  0.8306  0.6202  1.1368
  150SAPE  H14Y16593   1.008   3.635   5.501 -0.1047  1.3102  0.1867
  150SAPE  C31516594   1.215   3.637   5.506  0.0198 -0.4792 -0.1825
  150SAPE  H15X16595   1.232   3.527   5.508 -2.7808 -0.9974 -1.1335
  150SAPE  H15Y16596   1.297   3.691   5.559 -0.8784  0.8226 -0.0673
  150SAPE  C31616597   1.213   3.675   5.360 -0.5178  0.3918 -0.7263
  150SAPE  H16X16598   1.209   3.786   5.353  1.4852  0.6371  0.8200
  150SAPE  H16Y16599   1.136   3.620   5.303  1.1065 -1.3271 -1.3712
  150SAPE  C31716600   1.337   3.625   5.284  0.5099  1.3391  0.4983
  150SAPE  H17X16601   1.302   3.622   5.178 -0.9425 -0.0645  0.9795
  150SAPE  H17Y16602   1.348   3.518   5.314 -0.1873  1.2922  0.5958
  150SAPE  C31816603   1.458   3.719   5.296  0.4089 -0.3712  0.5119
  150SAPE  H18X16604   1.440   3.802   5.224 -2.8789 -0.4208  1.0827
  150SAPE  H18Y16605   1.551   3.663   5.275 -0.6015 -2.4772  1.2604
  150SAPE  H18Z16606   1.465   3.766   5.397 -0.9529 -1.2631  1.0614
  151SAPE     N16607   5.505   1.613   7.848  0.1832 -0.7376  0.1362
  151SAPE   HN116608   5.543   1.709   7.840  0.1333 -0.5941  1.3326
  151SAPE   HN216609   5.507   1.595   7.951 -1.0104 -3.6008 -0.2368
  151SAPE   HN316610   5.571   1.548   7.799  1.2982  0.7528 -0.4100
  151SAPE   C1216611   5.366   1.616   7.793  0.4344 -0.4147  0.7620
  151SAPE  H12A16612   5.305   1.699   7.836  1.7686  1.1288 -0.1958
  151SAPE  H12B16613   5.325   1.518   7.824 -2.0918 -0.3715 -1.9972
  151SAPE   C1116614   5.359   1.630   7.637  0.0699  0.2238 -0.5687
  151SAPE  H11A16615   5.419   1.721   7.617  1.1746 -0.0090  1.3634
  151SAPE  H11B16616   5.256   1.655   7.603  0.0430 -0.0170 -0.6605
  151SAPE     P16617   5.320   1.403   7.522 -0.1996  0.1015 -0.2020
  151SAPE   O1316618   5.408   1.298   7.465 -0.4687 -0.1267 -0.6671
  151SAPE   O1416619   5.236   1.359   7.633 -0.2630  0.7249 -0.5447
  151SAPE   O1216620   5.411   1.522   7.572 -0.0229  0.1002 -0.0353
  151SAPE   O1116621   5.234   1.470   7.410  0.0044 -0.4243  0.3596
  151SAPE    C116622   5.301   1.552   7.310  0.4387 -0.3579  0.7677
  151SAPE    HA16623   5.302   1.661   7.329  0.1986 -0.0933 -0.6089
  151SAPE    HB16624   5.409   1.526   7.305  0.3627 -0.5482  0.0366
  151SAPE    C216625   5.241   1.520   7.162 -0.3550  0.4297 -0.7720
  151SAPE    HS16626   5.132   1.535   7.176 -0.1426  0.4545  1.1426
  151SAPE   O2116627   5.278   1.391   7.125  0.0976 -0.2486 -0.6645
  151SAPE   C2116628   5.194   1.335   7.035 -0.6736  0.1993  0.6832
  151SAPE   O2216629   5.093   1.385   6.993  0.1331 -0.0913 -0.2751
  151SAPE   C2216630   5.241   1.195   7.004 -0.3981 -1.0596 -0.5543
  151SAPE   H2R16631   5.351   1.198   6.986 -0.4370  1.2916 -0.7127
  151SAPE   H2S16632   5.225   1.130   7.092  1.3710  0.5366  1.0479
  151SAPE    C316633   5.289   1.622   7.062  0.9422 -0.6433 -0.7021
  151SAPE    HX16634   5.400   1.625   7.054  1.2257 -4.7320 -0.4068
  151SAPE    HY16635   5.272   1.725   7.100  3.0282 -0.4318 -0.2364
  151SAPE   O3116636   5.243   1.613   6.925  0.2711 -0.0171 -0.5788
  151SAPE   C3116637   5.130   1.668   6.899  0.3692 -0.4622  0.3145
  151SAPE   O3216638   5.076   1.754   6.965  0.1533  0.0419  0.5682
  151SAPE   C3216639   5.092   1.628   6.758  0.0160 -0.3561 -0.4344
  151SAPE   H2X16640   5.040   1.530   6.763 -0.1577 -0.1928  2.0799
  151SAPE   H2Y16641   5.187   1.616   6.701  0.3785 -2.1285  0.4648
  151SAPE   C2316642   5.169   1.125   6.883 -0.1412  0.6786  0.4020
  151SAPE   H3R16643   5.061   1.151   6.873 -0.1313  0.0005 -2.1972
  151SAPE   H3S16644   5.185   1.019   6.913  3.2774  1.2916  1.1223
  151SAPE   C2416645   5.242   1.169   6.753  0.1344 -0.0376 -0.3250
  151SAPE   H4R16646   5.251   1.086   6.679  1.8204  0.7944 -1.1231
  151SAPE   H4S16647   5.349   1.183   6.782  0.0540 -2.2160  1.1842
  151SAPE   C2516648   5.201   1.305   6.688 -0.5158  0.0338 -0.2745
  151SAPE   H5R16649   5.241   1.392   6.741 -0.6356 -1.1025  1.7635
  151SAPE   C2616650   5.130   1.316   6.577  0.5000 -0.0865 -0.1585
  151SAPE   H6R16651   5.111   1.414   6.533  1.0289 -0.8279 -2.1533
  151SAPE   C2716652   5.065   1.193   6.516  0.2093  0.1249  0.3773
  151SAPE   H7R16653   5.049   1.113   6.591  1.4561 -1.1580 -0.6658
  151SAPE   H7S16654   5.131   1.168   6.430 -1.4116 -0.7993 -0.6335
  151SAPE   C2816655   4.933   1.241   6.478 -0.0048  1.2403 -0.1273
  151SAPE   H8R16656   4.866   1.234   6.565  0.3914 -1.7504  0.0636
  151SAPE   C2916657   4.898   1.304   6.364  0.4837 -0.1533 -0.3767
  151SAPE   H9R16658   4.791   1.324   6.347  0.6086 -0.4222 -1.5887
  151SAPE  C21016659   4.998   1.369   6.269  0.1685  0.0819  0.1789
  151SAPE  H10R16660   5.085   1.300   6.264  0.8181  0.9586 -0.9289
  151SAPE  H10S16661   5.042   1.461   6.313 -1.1925 -0.0356  1.9325
  151SAPE  C21116662   4.940   1.394   6.130 -0.1934 -0.0787  0.2089
  151SAPE  H11R16663   4.904   1.497   6.126 -0.7359 -0.3068 -1.3930
  151SAPE  C21216664   4.918   1.303   6.033  0.1666 -0.1295  0.3222
  151SAPE  H12R16665   4.871   1.335   5.939 -0.0972 -3.2041 -0.7061
  151SAPE  C21316666   4.941   1.152   6.042  0.5017  0.2463 -0.6065
  151SAPE  H13R16667   4.977   1.119   6.142 -0.8165  3.6710  1.1548
  151SAPE  H13S16668   5.013   1.126   5.961 -1.0362  2.1190 -2.7111
  151SAPE  C21416669   4.825   1.056   6.014 -0.0870 -0.8632 -0.0084
  151SAPE  H14R16670   4.771   1.028   6.106  0.7185  3.3796  1.9802
  151SAPE  C21516671   4.766   1.023   5.898  0.8327 -0.4242  0.2172
  151SAPE  H15R16672   4.678   0.957   5.906  0.3365  0.1118 -0.6989
  151SAPE  C21616673   4.807   1.059   5.762 -0.1957  0.5654  0.2244
  151SAPE  H16R16674   4.778   0.981   5.689  0.1332  1.2434 -0.6382
  151SAPE  H16S16675   4.915   1.082   5.745  0.0653 -0.4376  0.4525
  151SAPE  C21716676   4.726   1.181   5.716  0.1053  0.1663  0.6126
  151SAPE  H17R16677   4.749   1.277   5.766 -3.3705  1.2594  0.4222
  151SAPE  H17S16678   4.616   1.173   5.731  0.3257 -0.4672  2.1093
  151SAPE  C21816679   4.748   1.214   5.566  0.9471  0.3713 -0.2037
  151SAPE  H18R16680   4.852   1.186   5.539  1.2264  0.4615  0.7357
  151SAPE  H18S16681   4.748   1.324   5.554 -0.3134  0.2779 -1.3657
  151SAPE  C21916682   4.650   1.146   5.470 -0.0080  0.1489  0.3435
  151SAPE  H19R16683   4.546   1.155   5.506  0.1829 -0.2021  1.0049
  151SAPE  H19S16684   4.667   1.036   5.467  0.5166  0.2082  0.9046
  151SAPE  C22016685   4.672   1.188   5.323 -0.1944  0.1123 -0.0419
  151SAPE  H20R16686   4.762   1.139   5.280 -0.8023 -1.3407  0.2610
  151SAPE  H20S16687   4.667   1.299   5.324 -0.1906  0.1141  0.5650
  151SAPE  H20T16688   4.583   1.158   5.265 -1.2665  2.3959  0.3086
  151SAPE   C3316689   5.001   1.745   6.711  0.7096  0.0763 -0.1072
  151SAPE   H3X16690   5.047   1.846   6.718  0.5394  0.3778 -2.5116
  151SAPE   H3Y16691   4.913   1.744   6.778 -0.7161  0.7208 -1.9035
  151SAPE   C3416692   4.950   1.738   6.564  0.3833  0.5323 -0.1756
  151SAPE   H4X16693   4.875   1.819   6.560 -2.3389 -1.8640 -3.1660
  151SAPE   H4Y16694   4.887   1.650   6.540  1.0153  0.3566 -1.2970
  151SAPE   C3516695   5.045   1.776   6.456  0.3951 -0.4104  0.1560
  151SAPE   H5X16696   5.132   1.707   6.456  0.9865  0.3216  0.3674
  151SAPE   H5Y16697   5.077   1.877   6.489  1.1660 -0.6165  0.0604
  151SAPE   C3616698   4.979   1.775   6.315  0.1861 -0.6075 -0.3708
  151SAPE   H6X16699   4.888   1.839   6.314  0.7715  0.2953  1.0887
  151SAPE   H6Y16700   4.947   1.672   6.290  0.9151 -1.0022  0.3003
  151SAPE   C3716701   5.076   1.822   6.204 -0.1503 -0.2297  0.1944
  151SAPE   H7X16702   5.140   1.732   6.190  0.1992 -0.1213  1.0211
  151SAPE   H7Y16703   5.138   1.908   6.238 -0.6912  0.0337  0.5308
  151SAPE   C3816704   5.006   1.844   6.065 -0.1582 -0.0677  0.8632
  151SAPE   H8X16705   4.954   1.941   6.056 -0.2784 -0.1323  0.8646
  151SAPE   H8Y16706   4.930   1.764   6.058  0.9115 -0.9785 -1.5239
  151SAPE   C3916707   5.108   1.824   5.958  0.0612  0.4752  0.2391
  151SAPE   H9X16708   5.156   1.727   5.983  3.1692  2.0087  0.7182
  151SAPE   H9Y16709   5.187   1.898   5.983 -0.6438  1.1604  0.4744
  151SAPE  C31016710   5.064   1.832   5.812  0.7465  0.4597  0.6224
  151SAPE  H10X16711   5.150   1.842   5.741  0.9333  0.2252  0.8142
  151SAPE  H10Y16712   5.007   1.925   5.795 -1.6359 -0.5420  2.6218
  151SAPE  C31116713   4.976   1.713   5.770 -0.1840  0.1883  0.2466
  151SAPE  H11X16714   4.905   1.684   5.850 -1.0357 -0.7167 -0.8151
  151SAPE  H11Y16715   5.038   1.623   5.752  0.5675  0.5703  0.8508
  151SAPE  C31216716   4.895   1.743   5.642 -0.9499  0.0441  0.1085
  151SAPE  H12X16717   4.968   1.737   5.557 -0.5817 -0.0481  0.4274
  151SAPE  H12Y16718   4.866   1.850   5.635 -3.1474 -0.5301 -0.3370
  151SAPE  C31316719   4.777   1.654   5.606  0.4729 -0.7024  0.6587
  151SAPE  H13X16720   4.694   1.668   5.679 -0.7531  3.2344 -1.2232
  151SAPE  H13Y16721   4.816   1.552   5.623  3.1345 -0.3978 -2.4551
  151SAPE  C31416722   4.717   1.673   5.468  0.2534 -0.0671 -0.3569
  151SAPE  H14X16723   4.622   1.615   5.467  0.3122 -0.2658  1.4123
  151SAPE  H14Y16724   4.778   1.623   5.390 -2.0337 -1.9331 -1.0748
  151SAPE  C31516725   4.691   1.816   5.428  0.0271  0.4024 -0.4046
  151SAPE  H15X16726   4.790   1.865   5.424 -0.3484  1.1594 -0.6434
  151SAPE  H15Y16727   4.632   1.875   5.501 -2.0813  0.2602 -1.9062
  151SAPE  C31616728   4.618   1.831   5.297  0.4456  0.3872 -0.1156
  151SAPE  H16X16729   4.516   1.793   5.316  0.4500  0.7941  0.7960
  151SAPE  H16Y16730   4.668   1.770   5.218 -1.6561  1.8117 -2.7009
  151SAPE  C31716731   4.608   1.982   5.256 -0.8749 -0.1794  0.7307
  151SAPE  H17X16732   4.710   2.026   5.262 -0.7869 -0.1342 -0.7857
  151SAPE  H17Y16733   4.549   2.036   5.332  2.8182  1.5637  2.6360
  151SAPE  C31816734   4.555   1.997   5.112  0.6120  0.3249  0.2160
  151SAPE  H18X16735   4.528   2.101   5.085  0.3350  0.4820  1.0695
  151SAPE  H18Y16736   4.465   1.934   5.090  0.8147  0.4993 -1.1899
  151SAPE  H18Z16737   4.630   1.961   5.038  1.3073  1.8003  0.1782
  152SAPE     N16738   1.683   1.624   7.289  0.5035  0.1419 -1.0383
  152SAPE   HN116739   1.661   1.547   7.356 -0.5152 -0.8241 -2.4211
  152SAPE   HN216740   1.670   1.708   7.348 -0.7714 -0.7948  0.1084
  152SAPE   HN316741   1.616   1.614   7.210 -0.3040 -2.1595 -0.1524
  152SAPE   C1216742   1.819   1.614   7.241 -0.0627 -0.0255 -0.0244
  152SAPE  H12A16743   1.858   1.713   7.208  1.5892 -0.6255  0.0494
  152SAPE  H12B16744   1.816   1.556   7.146  0.9629  0.7165 -0.5318
  152SAPE   C1116745   1.920   1.564   7.341  1.0277 -0.2869  0.1821
  152SAPE  H11A16746   2.018   1.600   7.304  0.4989  0.1639 -0.8183
  152SAPE  H11B16747   1.920   1.454   7.356 -0.1265 -0.4615 -0.9459
  152SAPE     P16748   1.953   1.751   7.505 -0.1220 -0.1027 -0.1948
  152SAPE   O1316749   1.892   1.814   7.626  0.6426  0.4428 -0.0589
  152SAPE   O1416750   2.102   1.732   7.511 -0.1969  0.1533 -0.1889
  152SAPE   O1216751   1.893   1.614   7.477  0.3469  0.5838 -0.2942
  152SAPE   O1116752   1.924   1.842   7.377  0.4652 -0.7257 -0.6922
  152SAPE    C116753   2.011   1.947   7.342 -0.1788 -0.4975  0.4991
  152SAPE    HA16754   1.969   2.044   7.377 -0.9198 -0.1954 -1.1179
  152SAPE    HB16755   2.114   1.943   7.383  0.7930 -1.6946 -1.8616
  152SAPE    C216756   2.029   1.966   7.186  0.0971 -0.1854  0.2798
  152SAPE    HS16757   2.066   2.070   7.177  1.4437 -0.2999  3.2887
  152SAPE   O2116758   1.907   1.940   7.115 -0.1904  0.5169 -1.0235
  152SAPE   C2116759   1.812   2.033   7.124  0.2070  0.3500 -0.4410
  152SAPE   O2216760   1.826   2.140   7.179  0.3522 -0.1437  0.0687
  152SAPE   C2216761   1.684   1.976   7.070  0.6399  0.4622  0.0136
  152SAPE   H2R16762   1.687   1.865   7.068  0.9137  0.4522  0.6530
  152SAPE   H2S16763   1.607   1.997   7.147  2.6437  2.2332  1.6591
  152SAPE    C316764   2.140   1.865   7.137  0.5108 -0.6179  0.2751
  152SAPE    HX16765   2.123   1.756   7.152 -1.1460 -0.3158  0.8393
  152SAPE    HY16766   2.225   1.890   7.204  0.0629  3.2185 -0.3271
  152SAPE   O3116767   2.164   1.881   6.995 -0.2692 -0.0774  0.3754
  152SAPE   C3116768   2.267   1.959   6.962  0.5277 -0.8673 -0.5292
  152SAPE   O3216769   2.340   2.019   7.042 -0.3676 -0.2781 -0.4391
  152SAPE   C3216770   2.292   1.927   6.810  0.1686 -0.1678  0.0337
  152SAPE   H2X16771   2.297   1.817   6.798  0.5703 -0.1064 -0.4413
  152SAPE   H2Y16772   2.389   1.970   6.775 -0.7018  3.1462  1.3842
  152SAPE   C2316773   1.643   2.044   6.940  0.2481  0.0045  0.4004
  152SAPE   H3R16774   1.665   2.153   6.937 -1.0290  0.2585 -0.9651
  152SAPE   H3S16775   1.532   2.038   6.940  0.2318  0.0660 -0.7488
  152SAPE   C2416776   1.694   1.980   6.808  0.5082  0.1395 -0.1595
  152SAPE   H4R16777   1.798   2.020   6.807  0.0631  1.3715 -1.7439
  152SAPE   H4S16778   1.647   2.044   6.730 -0.5266  0.7922  0.9759
  152SAPE   C2516779   1.675   1.829   6.801  0.3967  0.9957  0.3093
  152SAPE   H5R16780   1.596   1.792   6.868  0.0737 -0.3097 -0.7460
  152SAPE   C2616781   1.753   1.735   6.741 -0.3903 -0.3609 -0.4839
  152SAPE   H6R16782   1.720   1.635   6.772 -2.5167  0.5439  0.3928
  152SAPE   C2716783   1.881   1.755   6.653  0.0529  0.2941 -0.5004
  152SAPE   H7R16784   1.970   1.734   6.717 -0.3041  1.8967  0.5901
  152SAPE   H7S16785   1.901   1.862   6.630  1.9993  0.6358  2.2275
  152SAPE   C2816786   1.887   1.673   6.528  0.5568 -0.8992  0.6781
  152SAPE   H8R16787   1.954   1.586   6.540  3.2530  0.9272 -0.2830
  152SAPE   C2916788   1.817   1.712   6.419 -0.8757  0.2886  0.7358
  152SAPE   H9R16789   1.844   1.662   6.325 -0.7693  1.3095  0.2082
  152SAPE  C21016790   1.716   1.824   6.413 -0.2346  0.2805 -0.3767
  152SAPE  H10R16791   1.776   1.918   6.423 -2.1939  1.5497  0.0392
  152SAPE  H10S16792   1.652   1.831   6.504 -1.1688 -1.3517 -0.8825
  152SAPE  C21116793   1.622   1.835   6.290 -0.2467  0.9014 -0.2955
  152SAPE  H11R16794   1.515   1.815   6.307  0.4704 -2.0344  1.6395
  152SAPE  C21216795   1.662   1.862   6.166 -0.7670 -0.3484  0.0389
  152SAPE  H12R16796   1.590   1.876   6.084 -0.2765 -0.2713 -0.3868
  152SAPE  C21316797   1.808   1.890   6.116  0.4130  0.3652 -0.8025
  152SAPE  H13R16798   1.879   1.856   6.194 -0.8699 -1.0206 -0.2069
  152SAPE  H13S16799   1.825   2.000   6.116  1.3319  0.2648  0.9359
  152SAPE  C21416800   1.831   1.829   5.986 -0.7803  0.1789  0.3510
  152SAPE  H14R16801   1.882   1.732   5.978 -1.0773  0.1239 -1.2434
  152SAPE  C21516802   1.816   1.885   5.867 -0.7570 -0.1932 -0.7848
  152SAPE  H15R16803   1.838   1.813   5.787  2.1295  1.4098 -1.5758
  152SAPE  C21616804   1.772   2.027   5.852 -0.7793  0.0461 -0.2450
  152SAPE  H16R16805   1.860   2.088   5.821  2.7099 -3.7692  1.1908
  152SAPE  H16S16806   1.721   2.070   5.941 -0.5275 -0.0647 -0.0447
  152SAPE  C21716807   1.658   2.044   5.737  0.0571  0.7685 -0.1782
  152SAPE  H17R16808   1.636   2.152   5.747 -0.9091  0.3522  3.9241
  152SAPE  H17S16809   1.570   1.988   5.773  2.1240 -1.1601  2.3065
  152SAPE  C21816810   1.695   2.012   5.595 -0.7663 -0.2717 -0.3825
  152SAPE  H18R16811   1.708   1.903   5.576 -1.0201 -0.2157 -0.9144
  152SAPE  H18S16812   1.783   2.074   5.569 -1.5826  0.2632 -2.0095
  152SAPE  C21916813   1.583   2.069   5.497 -0.2759  0.3043  0.5753
  152SAPE  H19R16814   1.568   2.176   5.522 -1.7066  0.0843  0.7371
  152SAPE  H19S16815   1.486   2.017   5.507 -0.9373  1.3661 -0.1551
  152SAPE  C22016816   1.620   2.050   5.347 -0.5436  0.7853 -0.2751
  152SAPE  H20R16817   1.559   2.106   5.273 -0.4742  2.5083  0.9258
  152SAPE  H20S16818   1.629   1.940   5.335 -0.4173  0.7888 -0.2134
  152SAPE  H20T16819   1.724   2.090   5.340  0.2127 -0.8637  0.9466
  152SAPE   C3316820   2.179   1.978   6.721  1.0875 -0.6785  0.0603
  152SAPE   H3X16821   2.158   2.085   6.742  1.8486 -0.6606  0.7707
  152SAPE   H3Y16822   2.085   1.923   6.743  1.3454 -1.0146  0.3270
  152SAPE   C3416823   2.227   1.976   6.578 -1.0298  0.2079 -0.1589
  152SAPE   H4X16824   2.257   1.872   6.555 -0.3621  0.2827  0.3537
  152SAPE   H4Y16825   2.321   2.034   6.565  0.8026 -2.4642  0.5601
  152SAPE   C3516826   2.125   2.013   6.475  0.4206 -0.3082 -0.1708
  152SAPE   H5X16827   2.106   2.122   6.486 -0.2796 -0.5757  1.6042
  152SAPE   H5Y16828   2.032   1.955   6.487  0.1914  0.5085  2.5355
  152SAPE   C3616829   2.161   1.997   6.326 -0.7959  0.2736  0.3378
  152SAPE   H6X16830   2.084   2.036   6.256 -0.6405  0.9841  0.5523
  152SAPE   H6Y16831   2.185   1.889   6.313  0.7809  0.4269  1.6579
  152SAPE   C3716832   2.301   2.058   6.290  0.4998 -1.0641 -0.7981
  152SAPE   H7X16833   2.385   2.033   6.357  0.2890 -1.5911 -0.7228
  152SAPE   H7Y16834   2.285   2.168   6.293  0.7735 -0.9028  4.3970
  152SAPE   C3816835   2.353   2.024   6.147  0.3652  0.7802  0.0644
  152SAPE   H8X16836   2.343   1.915   6.131  1.1513  0.9251 -1.6124
  152SAPE   H8Y16837   2.460   2.052   6.140  0.6287  0.4968  2.1306
  152SAPE   C3916838   2.269   2.103   6.043 -0.0113 -0.4317  0.4780
  152SAPE   H9X16839   2.281   2.213   6.054 -1.6861 -0.1011 -0.5349
  152SAPE   H9Y16840   2.162   2.079   6.063 -1.4213  2.7070 -2.4224
  152SAPE  C31016841   2.296   2.056   5.900  0.0176 -0.3864  0.1381
  152SAPE  H10X16842   2.296   1.945   5.899 -2.5170 -0.4542  0.1342
  152SAPE  H10Y16843   2.391   2.096   5.860 -1.1777  0.6066 -1.8761
  152SAPE  C31116844   2.179   2.094   5.806 -0.4593 -0.3174  0.4312
  152SAPE  H11X16845   2.148   2.195   5.840 -0.7170 -0.4512  0.5988
  152SAPE  H11Y16846   2.090   2.029   5.821 -0.5931 -0.3209 -0.3618
  152SAPE  C31216847   2.208   2.101   5.656  0.7632 -0.4774 -0.4303
  152SAPE  H12X16848   2.112   2.124   5.606  0.7862 -2.3164 -1.4139
  152SAPE  H12Y16849   2.235   2.004   5.610  1.9253  0.1508 -1.1215
  152SAPE  C31316850   2.325   2.195   5.622 -0.3198 -0.0192 -0.9889
  152SAPE  H13X16851   2.419   2.142   5.650  0.2044  1.7150  0.7363
  152SAPE  H13Y16852   2.319   2.279   5.694 -1.1791 -0.9759  0.0949
  152SAPE  C31416853   2.343   2.240   5.476  0.4569 -0.4255  0.3047
  152SAPE  H14X16854   2.248   2.280   5.435 -0.4124 -3.1536 -0.5555
  152SAPE  H14Y16855   2.363   2.148   5.417  0.2412  1.6094 -3.1639
  152SAPE  C31516856   2.456   2.345   5.452  0.7227  0.4933 -0.0560
  152SAPE  H15X16857   2.550   2.315   5.503  2.1102 -0.6689 -3.0843
  152SAPE  H15Y16858   2.410   2.436   5.497  0.1047  0.9237 -1.5086
  152SAPE  C31616859   2.483   2.373   5.302  0.6399 -0.4196  0.1622
  152SAPE  H16X16860   2.400   2.433   5.261  2.3065  0.9054 -1.4244
  152SAPE  H16Y16861   2.499   2.279   5.244  0.2455  0.4028 -1.3260
  152SAPE  C31716862   2.613   2.458   5.278  0.7530  0.4332  0.3042
  152SAPE  H17X16863   2.696   2.391   5.308  0.2944 -0.5656 -0.5890
  152SAPE  H17Y16864   2.598   2.547   5.342 -0.8656  0.7384 -0.4354
  152SAPE  C31816865   2.613   2.503   5.132  0.4934  0.0439 -0.7667
  152SAPE  H18X16866   2.518   2.554   5.105  1.3560  1.5098 -1.1717
  152SAPE  H18Y16867   2.609   2.409   5.073  1.0857 -0.5627  0.1332
  152SAPE  H18Z16868   2.695   2.572   5.105 -0.5350  1.0446 -1.4361
  153SAPE     N16869   6.681   3.189   7.635 -0.2703  0.4413 -0.0704
  153SAPE   HN116870   6.683   3.208   7.737  0.1384 -1.5833  0.3446
  153SAPE   HN216871   6.768   3.216   7.586 -1.2494  0.0121 -2.1624
  153SAPE   HN316872   6.598   3.235   7.593  0.5109  4.0678  1.8919
  153SAPE   C1216873   6.674   3.041   7.627  0.2376 -0.1061 -0.2234
  153SAPE  H12A16874   6.596   3.013   7.701  0.3222 -0.9607 -0.4408
  153SAPE  H12B16875   6.763   2.991   7.672  0.8941  1.4877  0.3031
  153SAPE   C1116876   6.634   2.989   7.491  0.4684 -0.0891  0.7975
  153SAPE  H11A16877   6.619   2.879   7.488 -0.6718  0.0696 -1.1829
  153SAPE  H11B16878   6.708   3.009   7.411  0.8022  0.8017  1.3115
  153SAPE     P16879   6.436   3.016   7.330 -0.5535 -0.1575  0.3184
  153SAPE   O1316880   6.433   2.872   7.312  0.0067  0.3206 -0.4645
  153SAPE   O1416881   6.305   3.082   7.318 -0.2654 -0.9402  0.3832
  153SAPE   O1216882   6.501   3.053   7.469  0.8110 -0.1642  0.0636
  153SAPE   O1116883   6.534   3.080   7.222  0.3303 -0.2102 -0.4365
  153SAPE    C116884   6.487   3.177   7.128 -0.2442  0.2154  0.1083
  153SAPE    HA16885   6.379   3.170   7.103 -0.2929 -0.9160  0.5557
  153SAPE    HB16886   6.501   3.275   7.178 -4.3001 -0.2585  2.6240
  153SAPE    C216887   6.570   3.157   6.990  0.4503 -0.6219 -0.3591
  153SAPE    HS16888   6.507   3.206   6.912 -2.0767  0.9622  2.4833
  153SAPE   O2116889   6.594   3.014   6.961 -0.1744  0.3977  0.6478
  153SAPE   C2116890   6.495   2.937   6.944  0.2171  0.0594 -0.5232
  153SAPE   O2216891   6.379   2.964   6.955 -0.0652  1.0511 -0.0827
  153SAPE   C2216892   6.540   2.796   6.911  0.3803 -0.1899 -0.0668
  153SAPE   H2R16893   6.648   2.777   6.933  0.0400 -2.2208 -0.0159
  153SAPE   H2S16894   6.477   2.724   6.967  0.1225  0.2330  0.1908
  153SAPE    C316895   6.699   3.238   6.994 -0.4718 -0.1770  0.1223
  153SAPE    HX16896   6.762   3.190   7.071 -1.4360  1.8038  2.2422
  153SAPE    HY16897   6.663   3.335   7.034 -0.9267  1.0819 -3.0027
  153SAPE   O3116898   6.771   3.252   6.868 -0.1797  0.6616  0.1117
  153SAPE   C3116899   6.865   3.156   6.844 -0.2238 -0.4528 -0.2279
  153SAPE   O3216900   6.889   3.064   6.918 -0.7982 -0.5139  0.2396
  153SAPE   C3216901   6.925   3.175   6.707  0.3346 -0.6771  0.0585
  153SAPE   H2X16902   6.963   3.279   6.712  0.9762 -0.9674  2.0242
  153SAPE   H2Y16903   6.843   3.157   6.634  0.5577  1.5799 -0.8425
  153SAPE   C2316904   6.526   2.773   6.759  0.7040 -0.0506  0.5679
  153SAPE   H3R16905   6.419   2.795   6.736  0.2932 -1.2834  1.2287
  153SAPE   H3S16906   6.540   2.666   6.735 -0.1091  0.0967 -0.6453
  153SAPE   C2416907   6.616   2.843   6.650 -0.0762  0.7779  0.5538
  153SAPE   H4R16908   6.592   2.946   6.683  0.4209  0.2785  2.6801
  153SAPE   H4S16909   6.579   2.830   6.547  0.0284 -2.4303  0.8054
  153SAPE   C2516910   6.769   2.811   6.665  0.1274 -0.1304 -0.0152
  153SAPE   H5R16911   6.816   2.854   6.754 -1.8452  0.5231  0.7686
  153SAPE   C2616912   6.836   2.739   6.581 -0.2872  0.6582  0.3628
  153SAPE   H6R16913   6.946   2.742   6.592 -0.4208  1.6247  1.4924
  153SAPE   C2716914   6.783   2.656   6.465 -0.2143 -0.0134 -0.4903
  153SAPE   H7R16915   6.832   2.690   6.371 -1.8281  0.9371 -1.0386
  153SAPE   H7S16916   6.674   2.674   6.450 -0.2649  1.3715  1.2467
  153SAPE   C2816917   6.811   2.506   6.485  0.5030 -0.1284  0.3063
  153SAPE   H8R16918   6.835   2.473   6.587 -0.2367 -0.2354  0.4488
  153SAPE   C2916919   6.804   2.406   6.389  0.1290  0.0763 -0.3240
  153SAPE   H9R16920   6.820   2.299   6.410  0.7760 -0.2626 -2.3031
  153SAPE  C21016921   6.766   2.425   6.239 -0.5526 -0.3437 -0.5398
  153SAPE  H10R16922   6.860   2.452   6.186 -0.5260 -1.1269 -0.9142
  153SAPE  H10S16923   6.698   2.512   6.229 -0.2892 -0.2766 -1.8915
  153SAPE  C21116924   6.701   2.296   6.192  0.3588  0.1132 -0.3537
  153SAPE  H11R16925   6.764   2.208   6.215 -0.4079  0.0964  1.9481
  153SAPE  C21216926   6.581   2.285   6.143  0.6314 -0.2690 -0.1010
  153SAPE  H12R16927   6.551   2.184   6.109 -2.5452  0.6612 -0.4119
  153SAPE  C21316928   6.478   2.392   6.114 -0.3612  0.2446 -0.7464
  153SAPE  H13R16929   6.528   2.470   6.052 -1.5256  1.9919  0.4014
  153SAPE  H13S16930   6.459   2.444   6.211  1.0549 -0.4248 -0.0859
  153SAPE  C21416931   6.350   2.342   6.064  0.3596 -0.1889  0.4630
  153SAPE  H14R16932   6.284   2.311   6.147  0.4852  2.3224  1.5865
  153SAPE  C21516933   6.300   2.328   5.937  0.0975 -0.2543 -0.2568
  153SAPE  H15R16934   6.211   2.264   5.926 -0.1645 -0.3070  1.7061
  153SAPE  C21616935   6.377   2.364   5.816  0.3004 -0.1075  0.2187
  153SAPE  H16R16936   6.479   2.402   5.840  1.1107 -1.3117 -1.1316
  153SAPE  H16S16937   6.313   2.428   5.753 -1.5670 -1.6472  0.4529
  153SAPE  C21716938   6.406   2.238   5.732 -0.4724  1.4891  0.5190
  153SAPE  H17R16939   6.319   2.188   5.685  2.2889 -1.3333 -2.1136
  153SAPE  H17S16940   6.452   2.167   5.805 -0.4095  0.2476 -0.6929
  153SAPE  C21816941   6.510   2.256   5.615 -0.7394  0.3960 -0.9264
  153SAPE  H18R16942   6.468   2.330   5.544  0.4431  0.9479 -1.0885
  153SAPE  H18S16943   6.538   2.158   5.571  2.8150  0.4679  0.7871
  153SAPE  C21916944   6.645   2.326   5.658  0.1158  0.8315  0.5227
  153SAPE  H19R16945   6.617   2.430   5.686 -1.0262  0.5272  0.5899
  153SAPE  H19S16946   6.711   2.328   5.569 -1.2578 -1.5554 -0.6413
  153SAPE  C22016947   6.712   2.265   5.777  0.7217  0.2356  0.3491
  153SAPE  H20R16948   6.688   2.156   5.776 -1.4281  0.5161 -4.1589
  153SAPE  H20S16949   6.681   2.304   5.876 -1.2642 -2.4485  0.9088
  153SAPE  H20T16950   6.822   2.277   5.767  0.5809  1.8636  0.6025
  153SAPE   C3316951   7.046   3.083   6.693  0.3615  0.6201  0.0221
  153SAPE   H3X16952   7.013   2.977   6.687  0.5686  0.2531  3.5805
  153SAPE   H3Y16953   7.114   3.087   6.781  0.3868 -2.4725  0.2547
  153SAPE   C3416954   7.128   3.114   6.560  0.1043  0.2687 -0.6215
  153SAPE   H4X16955   7.217   3.047   6.565 -0.7174 -0.8070  0.0864
  153SAPE   H4Y16956   7.174   3.214   6.556 -1.4091  0.9762 -4.1422
  153SAPE   C3516957   7.048   3.104   6.430 -0.9481  0.5922  0.1885
  153SAPE   H5X16958   6.996   3.199   6.406  1.0038  1.3067 -1.5189
  153SAPE   H5Y16959   6.964   3.034   6.452  0.4976 -0.5941  2.2666
  153SAPE   C3616960   7.147   3.097   6.313 -0.4061 -0.0359 -0.4109
  153SAPE   H6X16961   7.224   3.177   6.314 -0.6914  0.2724  1.2896
  153SAPE   H6Y16962   7.088   3.132   6.226 -1.4198  0.1200  0.3207
  153SAPE   C3716963   7.221   2.958   6.300  0.1294  0.0197  0.1603
  153SAPE   H7X16964   7.136   2.891   6.275  0.4434 -0.2168 -0.2939
  153SAPE   H7Y16965   7.273   2.932   6.394  1.2226  0.4578 -0.3136
  153SAPE   C3816966   7.331   2.949   6.196 -0.6242 -0.2985 -0.0400
  153SAPE   H8X16967   7.391   2.858   6.217 -0.8538 -0.5279 -0.3792
  153SAPE   H8Y16968   7.388   3.041   6.220 -3.2173  1.6137 -0.7617
  153SAPE   C3916969   7.265   2.966   6.054  0.0380  0.8751  0.1043
  153SAPE   H9X16970   7.233   3.072   6.044 -0.5483  0.5802 -1.5091
  153SAPE   H9Y16971   7.187   2.891   6.031 -0.3141  1.4710 -0.7398
  153SAPE  C31016972   7.369   2.956   5.941 -0.6313 -0.0355 -0.4357
  153SAPE  H10X16973   7.408   2.853   5.947 -0.6207  0.0137  0.4369
  153SAPE  H10Y16974   7.455   3.025   5.952 -0.6496 -0.1027  0.1825
  153SAPE  C31116975   7.306   2.963   5.802 -0.4345  0.0025  0.9907
  153SAPE  H11X16976   7.302   3.070   5.769  0.9735 -0.1562  0.2101
  153SAPE  H11Y16977   7.209   2.912   5.819 -1.1839  0.5044 -1.4012
  153SAPE  C31216978   7.380   2.896   5.690  0.1784 -0.1259 -0.1914
  153SAPE  H12X16979   7.399   2.792   5.723  1.6800 -0.0905 -0.8412
  153SAPE  H12Y16980   7.482   2.939   5.674  0.3482  1.0004  3.0417
  153SAPE  C31316981   7.304   2.901   5.561  0.2038 -0.3536 -0.0583
  153SAPE  H13X16982   7.275   3.008   5.551 -0.4983 -0.4954  0.3578
  153SAPE  H13Y16983   7.211   2.840   5.565  0.7737 -1.1845  2.1903
  153SAPE  C31416984   7.381   2.863   5.432 -0.4087  0.0551  0.1684
  153SAPE  H14X16985   7.489   2.888   5.431 -0.6948  1.3276 -0.5113
  153SAPE  H14Y16986   7.340   2.920   5.346  0.5214 -0.9250 -0.9591
  153SAPE  C31516987   7.373   2.709   5.404 -0.0729 -0.3279 -0.1292
  153SAPE  H15X16988   7.269   2.675   5.422 -0.1708  0.3405  0.5966
  153SAPE  H15Y16989   7.433   2.646   5.474 -1.7497 -0.0771  1.6126
  153SAPE  C31616990   7.402   2.668   5.259  0.6942  0.2863  0.3799
  153SAPE  H16X16991   7.343   2.733   5.190  0.4686 -1.6646 -1.3604
  153SAPE  H16Y16992   7.365   2.565   5.242  2.6499 -0.2838 -0.7370
  153SAPE  C31716993   7.552   2.659   5.224  0.0364 -0.7210 -0.3373
  153SAPE  H17X16994   7.587   2.586   5.300 -1.2128 -0.9347  0.0431
  153SAPE  H17Y16995   7.609   2.754   5.219  0.0968 -0.8173 -2.7352
  153SAPE  C31816996   7.579   2.598   5.087  0.1642  0.1234 -0.5780
  153SAPE  H18X16997   7.685   2.621   5.062 -0.0403  1.1653 -0.5238
  153SAPE  H18Y16998   7.507   2.625   5.008 -0.0433 -0.3362 -0.5513
  153SAPE  H18Z16999   7.572   2.487   5.088  2.7477 -0.1305  1.1849
  154SAPE     N17000   6.227   0.922   7.974  0.1185  0.3250  0.5338
  154SAPE   HN117001   6.279   0.844   8.020 -0.4570  0.0576  0.7475
  154SAPE   HN217002   6.225   0.909   7.870  1.2449 -2.0673  0.7484
  154SAPE   HN317003   6.288   1.003   7.997  2.8881 -1.7546  1.0729
  154SAPE   C1217004   6.082   0.926   8.010 -0.7521 -0.8724 -0.0595
  154SAPE  H12A17005   6.027   1.006   7.956  0.4231  0.9200  1.2899
  154SAPE  H12B17006   6.069   0.943   8.119 -1.7146 -0.5406 -0.2200
  154SAPE   C1117007   6.014   0.793   7.971  0.3713 -0.3791  0.0718
  154SAPE  H11A17008   6.067   0.716   8.031  0.9318 -0.4712 -0.5278
  154SAPE  H11B17009   6.034   0.774   7.863  0.5622  1.8415 -0.3271
  154SAPE     P17010   5.763   0.818   7.894  0.0797 -0.5190  0.2192
  154SAPE   O1317011   5.723   0.690   7.841 -0.1686  0.1829  0.1162
  154SAPE   O1417012   5.659   0.907   7.949  0.1743 -0.3252  0.0326
  154SAPE   O1217013   5.873   0.795   8.004  0.0022 -0.5480 -0.3311
  154SAPE   O1117014   5.836   0.889   7.776 -0.6858  0.2135  0.2882
  154SAPE    C117015   5.852   0.830   7.649 -0.3131  0.4365  0.0076
  154SAPE    HA17016   5.952   0.782   7.646 -0.1511  0.7962 -2.0790
  154SAPE    HB17017   5.780   0.751   7.621 -1.5369  1.4823  0.1157
  154SAPE    C217018   5.836   0.934   7.542  0.3117 -0.1987  0.2864
  154SAPE    HS17019   5.752   1.001   7.572  1.7788  2.3831 -1.0181
  154SAPE   O2117020   5.819   0.868   7.412 -0.0069  0.7300  0.2825
  154SAPE   C2117021   5.716   0.913   7.352 -0.7655 -1.3309  0.2081
  154SAPE   O2217022   5.653   1.013   7.381  0.0397  0.3216 -0.0538
  154SAPE   C2217023   5.688   0.825   7.230 -0.4577  0.9735  0.3762
  154SAPE   H2R17024   5.776   0.833   7.162 -0.6118  2.2779  0.2976
  154SAPE   H2S17025   5.682   0.724   7.275 -4.0645  0.6306 -0.5722
  154SAPE    C317026   5.954   1.025   7.529 -0.0236  0.2154  0.2894
  154SAPE    HX17027   6.037   0.952   7.513  0.0439  0.3517  0.0116
  154SAPE    HY17028   5.965   1.087   7.621  1.1005  0.3520  0.0791
  154SAPE   O3117029   5.960   1.111   7.407  0.4075  0.2291 -0.1279
  154SAPE   C3117030   6.057   1.201   7.406 -0.3898  0.6010  0.0677
  154SAPE   O3217031   6.143   1.214   7.496  0.0016  0.3577 -0.5093
  154SAPE   C3217032   6.062   1.291   7.283  0.3496  0.2802  0.3955
  154SAPE   H2X17033   5.975   1.360   7.296 -0.8938 -1.2919  0.7023
  154SAPE   H2Y17034   6.045   1.224   7.196 -0.0289 -1.1956  1.5763
  154SAPE   C2317035   5.560   0.855   7.150  0.4595  0.1150  0.5978
  154SAPE   H3R17036   5.573   0.955   7.102 -2.5259  0.4947  0.3978
  154SAPE   H3S17037   5.469   0.863   7.213 -1.5347 -0.9071 -1.9889
  154SAPE   C2417038   5.520   0.747   7.040  0.0997 -0.4798 -0.0970
  154SAPE   H4R17039   5.486   0.659   7.098 -2.3718 -0.1832 -0.9840
  154SAPE   H4S17040   5.610   0.718   6.982  0.7327  0.3172  0.4627
  154SAPE   C2517041   5.410   0.797   6.949  0.5698 -0.5080 -0.5568
  154SAPE   H5R17042   5.313   0.808   7.000  2.1525  0.2481  2.5169
  154SAPE   C2617043   5.408   0.815   6.819  0.5134 -0.7319 -0.9969
  154SAPE   H6R17044   5.310   0.848   6.782 -0.0816  1.1064  1.9522
  154SAPE   C2717045   5.512   0.807   6.718 -0.1724  0.5736  0.5255
  154SAPE   H7R17046   5.482   0.716   6.661 -2.8628  2.1482 -0.7931
  154SAPE   H7S17047   5.610   0.793   6.768  0.1522  0.7923 -0.0403
  154SAPE   C2817048   5.523   0.931   6.630 -0.0353 -0.2431 -0.5087
  154SAPE   H8R17049   5.571   1.012   6.687 -1.9212  1.7965 -1.6772
  154SAPE   C2917050   5.466   0.961   6.513 -1.1654 -0.1010 -0.0654
  154SAPE   H9R17051   5.495   1.058   6.470 -1.9552 -0.2478 -0.9692
  154SAPE  C21017052   5.390   0.862   6.429  0.2702  0.7931 -0.5731
  154SAPE  H10R17053   5.369   0.763   6.475  3.1031 -0.0780 -0.9946
  154SAPE  H10S17054   5.469   0.842   6.354  3.3925 -0.9752  2.8050
  154SAPE  C21117055   5.262   0.926   6.386  0.2955  0.4551 -0.1518
  154SAPE  H11R17056   5.202   0.969   6.467  0.4733 -1.5031  1.0965
  154SAPE  C21217057   5.211   0.919   6.262 -0.1143  0.5248  0.0741
  154SAPE  H12R17058   5.111   0.958   6.237 -1.8007 -3.5767 -0.3792
  154SAPE  C21317059   5.270   0.839   6.148  0.6397  0.1724  0.3530
  154SAPE  H13R17060   5.379   0.826   6.159  0.7301 -2.6146 -2.4846
  154SAPE  H13S17061   5.257   0.891   6.051 -0.0512 -0.0486  0.3220
  154SAPE  C21417062   5.201   0.702   6.127 -0.0230  0.1098 -0.0961
  154SAPE  H14R17063   5.214   0.641   6.219 -2.8733 -0.7279 -0.1617
  154SAPE  C21517064   5.152   0.656   6.011 -0.1440 -0.2257 -0.5108
  154SAPE  H15R17065   5.116   0.552   6.015 -0.3951 -0.1732 -1.2252
  154SAPE  C21617066   5.137   0.732   5.880  0.0675  0.1699  0.4930
  154SAPE  H16R17067   5.231   0.778   5.844 -0.4185  1.2286  0.5469
  154SAPE  H16S17068   5.081   0.825   5.905  1.9646  1.0022  2.0141
  154SAPE  C21717069   5.080   0.636   5.773 -0.2432 -0.9609  0.2354
  154SAPE  H17R17070   4.976   0.602   5.793 -1.2014  0.1494 -2.4316
  154SAPE  H17S17071   5.140   0.544   5.755  1.8111  0.1113  1.2191
  154SAPE  C21817072   5.076   0.692   5.627  0.3013 -0.7204 -0.5205
  154SAPE  H18R17073   5.070   0.610   5.551  2.5969 -2.0926  0.6812
  154SAPE  H18S17074   5.171   0.745   5.607  1.6875 -0.7747  4.5434
  154SAPE  C21917075   4.967   0.796   5.596  0.2532 -0.5766 -0.1689
  154SAPE  H19R17076   4.995   0.886   5.656 -0.8060 -0.6129  0.4102
  154SAPE  H19S17077   4.870   0.763   5.639  0.4531  0.1491  0.8808
  154SAPE  C22017078   4.960   0.835   5.452 -0.4520  0.5591 -0.0459
  154SAPE  H20R17079   5.058   0.873   5.418 -0.4651 -1.5480 -2.6605
  154SAPE  H20S17080   4.886   0.915   5.430  0.0366  1.3906  1.2172
  154SAPE  H20T17081   4.932   0.750   5.387  0.2631 -0.9077  1.4907
  154SAPE   C3317082   6.180   1.390   7.272  0.1866 -0.8311  0.0686
  154SAPE   H3X17083   6.278   1.338   7.268  0.8280  0.1447  2.1185
  154SAPE   H3Y17084   6.189   1.446   7.367 -0.6603 -1.0945  0.3139
  154SAPE   C3417085   6.181   1.478   7.139  0.6795 -0.8009 -0.6336
  154SAPE   H4X17086   6.284   1.513   7.117  0.0763  1.1831 -0.4719
  154SAPE   H4Y17087   6.108   1.559   7.163  1.5938  0.0138 -0.5763
  154SAPE   C3517088   6.134   1.407   7.012 -0.4267  0.0581  0.0357
  154SAPE   H5X17089   6.028   1.376   7.023 -0.5656  0.7116  0.5409
  154SAPE   H5Y17090   6.197   1.316   7.003  0.1654  0.2721  1.7298
  154SAPE   C3617091   6.154   1.485   6.881 -0.4685  0.3081 -0.6248
  154SAPE   H6X17092   6.258   1.521   6.864 -0.3502 -0.1042 -0.8024
  154SAPE   H6Y17093   6.093   1.577   6.886  0.7576  1.0905  0.6698
  154SAPE   C3717094   6.095   1.407   6.762 -0.2395 -0.3857  0.3499
  154SAPE   H7X17095   5.992   1.368   6.775 -0.1230 -1.1871 -0.9883
  154SAPE   H7Y17096   6.176   1.331   6.747  0.3292  0.3279 -0.2471
  154SAPE   C3817097   6.097   1.491   6.632  0.5469 -0.1407  0.2599
  154SAPE   H8X17098   6.200   1.530   6.619  0.1289  2.3978  3.2936
  154SAPE   H8Y17099   6.025   1.575   6.644  1.3197  0.3020  2.2914
  154SAPE   C3917100   6.044   1.411   6.513 -0.1782  0.7188 -0.5026
  154SAPE   H9X17101   5.948   1.362   6.542  0.4277 -1.0474 -1.3380
  154SAPE   H9Y17102   6.114   1.329   6.488 -0.1067 -0.0894  2.0385
  154SAPE  C31017103   6.015   1.487   6.379  0.0847  0.0726  0.0571
  154SAPE  H10X17104   6.107   1.543   6.351  0.7255 -1.7144 -1.5909
  154SAPE  H10Y17105   5.936   1.563   6.400  0.1517  0.2010 -0.1461
  154SAPE  C31117106   5.965   1.403   6.257  0.5245  0.4893  0.0040
  154SAPE  H11X17107   5.856   1.384   6.260  0.4055  1.2496  0.7795
  154SAPE  H11Y17108   6.034   1.316   6.265  0.8300  0.8807  2.3369
  154SAPE  C31217109   6.008   1.477   6.130 -0.0904  0.4747  0.3624
  154SAPE  H12X17110   6.114   1.508   6.134 -0.5570  2.6533 -1.6760
  154SAPE  H12Y17111   5.950   1.571   6.120 -0.5436  0.0154 -2.0953
  154SAPE  C31317112   5.966   1.392   6.006  0.3567 -0.4167 -0.3245
  154SAPE  H13X17113   5.868   1.344   6.027 -0.5017  1.1921 -0.5224
  154SAPE  H13Y17114   6.048   1.324   5.975  1.5736 -0.3468  2.4009
  154SAPE  C31417115   5.937   1.494   5.893 -0.4363 -0.0419  0.0032
  154SAPE  H14X17116   6.016   1.572   5.892  0.2266 -0.6793 -2.2638
  154SAPE  H14Y17117   5.839   1.545   5.912  0.4060  0.7851  2.5735
  154SAPE  C31517118   5.928   1.438   5.754 -0.3276  0.0550  0.3268
  154SAPE  H15X17119   6.027   1.399   5.725  0.7770  2.4072  0.6913
  154SAPE  H15Y17120   5.908   1.519   5.681 -0.5862  0.5660  0.9478
  154SAPE  C31617121   5.840   1.316   5.733 -0.4646 -0.1518 -0.1600
  154SAPE  H16X17122   5.744   1.329   5.787 -0.6308 -0.7940 -0.2911
  154SAPE  H16Y17123   5.885   1.231   5.787 -0.2965  1.1505  1.8508
  154SAPE  C31717124   5.818   1.276   5.584 -0.1657 -0.1821 -0.5646
  154SAPE  H17X17125   5.918   1.262   5.536 -0.1774  1.2374 -1.0410
  154SAPE  H17Y17126   5.773   1.369   5.543  1.6243  0.2856 -1.5766
  154SAPE  C31817127   5.734   1.153   5.581 -0.5692  0.0611 -0.7639
  154SAPE  H18X17128   5.790   1.067   5.625  0.6230  0.8345 -0.7352
  154SAPE  H18Y17129   5.708   1.124   5.477 -0.1017 -1.3855 -0.5093
  154SAPE  H18Z17130   5.636   1.174   5.630 -0.5308  0.5974 -0.9107
  155SAPE     N17131   6.375   2.617   7.316  0.3199  0.5136  0.3623
  155SAPE   HN117132   6.430   2.553   7.378  0.0410 -0.6556 -0.5552
  155SAPE   HN217133   6.414   2.713   7.315  0.9708  0.2544  0.1548
  155SAPE   HN317134   6.285   2.619   7.368  1.2793 -1.4774  2.2666
  155SAPE   C1217135   6.347   2.552   7.180 -0.1826 -0.0216 -0.5622
  155SAPE  H12A17136   6.434   2.567   7.113  0.2988  2.3897  0.5211
  155SAPE  H12B17137   6.256   2.600   7.139 -0.7213 -2.0612 -1.9282
  155SAPE   C1117138   6.319   2.395   7.198  0.1232  0.2113 -0.1708
  155SAPE  H11A17139   6.409   2.341   7.234 -0.3329 -0.6657 -0.3277
  155SAPE  H11B17140   6.301   2.357   7.096 -2.4347  2.1738 -0.5781
  155SAPE     P17141   6.172   2.217   7.316  0.4456  0.3788  0.1214
  155SAPE   O1317142   6.292   2.167   7.384 -0.5978  0.3418 -0.2114
  155SAPE   O1417143   6.041   2.212   7.393  0.8479  0.1155  0.3141
  155SAPE   O1217144   6.207   2.367   7.280 -0.3444 -0.3861 -0.0229
  155SAPE   O1117145   6.147   2.136   7.176  0.2651  0.3059  0.2182
  155SAPE    C117146   6.053   2.200   7.091  0.9408 -0.1260  0.5373
  155SAPE    HA17147   6.040   2.308   7.116  0.6668  0.1428 -0.6732
  155SAPE    HB17148   6.090   2.198   6.986 -2.3411  0.7634 -0.7590
  155SAPE    C217149   5.917   2.125   7.106 -0.6220  0.5438 -0.2029
  155SAPE    HS17150   5.875   2.139   7.208 -0.3774  1.7775 -0.2525
  155SAPE   O2117151   5.931   1.983   7.070 -0.2345 -0.9580  0.1872
  155SAPE   C2117152   5.817   1.914   7.088  1.2014 -0.1619 -0.5136
  155SAPE   O2217153   5.713   1.955   7.133  0.9625 -0.8484 -0.4087
  155SAPE   C2217154   5.838   1.773   7.060  0.1462  0.3714 -0.7801
  155SAPE   H2R17155   5.825   1.752   6.952  2.1107 -0.7291 -0.8625
  155SAPE   H2S17156   5.943   1.746   7.085  0.0774 -1.5677 -2.3352
  155SAPE    C317157   5.820   2.209   7.011  0.4105  0.5226 -0.9056
  155SAPE    HX17158   5.819   2.305   7.066 -0.1818 -1.1565  2.2394
  155SAPE    HY17159   5.716   2.171   7.017  0.7648 -0.3072  0.5154
  155SAPE   O3117160   5.871   2.221   6.876 -0.4188 -0.2304 -0.3259
  155SAPE   C3117161   5.851   2.112   6.799 -0.2142 -0.5953 -0.8992
  155SAPE   O3217162   5.786   2.019   6.839  0.0512  0.0505  0.4123
  155SAPE   C3217163   5.920   2.125   6.660 -0.2004  0.1672  0.2971
  155SAPE   H2X17164   6.016   2.074   6.680  0.7754  1.9694  0.4585
  155SAPE   H2Y17165   5.942   2.232   6.642 -1.7252  0.1122 -2.5451
  155SAPE   C2317166   5.751   1.678   7.152  0.0051  0.3242 -0.0492
  155SAPE   H3R17167   5.644   1.699   7.130  0.1099  1.2100  0.2573
  155SAPE   H3S17168   5.765   1.687   7.262 -0.7121  0.3325  0.0482
  155SAPE   C2417169   5.782   1.535   7.111  0.3253  0.1909  0.3844
  155SAPE   H4R17170   5.881   1.510   7.153  0.4144 -0.2544 -0.0833
  155SAPE   H4S17171   5.810   1.541   7.004  1.5952  1.1656  0.7492
  155SAPE   C2517172   5.683   1.425   7.139 -1.4215  0.0678  0.4105
  155SAPE   H5R17173   5.662   1.421   7.247  2.5381  1.7148  1.4156
  155SAPE   C2617174   5.637   1.329   7.057  0.5458 -0.0377  0.3743
  155SAPE   H6R17175   5.562   1.263   7.102 -0.4560 -0.0677 -1.2525
  155SAPE   C2717176   5.657   1.327   6.903  0.1528 -0.2274 -0.4322
  155SAPE   H7R17177   5.607   1.239   6.857 -0.7654  0.3058 -0.4718
  155SAPE   H7S17178   5.768   1.326   6.897  0.1530  0.8191 -0.7341
  155SAPE   C2817179   5.615   1.441   6.818  0.0871 -0.8103 -0.0972
  155SAPE   H8R17180   5.626   1.537   6.871 -0.5954 -1.1681  0.7123
  155SAPE   C2917181   5.586   1.438   6.688  0.7847  0.5284 -0.7931
  155SAPE   H9R17182   5.554   1.533   6.644  0.6500  2.5331  3.1858
  155SAPE  C21017183   5.582   1.313   6.602 -0.9477 -0.0249  0.9273
  155SAPE  H10R17184   5.478   1.279   6.582  0.0209 -1.0422 -3.5369
  155SAPE  H10S17185   5.631   1.225   6.650 -0.1212  0.0417  0.2390
  155SAPE  C21117186   5.641   1.354   6.464 -0.2619  0.2295  0.1158
  155SAPE  H11R17187   5.749   1.375   6.466 -0.2930  0.3602  0.4457
  155SAPE  C21217188   5.588   1.333   6.339  0.1839 -0.0825 -0.7974
  155SAPE  H12R17189   5.648   1.354   6.249 -2.4448 -2.5656 -3.3286
  155SAPE  C21317190   5.444   1.299   6.300  0.3219 -0.7960  0.4552
  155SAPE  H13R17191   5.397   1.238   6.380 -0.3219 -0.8277  0.0604
  155SAPE  H13S17192   5.439   1.227   6.216  1.5842 -0.9242  0.4708
  155SAPE  C21417193   5.364   1.421   6.268 -0.1087 -0.0154 -0.5116
  155SAPE  H14R17194   5.322   1.473   6.355  2.0435 -0.0394  0.6078
  155SAPE  C21517195   5.318   1.456   6.143 -0.1263 -0.1822  0.2305
  155SAPE  H15R17196   5.243   1.537   6.146 -0.3531 -0.3910  0.2410
  155SAPE  C21617197   5.339   1.383   6.015  0.4998  0.1261  0.5469
  155SAPE  H16R17198   5.263   1.302   6.021 -0.5100  0.7453 -2.0819
  155SAPE  H16S17199   5.434   1.326   6.009  0.6511  0.5080 -1.6539
  155SAPE  C21717200   5.322   1.466   5.878 -0.3786  0.2308 -0.1800
  155SAPE  H17R17201   5.228   1.526   5.873 -1.3224 -1.2877 -1.7830
  155SAPE  H17S17202   5.323   1.389   5.798 -0.9793  0.7730 -0.7230
  155SAPE  C21817203   5.424   1.577   5.847  0.7324  0.3343  0.2561
  155SAPE  H18R17204   5.523   1.555   5.892  1.3138 -1.5872 -1.8027
  155SAPE  H18S17205   5.382   1.668   5.896  1.1266  1.5574 -1.5632
  155SAPE  C21917206   5.452   1.616   5.704 -0.2557 -0.0067 -0.0666
  155SAPE  H19R17207   5.476   1.722   5.685 -1.1246 -0.0220 -1.4264
  155SAPE  H19S17208   5.364   1.599   5.637  1.6370  0.0247 -2.7005
  155SAPE  C22017209   5.557   1.520   5.640 -0.7796  0.3799  0.3769
  155SAPE  H20R17210   5.535   1.417   5.677  0.1620 -0.7128 -1.9013
  155SAPE  H20S17211   5.663   1.537   5.669  0.0223 -1.3884 -1.2666
  155SAPE  H20T17212   5.539   1.509   5.531  1.2876 -2.2581  0.1842
  155SAPE   C3317213   5.843   2.063   6.541  1.2407 -0.1453  0.9354
  155SAPE   H3X17214   5.826   1.955   6.559  1.2019 -0.4150 -0.6212
  155SAPE   H3Y17215   5.909   2.067   6.452 -0.4451 -2.9822 -0.5764
  155SAPE   C3417216   5.716   2.137   6.497 -0.2804  0.2304  0.2275
  155SAPE   H4X17217   5.648   2.151   6.584  0.2946 -1.8624  1.0820
  155SAPE   H4Y17218   5.656   2.082   6.421  0.6022  0.2081 -0.4671
  155SAPE   C3517219   5.745   2.278   6.439  0.4291 -0.4404  0.4322
  155SAPE   H5X17220   5.786   2.356   6.508 -1.0659  0.5612  0.2267
  155SAPE   H5Y17221   5.644   2.322   6.424 -0.2274 -1.0524  2.7632
  155SAPE   C3617222   5.829   2.283   6.309 -0.4708  0.4545  0.4541
  155SAPE   H6X17223   5.787   2.211   6.235 -2.7755  0.0022  2.0968
  155SAPE   H6Y17224   5.922   2.231   6.341 -1.8292 -0.0991  3.8762
  155SAPE   C3717225   5.844   2.421   6.245  0.3534 -0.1459  0.2364
  155SAPE   H7X17226   5.885   2.485   6.326 -2.4179  0.4422  1.2988
  155SAPE   H7Y17227   5.746   2.454   6.203 -0.4424 -1.9355  0.6140
  155SAPE   C3817228   5.940   2.421   6.129  0.7371  0.6990 -0.8325
  155SAPE   H8X17229   5.923   2.335   6.062 -1.8552  0.9619 -0.6314
  155SAPE   H8Y17230   6.045   2.409   6.164  1.0243  2.4465 -0.9933
  155SAPE   C3917231   5.926   2.548   6.048 -0.1954 -0.3975  0.1840
  155SAPE   H9X17232   5.951   2.646   6.095 -2.1639  1.1131 -1.7116
  155SAPE   H9Y17233   5.820   2.561   6.018  0.0452  0.2053 -0.4372
  155SAPE  C31017234   6.026   2.543   5.932 -0.3667  0.0879  0.1988
  155SAPE  H10X17235   6.028   2.444   5.883 -0.4653  0.5993 -0.8771
  155SAPE  H10Y17236   6.125   2.584   5.961 -0.0382 -0.0198 -0.7258
  155SAPE  C31117237   5.971   2.615   5.808  0.1863 -0.0532  0.1504
  155SAPE  H11X17238   5.969   2.723   5.833 -1.2021  0.3856 -1.6105
  155SAPE  H11Y17239   5.864   2.594   5.788 -0.2854  1.6897  0.7187
  155SAPE  C31217240   6.049   2.601   5.674  0.2598 -0.3206  0.2874
  155SAPE  H12X17241   6.011   2.513   5.619  0.2753  1.1650 -2.2910
  155SAPE  H12Y17242   6.159   2.591   5.686  0.0471 -3.4437  0.4069
  155SAPE  C31317243   6.019   2.721   5.586 -0.3935 -0.0254  0.0138
  155SAPE  H13X17244   6.063   2.812   5.630  0.1657 -0.2048 -0.1672
  155SAPE  H13Y17245   5.910   2.737   5.597 -0.2036  1.8484 -0.6077
  155SAPE  C31417246   6.078   2.692   5.449  0.9409 -0.0580 -0.8792
  155SAPE  H14X17247   6.047   2.777   5.385  4.0491  1.8136 -0.1084
  155SAPE  H14Y17248   6.031   2.600   5.409  0.0042 -1.3245  2.7126
  155SAPE  C31517249   6.224   2.679   5.439 -0.5201 -0.2821  0.2833
  155SAPE  H15X17250   6.246   2.652   5.333 -1.9477 -2.4100  0.4716
  155SAPE  H15Y17251   6.276   2.609   5.507  2.4023  0.5759 -0.9130
  155SAPE  C31617252   6.309   2.806   5.466 -0.1183 -0.3554  0.2312
  155SAPE  H16X17253   6.283   2.859   5.561 -2.1988 -1.9272  0.6305
  155SAPE  H16Y17254   6.278   2.869   5.381  1.2181 -1.6558 -1.2832
  155SAPE  C31717255   6.462   2.784   5.458 -0.2553 -0.2890  0.9400
  155SAPE  H17X17256   6.509   2.883   5.444  0.0882 -0.5051  0.5243
  155SAPE  H17Y17257   6.481   2.730   5.362 -2.3767 -0.3880  0.5079
  155SAPE  C31817258   6.527   2.719   5.574  0.5180  0.1414 -0.4527
  155SAPE  H18X17259   6.506   2.788   5.658  0.0959  0.7882 -1.0770
  155SAPE  H18Y17260   6.638   2.713   5.569  0.6165 -0.8108  1.7341
  155SAPE  H18Z17261   6.490   2.620   5.609  2.1754  0.1179  1.4196
  156SAPE     N17262   0.899   1.588   7.482  0.4602  0.2012  0.4834
  156SAPE   HN117263   0.937   1.602   7.387  0.3855  2.1608  0.7119
  156SAPE   HN217264   0.809   1.537   7.469 -0.9715  2.8188 -0.6729
  156SAPE   HN317265   0.887   1.678   7.533  0.8723  0.1771  0.6240
  156SAPE   C1217266   0.995   1.496   7.541 -0.3849 -0.5279 -0.0359
  156SAPE  H12A17267   1.000   1.401   7.484  0.1360 -0.2891 -0.3933
  156SAPE  H12B17268   0.978   1.476   7.649  0.1206  2.2349  0.6293
  156SAPE   C1117269   1.143   1.567   7.528 -0.2127 -0.2811 -0.4338
  156SAPE  H11A17270   1.205   1.481   7.561 -1.3292 -0.6827  0.6836
  156SAPE  H11B17271   1.157   1.650   7.599  0.6497 -0.6302 -0.1770
  156SAPE     P17272   1.291   1.548   7.317 -0.2357  0.0227  0.4798
  156SAPE   O1317273   1.407   1.597   7.389  0.3698 -0.2213 -0.6744
  156SAPE   O1417274   1.272   1.396   7.314 -0.3854  0.4892  0.1810
  156SAPE   O1217275   1.168   1.606   7.388  0.3099  0.1973  0.7563
  156SAPE   O1117276   1.288   1.620   7.180 -0.1299  0.5239  0.4013
  156SAPE    C117277   1.170   1.656   7.106 -0.5099  0.1830  1.1331
  156SAPE    HA17278   1.184   1.655   6.995 -0.3113 -0.1535  1.1575
  156SAPE    HB17279   1.087   1.585   7.128 -0.0960 -0.7142 -0.0574
  156SAPE    C217280   1.135   1.798   7.152  0.1060 -0.4592  0.7425
  156SAPE    HS17281   1.126   1.796   7.263  1.0633  0.9818  0.8793
  156SAPE   O2117282   1.008   1.843   7.094  0.4417 -0.3382  0.4922
  156SAPE   C2117283   0.905   1.778   7.141 -0.6087  0.0878 -0.2607
  156SAPE   O2217284   0.903   1.708   7.239 -0.2023 -0.1314 -0.4789
  156SAPE   C2217285   0.781   1.786   7.050  0.0821 -0.1089 -0.3004
  156SAPE   H2R17286   0.766   1.890   7.014  0.6671  0.6587  1.5667
  156SAPE   H2S17287   0.798   1.732   6.955  1.4275  0.2174 -0.2679
  156SAPE    C317288   1.249   1.895   7.109  0.1842  0.4632 -0.3510
  156SAPE    HX17289   1.339   1.862   7.167  1.4469 -1.3852 -3.1335
  156SAPE    HY17290   1.224   1.994   7.152 -0.3651  1.4284 -2.7986
  156SAPE   O3117291   1.276   1.893   6.967  0.1272  0.5418  0.0167
  156SAPE   C3117292   1.296   2.010   6.914  0.7608 -0.4324  0.1272
  156SAPE   O3217293   1.294   2.116   6.973 -0.0693  0.4172 -0.3539
  156SAPE   C3217294   1.326   1.995   6.765 -0.4343 -0.5230 -0.0716
  156SAPE   H2X17295   1.252   1.924   6.722 -2.3093 -0.1369  2.3372
  156SAPE   H2Y17296   1.419   1.935   6.753 -0.1616 -0.0004 -0.5909
  156SAPE   C2317297   0.652   1.755   7.117 -0.2692  0.4731 -0.6397
  156SAPE   H3R17298   0.623   1.835   7.188 -1.2516  0.6249 -1.2016
  156SAPE   H3S17299   0.655   1.667   7.185  2.5404  1.6525  0.9487
  156SAPE   C2417300   0.543   1.711   7.020 -0.5714  0.9084  0.6731
  156SAPE   H4R17301   0.546   1.788   6.940  0.2651  0.5067  0.3107
  156SAPE   H4S17302   0.449   1.718   7.078 -2.9528  0.0693 -2.8074
  156SAPE   C2517303   0.556   1.570   6.964  0.6505 -0.4599  0.5553
  156SAPE   H5R17304   0.532   1.490   7.036 -1.3182 -0.1846  0.2612
  156SAPE   C2617305   0.581   1.539   6.833 -0.0270  0.5290  0.2146
  156SAPE   H6R17306   0.601   1.435   6.802  0.3826  0.7389 -0.2504
  156SAPE   C2717307   0.593   1.623   6.704  0.7382 -0.0783 -0.9473
  156SAPE   H7R17308   0.638   1.565   6.621  2.1781 -0.2689 -0.0650
  156SAPE   H7S17309   0.667   1.704   6.725  0.7244  0.2851 -2.2114
  156SAPE   C2817310   0.459   1.692   6.692 -0.6407  0.2955  0.3050
  156SAPE   H8R17311   0.422   1.740   6.784 -0.5093 -1.2327  1.2072
  156SAPE   C2917312   0.394   1.714   6.579 -0.1930 -0.9451 -0.3148
  156SAPE   H9R17313   0.309   1.783   6.595  0.0770 -0.6047 -0.3370
  156SAPE  C21017314   0.436   1.657   6.445 -0.1216 -0.1249 -0.3469
  156SAPE  H10R17315   0.545   1.638   6.448  0.5364  3.2692  1.4270
  156SAPE  H10S17316   0.423   1.738   6.371  0.7412  0.8257  0.4962
  156SAPE  C21117317   0.363   1.530   6.415 -0.1372  0.6851  0.5266
  156SAPE  H11R17318   0.367   1.461   6.500  1.8014 -0.6959 -0.6093
  156SAPE  C21217319   0.296   1.491   6.307 -0.6801 -0.5401  0.4151
  156SAPE  H12R17320   0.254   1.390   6.312  0.4313 -0.9827  1.0397
  156SAPE  C21317321   0.276   1.568   6.173 -0.9696  0.5155 -0.2974
  156SAPE  H13R17322   0.249   1.675   6.188 -0.8104  0.6084 -0.6588
  156SAPE  H13S17323   0.185   1.525   6.126  0.3590 -1.1416 -1.4832
  156SAPE  C21417324   0.399   1.549   6.088  0.5229  0.4831  0.4397
  156SAPE  H14R17325   0.493   1.544   6.145  1.4697 -0.7324 -1.1729
  156SAPE  C21517326   0.397   1.526   5.955  0.1155  0.3922 -0.5069
  156SAPE  H15R17327   0.493   1.527   5.902  0.5253 -0.3823  0.2055
  156SAPE  C21617328   0.277   1.539   5.865  0.2783  0.7519  0.1545
  156SAPE  H16R17329   0.325   1.558   5.767  4.0264 -0.5082  1.5716
  156SAPE  H16S17330   0.216   1.628   5.891  0.8361  0.1798  4.0427
  156SAPE  C21717331   0.175   1.423   5.850 -0.0862 -0.4792 -0.4190
  156SAPE  H17R17332   0.156   1.403   5.958  1.0380 -0.8832 -0.2906
  156SAPE  H17S17333   0.218   1.334   5.801 -1.0688 -0.6871 -0.9190
  156SAPE  C21817334   0.044   1.452   5.772  0.5777  0.5747 -0.1824
  156SAPE  H18R17335  -0.017   1.540   5.804 -0.2359  0.4099 -1.2084
  156SAPE  H18S17336  -0.022   1.362   5.769 -1.1177  1.7797 -1.6214
  156SAPE  C21917337   0.066   1.501   5.621 -1.0066  0.4730  0.3390
  156SAPE  H19R17338   0.135   1.425   5.579 -0.6607  0.0455  1.6625
  156SAPE  H19S17339   0.112   1.602   5.625  0.0943  0.1544 -2.1351
  156SAPE  C22017340  -0.059   1.512   5.535  0.3341  0.0085 -0.0176
  156SAPE  H20R17341  -0.108   1.413   5.522  2.3429 -1.0182 -0.1163
  156SAPE  H20S17342  -0.032   1.561   5.439  3.0055  1.7564  1.4885
  156SAPE  H20T17343  -0.124   1.581   5.592  2.3286  1.6877  0.3452
  156SAPE   C3317344   1.320   2.128   6.687  0.0012  0.3245 -0.0379
  156SAPE   H3X17345   1.385   2.191   6.751 -0.5536 -0.6220  1.5210
  156SAPE   H3Y17346   1.214   2.162   6.675 -0.3684 -0.2358  1.4172
  156SAPE   C3417347   1.384   2.115   6.545  0.0763 -0.9733  0.6409
  156SAPE   H4X17348   1.353   2.014   6.510 -0.4317 -1.0860  1.3992
  156SAPE   H4Y17349   1.492   2.105   6.568  0.1311 -0.3397  0.6786
  156SAPE   C3517350   1.353   2.226   6.451  0.5171 -0.1386 -0.4890
  156SAPE   H5X17351   1.378   2.330   6.479 -1.4637  0.6036 -1.2660
  156SAPE   H5Y17352   1.246   2.229   6.421  0.8283  2.1593 -1.6365
  156SAPE   C3617353   1.420   2.215   6.314 -0.1798 -0.5033 -0.3790
  156SAPE   H6X17354   1.528   2.190   6.322  0.5438  1.3332 -3.0063
  156SAPE   H6Y17355   1.429   2.318   6.276  3.1464 -0.1749  1.0115
  156SAPE   C3717356   1.350   2.119   6.214  0.2291  0.8837 -0.4381
  156SAPE   H7X17357   1.330   2.017   6.253  0.6438  1.1269  0.4395
  156SAPE   H7Y17358   1.421   2.115   6.129  0.7755  2.1674 -0.0654
  156SAPE   C3817359   1.223   2.178   6.154  0.9453 -0.5253 -0.5582
  156SAPE   H8X17360   1.145   2.179   6.233 -0.0398 -2.8933 -1.3957
  156SAPE   H8Y17361   1.185   2.120   6.067  0.9026  0.8920 -1.5159
  156SAPE   C3917362   1.232   2.317   6.091  0.6349 -0.1150  0.3995
  156SAPE   H9X17363   1.258   2.381   6.178  0.8299 -3.3075  2.8448
  156SAPE   H9Y17364   1.129   2.348   6.063  0.4579 -0.7270  0.3625
  156SAPE  C31017365   1.321   2.330   5.969  0.3230 -0.0416  0.2399
  156SAPE  H10X17366   1.423   2.306   6.004  0.3621  0.6017  0.5772
  156SAPE  H10Y17367   1.305   2.435   5.937 -0.4442  0.1471  1.1847
  156SAPE  C31117368   1.292   2.245   5.846  0.1025 -0.3037  0.2678
  156SAPE  H11X17369   1.181   2.247   5.838 -0.1275  0.3294  2.8306
  156SAPE  H11Y17370   1.327   2.141   5.860  0.5833 -0.1475  0.2144
  156SAPE  C31217371   1.380   2.293   5.725  0.0537  0.1060  0.0476
  156SAPE  H12X17372   1.409   2.209   5.658  1.8013 -1.0264  2.1004
  156SAPE  H12Y17373   1.481   2.322   5.762  0.0320 -1.1323  1.1498
  156SAPE  C31317374   1.320   2.402   5.637  0.1904  0.6272  0.3034
  156SAPE  H13X17375   1.312   2.496   5.695  0.9186  0.2280  1.0698
  156SAPE  H13Y17376   1.218   2.373   5.602  0.6889  0.8197 -1.3733
  156SAPE  C31417377   1.407   2.430   5.511  0.2244  0.2431  0.6232
  156SAPE  H14X17378   1.413   2.332   5.459 -1.1436  0.9139 -0.9115
  156SAPE  H14Y17379   1.505   2.467   5.546  0.4904  0.2937 -0.1638
  156SAPE  C31517380   1.335   2.534   5.429  0.3785  0.0233  0.3025
  156SAPE  H15X17381   1.305   2.624   5.486 -0.8440 -0.1790 -0.0028
  156SAPE  H15Y17382   1.243   2.488   5.386  1.5764 -1.4272 -0.8783
  156SAPE  C31617383   1.419   2.571   5.306 -0.1401 -0.2750  0.2714
  156SAPE  H16X17384   1.366   2.651   5.249  0.4763  0.8268  1.2109
  156SAPE  H16Y17385   1.439   2.483   5.242 -1.0601 -0.7400  0.6130
  156SAPE  C31717386   1.546   2.638   5.349 -0.2048  0.0751 -0.0906
  156SAPE  H17X17387   1.618   2.565   5.391  0.8669 -0.2242 -2.3132
  156SAPE  H17Y17388   1.511   2.710   5.427  0.1930  1.1376 -0.8663
  156SAPE  C31817389   1.635   2.698   5.242 -0.2908 -0.5158  0.3275
  156SAPE  H18X17390   1.608   2.800   5.206 -1.0519 -0.9952 -0.4854
  156SAPE  H18Y17391   1.614   2.637   5.152  0.6288  1.0197 -0.9928
  156SAPE  H18Z17392   1.741   2.699   5.276 -0.1729  1.8479  0.1165
  157SAPE     N17393   0.072   6.206   8.078  0.3248 -0.0381 -0.3688
  157SAPE   HN117394   0.088   6.243   8.174 -2.0498 -1.3719  0.6372
  157SAPE   HN217395   0.004   6.128   8.075  2.1361 -1.7701  1.4000
  157SAPE   HN317396   0.163   6.166   8.048 -0.6984 -1.9483 -1.0929
  157SAPE   C1217397   0.051   6.317   7.984  0.3369  0.6380  0.1783
  157SAPE  H12A17398   0.142   6.381   7.984 -0.9001  2.4564  0.7282
  157SAPE  H12B17399  -0.035   6.378   8.018 -0.5362 -0.8089  0.6405
  157SAPE   C1117400   0.033   6.264   7.837 -0.4958  0.7108  0.3160
  157SAPE  H11A17401   0.014   6.347   7.765  1.5921 -0.1295 -1.3230
  157SAPE  H11B17402  -0.056   6.197   7.841 -2.4034  3.0288 -0.8578
  157SAPE     P17403   0.133   6.090   7.663  0.2296  0.0963 -0.2812
  157SAPE   O1317404   0.259   6.018   7.640  0.3331 -0.0398  0.3344
  157SAPE   O1417405   0.012   6.008   7.684 -0.1142 -0.0974  0.0692
  157SAPE   O1217406   0.151   6.191   7.789 -0.3238 -0.5422 -0.1456
  157SAPE   O1117407   0.108   6.189   7.541  0.1322 -0.2906 -0.4862
  157SAPE    C117408   0.052   6.134   7.419  0.0616 -0.0771  0.2433
  157SAPE    HA17409   0.132   6.085   7.359 -1.0469 -3.5107  1.3168
  157SAPE    HB17410  -0.020   6.052   7.440  0.7120 -0.5950  0.4877
  157SAPE    C217411  -0.021   6.243   7.338 -0.5330 -0.0993  0.7164
  157SAPE    HS17412  -0.069   6.192   7.251 -0.0565  0.6840 -0.0174
  157SAPE   O2117413   0.070   6.348   7.287 -0.0448  0.2317 -0.2877
  157SAPE   C2117414   0.144   6.312   7.184 -0.6850 -0.1202  0.1318
  157SAPE   O2217415   0.126   6.211   7.119  0.2361  0.4070  0.3146
  157SAPE   C2217416   0.262   6.414   7.168  0.1622  0.4745 -0.3245
  157SAPE   H2R17417   0.255   6.504   7.233  2.5923 -1.2783  2.6490
  157SAPE   H2S17418   0.349   6.360   7.210  1.0888  2.2762  0.1640
  157SAPE    C317419  -0.133   6.304   7.423  0.1778 -0.3897  0.1534
  157SAPE    HX17420  -0.095   6.363   7.510  0.1792  1.2121 -0.8928
  157SAPE    HY17421  -0.187   6.214   7.460  0.6643 -1.2014 -1.0526
  157SAPE   O3117422  -0.231   6.382   7.350  0.1038 -0.0087  0.2625
  157SAPE   C3117423  -0.191   6.507   7.336  0.5143 -0.4918  0.6938
  157SAPE   O3217424  -0.102   6.564   7.399  0.5883  0.7420 -0.0589
  157SAPE   C3217425  -0.274   6.579   7.227  0.4588 -0.9442 -0.1008
  157SAPE   H2X17426  -0.284   6.687   7.251 -0.6726 -1.0783  0.0839
  157SAPE   H2Y17427  -0.379   6.544   7.235 -0.0759  0.5879 -0.1338
  157SAPE   C2317428   0.310   6.456   7.025  0.4086 -0.6896 -0.2497
  157SAPE   H3R17429   0.326   6.363   6.966 -2.8836 -2.8629  1.9846
  157SAPE   H3S17430   0.403   6.517   7.034 -0.8012  1.2278 -0.0870
  157SAPE   C2417431   0.212   6.548   6.948  0.4254  0.4594  0.0627
  157SAPE   H4R17432   0.276   6.600   6.874  0.6583  3.3833  2.1498
  157SAPE   H4S17433   0.185   6.629   7.019 -0.7679 -1.0794  1.4465
  157SAPE   C2517434   0.093   6.470   6.878 -0.2524  0.4164  0.5797
  157SAPE   H5R17435   0.013   6.444   6.949 -0.0644  0.2954  0.7485
  157SAPE   C2617436   0.067   6.449   6.746 -0.1412  0.4016 -0.1438
  157SAPE   H6R17437  -0.015   6.388   6.706 -2.4025  4.1329 -1.6696
  157SAPE   C2717438   0.161   6.493   6.630  0.3070 -0.3780 -1.1470
  157SAPE   H7R17439   0.238   6.563   6.668 -1.2835  0.2159  1.1812
  157SAPE   H7S17440   0.114   6.552   6.549 -2.4542 -1.1733 -0.2377
  157SAPE   C2817441   0.224   6.369   6.568 -0.6481 -0.1232 -0.5294
  157SAPE   H8R17442   0.275   6.304   6.640 -0.1156  0.1708 -0.6332
  157SAPE   C2917443   0.221   6.343   6.435 -0.0065  0.7768 -0.0286
  157SAPE   H9R17444   0.274   6.252   6.406  2.2589  1.1707  2.4562
  157SAPE  C21017445   0.144   6.414   6.320 -0.4213  0.0371 -0.0852
  157SAPE  H10R17446   0.194   6.397   6.223  0.5603  1.9537  0.0579
  157SAPE  H10S17447   0.168   6.522   6.331  1.4945 -0.4728  1.2615
  157SAPE  C21117448  -0.005   6.383   6.298 -0.1954  0.6684 -0.0623
  157SAPE  H11R17449  -0.053   6.361   6.394  0.9113  0.5413  0.4783
  157SAPE  C21217450  -0.066   6.378   6.176  0.6199 -0.0550 -0.5826
  157SAPE  H12R17451  -0.175   6.361   6.180  0.2107  2.4528  1.3114
  157SAPE  C21317452  -0.021   6.392   6.033  0.5457  0.1330 -0.5100
  157SAPE  H13R17453   0.004   6.499   6.015  2.6874  0.0783  1.6862
  157SAPE  H13S17454  -0.103   6.366   5.962 -0.2346  0.9064  0.0791
  157SAPE  C21417455   0.105   6.311   6.002 -0.5741 -0.4392 -0.8088
  157SAPE  H14R17456   0.120   6.215   6.055  1.1496 -1.2337 -2.6036
  157SAPE  C21517457   0.201   6.344   5.919 -0.6531 -0.1837 -0.2135
  157SAPE  H15R17458   0.284   6.274   5.900 -0.5913  0.3046 -1.8763
  157SAPE  C21617459   0.209   6.461   5.830  0.0151 -0.7409 -0.6876
  157SAPE  H16R17460   0.311   6.474   5.791 -0.5484 -1.8530 -2.6622
  157SAPE  H16S17461   0.206   6.549   5.898  0.0916 -1.3410  0.1197
  157SAPE  C21717462   0.107   6.465   5.716  0.3932 -0.4255 -0.3890
  157SAPE  H17R17463   0.101   6.560   5.659  1.0741 -0.4324 -0.4840
  157SAPE  H17S17464   0.005   6.440   5.753  0.9699 -2.0359  0.2342
  157SAPE  C21817465   0.123   6.353   5.614  0.3396  0.0801 -0.8051
  157SAPE  H18R17466   0.038   6.345   5.542  0.8938 -2.1364 -1.2842
  157SAPE  H18S17467   0.114   6.257   5.669 -0.7258  0.8448  0.4138
  157SAPE  C21917468   0.257   6.350   5.548  0.4026  0.7901  0.0030
  157SAPE  H19R17469   0.265   6.265   5.477  4.2264  1.3304 -0.3817
  157SAPE  H19S17470   0.327   6.309   5.624 -2.7963 -0.4922  2.5006
  157SAPE  C22017471   0.304   6.483   5.474 -0.7230 -0.1668 -0.3890
  157SAPE  H20R17472   0.315   6.557   5.557  0.0623  0.1282 -0.7340
  157SAPE  H20S17473   0.237   6.527   5.397 -0.9654  1.0988  0.5089
  157SAPE  H20T17474   0.407   6.472   5.431 -1.5049  0.5488 -2.5957
  157SAPE   C3317475  -0.218   6.560   7.081  0.1265  0.2802 -0.1192
  157SAPE   H3X17476  -0.226   6.452   7.054 -2.2907 -0.0812  1.7231
  157SAPE   H3Y17477  -0.111   6.589   7.076  0.4860 -0.9774 -0.1715
  157SAPE   C3417478  -0.287   6.651   6.983 -0.0622 -0.0781  1.1280
  157SAPE   H4X17479  -0.271   6.758   7.007 -0.9456  0.3805 -0.1863
  157SAPE   H4Y17480  -0.395   6.649   7.008  0.0531  1.4106  1.8107
  157SAPE   C3517481  -0.260   6.614   6.840  0.1047 -0.5317 -0.4945
  157SAPE   H5X17482  -0.270   6.504   6.832  0.6878 -0.8123  1.9028
  157SAPE   H5Y17483  -0.154   6.642   6.823 -0.1966  1.5330  0.7789
  157SAPE   C3617484  -0.342   6.687   6.724 -0.0825  0.8745 -0.0783
  157SAPE   H6X17485  -0.319   6.794   6.739  0.5917  0.3588  3.6752
  157SAPE   H6Y17486  -0.452   6.685   6.742 -0.2282  1.3329 -0.9152
  157SAPE   C3717487  -0.293   6.634   6.591 -0.1202  0.0157  0.6746
  157SAPE   H7X17488  -0.323   6.527   6.582  0.7945 -0.2134  0.2544
  157SAPE   H7Y17489  -0.184   6.642   6.571 -0.3047 -1.0319 -1.0075
  157SAPE   C3817490  -0.351   6.711   6.468 -0.1592  0.2706 -0.4898
  157SAPE   H8X17491  -0.356   6.819   6.494 -2.4066 -0.2651  1.8436
  157SAPE   H8Y17492  -0.459   6.687   6.461 -0.3904  0.9638  0.3817
  157SAPE   C3917493  -0.285   6.674   6.333 -0.4643  0.2372 -0.0435
  157SAPE   H9X17494  -0.298   6.564   6.324  2.3308 -0.1819  0.2066
  157SAPE   H9Y17495  -0.178   6.700   6.328 -0.5596  0.3003 -3.5548
  157SAPE  C31017496  -0.368   6.731   6.213  0.3039  0.6001 -0.1047
  157SAPE  H10X17497  -0.354   6.841   6.226  0.5686  0.5187  0.3297
  157SAPE  H10Y17498  -0.474   6.717   6.243  1.3393  1.1651  4.7597
  157SAPE  C31117499  -0.331   6.675   6.076 -0.1666  1.2020  0.3997
  157SAPE  H11X17500  -0.360   6.569   6.096  2.1755  0.5619  0.6754
  157SAPE  H11Y17501  -0.221   6.668   6.065 -0.3668 -0.2693 -1.0840
  157SAPE  C31217502  -0.400   6.734   5.954  0.2647  0.0493  0.1608
  157SAPE  H12X17503  -0.455   6.830   5.966  1.1347  0.8071 -1.4817
  157SAPE  H12Y17504  -0.466   6.660   5.903  1.7081 -1.5983  0.6023
  157SAPE  C31317505  -0.308   6.782   5.841  0.0415  0.1106 -0.7157
  157SAPE  H13X17506  -0.238   6.849   5.895  1.4538  0.3453 -2.7083
  157SAPE  H13Y17507  -0.364   6.848   5.770  0.6803  0.8126 -0.5793
  157SAPE  C31417508  -0.242   6.668   5.767 -0.5405 -0.3420 -0.1053
  157SAPE  H14X17509  -0.322   6.600   5.729  2.0729 -3.2136 -0.9084
  157SAPE  H14Y17510  -0.182   6.613   5.842 -1.9371 -1.2828  0.3770
  157SAPE  C31517511  -0.137   6.710   5.661  0.4396  0.6606  0.3943
  157SAPE  H15X17512  -0.101   6.622   5.602 -1.4935  0.5082 -0.6561
  157SAPE  H15Y17513  -0.049   6.743   5.720  0.2130 -1.4828  2.0352
  157SAPE  C31617514  -0.158   6.820   5.563 -0.0101 -0.1075  0.6017
  157SAPE  H16X17515  -0.084   6.822   5.480 -0.2293  1.1764  0.4174
  157SAPE  H16Y17516  -0.165   6.914   5.622 -0.5318  0.4855 -0.3681
  157SAPE  C31717517  -0.292   6.815   5.494  0.9366 -0.2473  0.7225
  157SAPE  H17X17518  -0.370   6.767   5.558 -0.8735 -0.0069 -1.2004
  157SAPE  H17Y17519  -0.269   6.752   5.406 -0.4738  1.8246 -1.2369
  157SAPE  C31817520  -0.328   6.952   5.433 -0.6208  0.3201 -0.0341
  157SAPE  H18X17521  -0.332   7.034   5.508 -0.3143  0.4202 -0.1253
  157SAPE  H18Y17522  -0.427   6.946   5.383 -1.3110  0.3662  1.2788
  157SAPE  H18Z17523  -0.250   6.985   5.362  0.1024  1.2287  1.1482
  158SAPE     N17524   1.757   6.369   7.343 -0.1784 -0.5053 -0.4769
  158SAPE   HN117525   1.685   6.295   7.358 -1.6788  0.8760 -0.6229
  158SAPE   HN217526   1.847   6.348   7.392 -0.1129  0.0865 -0.3394
  158SAPE   HN317527   1.717   6.458   7.379  0.1044 -0.0747 -1.1949
  158SAPE   C1217528   1.777   6.371   7.195 -0.2225  0.0161  0.5867
  158SAPE  H12A17529   1.846   6.457   7.176  1.4938 -1.8452 -2.5229
  158SAPE  H12B17530   1.678   6.389   7.146 -0.7212 -0.4342  1.4112
  158SAPE   C1117531   1.836   6.243   7.144  0.1298 -0.3254  0.3868
  158SAPE  H11A17532   1.838   6.245   7.033  0.6440 -0.0809  0.3976
  158SAPE  H11B17533   1.766   6.162   7.172 -1.1772  0.0537 -1.5343
  158SAPE     P17534   2.017   6.123   7.296  0.2365  0.4089 -0.1028
  158SAPE   O1317535   1.954   6.165   7.422  0.2238 -0.1707  0.2250
  158SAPE   O1417536   1.994   5.985   7.261  0.0862 -0.1400 -0.5403
  158SAPE   O1217537   1.970   6.220   7.183  0.1757  0.3827  0.3302
  158SAPE   O1117538   2.169   6.138   7.310 -0.0474  0.6852  0.1223
  158SAPE    C117539   2.252   6.241   7.252 -0.4953  0.5957 -0.3205
  158SAPE    HA17540   2.192   6.315   7.195 -2.8785 -1.1528 -0.2257
  158SAPE    HB17541   2.307   6.294   7.333  3.7770 -1.3278 -1.6437
  158SAPE    C217542   2.365   6.171   7.160 -0.6242  1.0215  0.4353
  158SAPE    HS17543   2.442   6.245   7.130 -1.2742  0.4040 -3.2790
  158SAPE   O2117544   2.316   6.111   7.038  0.4057 -0.0917 -0.5902
  158SAPE   C2117545   2.256   6.188   6.943 -0.2736  0.4642 -0.5646
  158SAPE   O2217546   2.257   6.313   6.949 -0.2064 -0.5408  0.0778
  158SAPE   C2217547   2.209   6.106   6.827 -0.3057 -0.0669  0.0391
  158SAPE   H2R17548   2.257   6.007   6.814 -1.5521 -0.7986  0.8181
  158SAPE   H2S17549   2.102   6.077   6.839 -0.2416 -0.1416  0.4342
  158SAPE    C317550   2.443   6.051   7.235  0.2033 -0.3471  0.6335
  158SAPE    HX17551   2.373   5.973   7.274  0.1501 -0.9809 -0.6411
  158SAPE    HY17552   2.500   6.101   7.315  0.5090  0.4020 -0.0365
  158SAPE   O3117553   2.543   5.996   7.149  0.2199 -0.3422  0.2263
  158SAPE   C3117554   2.651   5.943   7.207  0.2064 -0.3397 -0.2216
  158SAPE   O3217555   2.660   5.923   7.325 -0.5453 -0.3097 -0.4400
  158SAPE   C3217556   2.754   5.923   7.101  0.0441  0.2794 -0.3296
  158SAPE   H2X17557   2.779   5.815   7.097 -0.0075  0.2510  0.0813
  158SAPE   H2Y17558   2.846   5.966   7.147  0.3146 -0.9451  0.3323
  158SAPE   C2317559   2.202   6.193   6.697  0.2623 -0.4219  0.0310
  158SAPE   H3R17560   2.297   6.248   6.681  1.2421 -2.3906 -1.3231
  158SAPE   H3S17561   2.117   6.264   6.713  0.7967  0.4415 -0.8731
  158SAPE   C2417562   2.191   6.097   6.580  0.2288  0.0907 -1.0293
  158SAPE   H4R17563   2.109   6.029   6.611  0.7178 -0.0416  0.0202
  158SAPE   H4S17564   2.286   6.042   6.562 -0.5734 -1.5666 -0.4433
  158SAPE   C2517565   2.145   6.177   6.463 -0.1169 -0.1336  0.3444
  158SAPE   H5R17566   2.040   6.209   6.470  0.1439  0.4299  1.9981
  158SAPE   C2617567   2.212   6.208   6.349 -0.1212  0.3446  0.1832
  158SAPE   H6R17568   2.157   6.266   6.273  0.9027 -2.1323 -2.6380
  158SAPE   C2717569   2.359   6.171   6.315  0.5862 -0.2118  0.3620
  158SAPE   H7R17570   2.413   6.128   6.402 -1.3503 -0.7173  1.3762
  158SAPE   H7S17571   2.418   6.261   6.288 -1.6282  0.9971 -0.6901
  158SAPE   C2817572   2.361   6.068   6.203  1.0599 -0.3986 -0.3577
  158SAPE   H8R17573   2.365   5.962   6.234 -0.6897 -0.4545 -0.2190
  158SAPE   C2917574   2.327   6.095   6.077 -0.6297  0.3308 -0.4000
  158SAPE   H9R17575   2.316   6.005   6.016  1.6374  0.0073 -0.4016
  158SAPE  C21017576   2.292   6.229   6.021  0.1848  0.1461  0.0873
  158SAPE  H10R17577   2.262   6.300   6.101 -1.4825  1.5058 -1.6627
  158SAPE  H10S17578   2.206   6.227   5.952  1.0730 -0.0157 -1.0491
  158SAPE  C21117579   2.404   6.292   5.952  0.3502  0.7447  0.4260
  158SAPE  H11R17580   2.490   6.325   6.012  1.0063  1.0958 -0.6638
  158SAPE  C21217581   2.419   6.308   5.814  0.2042  0.0354 -0.2349
  158SAPE  H12R17582   2.504   6.358   5.766 -0.2282 -0.3302 -1.4305
  158SAPE  C21317583   2.315   6.262   5.709 -0.3737 -0.1618 -0.7114
  158SAPE  H13R17584   2.240   6.187   5.742 -2.5789  2.6322  0.9818
  158SAPE  H13S17585   2.362   6.207   5.624 -1.4184 -0.2189 -1.2670
  158SAPE  C21417586   2.243   6.378   5.652  0.8604  0.2595 -0.4200
  158SAPE  H14R17587   2.192   6.448   5.720  1.1340 -1.4534  1.6404
  158SAPE  C21517588   2.252   6.421   5.528  0.5063 -0.3484 -0.0214
  158SAPE  H15R17589   2.212   6.520   5.503  0.1371 -0.9016 -1.6983
  158SAPE  C21617590   2.329   6.357   5.415  0.1520  0.2550  0.3059
  158SAPE  H16R17591   2.376   6.259   5.437 -2.0521 -1.1889 -1.0280
  158SAPE  H16S17592   2.417   6.416   5.383  0.9983  0.2464  2.4047
  158SAPE  C21717593   2.232   6.342   5.304  0.9088 -0.5687 -0.4960
  158SAPE  H17R17594   2.207   6.444   5.269  2.5143  0.4318  1.1076
  158SAPE  H17S17595   2.137   6.293   5.336  1.4593 -0.3046  1.6757
  158SAPE  C21817596   2.286   6.250   5.184  0.3774 -0.9732 -0.6820
  158SAPE  H18R17597   2.324   6.156   5.227  2.0448 -0.4890 -1.0287
  158SAPE  H18S17598   2.363   6.317   5.140  0.8733 -0.2414  1.1796
  158SAPE  C21917599   2.185   6.220   5.074 -0.0175  0.0735  0.0540
  158SAPE  H19R17600   2.138   6.310   5.030  0.2225  0.8933  1.4207
  158SAPE  H19S17601   2.105   6.170   5.133  0.9019 -0.2863  1.0422
  158SAPE  C22017602   2.235   6.119   4.971  0.1394  0.6393  0.3298
  158SAPE  H20R17603   2.335   6.155   4.937 -0.2058  0.8042 -0.5311
  158SAPE  H20S17604   2.170   6.087   4.887  1.4879 -2.3297  0.2834
  158SAPE  H20T17605   2.252   6.028   5.033  2.0097  1.1814  0.6832
  158SAPE   C3317606   2.733   5.966   6.956 -0.9330  0.2650 -0.6105
  158SAPE   H3X17607   2.631   5.945   6.919 -0.4821 -0.3001 -1.5669
  158SAPE   H3Y17608   2.802   5.902   6.896  1.3964  1.1934  0.9608
  158SAPE   C3417609   2.755   6.119   6.930  0.0164  0.1211 -0.8955
  158SAPE   H4X17610   2.860   6.156   6.939 -0.9414  2.5839  1.6315
  158SAPE   H4Y17611   2.703   6.165   7.016 -0.0350 -0.9190 -0.3659
  158SAPE   C3517612   2.696   6.173   6.799  0.9712  0.6935 -0.1822
  158SAPE   H5X17613   2.717   6.282   6.798 -0.9709  1.1272 -2.1894
  158SAPE   H5Y17614   2.586   6.159   6.809  1.4222 -3.3095  0.7497
  158SAPE   C3617615   2.757   6.109   6.672  0.1976  0.2444 -0.4201
  158SAPE   H6X17616   2.740   6.000   6.688  0.4989  0.4351  1.4455
  158SAPE   H6Y17617   2.867   6.122   6.673  0.2357  0.1817 -2.0390
  158SAPE   C3717618   2.696   6.138   6.534  0.7574  0.1298 -0.4097
  158SAPE   H7X17619   2.686   6.248   6.522  0.1426  0.3384  1.7304
  158SAPE   H7Y17620   2.594   6.095   6.533  0.6858  0.2803 -1.6071
  158SAPE   C3817621   2.765   6.070   6.420 -0.4164  0.2049 -0.1118
  158SAPE   H8X17622   2.767   5.959   6.425  0.9101  0.2668  1.5591
  158SAPE   H8Y17623   2.871   6.103   6.428 -0.8280  1.6915 -0.4824
  158SAPE   C3917624   2.701   6.122   6.290 -0.4469 -0.0904  0.8864
  158SAPE   H9X17625   2.706   6.232   6.305  1.8117  0.2600 -1.6716
  158SAPE   H9Y17626   2.595   6.089   6.289 -0.4155 -0.4827  3.3962
  158SAPE  C31017627   2.786   6.078   6.168 -0.5429  0.1564  0.6642
  158SAPE  H10X17628   2.815   5.971   6.174 -1.1891 -0.0002  1.1485
  158SAPE  H10Y17629   2.868   6.150   6.189 -3.4893  3.1436  2.9013
  158SAPE  C31117630   2.737   6.109   6.027 -0.3562 -0.0999 -0.6751
  158SAPE  H11X17631   2.696   6.213   6.029  0.6152  0.3423 -2.0796
  158SAPE  H11Y17632   2.650   6.043   6.007 -0.3636  0.2676 -2.0087
  158SAPE  C31217633   2.862   6.107   5.937  0.0548  0.2161  0.2340
  158SAPE  H12X17634   2.908   6.006   5.932  1.0907  0.7494 -1.7809
  158SAPE  H12Y17635   2.943   6.165   5.986  1.7460 -0.7897 -1.2881
  158SAPE  C31317636   2.826   6.174   5.809 -0.1983 -0.2090  0.2974
  158SAPE  H13X17637   2.786   6.274   5.838  0.7744  0.6271 -1.1150
  158SAPE  H13Y17638   2.743   6.123   5.756 -1.3016 -0.3920  2.1201
  158SAPE  C31417639   2.951   6.188   5.713 -0.0978 -0.7983 -0.3548
  158SAPE  H14X17640   2.958   6.095   5.652 -3.1382 -2.3152  1.3712
  158SAPE  H14Y17641   3.041   6.200   5.778 -0.7932  1.3941  0.2698
  158SAPE  C31517642   2.946   6.311   5.622  0.1621  0.2332  0.4560
  158SAPE  H15X17643   2.945   6.399   5.690 -0.8999 -0.0245  0.7860
  158SAPE  H15Y17644   2.853   6.298   5.563  0.9723 -2.6185 -0.3448
  158SAPE  C31617645   3.066   6.322   5.524  0.0592 -1.0999 -0.1068
  158SAPE  H16X17646   3.090   6.215   5.506  0.5141 -1.2305  1.1876
  158SAPE  H16Y17647   3.151   6.364   5.582 -0.8766 -0.3924  0.7950
  158SAPE  C31717648   3.040   6.413   5.397 -0.0075  0.3421 -0.1415
  158SAPE  H17X17649   3.133   6.399   5.337 -0.0003  3.1215 -0.8831
  158SAPE  H17Y17650   3.037   6.517   5.435 -0.6127  0.8245 -1.4376
  158SAPE  C31817651   2.919   6.379   5.313  0.5343 -0.4063  0.2245
  158SAPE  H18X17652   2.911   6.447   5.225  0.8763 -0.2345  0.3255
  158SAPE  H18Y17653   2.818   6.380   5.360  0.9547 -0.7475  1.1503
  158SAPE  H18Z17654   2.929   6.276   5.274 -0.9450 -0.6857  0.5207
  159SAPE     N17655   2.093   5.955   2.943 -0.0170 -0.2782 -0.0844
  159SAPE   HN117656   2.097   5.887   2.864  1.1572  0.6332 -0.8537
  159SAPE   HN217657   2.007   6.013   2.935 -0.2643 -0.6212  0.0678
  159SAPE   HN317658   2.177   6.014   2.927 -0.9149  0.6301 -1.6953
  159SAPE   C1217659   2.085   5.872   3.072 -0.3918  0.2780 -0.7233
  159SAPE  H12A17660   2.032   5.928   3.153 -1.7433 -3.9593  1.6194
  159SAPE  H12B17661   2.190   5.861   3.107 -0.7023  0.3862  0.2811
  159SAPE   C1117662   2.003   5.748   3.052  0.4903  0.7070  0.5371
  159SAPE  H11A17663   1.977   5.694   3.145 -0.0984 -2.7588 -1.4507
  159SAPE  H11B17664   2.069   5.682   2.990 -1.7448 -0.2332 -0.9923
  159SAPE     P17665   1.807   5.655   2.906 -0.4728 -0.1544 -0.8008
  159SAPE   O1317666   1.674   5.696   2.881  0.4993  0.2928 -0.0443
  159SAPE   O1417667   1.896   5.616   2.797  0.3374  0.6173 -0.2345
  159SAPE   O1217668   1.871   5.775   2.991  0.1035  0.0455  0.2734
  159SAPE   O1117669   1.812   5.538   3.021  0.0456 -0.3806  1.1229
  159SAPE    C117670   1.698   5.510   3.097  0.1873  0.2771 -0.3120
  159SAPE    HA17671   1.601   5.543   3.055  0.1166 -0.2886 -0.6133
  159SAPE    HB17672   1.700   5.399   3.094 -0.1744  0.2812 -2.2283
  159SAPE    C217673   1.713   5.546   3.246 -0.4097 -0.0357 -0.3562
  159SAPE    HS17674   1.817   5.514   3.269  0.4935  1.5547 -2.0187
  159SAPE   O2117675   1.620   5.462   3.315 -0.0168 -0.0636 -0.5468
  159SAPE   C2117676   1.653   5.423   3.438 -0.9102  0.1790 -0.1503
  159SAPE   O2217677   1.762   5.449   3.496 -0.0283 -0.3670  0.2284
  159SAPE   C2217678   1.538   5.350   3.502  0.2004  0.0467  0.3144
  159SAPE   H2R17679   1.494   5.425   3.571  0.1109  1.1805 -0.9402
  159SAPE   H2S17680   1.471   5.323   3.418  1.8600  0.4420 -1.2221
  159SAPE    C317681   1.695   5.702   3.271 -0.5519  0.6767 -0.1009
  159SAPE    HX17682   1.595   5.723   3.228 -0.9152 -1.6516 -0.4946
  159SAPE    HY17683   1.763   5.763   3.207 -0.0110 -0.9258 -1.1182
  159SAPE   O3117684   1.708   5.736   3.410 -0.0501  0.2018 -0.3661
  159SAPE   C3117685   1.834   5.744   3.453 -0.1573  1.1678  0.2025
  159SAPE   O3217686   1.933   5.743   3.379 -0.7573  0.5013 -0.3079
  159SAPE   C3217687   1.849   5.745   3.610 -0.3657 -0.3482  0.1672
  159SAPE   H2X17688   1.783   5.659   3.636  0.6626 -1.5038 -0.9117
  159SAPE   H2Y17689   1.814   5.843   3.650 -0.2419 -0.2441  0.0194
  159SAPE   C2317690   1.582   5.224   3.569 -0.0251  0.4842 -0.1743
  159SAPE   H3R17691   1.654   5.245   3.651  0.0484  1.3996 -0.4655
  159SAPE   H3S17692   1.630   5.163   3.489 -4.0268  0.9716 -3.2510
  159SAPE   C2417693   1.472   5.135   3.624  0.5336 -0.0005  0.0864
  159SAPE   H4R17694   1.384   5.163   3.562  0.7389 -0.0003 -0.2084
  159SAPE   H4S17695   1.447   5.164   3.728  0.8212  0.6591 -0.0255
  159SAPE   C2517696   1.502   4.981   3.610  0.3536 -0.3497  0.1560
  159SAPE   H5R17697   1.514   4.950   3.505 -0.0084  0.6267 -0.1897
  159SAPE   C2617698   1.512   4.886   3.699 -0.3455 -0.1394 -0.0533
  159SAPE   H6R17699   1.537   4.784   3.665  1.2828 -0.5916  2.2531
  159SAPE   C2717700   1.505   4.903   3.848 -0.0262  0.5473 -0.2273
  159SAPE   H7R17701   1.568   4.984   3.890  0.1878  0.0273  0.4551
  159SAPE   H7S17702   1.564   4.817   3.886  0.9610  0.1200 -2.5689
  159SAPE   C2817703   1.368   4.913   3.907 -0.1353 -0.3718 -0.7121
  159SAPE   H8R17704   1.286   4.926   3.836  0.1184  1.6435 -0.6926
  159SAPE   C2917705   1.336   4.902   4.035  0.9038  0.3209 -0.3751
  159SAPE   H9R17706   1.229   4.908   4.058  1.0858 -0.5873  0.7672
  159SAPE  C21017707   1.433   4.868   4.147 -0.6847 -0.1415  0.2850
  159SAPE  H10R17708   1.536   4.899   4.118 -0.3412 -2.1360 -0.8318
  159SAPE  H10S17709   1.421   4.758   4.159  0.4629 -0.5646 -1.9378
  159SAPE  C21117710   1.412   4.922   4.286  0.4540 -0.1075 -0.2522
  159SAPE  H11R17711   1.361   4.857   4.357 -2.8216  0.9062 -1.4859
  159SAPE  C21217712   1.413   5.054   4.314 -0.2691  0.2860  0.2548
  159SAPE  H12R17713   1.393   5.083   4.418  2.6502  2.3591  0.3586
  159SAPE  C21317714   1.455   5.168   4.217 -0.2874 -0.1890 -0.2247
  159SAPE  H13R17715   1.462   5.141   4.109 -0.4683  0.3607 -0.3796
  159SAPE  H13S17716   1.563   5.189   4.233 -0.5495  1.0796  0.0126
  159SAPE  C21417717   1.380   5.298   4.232  0.4012  0.2483  0.3571
  159SAPE  H14R17718   1.384   5.333   4.336  0.7058 -0.4596  0.5951
  159SAPE  C21517719   1.304   5.370   4.144  0.1755  1.1167  0.4089
  159SAPE  H15R17720   1.248   5.457   4.181 -1.0786  0.1558  0.8091
  159SAPE  C21617721   1.287   5.322   4.003 -0.0918  0.4067  0.1413
  159SAPE  H16R17722   1.185   5.339   3.961 -0.4670 -1.4597  0.2502
  159SAPE  H16S17723   1.317   5.216   3.990 -2.2238  0.0274 -2.6842
  159SAPE  C21717724   1.378   5.392   3.903  0.2659 -0.5860  0.1280
  159SAPE  H17R17725   1.357   5.375   3.795 -0.0677  0.6426 -0.0178
  159SAPE  H17S17726   1.474   5.338   3.916  1.3352  1.1962 -0.0328
  159SAPE  C21817727   1.390   5.552   3.911  0.6660  0.3861 -0.2294
  159SAPE  H18R17728   1.448   5.554   4.006 -0.9262 -2.2256  0.9256
  159SAPE  H18S17729   1.292   5.605   3.915  0.4783 -0.0238  0.9516
  159SAPE  C21917730   1.477   5.608   3.791 -0.5208  0.0838 -0.5412
  159SAPE  H19R17731   1.420   5.615   3.695 -0.5738  3.1242 -0.3907
  159SAPE  H19S17732   1.562   5.538   3.779  0.3997  0.1141  3.9282
  159SAPE  C22017733   1.531   5.748   3.822 -0.0586  0.4519  0.3472
  159SAPE  H20R17734   1.440   5.812   3.829 -1.2475 -0.8692 -1.7926
  159SAPE  H20S17735   1.600   5.779   3.741  1.3729 -0.9611  0.9876
  159SAPE  H20T17736   1.587   5.741   3.918 -2.5516  1.7488  2.0184
  159SAPE   C3317737   1.991   5.734   3.666  0.0327  0.3488  0.3576
  159SAPE   H3X17738   2.037   5.832   3.641 -0.1349  0.4553  0.4560
  159SAPE   H3Y17739   2.046   5.653   3.616 -0.2414 -0.2232  0.9692
  159SAPE   C3417740   1.989   5.706   3.821 -0.5632  0.0557  0.1562
  159SAPE   H4X17741   2.097   5.706   3.847 -0.3823  0.5697 -0.5596
  159SAPE   H4Y17742   1.949   5.607   3.851 -1.2572 -0.2464 -1.6437
  159SAPE   C3517743   1.924   5.823   3.902 -0.6713  0.8385  0.4274
  159SAPE   H5X17744   1.947   5.802   4.009 -0.3659  0.2954  0.2623
  159SAPE   H5Y17745   1.813   5.822   3.898 -1.0009  3.6431  3.9460
  159SAPE   C3617746   1.972   5.967   3.876 -0.4073  0.3140 -0.5356
  159SAPE   H6X17747   1.951   5.976   3.768 -1.4169 -2.4092 -0.6388
  159SAPE   H6Y17748   2.083   5.965   3.880 -0.2484  1.6072 -2.8217
  159SAPE   C3717749   1.902   6.070   3.961 -0.5216 -0.2761 -0.3113
  159SAPE   H7X17750   1.795   6.040   3.968 -0.1727 -1.2524  1.2340
  159SAPE   H7Y17751   1.918   6.170   3.916  1.0854 -0.0713  0.6347
  159SAPE   C3817752   1.955   6.095   4.108  0.0323  0.0951 -0.3974
  159SAPE   H8X17753   2.064   6.115   4.108  0.0721  0.0703  1.5957
  159SAPE   H8Y17754   1.936   6.000   4.164  1.3451  0.4536  0.7031
  159SAPE   C3917755   1.880   6.204   4.190 -0.1859  0.6278  0.2964
  159SAPE   H9X17756   1.773   6.174   4.199  0.7797 -2.9012  1.7606
  159SAPE   H9Y17757   1.872   6.306   4.148 -0.8117  1.5177  2.4050
  159SAPE  C31017758   1.940   6.217   4.328  0.2242  0.6068 -0.6488
  159SAPE  H10X17759   2.050   6.199   4.321 -0.1876 -2.6411 -0.5479
  159SAPE  H10Y17760   1.906   6.122   4.375  0.7678  0.9119  0.3921
  159SAPE  C31117761   1.908   6.344   4.401 -0.1125  0.5069  0.0695
  159SAPE  H11X17762   1.799   6.361   4.398 -0.4358 -0.9343  1.7324
  159SAPE  H11Y17763   1.958   6.421   4.339 -1.2865 -0.8350 -2.7570
  159SAPE  C31217764   1.946   6.348   4.549  0.1772 -0.3684 -0.2248
  159SAPE  H12X17765   1.885   6.271   4.601 -1.2066  1.1005  0.3820
  159SAPE  H12Y17766   1.914   6.446   4.590  0.5243 -0.4689  0.2964
  159SAPE  C31317767   2.090   6.327   4.584 -0.0626 -0.5041  0.6253
  159SAPE  H13X17768   2.155   6.392   4.522 -0.9616  0.1460  0.3484
  159SAPE  H13Y17769   2.120   6.221   4.566 -0.5832 -0.3626 -1.2219
  159SAPE  C31417770   2.115   6.378   4.732  0.0865 -0.3008  0.2250
  159SAPE  H14X17771   2.094   6.284   4.788 -1.2294 -0.1502  0.0226
  159SAPE  H14Y17772   2.048   6.463   4.758  0.1016 -0.0120 -0.6622
  159SAPE  C31517773   2.259   6.406   4.776 -0.5118 -0.5290  0.1042
  159SAPE  H15X17774   2.319   6.316   4.750  0.2594 -0.2462  0.8469
  159SAPE  H15Y17775   2.253   6.424   4.886 -0.7821  0.3862 -0.0552
  159SAPE  C31617776   2.302   6.542   4.724  0.2809 -0.1332  0.5466
  159SAPE  H16X17777   2.223   6.619   4.729  1.2279  1.0070 -1.0580
  159SAPE  H16Y17778   2.327   6.531   4.616  0.4347 -3.7810  0.8173
  159SAPE  C31717779   2.424   6.602   4.798 -0.0389  0.6829 -0.1877
  159SAPE  H17X17780   2.518   6.544   4.788 -0.6346 -0.0175 -2.1650
  159SAPE  H17Y17781   2.388   6.594   4.903 -1.3331  0.6222 -0.6181
  159SAPE  C31817782   2.442   6.753   4.760 -0.2296 -0.0289 -0.2894
  159SAPE  H18X17783   2.358   6.825   4.774 -2.0150 -1.9479 -0.7667
  159SAPE  H18Y17784   2.460   6.758   4.650 -1.6293  0.2010 -0.5218
  159SAPE  H18Z17785   2.535   6.793   4.806  1.0477 -1.5538 -1.4548
  160SAPE     N17786   0.094   4.037   3.034 -0.1452 -0.4295  0.3972
  160SAPE   HN117787   0.067   3.963   2.966 -1.4233  0.1133  0.2950
  160SAPE   HN217788   0.020   4.034   3.107  0.1164 -1.7996  0.6439
  160SAPE   HN317789   0.091   4.132   2.991  0.3548 -0.6545 -0.1436
  160SAPE   C1217790   0.240   4.018   3.087  0.5432  0.2961  0.0627
  160SAPE  H12A17791   0.307   4.001   3.000  0.7119  0.2957  0.1923
  160SAPE  H12B17792   0.234   3.929   3.154 -0.4704 -0.8920 -1.5231
  160SAPE   C1117793   0.282   4.133   3.168 -0.1071  0.5366 -0.8053
  160SAPE  H11A17794   0.355   4.104   3.247 -1.7868 -0.7644  0.3304
  160SAPE  H11B17795   0.199   4.163   3.236  0.6479 -0.3958  0.5909
  160SAPE     P17796   0.294   4.390   3.115  0.0427  0.1368  0.4238
  160SAPE   O1317797   0.397   4.472   3.041 -0.2972 -0.3600  0.5682
  160SAPE   O1417798   0.154   4.417   3.089 -0.0854  0.3996 -0.1306
  160SAPE   O1217799   0.323   4.239   3.081  0.4560 -0.1310 -0.4671
  160SAPE   O1117800   0.317   4.398   3.264 -0.0450  0.1044 -0.1364
  160SAPE    C117801   0.451   4.431   3.318 -0.6910  0.0483 -0.3108
  160SAPE    HA17802   0.533   4.454   3.248 -0.8471  2.3712  0.1844
  160SAPE    HB17803   0.434   4.527   3.370  1.7098  0.2287  0.2235
  160SAPE    C217804   0.503   4.317   3.408  0.5182 -0.1493 -0.5089
  160SAPE    HS17805   0.513   4.233   3.336 -0.7147 -0.8927  0.1566
  160SAPE   O2117806   0.398   4.299   3.509  0.0298  0.0592  0.2640
  160SAPE   C2117807   0.382   4.174   3.550  0.6070 -0.4286  0.6907
  160SAPE   O2217808   0.425   4.076   3.495 -0.0967  0.0845  0.1544
  160SAPE   C2217809   0.283   4.174   3.672  0.0857 -1.0346  0.1578
  160SAPE   H2R17810   0.188   4.138   3.627 -0.5959  0.6562  0.1409
  160SAPE   H2S17811   0.323   4.094   3.737  0.9960  0.1580  1.1149
  160SAPE    C317812   0.640   4.351   3.479  0.1990 -0.7525  0.5548
  160SAPE    HX17813   0.613   4.436   3.545 -0.8030 -0.4816 -0.1785
  160SAPE    HY17814   0.712   4.390   3.404 -0.8214 -1.7365 -1.0225
  160SAPE   O3117815   0.698   4.246   3.560  0.3978  0.0914  0.2170
  160SAPE   C3117816   0.752   4.151   3.501 -0.2249  0.2424  0.4097
  160SAPE   O3217817   0.734   4.119   3.381  0.1629 -0.1264  0.3985
  160SAPE   C3217818   0.847   4.074   3.590  0.1886 -0.3919  0.3025
  160SAPE   H2X17819   0.920   4.145   3.634 -0.6534  0.5270  0.2457
  160SAPE   H2Y17820   0.894   4.001   3.520  0.4312  0.0049  0.0481
  160SAPE   C2317821   0.247   4.310   3.749 -0.4961  0.1538  0.6265
  160SAPE   H3R17822   0.170   4.277   3.822 -0.4689 -2.2437 -0.3226
  160SAPE   H3S17823   0.198   4.382   3.681  0.6904  0.1952 -0.2227
  160SAPE   C2417824   0.352   4.388   3.830  0.8718  1.1139  0.0842
  160SAPE   H4R17825   0.308   4.480   3.873  2.2321  1.5171  0.6561
  160SAPE   H4S17826   0.432   4.416   3.759  0.9208 -0.8385 -0.6888
  160SAPE   C2517827   0.407   4.301   3.943  1.2033  0.3106  0.1023
  160SAPE   H5R17828   0.472   4.218   3.913  0.8106  1.0958 -3.2806
  160SAPE   C2617829   0.356   4.309   4.071 -0.1200 -0.4398 -0.2227
  160SAPE   H6R17830   0.394   4.235   4.143 -0.4261 -0.8328 -0.4560
  160SAPE   C2717831   0.259   4.401   4.136  0.6189  0.7054 -0.8664
  160SAPE   H7R17832   0.222   4.485   4.074  1.2469  0.5900 -1.4134
  160SAPE   H7S17833   0.304   4.452   4.224  2.6533 -0.7019 -1.0323
  160SAPE   C2817834   0.145   4.320   4.177 -0.2098  0.4088 -0.7473
  160SAPE   H8R17835   0.085   4.281   4.093 -0.2654 -2.6619  0.5706
  160SAPE   C2917836   0.117   4.277   4.304 -0.3754 -0.3017 -0.3030
  160SAPE   H9R17837   0.026   4.216   4.317 -1.8573  1.7022 -0.7645
  160SAPE  C21017838   0.200   4.302   4.426  0.5603  0.4096  0.7067
  160SAPE  H10R17839   0.303   4.312   4.384 -0.0342 -2.2186 -1.7368
  160SAPE  H10S17840   0.204   4.207   4.484 -2.6014 -0.8653 -0.9101
  160SAPE  C21117841   0.160   4.413   4.520  0.5831  0.3378  0.4993
  160SAPE  H11R17842   0.055   4.445   4.511 -0.6208 -2.9157  1.4873
  160SAPE  C21217843   0.235   4.475   4.609 -0.0653  0.0592 -0.3424
  160SAPE  H12R17844   0.183   4.545   4.676  0.3565 -0.9506  1.0981
  160SAPE  C21317845   0.378   4.451   4.636 -0.1500  0.7972  0.0907
  160SAPE  H13R17846   0.423   4.543   4.679 -1.5454  2.3715 -1.6551
  160SAPE  H13S17847   0.425   4.438   4.536 -2.6452  1.2082 -1.1988
  160SAPE  C21417848   0.417   4.331   4.719  0.0637  0.3670 -0.0570
  160SAPE  H14R17849   0.436   4.236   4.668 -1.2627  0.4163 -0.6714
  160SAPE  C21517850   0.424   4.325   4.850  0.7269  0.2228 -0.5597
  160SAPE  H15R17851   0.457   4.230   4.895 -1.4000 -2.2486 -3.7539
  160SAPE  C21617852   0.403   4.438   4.950 -0.2623 -0.3192  0.2372
  160SAPE  H16R17853   0.320   4.510   4.933  0.7305  1.2256  1.5988
  160SAPE  H16S17854   0.500   4.493   4.946 -1.3016  1.6123  0.0306
  160SAPE  C21717855   0.357   4.383   5.087 -0.0820  0.5889  0.0557
  160SAPE  H17R17856   0.383   4.464   5.157  2.2985  0.0711 -0.1528
  160SAPE  H17S17857   0.417   4.296   5.122  1.4428  1.6154  0.0730
  160SAPE  C21817858   0.206   4.339   5.096  0.0520  0.4417  0.2601
  160SAPE  H18R17859   0.203   4.230   5.077 -1.4104  0.6364 -0.8399
  160SAPE  H18S17860   0.146   4.391   5.018  1.2636  0.4629 -0.6760
  160SAPE  C21917861   0.152   4.370   5.241 -0.2228 -0.2686  0.1747
  160SAPE  H19R17862   0.155   4.477   5.273 -1.0280 -0.6734  1.7012
  160SAPE  H19S17863   0.215   4.309   5.309 -0.7472 -1.6641 -0.5468
  160SAPE  C22017864   0.009   4.321   5.274 -0.3130 -0.1341  0.2466
  160SAPE  H20R17865  -0.015   4.342   5.380  1.8345  1.4767  0.4522
  160SAPE  H20S17866   0.004   4.211   5.258 -0.8513  0.1128 -1.5136
  160SAPE  H20T17867  -0.060   4.373   5.204 -1.6531 -2.3380 -0.1880
  160SAPE   C3317868   0.771   4.001   3.706  0.3013 -0.6100  0.0880
  160SAPE   H3X17869   0.827   3.912   3.740 -0.2385  0.0406  2.9547
  160SAPE   H3Y17870   0.669   3.972   3.671 -0.5672  3.4042 -1.2839
  160SAPE   C3417871   0.759   4.086   3.833 -0.4122  0.2780  0.3387
  160SAPE   H4X17872   0.678   4.157   3.809 -0.5063  0.7385  1.9018
  160SAPE   H4Y17873   0.852   4.146   3.840  0.5611 -0.9320 -1.5964
  160SAPE   C3517874   0.725   4.008   3.959  0.1718 -0.1303  0.3738
  160SAPE   H5X17875   0.794   3.926   3.988  2.5057  2.1177  1.5743
  160SAPE   H5Y17876   0.623   3.974   3.930  0.4195 -1.3922  0.9208
  160SAPE   C3617877   0.709   4.101   4.076  0.6480 -0.0009 -0.3468
  160SAPE   H6X17878   0.620   4.065   4.131 -0.7433  0.7087 -2.0273
  160SAPE   H6Y17879   0.682   4.204   4.044 -3.7637 -0.4514  1.3053
  160SAPE   C3717880   0.828   4.103   4.171 -0.2017  0.3092  0.0477
  160SAPE   H7X17881   0.921   4.081   4.115 -1.1133 -0.3201 -1.2864
  160SAPE   H7Y17882   0.808   4.016   4.237 -1.8194 -0.6145 -1.5572
  160SAPE   C3817883   0.849   4.237   4.243  0.2426  0.3571  0.2625
  160SAPE   H8X17884   0.869   4.312   4.163 -0.7640 -0.8296 -1.1374
  160SAPE   H8Y17885   0.934   4.222   4.313 -0.6944 -0.3597  1.2749
  160SAPE   C3917886   0.730   4.290   4.326  0.1771  0.6609  0.6469
  160SAPE   H9X17887   0.649   4.323   4.259  0.2647  0.4100  0.4131
  160SAPE   H9Y17888   0.774   4.382   4.368  0.5861  0.4408  0.7076
  160SAPE  C31017889   0.676   4.202   4.444 -0.5882  1.1467  0.5198
  160SAPE  H10X17890   0.627   4.109   4.406 -0.0572  0.2441  1.9590
  160SAPE  H10Y17891   0.596   4.267   4.484 -1.0343  0.3764  0.9079
  160SAPE  C31117892   0.797   4.154   4.531  0.4343  0.2625 -0.4139
  160SAPE  H11X17893   0.864   4.240   4.554  1.8290 -0.0887 -2.8300
  160SAPE  H11Y17894   0.852   4.070   4.483  0.0849  0.0524 -0.4532
  160SAPE  C31217895   0.748   4.107   4.673  0.3241  0.2788 -0.4723
  160SAPE  H12X17896   0.680   4.020   4.665  0.5870  0.0682 -0.4211
  160SAPE  H12Y17897   0.690   4.195   4.707 -0.6567  0.0077 -1.3600
  160SAPE  C31317898   0.867   4.083   4.769 -0.0927  0.2098  0.1561
  160SAPE  H13X17899   0.916   4.182   4.782 -0.7207  0.5203  0.1575
  160SAPE  H13Y17900   0.938   4.012   4.720 -2.4184 -1.9624 -0.2887
  160SAPE  C31417901   0.830   4.018   4.900 -0.8477  0.3429 -0.2996
  160SAPE  H14X17902   0.764   3.932   4.875 -0.6419  0.9891 -3.4345
  160SAPE  H14Y17903   0.787   4.091   4.972  0.6687 -0.7370  1.8330
  160SAPE  C31517904   0.951   3.977   4.978  0.7331 -0.2106 -0.3112
  160SAPE  H15X17905   0.928   3.957   5.085 -0.5085  2.2893 -0.0487
  160SAPE  H15Y17906   1.004   4.074   4.980 -0.4014  0.4997 -2.3720
  160SAPE  C31617907   1.039   3.866   4.910 -0.3823  0.2246 -0.4292
  160SAPE  H16X17908   1.035   3.880   4.800 -1.9654 -0.6971 -0.5128
  160SAPE  H16Y17909   0.990   3.768   4.929  0.5992 -0.0273  0.9861
  160SAPE  C31717910   1.184   3.859   4.961  0.2040  0.4677 -0.3038
  160SAPE  H17X17911   1.184   3.835   5.069 -1.4331  2.1974  0.1265
  160SAPE  H17Y17912   1.240   3.954   4.949 -1.2089  1.5179  1.0980
  160SAPE  C31817913   1.249   3.747   4.876  0.1647 -0.0866  0.2179
  160SAPE  H18X17914   1.234   3.779   4.771  1.2614 -3.0200 -0.9237
  160SAPE  H18Y17915   1.191   3.653   4.888  1.1824 -0.6079  1.2605
  160SAPE  H18Z17916   1.356   3.744   4.906  0.6136 -0.2893 -1.3190
  161SAPE     N17917   0.006   4.631   3.044 -0.3777  0.5693  0.3219
  161SAPE   HN117918   0.078   4.562   3.072 -0.3338  0.6581  0.4291
  161SAPE   HN217919  -0.067   4.576   2.994  0.1045  0.6920 -0.5291
  161SAPE   HN317920   0.053   4.708   2.991 -1.2223  0.7434 -0.1984
  161SAPE   C1217921  -0.045   4.691   3.171  0.5747 -0.2040  0.0473
  161SAPE  H12A17922  -0.063   4.598   3.230 -1.3702  1.7431  2.7989
  161SAPE  H12B17923  -0.149   4.728   3.161  0.3806 -1.1372 -1.8906
  161SAPE   C1117924   0.050   4.778   3.242 -0.5442  0.5899  0.5447
  161SAPE  H11A17925   0.133   4.713   3.277 -1.0940 -1.6527 -1.9800
  161SAPE  H11B17926  -0.006   4.818   3.330 -3.4773 -2.7138  0.3986
  161SAPE     P17927   0.120   5.024   3.197 -0.2406  0.3457 -0.0390
  161SAPE   O1317928   0.233   5.089   3.123 -0.3093  0.7823 -0.0487
  161SAPE   O1417929  -0.014   5.089   3.198 -0.0620  0.8090  0.3504
  161SAPE   O1217930   0.101   4.874   3.150 -0.0673 -0.6107 -0.5414
  161SAPE   O1117931   0.162   5.001   3.346 -0.4540 -0.1902  1.1601
  161SAPE    C117932   0.272   4.929   3.406  0.0784  0.1213 -0.0056
  161SAPE    HA17933   0.298   4.853   3.329  0.8010  0.0272  0.3218
  161SAPE    HB17934   0.355   5.001   3.424  1.1631 -1.5288  2.0420
  161SAPE    C217935   0.217   4.849   3.533 -0.6233  0.0995  0.1409
  161SAPE    HS17936   0.126   4.789   3.512 -1.6274  1.2399  1.1017
  161SAPE   O2117937   0.191   4.937   3.639  0.1723  0.2159 -0.5872
  161SAPE   C2117938   0.070   4.977   3.652  0.6075  0.6885 -0.2764
  161SAPE   O2217939  -0.029   4.952   3.581 -0.1873 -1.0570 -0.1885
  161SAPE   C2217940   0.066   5.074   3.775  0.5752  0.1750 -0.6149
  161SAPE   H2R17941   0.026   5.171   3.739  0.3080  0.9020  1.5025
  161SAPE   H2S17942  -0.006   5.034   3.849 -0.7749  0.2516 -1.8470
  161SAPE    C317943   0.333   4.757   3.591 -0.2828 -0.4227 -0.2119
  161SAPE    HX17944   0.346   4.677   3.515  2.7207  0.4040 -0.6837
  161SAPE    HY17945   0.303   4.695   3.678 -1.6981  0.7473  0.1873
  161SAPE   O3117946   0.452   4.833   3.628  0.1164 -0.3132  0.2618
  161SAPE   C3117947   0.564   4.803   3.564 -0.8444  0.2147  0.3926
  161SAPE   O3217948   0.571   4.728   3.467 -0.3537  0.2714  0.2876
  161SAPE   C3217949   0.677   4.867   3.650  0.4729  0.4296  0.0409
  161SAPE   H2X17950   0.638   4.912   3.743  0.8858 -0.0511  0.4483
  161SAPE   H2Y17951   0.731   4.940   3.586  2.9278  0.1435  1.6928
  161SAPE   C2317952   0.200   5.104   3.842 -0.4523 -0.1948 -0.4097
  161SAPE   H3R17953   0.173   5.195   3.900  0.7554  1.2018 -1.9304
  161SAPE   H3S17954   0.285   5.120   3.772  1.1626 -3.5848  0.5631
  161SAPE   C2417955   0.245   4.998   3.936 -0.1577  0.1347 -0.2360
  161SAPE   H4R17956   0.270   4.909   3.875 -1.6959  0.0148 -0.7328
  161SAPE   H4S17957   0.160   4.958   3.996 -0.9454 -0.8338 -1.9283
  161SAPE   C2517958   0.361   5.043   4.024  0.4334  0.2878 -0.0312
  161SAPE   H5R17959   0.458   5.030   3.974  2.4672  1.0687  3.3667
  161SAPE   C2617960   0.358   5.087   4.150  0.2443  0.7168 -0.2288
  161SAPE   H6R17961   0.451   5.092   4.209 -1.1851 -1.3171  2.4511
  161SAPE   C2717962   0.236   5.120   4.241  0.0034  0.3542  0.3142
  161SAPE   H7R17963   0.250   5.053   4.329  0.0249 -1.4583 -1.0205
  161SAPE   H7S17964   0.141   5.083   4.196  2.3034 -1.7025 -3.3879
  161SAPE   C2817965   0.231   5.268   4.275 -0.0829 -0.1078  0.3611
  161SAPE   H8R17966   0.181   5.334   4.202  1.1865  0.5587  0.0765
  161SAPE   C2917967   0.270   5.313   4.394  0.6557 -0.2573  0.1823
  161SAPE   H9R17968   0.245   5.418   4.418  0.6907 -0.8818  3.3974
  161SAPE  C21017969   0.331   5.245   4.507 -0.7706  0.2863 -0.4280
  161SAPE  H10R17970   0.298   5.143   4.532  1.2013 -0.2528  0.1818
  161SAPE  H10S17971   0.297   5.301   4.597 -1.3208  1.4648 -1.3294
  161SAPE  C21117972   0.482   5.264   4.493  0.7228  0.1076  0.1160
  161SAPE  H11R17973   0.529   5.233   4.398  0.9019  3.1134 -0.9042
  161SAPE  C21217974   0.563   5.314   4.588 -0.1656  0.2757 -0.3477
  161SAPE  H12R17975   0.671   5.311   4.567 -0.3311  0.8555 -1.3274
  161SAPE  C21317976   0.528   5.371   4.724  0.6612  0.5083  0.7183
  161SAPE  H13R17977   0.421   5.399   4.716  0.2239 -1.5240 -2.4206
  161SAPE  H13S17978   0.574   5.471   4.737 -0.3726  0.9433  1.0711
  161SAPE  C21417979   0.546   5.274   4.834 -0.1734  0.6008  0.5663
  161SAPE  H14R17980   0.453   5.228   4.870 -0.3249  0.9484  0.6239
  161SAPE  C21517981   0.660   5.237   4.902 -0.1211  0.3623  0.3391
  161SAPE  H15R17982   0.661   5.167   4.988  1.0417 -0.4688 -0.3104
  161SAPE  C21617983   0.799   5.299   4.894  0.0214  0.0296  0.0586
  161SAPE  H16R17984   0.801   5.382   4.819 -1.0134  0.7787  0.8308
  161SAPE  H16S17985   0.867   5.223   4.852  0.2268 -0.3740  1.1065
  161SAPE  C21717986   0.862   5.356   5.023  0.1658 -0.2655 -0.1663
  161SAPE  H17R17987   0.790   5.430   5.064  0.8481  0.9935 -1.1551
  161SAPE  H17S17988   0.951   5.414   4.991  1.1315 -0.1248  2.5134
  161SAPE  C21817989   0.890   5.261   5.140  0.4934  0.4809  0.2144
  161SAPE  H18R17990   0.806   5.214   5.195  2.1998 -1.1399  1.6141
  161SAPE  H18S17991   0.947   5.326   5.210  3.0912  0.4342 -1.6750
  161SAPE  C21917992   0.985   5.142   5.103  0.2318 -0.1429  0.5148
  161SAPE  H19R17993   1.071   5.185   5.047 -0.5817  2.6551  1.2640
  161SAPE  H19S17994   0.921   5.071   5.046  0.3356 -0.8984  1.3155
  161SAPE  C22017995   1.051   5.073   5.216 -0.7750  0.1251 -0.0977
  161SAPE  H20R17996   1.109   5.151   5.271  1.5425 -0.6803 -1.2697
  161SAPE  H20S17997   1.137   5.010   5.185 -0.3747  0.5726  0.0725
  161SAPE  H20T17998   0.984   5.025   5.290 -0.2247  0.3374  0.5468
  161SAPE   C3317999   0.775   4.753   3.690  0.1610 -0.1659 -0.7343
  161SAPE   H3X18000   0.865   4.792   3.742  0.8000 -0.8786 -1.2796
  161SAPE   H3Y18001   0.817   4.702   3.600  1.4424  0.1932 -0.3522
  161SAPE   C3418002   0.715   4.643   3.777 -0.2553  0.8702 -0.5157
  161SAPE   H4X18003   0.797   4.571   3.800  0.7577  1.8107 -1.0952
  161SAPE   H4Y18004   0.631   4.588   3.729 -0.1822 -1.2844  1.5972
  161SAPE   C3518005   0.661   4.694   3.918  0.0397  0.3902  0.0191
  161SAPE   H5X18006   0.573   4.760   3.903  0.5330  1.1867  0.5389
  161SAPE   H5Y18007   0.740   4.763   3.955 -0.7517  0.1860  2.2257
  161SAPE   C3618008   0.635   4.585   4.020 -0.1518 -0.3309  0.1090
  161SAPE   H6X18009   0.731   4.530   4.031 -0.0464 -0.0582  0.5677
  161SAPE   H6Y18010   0.557   4.508   4.003 -0.8375  0.5677 -0.9627
  161SAPE   C3718011   0.607   4.625   4.163 -0.1380 -0.2769 -0.7246
  161SAPE   H7X18012   0.683   4.692   4.209 -1.0907 -1.1074  2.2900
  161SAPE   H7Y18013   0.601   4.534   4.227  0.4628 -1.0712 -1.7779
  161SAPE   C3818014   0.472   4.702   4.166 -0.1723 -0.1745  0.0854
  161SAPE   H8X18015   0.408   4.629   4.111 -1.1493  0.6854  0.0403
  161SAPE   H8Y18016   0.476   4.794   4.104 -2.6374  1.8227  2.5659
  161SAPE   C3918017   0.412   4.731   4.306 -0.4592 -0.0773 -0.2867
  161SAPE   H9X18018   0.397   4.637   4.362 -2.4858  0.7050  0.5731
  161SAPE   H9Y18019   0.312   4.779   4.304 -0.6849 -0.5603 -0.5559
  161SAPE  C31018020   0.494   4.826   4.399  0.7814  0.6138  0.7444
  161SAPE  H10X18021   0.531   4.923   4.361  0.5547  0.0508 -1.0042
  161SAPE  H10Y18022   0.589   4.768   4.405  0.3319 -0.3244 -0.5115
  161SAPE  C31118023   0.410   4.832   4.530 -0.4358 -0.7086 -0.0367
  161SAPE  H11X18024   0.358   4.735   4.546 -1.7333  0.2046  1.5666
  161SAPE  H11Y18025   0.329   4.908   4.524  1.1159  0.8921 -2.0383
  161SAPE  C31218026   0.497   4.861   4.650  0.1727 -0.2338  0.3200
  161SAPE  H12X18027   0.528   4.966   4.629  1.0232 -0.3310  1.0564
  161SAPE  H12Y18028   0.585   4.796   4.667  2.1357  2.2794  0.3463
  161SAPE  C31318029   0.413   4.873   4.773  0.0161  0.2831  0.2418
  161SAPE  H13X18030   0.359   4.776   4.780  1.3205 -0.4105  1.2218
  161SAPE  H13Y18031   0.326   4.940   4.763 -1.4735 -1.5739  0.2681
  161SAPE  C31418032   0.479   4.875   4.905 -0.1658  0.2702  0.1188
  161SAPE  H14X18033   0.527   4.972   4.931  0.9154  0.1342 -1.2247
  161SAPE  H14Y18034   0.567   4.809   4.890  1.2848  2.5775 -2.3630
  161SAPE  C31518035   0.399   4.829   5.025  0.3020  0.4355 -0.4470
  161SAPE  H15X18036   0.479   4.788   5.091 -0.0440  0.7155  0.1518
  161SAPE  H15Y18037   0.335   4.748   4.986  0.1062  0.5758 -0.4227
  161SAPE  C31618038   0.313   4.937   5.102 -0.5943  0.6363 -0.4262
  161SAPE  H16X18039   0.250   4.994   5.030 -2.6718 -1.8680 -0.7266
  161SAPE  H16Y18040   0.381   5.015   5.144 -1.8397  0.9567  1.0928
  161SAPE  C31718041   0.237   4.893   5.221 -0.1724 -0.4090 -0.1681
  161SAPE  H17X18042   0.191   4.979   5.274  1.5684  0.6274 -0.2827
  161SAPE  H17Y18043   0.311   4.840   5.285 -0.5632 -2.1908 -1.1061
  161SAPE  C31818044   0.137   4.786   5.177  0.5873  0.0930 -0.4227
  161SAPE  H18X18045   0.184   4.685   5.184  0.1571 -0.4329 -3.4888
  161SAPE  H18Y18046   0.096   4.795   5.074 -0.4921 -2.7442 -0.3427
  161SAPE  H18Z18047   0.050   4.776   5.244  2.1956 -0.9812  1.6214
  162SAPE     N18048   5.238   0.542   3.192 -0.0553  0.4775 -0.7385
  162SAPE   HN118049   5.179   0.486   3.258  2.2829 -0.8849  0.2951
  162SAPE   HN218050   5.200   0.548   3.096  1.0691  1.3661 -1.1403
  162SAPE   HN318051   5.333   0.501   3.183  0.6649  2.1883 -1.3023
  162SAPE   C1218052   5.251   0.681   3.250  0.5497  0.0785 -0.2693
  162SAPE  H12A18053   5.148   0.710   3.280  0.2449 -0.9495 -0.2888
  162SAPE  H12B18054   5.296   0.748   3.174  3.0276  2.7979  3.2566
  162SAPE   C1118055   5.352   0.672   3.368  0.8022 -0.2501 -0.1044
  162SAPE  H11A18056   5.313   0.603   3.446  1.2358 -0.1737  0.1788
  162SAPE  H11B18057   5.360   0.772   3.416  1.0853  0.1419 -0.9564
  162SAPE     P18058   5.609   0.668   3.401  0.6162 -0.0644 -0.2008
  162SAPE   O1318059   5.688   0.550   3.443 -0.2261  0.4929  0.1956
  162SAPE   O1418060   5.674   0.760   3.308 -0.5095 -0.2962  0.2145
  162SAPE   O1218061   5.478   0.626   3.322 -0.7902  0.4825  0.0986
  162SAPE   O1118062   5.563   0.756   3.525  0.0224  0.0189  0.2141
  162SAPE    C118063   5.537   0.698   3.650  0.0997  0.1020  0.2050
  162SAPE    HA18064   5.467   0.612   3.641 -1.3684  1.4752 -3.9427
  162SAPE    HB18065   5.628   0.656   3.697 -0.1188 -1.0165 -0.3297
  162SAPE    C218066   5.478   0.823   3.731  0.3795  0.2272 -0.3762
  162SAPE    HS18067   5.423   0.883   3.656  1.2499  2.4171  0.6296
  162SAPE   O2118068   5.594   0.902   3.771  0.0850 -0.1935 -0.5257
  162SAPE   C2118069   5.584   1.035   3.748 -0.2455  0.5622 -0.0643
  162SAPE   O2218070   5.485   1.089   3.711  0.4654  0.3822  0.4077
  162SAPE   C2218071   5.724   1.101   3.764  0.6014  0.4714  0.2053
  162SAPE   H2R18072   5.803   1.024   3.778  0.6803  0.2087 -1.5260
  162SAPE   H2S18073   5.735   1.147   3.663 -0.5767  0.2773 -0.0199
  162SAPE    C318074   5.382   0.778   3.850 -0.6558  0.2161 -0.2749
  162SAPE    HX18075   5.432   0.721   3.931 -1.8770 -0.4357  0.0447
  162SAPE    HY18076   5.317   0.697   3.809 -0.8249 -1.4416  2.9643
  162SAPE   O3118077   5.307   0.887   3.898  0.8047 -0.0598  0.3806
  162SAPE   C3118078   5.364   0.968   3.996  0.1125  0.3832  0.1074
  162SAPE   O3218079   5.465   0.952   4.053  0.0054 -0.1490 -0.3047
  162SAPE   C3218080   5.270   1.088   4.020 -0.6602  0.1208 -0.6029
  162SAPE   H2X18081   5.170   1.053   4.051 -1.1764  0.4408 -1.8542
  162SAPE   H2Y18082   5.265   1.129   3.916 -0.0548 -1.3985 -1.2602
  162SAPE   C2318083   5.716   1.188   3.890  0.1202 -0.9442  0.1582
  162SAPE   H3R18084   5.695   1.121   3.976  0.6219 -1.2943  0.0120
  162SAPE   H3S18085   5.635   1.263   3.893  1.3511  0.4399 -0.0412
  162SAPE   C2418086   5.855   1.256   3.915  0.3514  0.4724 -0.8114
  162SAPE   H4R18087   5.827   1.331   3.991 -1.2965 -2.4011  1.6686
  162SAPE   H4S18088   5.871   1.317   3.823  1.8131  1.5525  0.1230
  162SAPE   C2518089   5.969   1.168   3.965 -0.2405 -0.4726 -0.2352
  162SAPE   H5R18090   6.012   1.101   3.890  1.0382  0.3458 -0.2624
  162SAPE   C2618091   6.014   1.170   4.091 -0.2164 -0.0018  0.1515
  162SAPE   H6R18092   6.106   1.111   4.102 -0.5723 -0.7732 -0.8293
  162SAPE   C2718093   5.968   1.253   4.209 -0.3489  0.0043 -0.3617
  162SAPE   H7R18094   5.868   1.301   4.206  0.1455  1.0845 -0.1530
  162SAPE   H7S18095   6.037   1.340   4.215 -1.8658  1.1496  0.8866
  162SAPE   C2818096   5.981   1.170   4.332 -0.8725  0.1323  0.0557
  162SAPE   H8R18097   6.079   1.157   4.378  0.3249  4.1473 -0.9431
  162SAPE   C2918098   5.880   1.096   4.390  0.0574 -0.5691  0.3997
  162SAPE   H9R18099   5.895   1.043   4.486  1.3125  0.8520  1.0154
  162SAPE  C21018100   5.737   1.089   4.346 -0.7949  0.7791  0.6159
  162SAPE  H10R18101   5.702   0.985   4.368 -0.0767  0.0081 -1.6658
  162SAPE  H10S18102   5.727   1.098   4.236 -1.5977 -3.5893  0.1345
  162SAPE  C21118103   5.664   1.199   4.412  0.4048 -0.0322 -0.2547
  162SAPE  H11R18104   5.657   1.298   4.365 -0.1757  0.0605  0.0167
  162SAPE  C21218105   5.595   1.180   4.526  0.4906  0.7988  0.5595
  162SAPE  H12R18106   5.550   1.269   4.572  1.3693  1.8587 -0.5737
  162SAPE  C21318107   5.590   1.048   4.601 -0.1918  0.2391  0.1770
  162SAPE  H13R18108   5.638   0.961   4.552  2.1714 -0.5801  3.6010
  162SAPE  H13S18109   5.484   1.015   4.598 -0.9935  2.5768 -0.0428
  162SAPE  C21418110   5.631   1.052   4.745  0.1865  0.3221 -0.4036
  162SAPE  H14R18111   5.675   1.150   4.771 -1.4944  0.8855  0.5100
  162SAPE  C21518112   5.611   0.960   4.845  0.8500 -0.8600 -0.1134
  162SAPE  H15R18113   5.649   0.990   4.944  1.9034  0.1169 -0.7830
  162SAPE  C21618114   5.554   0.822   4.838 -0.3937 -0.3930  0.4700
  162SAPE  H16R18115   5.620   0.747   4.888  0.0615  0.2136  0.7938
  162SAPE  H16S18116   5.544   0.785   4.734 -2.7799 -0.0314  0.5008
  162SAPE  C21718117   5.418   0.816   4.902  0.2780  0.1000 -0.0676
  162SAPE  H17R18118   5.370   0.717   4.887 -0.2608  0.5056 -1.1043
  162SAPE  H17S18119   5.351   0.886   4.848  0.3398  0.1736 -0.0493
  162SAPE  C21818120   5.420   0.832   5.056  0.0421 -0.3453 -0.0308
  162SAPE  H18R18121   5.465   0.930   5.082  1.5644 -1.3595  1.4043
  162SAPE  H18S18122   5.485   0.753   5.100  0.3352  0.9529  2.0315
  162SAPE  C21918123   5.282   0.820   5.111  0.5461 -0.0236 -0.4288
  162SAPE  H19R18124   5.234   0.738   5.052 -0.7629  0.2674  0.2001
  162SAPE  H19S18125   5.218   0.909   5.092  1.7995  1.2910  1.2402
  162SAPE  C22018126   5.268   0.797   5.256  0.4714 -0.1406  0.8086
  162SAPE  H20R18127   5.276   0.896   5.306  0.3362  0.3033 -0.0371
  162SAPE  H20S18128   5.352   0.729   5.281  2.1233 -0.1863 -3.9197
  162SAPE  H20T18129   5.171   0.746   5.275 -0.1221  0.4243 -0.6162
  162SAPE   C3318130   5.336   1.187   4.123  0.1242  1.0681 -0.1490
  162SAPE   H3X18131   5.279   1.282   4.121 -1.6267  0.0721 -0.8587
  162SAPE   H3Y18132   5.439   1.218   4.098 -0.0991  1.6920 -0.3149
  162SAPE   C3418133   5.337   1.145   4.268  0.1724 -0.3795  0.0536
  162SAPE   H4X18134   5.370   1.227   4.336 -0.5870  1.6268 -1.8889
  162SAPE   H4Y18135   5.411   1.064   4.285  0.3116  0.3646  3.8694
  162SAPE   C3518136   5.199   1.100   4.321  0.0961  0.0736 -0.1348
  162SAPE   H5X18137   5.172   1.016   4.254  3.6751  0.2706 -2.0515
  162SAPE   H5Y18138   5.126   1.183   4.307  0.1555 -0.2046 -2.5549
  162SAPE   C3618139   5.200   1.044   4.463  0.8718 -0.1049  0.1404
  162SAPE   H6X18140   5.295   0.991   4.486  0.9303  0.0161  0.1825
  162SAPE   H6Y18141   5.122   0.965   4.468 -1.2905  2.0014  1.8522
  162SAPE   C3718142   5.170   1.147   4.571 -0.5379 -0.2592  0.3226
  162SAPE   H7X18143   5.075   1.202   4.551 -0.2221  0.0750 -0.3006
  162SAPE   H7Y18144   5.255   1.218   4.566 -0.0807 -0.8231 -0.1811
  162SAPE   C3818145   5.174   1.089   4.708 -0.0419  0.7668 -0.4102
  162SAPE   H8X18146   5.279   1.060   4.730 -0.4240 -1.0979 -0.9135
  162SAPE   H8Y18147   5.103   1.010   4.740  1.2022 -0.7329 -1.2284
  162SAPE   C3918148   5.130   1.195   4.805  0.3351 -0.1555 -0.5360
  162SAPE   H9X18149   5.025   1.228   4.789 -0.1762 -0.6711  1.4834
  162SAPE   H9Y18150   5.197   1.283   4.793 -1.2816  1.0900 -0.7273
  162SAPE  C31018151   5.163   1.146   4.948 -0.0504 -0.1162  0.9696
  162SAPE  H10X18152   5.271   1.120   4.957  0.0469  0.5856  1.9728
  162SAPE  H10Y18153   5.105   1.054   4.968  0.2192 -0.6149 -0.4703
  162SAPE  C31118154   5.147   1.256   5.052 -0.2131 -0.5242  0.0815
  162SAPE  H11X18155   5.049   1.295   5.017 -0.6521 -1.4326  0.2848
  162SAPE  H11Y18156   5.217   1.342   5.044 -1.4739  0.5040 -0.2540
  162SAPE  C31218157   5.120   1.196   5.188 -0.0332  0.7075 -0.8107
  162SAPE  H12X18158   5.210   1.151   5.235 -0.2265  2.5263  1.4815
  162SAPE  H12Y18159   5.039   1.119   5.191 -1.2263  1.9579  0.3084
  162SAPE  C31318160   5.070   1.306   5.290 -0.3716 -0.3980 -0.1383
  162SAPE  H13X18161   4.976   1.280   5.344  0.3714  0.0848  1.4450
  162SAPE  H13Y18162   5.024   1.388   5.231 -2.4038 -2.0270 -0.9637
  162SAPE  C31418163   5.181   1.370   5.377 -0.0467 -0.1091 -0.2452
  162SAPE  H14X18164   5.142   1.468   5.411  0.5506  0.4446 -1.1273
  162SAPE  H14Y18165   5.258   1.418   5.313 -0.4979  1.0894  0.0759
  162SAPE  C31518166   5.261   1.287   5.483  0.2306  0.4097 -0.7322
  162SAPE  H15X18167   5.321   1.352   5.550  0.4204  0.7197 -1.2004
  162SAPE  H15Y18168   5.328   1.211   5.437  1.2950 -0.3218  1.8002
  162SAPE  C31618169   5.173   1.205   5.583  0.4498 -0.2160 -0.0648
  162SAPE  H16X18170   5.090   1.144   5.542 -0.8809  0.8223  1.0105
  162SAPE  H16Y18171   5.117   1.273   5.650  0.4873 -0.8088  0.5838
  162SAPE  C31718172   5.255   1.113   5.674  0.8262 -0.5750  0.7312
  162SAPE  H17X18173   5.185   1.077   5.752 -2.7899  1.7580 -1.1728
  162SAPE  H17Y18174   5.339   1.170   5.720  0.3609  0.3401  0.4575
  162SAPE  C31818175   5.300   0.993   5.597  0.2256 -0.0099 -0.0844
  162SAPE  H18X18176   5.229   0.946   5.527 -0.9239  0.7403  0.5331
  162SAPE  H18Y18177   5.308   0.913   5.674 -1.5297  0.4694  0.6355
  162SAPE  H18Z18178   5.397   1.005   5.544  0.8564 -2.8965  0.2512
  163SAPE     N18179   6.271   6.721   3.091  0.4561  0.3292 -0.1750
  163SAPE   HN118180   6.302   6.731   3.190  0.6049  1.1432 -0.2965
  163SAPE   HN218181   6.348   6.750   3.028  0.5527  0.5189  0.0278
  163SAPE   HN318182   6.191   6.786   3.078  1.0176  1.0389 -0.1169
  163SAPE   C1218183   6.227   6.578   3.067  0.5979 -0.3231 -0.0424
  163SAPE  H12A18184   6.312   6.522   3.112  2.0724  1.3751 -0.5998
  163SAPE  H12B18185   6.225   6.569   2.956  0.2200 -1.1790  0.0299
  163SAPE   C1118186   6.096   6.543   3.144 -0.4432 -0.3692  0.0314
  163SAPE  H11A18187   6.110   6.539   3.254 -0.1620  0.3647  0.0310
  163SAPE  H11B18188   6.083   6.435   3.122  0.2829 -0.1197 -1.7899
  163SAPE     P18189   5.857   6.620   3.197  0.0257 -0.1718  0.0079
  163SAPE   O1318190   5.831   6.756   3.251 -0.4472 -0.8033  0.5887
  163SAPE   O1418191   5.743   6.565   3.118  0.5746 -0.6757  0.0949
  163SAPE   O1218192   5.981   6.619   3.100 -0.0204 -0.6287  0.1261
  163SAPE   O1118193   5.891   6.519   3.312  0.4181 -1.0039  0.8796
  163SAPE    C118194   5.875   6.559   3.446  0.0739  0.2510 -0.5548
  163SAPE    HA18195   5.936   6.649   3.468 -0.6509  0.6765 -0.2277
  163SAPE    HB18196   5.769   6.591   3.458 -0.1915 -0.9895  0.5157
  163SAPE    C218197   5.890   6.433   3.535 -0.5687  0.4162  0.0397
  163SAPE    HS18198   5.877   6.467   3.640 -0.9930  0.3533  0.0080
  163SAPE   O2118199   6.025   6.379   3.519  0.2940  0.4216 -0.0283
  163SAPE   C2118200   6.122   6.464   3.560  0.1547  0.0881  0.3872
  163SAPE   O2218201   6.103   6.564   3.625 -1.0975  0.2355 -0.0964
  163SAPE   C2218202   6.263   6.398   3.537  0.0896 -0.0030  0.2754
  163SAPE   H2R18203   6.240   6.313   3.470  1.2745  0.1529 -0.3671
  163SAPE   H2S18204   6.314   6.479   3.481  2.4901  0.0052  2.2855
  163SAPE    C318205   5.780   6.328   3.502 -0.6991 -0.0617  0.0067
  163SAPE    HX18206   5.798   6.305   3.395 -1.2091  0.1290 -0.1220
  163SAPE    HY18207   5.684   6.382   3.518 -0.9783  0.4631 -2.8988
  163SAPE   O3118208   5.793   6.215   3.589  0.1708 -0.5770  0.5106
  163SAPE   C3118209   5.697   6.122   3.570 -0.9764 -0.3612  0.7723
  163SAPE   O3218210   5.599   6.145   3.499  0.0918  0.0454 -0.0589
  163SAPE   C3218211   5.719   5.994   3.651  0.1929  0.1585  0.2705
  163SAPE   H2X18212   5.819   6.003   3.698  0.7932  0.7261 -1.0796
  163SAPE   H2Y18213   5.712   5.906   3.584  1.5584 -0.4118  0.8411
  163SAPE   C2318214   6.339   6.355   3.658 -0.5436 -0.5448  0.1380
  163SAPE   H3R18215   6.346   6.427   3.743  0.7467  1.6115 -1.7110
  163SAPE   H3S18216   6.441   6.364   3.617 -0.5454 -0.3479  0.1778
  163SAPE   C2418217   6.316   6.206   3.705  0.4285 -0.5663 -0.1269
  163SAPE   H4R18218   6.405   6.185   3.767  0.7589 -1.8990 -0.9927
  163SAPE   H4S18219   6.343   6.141   3.618  0.6710 -0.2876 -0.2610
  163SAPE   C2518220   6.183   6.180   3.769  0.1445  0.2777 -0.0545
  163SAPE   H5R18221   6.091   6.217   3.720 -0.1702  0.3502  0.5706
  163SAPE   C2618222   6.162   6.105   3.874  0.1383 -0.5945  0.0761
  163SAPE   H6R18223   6.061   6.082   3.910  0.1574 -1.9640 -0.6788
  163SAPE   C2718224   6.260   6.053   3.968  0.0806 -0.4113  0.0595
  163SAPE   H7R18225   6.299   6.141   4.023  1.4623 -0.8273 -0.1921
  163SAPE   H7S18226   6.349   6.016   3.912  0.7128  3.7805 -2.0783
  163SAPE   C2818227   6.224   5.929   4.052  0.2983 -0.0173  0.5695
  163SAPE   H8R18228   6.141   5.863   4.023 -1.7844  1.4771  2.6995
  163SAPE   C2918229   6.273   5.910   4.178  0.5303 -0.2588  0.7217
  163SAPE   H9R18230   6.234   5.822   4.230 -1.0474  1.6670  3.0228
  163SAPE  C21018231   6.371   5.994   4.250  0.2555 -0.0928 -0.0371
  163SAPE  H10R18232   6.362   6.101   4.223 -1.5994 -0.2068 -0.0055
  163SAPE  H10S18233   6.472   5.958   4.218 -0.3322 -2.0790  0.1799
  163SAPE  C21118234   6.355   5.972   4.396 -0.1218  0.1188 -0.2693
  163SAPE  H11R18235   6.317   5.872   4.422 -3.8799  2.0148  2.6998
  163SAPE  C21218236   6.367   6.062   4.500  0.0499 -0.4732  0.2807
  163SAPE  H12R18237   6.333   6.031   4.600 -1.1562 -0.9692 -0.2593
  163SAPE  C21318238   6.423   6.204   4.491 -0.0512  0.3568 -0.6049
  163SAPE  H13R18239   6.350   6.280   4.524  0.6498  0.8469 -0.1653
  163SAPE  H13S18240   6.437   6.231   4.384  0.6256  1.0208 -0.3561
  163SAPE  C21418241   6.559   6.218   4.555  0.0522 -0.1543  0.0452
  163SAPE  H14R18242   6.635   6.215   4.476 -1.3132 -2.6370 -1.2631
  163SAPE  C21518243   6.592   6.270   4.678 -0.3701  0.2400  0.1778
  163SAPE  H15R18244   6.696   6.254   4.712 -1.2686 -4.2571  1.3781
  163SAPE  C21618245   6.494   6.319   4.781 -0.0739 -0.7177 -0.0833
  163SAPE  H16R18246   6.389   6.309   4.747 -1.1115  1.2407  2.2573
  163SAPE  H16S18247   6.520   6.426   4.799  2.0435 -1.4328  1.3910
  163SAPE  C21718248   6.511   6.239   4.910  0.8434  0.3785  0.1191
  163SAPE  H17R18249   6.615   6.253   4.948  1.1074  2.0163 -1.0919
  163SAPE  H17S18250   6.494   6.130   4.896 -1.8222  0.9955 -2.6493
  163SAPE  C21818251   6.413   6.296   5.019 -0.0923 -0.5376 -0.1617
  163SAPE  H18R18252   6.392   6.405   5.013 -0.3523 -0.6364 -1.3851
  163SAPE  H18S18253   6.470   6.275   5.112 -0.1681 -1.3618 -0.2986
  163SAPE  C21918254   6.283   6.220   5.008  0.8390  0.3280 -0.3521
  163SAPE  H19R18255   6.306   6.112   5.003  1.2370  0.3897  0.0746
  163SAPE  H19S18256   6.228   6.254   4.917  0.0423 -0.1332 -0.0480
  163SAPE  C22018257   6.179   6.243   5.122 -0.0992  0.0131 -0.1926
  163SAPE  H20R18258   6.133   6.342   5.102  0.6767  0.4432  0.0851
  163SAPE  H20S18259   6.226   6.236   5.223  0.7950  1.1461 -0.5042
  163SAPE  H20T18260   6.089   6.178   5.124 -0.2383  0.2140  0.0363
  163SAPE   C3318261   5.624   5.972   3.763 -0.2275 -0.1580  0.1344
  163SAPE   H3X18262   5.657   5.881   3.817  0.6291  0.9629  1.5867
  163SAPE   H3Y18263   5.520   5.965   3.726  0.5944  1.6160 -2.8342
  163SAPE   C3418264   5.642   6.093   3.865  0.0550  0.0608 -0.2420
  163SAPE   H4X18265   5.583   6.086   3.959  1.1903  1.7543  0.6586
  163SAPE   H4Y18266   5.619   6.184   3.806  1.8623 -0.5134 -1.9229
  163SAPE   C3518267   5.786   6.116   3.923 -0.5518  0.4959 -0.2809
  163SAPE   H5X18268   5.840   6.163   3.838  0.3652  2.0704  1.0914
  163SAPE   H5Y18269   5.844   6.024   3.947  0.7292  0.9073 -1.6327
  163SAPE   C3618270   5.794   6.224   4.031 -0.6636  0.3834  0.8262
  163SAPE   H6X18271   5.714   6.300   4.015 -1.7713 -0.7149  0.9998
  163SAPE   H6Y18272   5.894   6.273   4.035 -0.8003  0.8780 -1.0057
  163SAPE   C3718273   5.762   6.175   4.172  0.1164  0.0321  0.3240
  163SAPE   H7X18274   5.698   6.084   4.168  0.3394 -0.1103 -0.1655
  163SAPE   H7Y18275   5.713   6.261   4.222  0.8348  0.8391 -0.3264
  163SAPE   C3818276   5.884   6.157   4.264 -0.3747  0.3217  0.4218
  163SAPE   H8X18277   5.934   6.254   4.285  1.0617 -0.3555  0.3119
  163SAPE   H8Y18278   5.955   6.101   4.199  0.8094  0.9773  1.1007
  163SAPE   C3918279   5.857   6.083   4.391  0.0778 -0.1557  0.8062
  163SAPE   H9X18280   5.802   5.989   4.372 -0.6665  0.9332 -3.5621
  163SAPE   H9Y18281   5.799   6.149   4.458 -1.0131 -1.1135  0.8310
  163SAPE  C31018282   5.990   6.037   4.457 -0.6014  0.0254 -0.1291
  163SAPE  H10X18283   6.038   6.132   4.489 -1.5306  0.7520 -0.8321
  163SAPE  H10Y18284   6.049   5.969   4.392  0.4308 -1.4437  2.2367
  163SAPE  C31118285   5.959   5.964   4.589 -0.0810  0.4858  0.5919
  163SAPE  H11X18286   6.056   5.937   4.637  0.8585  0.5197 -1.2051
  163SAPE  H11Y18287   5.907   5.870   4.564  0.4608  0.5418 -0.8338
  163SAPE  C31218288   5.887   6.032   4.704 -0.2739  0.0064 -0.2286
  163SAPE  H12X18289   5.785   6.062   4.671 -0.4260  1.0697  1.1653
  163SAPE  H12Y18290   5.942   6.125   4.729 -1.5783  0.2450  2.0216
  163SAPE  C31318291   5.889   5.941   4.828  0.1667 -0.5186  0.5810
  163SAPE  H13X18292   5.989   5.912   4.866 -0.4898 -2.0367  1.2190
  163SAPE  H13Y18293   5.842   5.848   4.789  1.0312 -1.6596  2.1464
  163SAPE  C31418294   5.813   6.004   4.941  0.5517  0.3579 -0.0656
  163SAPE  H14X18295   5.726   6.060   4.900  1.7279  0.9448 -1.8433
  163SAPE  H14Y18296   5.872   6.076   5.003 -0.6390  2.5789 -1.3901
  163SAPE  C31518297   5.744   5.909   5.037 -0.4368 -0.0953 -0.3804
  163SAPE  H15X18298   5.818   5.836   5.078  0.4658  1.1166  0.2241
  163SAPE  H15Y18299   5.690   5.840   4.968 -0.3429  0.1749 -0.7306
  163SAPE  C31618300   5.650   5.979   5.139  0.3176 -0.2565  0.8517
  163SAPE  H16X18301   5.583   5.909   5.192  0.3728  0.4019  1.8109
  163SAPE  H16Y18302   5.584   6.055   5.092 -0.0137 -0.8858  0.2883
  163SAPE  C31718303   5.733   6.065   5.243 -0.0750 -0.2462  0.3841
  163SAPE  H17X18304   5.667   6.146   5.282  0.5639  0.0572  0.8520
  163SAPE  H17Y18305   5.823   6.114   5.200  2.3677 -2.9978  2.0070
  163SAPE  C31818306   5.778   5.970   5.352  0.2026  0.2218 -0.7025
  163SAPE  H18X18307   5.848   6.013   5.428  1.0154  0.4553 -1.5654
  163SAPE  H18Y18308   5.831   5.880   5.315  1.0112  0.0956  0.6698
  163SAPE  H18Z18309   5.689   5.934   5.407  1.1967 -0.2699  0.6612
  164SAPE     N18310   2.737   0.846   3.099 -0.9176 -0.0278 -0.3143
  164SAPE   HN118311   2.658   0.806   3.154 -0.5816  1.8401  1.6582
  164SAPE   HN218312   2.828   0.818   3.139 -0.9122 -0.9661 -0.9287
  164SAPE   HN318313   2.720   0.948   3.101 -1.7710 -0.1459 -0.8297
  164SAPE   C1218314   2.726   0.792   2.958  0.3407 -0.6426 -0.3913
  164SAPE  H12A18315   2.833   0.781   2.929  0.7104 -1.6998  1.2270
  164SAPE  H12B18316   2.680   0.871   2.895 -1.2381 -1.3506 -0.1826
  164SAPE   C1118317   2.658   0.658   2.960  0.5803 -0.2485  0.2242
  164SAPE  H11A18318   2.703   0.590   3.036 -1.6442 -1.5570  0.4646
  164SAPE  H11B18319   2.691   0.608   2.866  0.2532 -3.3607  1.6082
  164SAPE     P18320   2.411   0.587   2.889  0.2571  0.7926 -0.3358
  164SAPE   O1318321   2.282   0.664   2.880 -0.6669 -0.0156 -0.4014
  164SAPE   O1418322   2.472   0.553   2.754 -0.6123  0.3342 -0.5461
  164SAPE   O1218323   2.516   0.663   2.978  0.1732 -0.1516 -0.4886
  164SAPE   O1118324   2.380   0.459   2.971  0.4195  0.1150 -0.4100
  164SAPE    C118325   2.471   0.363   3.029 -0.5642 -0.6637  1.0595
  164SAPE    HA18326   2.511   0.292   2.954 -0.3903  0.8679 -0.3401
  164SAPE    HB18327   2.551   0.419   3.082 -1.2935  2.1089 -0.5897
  164SAPE    C218328   2.405   0.274   3.139 -0.1098 -0.3242  0.8537
  164SAPE    HS18329   2.313   0.324   3.175 -1.2689 -0.3320 -1.9127
  164SAPE   O2118330   2.497   0.242   3.244 -0.6306 -0.0527 -0.0297
  164SAPE   C2118331   2.515   0.333   3.336  0.2361 -0.4222  0.0557
  164SAPE   O2218332   2.470   0.448   3.337  0.1637  0.0917 -0.5218
  164SAPE   C2218333   2.606   0.271   3.438  0.5930 -0.0440 -0.0052
  164SAPE   H2R18334   2.564   0.182   3.489  1.3072  1.0901  2.7146
  164SAPE   H2S18335   2.693   0.242   3.375  0.5440 -1.6793  0.6506
  164SAPE    C318336   2.354   0.136   3.073 -0.1768 -0.6347 -0.0650
  164SAPE    HX18337   2.438   0.078   3.029 -0.0573 -0.3071 -0.2761
  164SAPE    HY18338   2.289   0.164   2.987  0.6508  1.9896  0.0663
  164SAPE   O3118339   2.280   0.058   3.172 -0.6579 -0.2474  0.3931
  164SAPE   C3118340   2.342  -0.040   3.230  0.5336 -0.1874 -0.1794
  164SAPE   O3218341   2.464  -0.062   3.220  0.1714 -0.8041 -0.0107
  164SAPE   C3218342   2.233  -0.114   3.301  0.5377 -0.5379 -0.1875
  164SAPE   H2X18343   2.268  -0.219   3.304  2.0972 -0.1144 -1.8172
  164SAPE   H2Y18344   2.133  -0.103   3.254 -1.1875 -0.2961  3.2045
  164SAPE   C2318345   2.644   0.369   3.546  0.3993  0.4672 -0.5834
  164SAPE   H3R18346   2.548   0.406   3.588  1.0619 -0.0543  1.5001
  164SAPE   H3S18347   2.692   0.457   3.497 -0.4962  1.3425  0.0583
  164SAPE   C2418348   2.716   0.310   3.666  0.1018  0.0425  0.0299
  164SAPE   H4R18349   2.664   0.216   3.694  1.0555 -0.1943  1.0525
  164SAPE   H4S18350   2.711   0.379   3.753 -1.4652  0.2946 -0.2205
  164SAPE   C2518351   2.859   0.260   3.645 -0.1538  0.0512 -0.0948
  164SAPE   H5R18352   2.887   0.247   3.540  0.3598 -2.5146  0.2848
  164SAPE   C2618353   2.952   0.234   3.747 -0.1639  0.1866 -0.6536
  164SAPE   H6R18354   3.055   0.208   3.718 -0.6558 -1.3125 -1.1158
  164SAPE   C2718355   2.918   0.240   3.891  0.7503 -0.2017  0.1759
  164SAPE   H7R18356   2.878   0.140   3.919  1.4190 -0.5081  0.0557
  164SAPE   H7S18357   2.833   0.306   3.919 -0.1171 -1.4662  0.6232
  164SAPE   C2818358   3.040   0.264   3.975 -0.7216  0.5757 -0.5305
  164SAPE   H8R18359   3.137   0.263   3.922 -0.5588  1.9541 -0.3136
  164SAPE   C2918360   3.042   0.272   4.112 -0.2391 -0.1243 -0.2679
  164SAPE   H9R18361   3.137   0.288   4.165 -1.1019 -2.7278  2.2882
  164SAPE  C21018362   2.919   0.254   4.192 -0.1417  1.2493 -0.2420
  164SAPE  H10R18363   2.896   0.147   4.178  0.5746  1.0028  0.3757
  164SAPE  H10S18364   2.836   0.319   4.156 -0.8116  0.2216 -0.6053
  164SAPE  C21118365   2.926   0.270   4.340  0.0229  0.1229 -0.8088
  164SAPE  H11R18366   2.917   0.175   4.394 -1.3678  0.5791 -0.1876
  164SAPE  C21218367   2.950   0.387   4.404  0.4098 -0.5934  0.1407
  164SAPE  H12R18368   2.967   0.401   4.512 -0.8267  2.2875  0.0494
  164SAPE  C21318369   2.963   0.524   4.346 -0.6470 -0.5223  0.0034
  164SAPE  H13R18370   2.857   0.553   4.325 -0.7496  0.2627  1.4624
  164SAPE  H13S18371   3.017   0.509   4.250 -0.1623 -1.3124  0.3892
  164SAPE  C21418372   3.021   0.641   4.423 -0.7296  0.0469 -0.5579
  164SAPE  H14R18373   2.984   0.638   4.527  0.9291 -1.0534  0.0427
  164SAPE  C21518374   3.088   0.743   4.361  0.8607 -0.1291  0.1605
  164SAPE  H15R18375   3.117   0.836   4.413  0.6805  0.0132  0.0096
  164SAPE  C21618376   3.137   0.760   4.218  0.6973 -0.0910 -0.0690
  164SAPE  H16R18377   3.160   0.673   4.153  1.3103  0.0677 -0.0721
  164SAPE  H16S18378   3.222   0.832   4.218  0.0300  0.7275  0.7836
  164SAPE  C21718379   3.011   0.818   4.135 -0.1292 -0.1676 -0.3158
  164SAPE  H17R18380   2.975   0.910   4.187  1.2266 -0.5685  1.4491
  164SAPE  H17S18381   2.923   0.751   4.134  0.4936 -1.1258  2.0852
  164SAPE  C21818382   3.039   0.857   3.990  0.6654 -1.1521  0.1129
  164SAPE  H18R18383   3.127   0.924   3.983 -0.7558  0.6575 -1.8481
  164SAPE  H18S18384   2.951   0.922   3.971  0.3055 -1.8038 -0.4944
  164SAPE  C21918385   3.040   0.746   3.894  0.2404  0.2661  0.3699
  164SAPE  H19R18386   2.943   0.695   3.912  0.2890  0.0797  0.1124
  164SAPE  H19S18387   3.133   0.685   3.895 -0.2968 -0.5906 -0.6964
  164SAPE  C22018388   3.037   0.798   3.754  0.1064 -0.5011  0.3542
  164SAPE  H20R18389   2.942   0.853   3.740  0.0722 -1.1137 -2.2419
  164SAPE  H20S18390   3.034   0.716   3.679 -0.6081  0.6876 -0.9531
  164SAPE  H20T18391   3.121   0.868   3.737 -0.1450  0.4430  2.6266
  164SAPE   C3318392   2.240  -0.076   3.453  0.1696  0.5964  0.6668
  164SAPE   H3X18393   2.161  -0.130   3.510 -1.0588  2.6002  0.9601
  164SAPE   H3Y18394   2.219   0.031   3.473 -0.7812  0.9390 -1.9092
  164SAPE   C3418395   2.378  -0.082   3.524 -0.3854  0.0874 -0.4734
  164SAPE   H4X18396   2.454  -0.021   3.470  1.6103 -0.3866  1.6680
  164SAPE   H4Y18397   2.425  -0.182   3.516  0.4564  0.4206  0.2100
  164SAPE   C3518398   2.368  -0.050   3.675  0.3236  0.2483 -1.0152
  164SAPE   H5X18399   2.300  -0.129   3.715  0.5480 -0.0756 -1.2669
  164SAPE   H5Y18400   2.316   0.044   3.703 -0.3104 -0.7120  1.2657
  164SAPE   C3618401   2.499  -0.061   3.759 -0.2278  0.6068  0.4174
  164SAPE   H6X18402   2.561   0.024   3.722 -2.0197  2.3033  1.1526
  164SAPE   H6Y18403   2.550  -0.154   3.726 -2.8612 -0.6319 -0.3731
  164SAPE   C3718404   2.482  -0.053   3.910  0.0223  0.0685 -0.4035
  164SAPE   H7X18405   2.395  -0.112   3.944 -1.5035  0.2425 -3.6006
  164SAPE   H7Y18406   2.470   0.050   3.947  3.1060  0.1909  0.6003
  164SAPE   C3818407   2.599  -0.116   3.988  0.2015  0.4023  0.2886
  164SAPE   H8X18408   2.689  -0.059   3.956  1.2401  0.6819  3.3763
  164SAPE   H8Y18409   2.620  -0.220   3.954 -2.2978 -0.9575  2.5522
  164SAPE   C3918410   2.571  -0.108   4.139  0.7379 -0.7742 -0.6338
  164SAPE   H9X18411   2.481  -0.168   4.165  0.3861  0.1554  0.4106
  164SAPE   H9Y18412   2.550  -0.003   4.170  0.8425 -1.3884  1.7495
  164SAPE  C31018413   2.674  -0.167   4.233  0.4737 -0.5676  0.1196
  164SAPE  H10X18414   2.769  -0.113   4.213 -0.1195  1.0428  1.4982
  164SAPE  H10Y18415   2.694  -0.273   4.206 -1.3501 -0.9904  0.3018
  164SAPE  C31118416   2.622  -0.177   4.376 -0.5512  0.6557  0.1258
  164SAPE  H11X18417   2.545  -0.256   4.384 -0.7067  0.8601  0.7204
  164SAPE  H11Y18418   2.573  -0.079   4.397 -0.0809  1.0004 -0.3526
  164SAPE  C31218419   2.733  -0.213   4.482  0.1140  0.2115  0.6326
  164SAPE  H12X18420   2.694  -0.201   4.585  1.3821 -0.5251  1.2151
  164SAPE  H12Y18421   2.815  -0.141   4.465 -2.3820  3.2829  0.7277
  164SAPE  C31318422   2.792  -0.351   4.472 -0.0935 -0.7958 -0.5289
  164SAPE  H13X18423   2.834  -0.372   4.371  1.0088  1.1736 -0.5299
  164SAPE  H13Y18424   2.712  -0.424   4.495 -2.1413  1.4550 -0.1172
  164SAPE  C31418425   2.890  -0.375   4.590  0.8276 -0.4541  0.1930
  164SAPE  H14X18426   2.959  -0.289   4.596  0.8945 -0.5514  0.8985
  164SAPE  H14Y18427   2.953  -0.463   4.563 -0.0255 -0.2107 -3.0142
  164SAPE  C31518428   2.822  -0.380   4.728 -0.3505 -0.2080 -0.1732
  164SAPE  H15X18429   2.736  -0.450   4.716  0.1463 -0.8163 -0.2393
  164SAPE  H15Y18430   2.799  -0.276   4.759 -0.3835 -0.1678 -0.3351
  164SAPE  C31618431   2.920  -0.439   4.831 -0.6402  0.3757 -0.3791
  164SAPE  H16X18432   2.901  -0.381   4.924 -0.6931  1.6351 -1.1400
  164SAPE  H16Y18433   3.025  -0.415   4.803 -1.1397  2.0361 -0.9477
  164SAPE  C31718434   2.902  -0.587   4.861  0.2263  0.1727 -0.2842
  164SAPE  H17X18435   2.984  -0.622   4.927  2.0406  0.8643 -2.0683
  164SAPE  H17Y18436   2.904  -0.644   4.766  0.7265 -1.3311  0.5970
  164SAPE  C31818437   2.776  -0.622   4.943 -0.4848 -0.5607  0.5135
  164SAPE  H18X18438   2.765  -0.732   4.949  3.0922 -1.1845 -1.4810
  164SAPE  H18Y18439   2.684  -0.581   4.898 -1.2441 -1.1233  1.5004
  164SAPE  H18Z18440   2.773  -0.584   5.048 -0.9027  1.3915 -0.1612
  165SAPE     N18441   0.471   0.674   2.927  0.1564  0.3766 -0.6070
  165SAPE   HN118442   0.564   0.647   2.967  0.3729  0.3558 -1.1108
  165SAPE   HN218443   0.446   0.588   2.874 -2.5045  0.5064  0.2813
  165SAPE   HN318444   0.489   0.765   2.880  2.2656  1.1066  1.3504
  165SAPE   C1218445   0.365   0.687   3.029 -0.4979 -0.3371  0.1601
  165SAPE  H12A18446   0.361   0.599   3.097  0.2439 -1.5448 -1.2867
  165SAPE  H12B18447   0.271   0.685   2.970  0.1620 -1.5189 -0.9123
  165SAPE   C1118448   0.387   0.820   3.100 -0.4233 -0.2059  0.1918
  165SAPE  H11A18449   0.476   0.824   3.167  0.4320 -0.8518 -0.8653
  165SAPE  H11B18450   0.303   0.828   3.172 -0.4213 -0.5174  0.2263
  165SAPE     P18451   0.261   0.997   2.949 -0.0525  0.0414  0.5676
  165SAPE   O1318452   0.297   1.132   2.901  0.2984  0.1577  0.6762
  165SAPE   O1418453   0.197   0.908   2.848 -0.5608 -0.5132 -0.2362
  165SAPE   O1218454   0.390   0.935   3.011  0.0439  0.1405 -0.1045
  165SAPE   O1118455   0.163   1.010   3.071  0.1640  0.0436  0.1171
  165SAPE    C118456   0.195   1.080   3.188  0.1585 -1.0734  0.1149
  165SAPE    HA18457   0.272   1.026   3.245  1.8657 -1.4071 -2.3610
  165SAPE    HB18458   0.240   1.178   3.161  1.3727 -1.8423 -0.7209
  165SAPE    C218459   0.072   1.112   3.279  0.3721 -0.0847  0.3559
  165SAPE    HS18460   0.023   1.195   3.224  0.8750 -0.7647 -1.1958
  165SAPE   O2118461   0.119   1.161   3.410 -0.3031  0.2956  0.1415
  165SAPE   C2118462   0.025   1.215   3.474 -1.2041 -0.0132 -0.1995
  165SAPE   O2218463  -0.096   1.217   3.449 -0.0959  0.5111  1.0583
  165SAPE   C2218464   0.093   1.272   3.604 -0.3767 -0.6242  0.3514
  165SAPE   H2R18465   0.195   1.234   3.623 -0.4293 -1.1037 -0.2824
  165SAPE   H2S18466   0.113   1.380   3.589  2.5570 -1.2444 -1.0942
  165SAPE    C318467  -0.023   0.991   3.279 -0.3828 -0.2270  0.6468
  165SAPE    HX18468  -0.051   0.989   3.172 -0.1828  0.3672  0.5802
  165SAPE    HY18469  -0.119   0.995   3.334 -1.0675 -1.6813 -0.3737
  165SAPE   O3118470   0.046   0.872   3.320 -0.1114 -0.2922  0.2391
  165SAPE   C3118471   0.028   0.763   3.247 -0.3496 -0.2976 -0.5545
  165SAPE   O3218472  -0.036   0.760   3.145  0.1523 -0.8957  0.1079
  165SAPE   C3218473   0.096   0.634   3.310  1.0024 -0.3648  0.7204
  165SAPE   H2X18474   0.189   0.628   3.250  1.0344 -1.1391  0.8308
  165SAPE   H2Y18475   0.029   0.552   3.276  4.4547 -2.7310 -0.9306
  165SAPE   C2318476  -0.001   1.253   3.725 -0.5489  0.0051  0.1687
  165SAPE   H3R18477  -0.098   1.306   3.710  0.1093  1.2525  0.1857
  165SAPE   H3S18478   0.058   1.303   3.804 -0.2686  1.9582 -1.2042
  165SAPE   C2418479  -0.006   1.107   3.769 -0.4977 -0.2752 -0.5084
  165SAPE   H4R18480  -0.042   1.052   3.679  0.0676 -0.7085 -0.4739
  165SAPE   H4S18481  -0.086   1.108   3.847  1.1429  2.5492  1.3254
  165SAPE   C2518482   0.126   1.044   3.811 -0.2910 -0.1850  0.5741
  165SAPE   H5R18483   0.207   1.034   3.737 -1.0340 -1.9245 -0.0717
  165SAPE   C2618484   0.161   0.996   3.933  0.2113 -0.5720 -0.7775
  165SAPE   H6R18485   0.259   0.948   3.946  0.3948 -0.2072 -0.7929
  165SAPE   C2718486   0.072   1.006   4.058 -0.0564  1.0837  0.8062
  165SAPE   H7R18487  -0.008   1.081   4.042 -0.8523  0.3852  1.4276
  165SAPE   H7S18488   0.138   1.056   4.131 -0.4896  2.4728  0.2725
  165SAPE   C2818489  -0.011   0.879   4.100 -0.3205 -0.0112 -0.2922
  165SAPE   H8R18490  -0.073   0.824   4.027 -1.4654  0.8954 -0.0236
  165SAPE   C2918491  -0.017   0.832   4.226 -0.6316  0.1903 -0.1501
  165SAPE   H9R18492  -0.077   0.742   4.248  3.2807 -2.5547  0.4499
  165SAPE  C21018493   0.056   0.890   4.341 -0.1711  0.0764  0.5379
  165SAPE  H10R18494   0.121   0.973   4.305 -1.2526  0.1725 -1.3375
  165SAPE  H10S18495   0.131   0.813   4.371 -0.5179 -0.5127 -0.0778
  165SAPE  C21118496  -0.024   0.940   4.459  0.0639 -0.0796 -0.2069
  165SAPE  H11R18497  -0.103   1.007   4.420  0.6888 -0.3860 -2.1366
  165SAPE  C21218498  -0.011   0.901   4.590 -1.0056 -1.2296 -0.4473
  165SAPE  H12R18499  -0.071   0.948   4.669  1.2500 -0.1161  0.6822
  165SAPE  C21318500   0.094   0.812   4.643 -0.4714 -0.7083  0.2455
  165SAPE  H13R18501   0.152   0.749   4.571  2.4412  1.8070  0.1698
  165SAPE  H13S18502   0.043   0.744   4.714 -0.7773  0.9357  1.6524
  165SAPE  C21418503   0.192   0.882   4.725  0.5891  0.0998  0.1050
  165SAPE  H14R18504   0.273   0.918   4.660 -0.8078  1.9289 -0.7177
  165SAPE  C21518505   0.197   0.916   4.856  0.3541 -0.5875  0.4139
  165SAPE  H15R18506   0.291   0.961   4.892 -0.5440  0.8780  1.0355
  165SAPE  C21618507   0.094   0.892   4.966  0.3075  0.2268 -0.8626
  165SAPE  H16R18508   0.001   0.854   4.917  1.1258 -0.7146 -1.7319
  165SAPE  H16S18509   0.071   0.991   5.010  1.1243  1.1614 -2.4188
  165SAPE  C21718510   0.118   0.792   5.081  0.0019  0.4520 -0.3589
  165SAPE  H17R18511   0.031   0.787   5.150 -0.1053  2.4952 -0.2633
  165SAPE  H17S18512   0.201   0.813   5.152  0.3987  1.1763 -1.0231
  165SAPE  C21818513   0.134   0.648   5.028 -0.9765 -0.3543  0.5625
  165SAPE  H18R18514   0.214   0.653   4.951 -2.5481  0.9758 -1.0619
  165SAPE  H18S18515   0.042   0.638   4.966 -1.5323 -0.3631  1.3753
  165SAPE  C21918516   0.146   0.535   5.132 -0.0248 -0.1770 -0.0316
  165SAPE  H19R18517   0.162   0.442   5.074  0.4390  0.0161 -0.2204
  165SAPE  H19S18518   0.062   0.533   5.205  1.3160 -0.3120  1.5591
  165SAPE  C22018519   0.280   0.543   5.211  0.8495 -0.0672 -0.2739
  165SAPE  H20R18520   0.277   0.635   5.274  2.8095 -0.1266 -0.0402
  165SAPE  H20S18521   0.359   0.547   5.134 -0.2510 -1.4134 -1.5184
  165SAPE  H20T18522   0.302   0.457   5.278  2.4489 -0.3369 -1.1012
  165SAPE   C3318523   0.104   0.633   3.465  0.2307  0.2949 -0.0805
  165SAPE   H3X18524   0.184   0.706   3.490  0.9969 -0.1054 -1.2749
  165SAPE   H3Y18525   0.143   0.531   3.485 -0.0261  0.2885  0.4030
  165SAPE   C3418526  -0.025   0.660   3.533  0.2402 -0.3419 -0.1401
  165SAPE   H4X18527  -0.093   0.574   3.513 -0.6659  0.1644  0.6691
  165SAPE   H4Y18528  -0.079   0.746   3.487 -1.1378 -1.1633 -0.1285
  165SAPE   C3518529  -0.012   0.687   3.687 -0.2961  0.6717 -0.2009
  165SAPE   H5X18530  -0.114   0.706   3.726 -0.1719  1.3092 -0.1784
  165SAPE   H5Y18531   0.046   0.777   3.712 -0.7111  1.0741 -0.6518
  165SAPE   C3618532   0.054   0.568   3.749  0.2548  0.4267  0.1806
  165SAPE   H6X18533   0.157   0.548   3.711 -0.2501 -1.9588 -0.0610
  165SAPE   H6Y18534  -0.002   0.478   3.717 -2.1461  2.0499 -0.4167
  165SAPE   C3718535   0.074   0.577   3.903  0.2400  0.4700 -0.8535
  165SAPE   H7X18536  -0.024   0.601   3.950  0.8109  2.6620 -0.6801
  165SAPE   H7Y18537   0.139   0.664   3.924 -0.2012  1.1584 -2.2109
  165SAPE   C3818538   0.127   0.450   3.971 -0.0026 -0.0817 -0.2218
  165SAPE   H8X18539   0.226   0.422   3.928  0.5908 -0.0699  1.1123
  165SAPE   H8Y18540   0.066   0.360   3.952  0.0860 -0.1695 -0.0853
  165SAPE   C3918541   0.149   0.459   4.125  0.7902  0.5287  0.7777
  165SAPE   H9X18542   0.063   0.516   4.169 -1.8566 -2.8248  0.3607
  165SAPE   H9Y18543   0.244   0.515   4.140  0.6401  1.0169 -0.0611
  165SAPE  C31018544   0.160   0.320   4.199 -0.1685  0.4765 -0.5917
  165SAPE  H10X18545   0.230   0.257   4.141 -0.2455 -1.2511  1.1075
  165SAPE  H10Y18546   0.067   0.262   4.177  1.5108 -1.7496 -2.2343
  165SAPE  C31118547   0.181   0.344   4.348  0.3155 -0.3036  0.4152
  165SAPE  H11X18548   0.104   0.415   4.384  0.5277  2.4462 -3.8106
  165SAPE  H11Y18549   0.283   0.386   4.361  0.2356 -0.0325  0.1587
  165SAPE  C31218550   0.176   0.224   4.440  0.2495  0.1698  0.4751
  165SAPE  H12X18551   0.266   0.165   4.412 -0.8631 -0.9920 -0.7847
  165SAPE  H12Y18552   0.089   0.155   4.433 -0.0704  0.6235 -0.1908
  165SAPE  C31318553   0.184   0.270   4.591  0.3111  0.1187  0.5159
  165SAPE  H13X18554   0.090   0.320   4.621  0.8739  0.1857  2.2813
  165SAPE  H13Y18555   0.259   0.351   4.586  0.0341  0.3634  0.3458
  165SAPE  C31418556   0.217   0.154   4.680 -0.5578  0.3641  0.1090
  165SAPE  H14X18557   0.321   0.132   4.648 -0.8702 -0.2719 -0.5179
  165SAPE  H14Y18558   0.149   0.067   4.666 -1.6612  0.7401  2.5770
  165SAPE  C31518559   0.202   0.183   4.832  0.5287  0.2122 -0.4440
  165SAPE  H15X18560   0.097   0.162   4.860  0.5647 -0.1465 -0.5699
  165SAPE  H15Y18561   0.234   0.288   4.844 -2.6318  1.5138 -2.1648
  165SAPE  C31618562   0.295   0.085   4.920 -0.1143 -0.2968 -0.2245
  165SAPE  H16X18563   0.402   0.109   4.900  0.0900 -0.9787  0.0014
  165SAPE  H16Y18564   0.282  -0.016   4.876  1.0202  0.9812 -3.8025
  165SAPE  C31718565   0.268   0.074   5.072  0.7789  0.5957  1.1641
  165SAPE  H17X18566   0.273   0.175   5.118 -0.8978  1.9552 -1.3702
  165SAPE  H17Y18567   0.350   0.017   5.121 -0.4860 -3.2048 -0.7060
  165SAPE  C31818568   0.133   0.002   5.095  0.8253 -0.3363  0.4549
  165SAPE  H18X18569   0.116  -0.001   5.204  0.4270  0.2084  0.4123
  165SAPE  H18Y18570   0.133  -0.095   5.041  2.6963 -0.7365  1.1127
  165SAPE  H18Z18571   0.056   0.074   5.060  1.5047  1.8774  3.1678
  166SAPE     N18572   1.778   1.884   2.354 -0.7308  1.1606 -0.0405
  166SAPE   HN118573   1.849   1.838   2.293 -1.3551  0.0348  0.0613
  166SAPE   HN218574   1.735   1.976   2.329 -0.0024  1.0772 -1.7102
  166SAPE   HN318575   1.845   1.905   2.431  1.0614 -0.9130 -0.9481
  166SAPE   C1218576   1.680   1.774   2.391 -0.8551 -1.2914 -0.4785
  166SAPE  H12A18577   1.741   1.685   2.417  1.1484  0.0034 -0.5074
  166SAPE  H12B18578   1.619   1.745   2.302 -0.6108 -3.2751 -0.0474
  166SAPE   C1118579   1.594   1.813   2.508  0.1941  0.1440 -0.0405
  166SAPE  H11A18580   1.532   1.726   2.539  3.1071 -2.0217  0.2132
  166SAPE  H11B18581   1.519   1.886   2.472 -2.5670 -1.4762  1.9731
  166SAPE     P18582   1.727   1.779   2.729 -0.1116 -0.2150 -0.0657
  166SAPE   O1318583   1.795   1.659   2.682  0.2920  0.3808  0.0425
  166SAPE   O1418584   1.794   1.861   2.833 -0.6997 -0.4548  0.1946
  166SAPE   O1218585   1.676   1.869   2.613  0.3798 -0.0326 -0.7847
  166SAPE   O1118586   1.594   1.732   2.795  0.4209 -0.2428 -0.2150
  166SAPE    C118587   1.482   1.816   2.814  0.0580 -0.0107  0.7287
  166SAPE    HA18588   1.491   1.916   2.767 -1.1907  1.2070  2.8928
  166SAPE    HB18589   1.391   1.770   2.771 -0.0643 -2.1257  3.0555
  166SAPE    C218590   1.454   1.840   2.962  0.4292 -0.4204 -0.7722
  166SAPE    HS18591   1.364   1.905   2.971  1.4307  0.9416 -0.1738
  166SAPE   O2118592   1.558   1.908   3.031 -0.0130  0.1094  1.2895
  166SAPE   C2118593   1.555   2.037   3.031 -0.6244 -0.4893 -0.0677
  166SAPE   O2218594   1.467   2.103   2.980  0.4609 -0.2272  0.0002
  166SAPE   C2218595   1.687   2.077   3.091  0.2983  0.3885 -0.2184
  166SAPE   H2R18596   1.753   1.990   3.109  0.4341  0.2881 -1.1632
  166SAPE   H2S18597   1.732   2.137   3.009  0.6938 -2.3566 -2.1208
  166SAPE    C318598   1.424   1.709   3.045 -0.1944 -0.0588  0.9026
  166SAPE    HX18599   1.497   1.635   3.006 -0.4755  0.9200 -1.6860
  166SAPE    HY18600   1.331   1.656   3.019  0.6057 -0.8496 -0.4974
  166SAPE   O3118601   1.427   1.731   3.186 -0.7704  0.7359 -0.2125
  166SAPE   C3118602   1.474   1.625   3.261  0.0456 -0.4070  0.4302
  166SAPE   O3218603   1.495   1.513   3.220 -0.2664  0.0213  0.0783
  166SAPE   C3218604   1.500   1.673   3.404 -0.3661  0.1116 -0.4266
  166SAPE   H2X18605   1.420   1.750   3.415 -0.6947 -0.0928 -1.3394
  166SAPE   H2Y18606   1.596   1.723   3.427 -0.1082 -0.7539  0.4270
  166SAPE   C2318607   1.669   2.163   3.217 -0.3334 -0.3361 -0.5772
  166SAPE   H3R18608   1.592   2.239   3.196  0.9063  0.8847 -0.8352
  166SAPE   H3S18609   1.757   2.217   3.258  0.8157 -2.4692 -0.0776
  166SAPE   C2418610   1.625   2.074   3.331  0.0981 -0.3869 -0.0018
  166SAPE   H4R18611   1.557   1.998   3.287 -0.1941  0.2837 -0.7428
  166SAPE   H4S18612   1.567   2.145   3.394 -0.6792 -0.7877 -0.2493
  166SAPE   C2518613   1.745   1.999   3.393 -0.7684 -0.5705  0.2722
  166SAPE   H5R18614   1.795   1.916   3.340 -0.1140 -1.0241  1.5569
  166SAPE   C2618615   1.781   2.019   3.522  0.1867  0.6230  0.6935
  166SAPE   H6R18616   1.865   1.960   3.562  1.1272  0.9159 -0.7661
  166SAPE   C2718617   1.732   2.132   3.610 -0.1698  0.2248 -0.5697
  166SAPE   H7R18618   1.699   2.220   3.550 -1.4667  0.0898 -0.0914
  166SAPE   H7S18619   1.828   2.166   3.655  0.6341 -1.5307 -0.8811
  166SAPE   C2818620   1.614   2.111   3.699 -0.7011  0.0747 -0.1613
  166SAPE   H8R18621   1.516   2.092   3.652 -2.1988 -1.0123  3.1292
  166SAPE   C2918622   1.620   2.123   3.833 -0.1365 -0.1707 -0.6560
  166SAPE   H9R18623   1.521   2.113   3.881  0.6701  0.1645  1.1277
  166SAPE  C21018624   1.739   2.180   3.914  0.3364 -0.1423  0.3307
  166SAPE  H10R18625   1.690   2.206   4.010  1.7151 -0.2192  1.0922
  166SAPE  H10S18626   1.786   2.271   3.872 -2.0381  0.8103 -0.4060
  166SAPE  C21118627   1.845   2.074   3.934 -1.1923 -0.5230 -0.0712
  166SAPE  H11R18628   1.877   2.027   3.840 -4.0954  0.2487 -1.5497
  166SAPE  C21218629   1.901   2.045   4.052  0.8435 -0.3373  0.2488
  166SAPE  H12R18630   1.969   1.960   4.068  0.8504  0.0810  2.8659
  166SAPE  C21318631   1.869   2.101   4.188  0.8201  0.5545 -0.1243
  166SAPE  H13R18632   1.886   2.211   4.188 -0.1245  0.7124  0.4938
  166SAPE  H13S18633   1.943   2.059   4.260  1.2778  0.0167 -0.8922
  166SAPE  C21418634   1.727   2.065   4.239 -0.1653 -0.2942 -0.0753
  166SAPE  H14R18635   1.659   2.025   4.163  0.4305 -0.5253 -0.4925
  166SAPE  C21518636   1.667   2.085   4.358 -0.2742 -0.1135  0.7244
  166SAPE  H15R18637   1.559   2.064   4.368 -1.0152  2.7003 -0.4892
  166SAPE  C21618638   1.739   2.144   4.476  0.2579  0.2172  0.1676
  166SAPE  H16R18639   1.679   2.234   4.499  0.3119  0.8703 -2.0403
  166SAPE  H16S18640   1.839   2.180   4.444  0.4328  0.5900  1.1170
  166SAPE  C21718641   1.750   2.064   4.607  0.7187 -0.8873 -0.0497
  166SAPE  H17R18642   1.801   2.132   4.679  1.5607  0.6447 -1.9861
  166SAPE  H17S18643   1.804   1.968   4.595 -0.0633 -1.1703 -1.5332
  166SAPE  C21818644   1.614   2.042   4.675  0.6131 -0.4326  0.3470
  166SAPE  H18R18645   1.541   2.123   4.653  1.1320  1.1253  3.6962
  166SAPE  H18S18646   1.624   2.055   4.785  0.2782  0.7273  0.2631
  166SAPE  C21918647   1.543   1.908   4.656 -0.6308 -0.3949 -0.2204
  166SAPE  H19R18648   1.601   1.837   4.719 -0.4035  1.8548  2.2878
  166SAPE  H19S18649   1.533   1.879   4.549 -4.0018 -2.2514  0.4451
  166SAPE  C22018650   1.401   1.919   4.715 -0.1597 -0.0329  0.2290
  166SAPE  H20R18651   1.339   1.993   4.660 -0.9803  1.7943  3.3288
  166SAPE  H20S18652   1.417   1.955   4.819  2.1643 -1.4317  0.4154
  166SAPE  H20T18653   1.357   1.818   4.724  0.2180 -0.2158  0.0318
  166SAPE   C3318654   1.477   1.557   3.498  0.0728 -0.0963 -0.3228
  166SAPE   H3X18655   1.564   1.488   3.488 -0.7054 -1.4469  1.6777
  166SAPE   H3Y18656   1.392   1.497   3.459 -0.2063  0.2280 -0.2230
  166SAPE   C3418657   1.464   1.600   3.647  0.6681  0.5302  0.0498
  166SAPE   H4X18658   1.417   1.508   3.689 -1.3276  0.4790 -2.0837
  166SAPE   H4Y18659   1.400   1.690   3.662 -0.2369  0.2046 -1.6107
  166SAPE   C3518660   1.598   1.631   3.709  0.8555 -0.1870  0.1661
  166SAPE   H5X18661   1.636   1.727   3.669  1.7215 -1.1951 -1.5135
  166SAPE   H5Y18662   1.673   1.556   3.677 -0.5795 -1.0715 -1.2678
  166SAPE   C3618663   1.584   1.644   3.865  0.6270 -0.5680 -0.5076
  166SAPE   H6X18664   1.681   1.681   3.905  0.4936  0.1376 -0.8078
  166SAPE   H6Y18665   1.572   1.546   3.916 -1.0904 -0.1618 -0.0748
  166SAPE   C3718666   1.480   1.755   3.924 -0.3574  0.9786 -0.2415
  166SAPE   H7X18667   1.379   1.765   3.879  0.6010  1.2871 -2.4697
  166SAPE   H7Y18668   1.539   1.847   3.902 -0.4437  0.9021 -0.8233
  166SAPE   C3818669   1.450   1.758   4.076  0.9043  0.0065 -0.1872
  166SAPE   H8X18670   1.386   1.843   4.109  0.1219 -0.8627  0.6292
  166SAPE   H8Y18671   1.538   1.755   4.143  0.3984 -0.2951  0.4754
  166SAPE   C3918672   1.375   1.629   4.112 -0.1974  0.1810  0.8109
  166SAPE   H9X18673   1.442   1.543   4.093 -0.2409  0.7489 -2.4813
  166SAPE   H9Y18674   1.290   1.611   4.043 -0.5198  0.4713  1.1290
  166SAPE  C31018675   1.314   1.623   4.263 -0.0103  0.6578  0.3751
  166SAPE  H10X18676   1.270   1.522   4.272  1.3275  0.0644  0.3751
  166SAPE  H10Y18677   1.227   1.692   4.278  1.5944  2.9019 -0.0967
  166SAPE  C31118678   1.421   1.639   4.374 -0.4543  0.0780  0.7293
  166SAPE  H11X18679   1.443   1.745   4.396  3.2704  0.0226 -1.7877
  166SAPE  H11Y18680   1.512   1.594   4.327  0.3153  2.4327 -0.1783
  166SAPE  C31218681   1.373   1.558   4.504  0.4902 -0.5443  0.7119
  166SAPE  H12X18682   1.345   1.457   4.469 -0.6179  0.9841 -3.2971
  166SAPE  H12Y18683   1.286   1.614   4.545  0.3799  1.2173 -1.7189
  166SAPE  C31318684   1.483   1.540   4.612 -0.1844 -0.1331 -0.0566
  166SAPE  H13X18685   1.509   1.632   4.669  1.0589 -0.0838 -0.6586
  166SAPE  H13Y18686   1.574   1.510   4.556 -0.1992  0.4900 -0.4258
  166SAPE  C31418687   1.457   1.427   4.709 -0.3459  0.8049 -0.2060
  166SAPE  H14X18688   1.420   1.336   4.658 -0.8009  1.3397 -0.8404
  166SAPE  H14Y18689   1.375   1.446   4.781  0.5212 -2.6865  1.9844
  166SAPE  C31518690   1.586   1.412   4.790 -0.6231  0.0174  0.0733
  166SAPE  H15X18691   1.617   1.507   4.840  0.0924 -0.5581  0.7519
  166SAPE  H15Y18692   1.670   1.370   4.731 -1.7046 -1.1002 -0.7061
  166SAPE  C31618693   1.571   1.308   4.907  0.6915  0.0769 -0.0788
  166SAPE  H16X18694   1.530   1.216   4.861  0.3066  1.2217 -2.1405
  166SAPE  H16Y18695   1.487   1.353   4.964  0.8894  0.1621  0.1531
  166SAPE  C31718696   1.696   1.291   4.996  0.4684 -0.5466  0.8460
  166SAPE  H17X18697   1.700   1.386   5.054  1.6143  0.7619 -1.2802
  166SAPE  H17Y18698   1.784   1.305   4.930 -1.7129  1.2463 -1.8946
  166SAPE  C31818699   1.697   1.176   5.094  0.2527 -0.2674  0.2583
  166SAPE  H18X18700   1.755   1.181   5.188  0.7850 -2.1035  0.0463
  166SAPE  H18Y18701   1.724   1.083   5.039  0.9786 -0.8383  1.5482
  166SAPE  H18Z18702   1.591   1.150   5.115 -0.1365  1.2903  0.3990
  167SAPE     N18703   1.909   0.621   3.020  0.2129  0.0046  0.3630
  167SAPE   HN118704   1.969   0.537   3.003 -0.4431 -0.0667 -1.9398
  167SAPE   HN218705   1.940   0.698   2.958  2.0510 -0.3108  0.8184
  167SAPE   HN318706   1.917   0.653   3.119 -0.6061  0.7785  0.1886
  167SAPE   C1218707   1.770   0.592   2.974  0.5946  0.0512  0.4711
  167SAPE  H12A18708   1.764   0.599   2.864 -0.0886 -0.5976  0.4576
  167SAPE  H12B18709   1.701   0.670   3.015  1.4482  2.6380 -2.6276
  167SAPE   C1118710   1.722   0.449   3.008  0.4360  0.0106 -0.2101
  167SAPE  H11A18711   1.620   0.445   2.966 -0.6364  3.0552  1.8105
  167SAPE  H11B18712   1.710   0.436   3.118 -0.4072  1.5304 -0.1067
  167SAPE     P18713   1.782   0.189   2.972  0.0843 -0.5864 -0.2620
  167SAPE   O1318714   1.646   0.153   2.931 -0.2760  0.2832  0.6100
  167SAPE   O1418715   1.884   0.106   2.909 -0.3960 -0.1320 -0.3720
  167SAPE   O1218716   1.802   0.344   2.950 -0.2499  0.1565 -0.0547
  167SAPE   O1118717   1.781   0.175   3.127 -0.4551  0.4353 -0.3283
  167SAPE    C118718   1.894   0.218   3.204  0.3215  0.1276 -0.1116
  167SAPE    HA18719   1.990   0.176   3.168 -1.3244 -3.2995 -0.9538
  167SAPE    HB18720   1.910   0.328   3.202 -0.1106  0.2128  0.5262
  167SAPE    C218721   1.876   0.183   3.353  0.0634  0.5073  0.4486
  167SAPE    HS18722   1.798   0.244   3.404 -1.5003 -1.2130  0.2319
  167SAPE   O2118723   2.001   0.209   3.419  0.4788 -0.3469 -0.3833
  167SAPE   C2118724   2.024   0.343   3.437  0.2873  0.5811 -0.4287
  167SAPE   O2218725   1.945   0.432   3.408  0.3282  0.5476 -0.1438
  167SAPE   C2218726   2.163   0.367   3.495  0.0737  0.2626 -0.1393
  167SAPE   H2R18727   2.203   0.281   3.553  1.1949  0.8523 -0.0136
  167SAPE   H2S18728   2.225   0.378   3.403  1.1099 -1.8450  0.2559
  167SAPE    C318729   1.832   0.031   3.380  0.1137  0.6690 -0.1899
  167SAPE    HX18730   1.852  -0.022   3.285 -1.1006  0.8887 -0.5841
  167SAPE    HY18731   1.721   0.028   3.389  0.1851 -1.0424  0.5629
  167SAPE   O3118732   1.898  -0.029   3.490 -0.5183 -0.1898 -0.2487
  167SAPE   C3118733   1.858   0.001   3.611 -0.1261 -1.0832 -0.2157
  167SAPE   O3218734   1.765   0.080   3.638  0.4015  0.9908 -0.4387
  167SAPE   C3218735   1.957  -0.054   3.713  0.3098  0.3802 -0.4346
  167SAPE   H2X18736   2.012   0.036   3.749 -1.9903  2.0575 -0.8748
  167SAPE   H2Y18737   2.030  -0.120   3.661 -0.6207 -0.2941 -0.9230
  167SAPE   C2318738   2.159   0.486   3.586  0.1640 -0.5162  0.0348
  167SAPE   H3R18739   2.085   0.563   3.557  0.5666  0.1972  0.8422
  167SAPE   H3S18740   2.262   0.528   3.576 -0.6929  1.7087  0.0348
  167SAPE   C2418741   2.115   0.451   3.731  0.0120 -0.2928  0.3197
  167SAPE   H4R18742   2.023   0.392   3.715  0.1387 -0.7108  1.0725
  167SAPE   H4S18743   2.095   0.542   3.791 -0.3388 -1.0820  1.4261
  167SAPE   C2518744   2.218   0.366   3.806 -0.8537 -0.0706 -0.8609
  167SAPE   H5R18745   2.315   0.352   3.756  0.3373  1.5881  0.7994
  167SAPE   C2618746   2.193   0.291   3.920 -0.2660 -0.3775 -0.2399
  167SAPE   H6R18747   2.273   0.237   3.974 -0.0138 -1.3390 -1.5370
  167SAPE   C2718748   2.065   0.294   4.002  1.1916  0.0015  0.5762
  167SAPE   H7R18749   2.034   0.187   4.003 -1.2354  0.5924 -1.0570
  167SAPE   H7S18750   1.971   0.338   3.963  0.5855 -1.6126  0.1012
  167SAPE   C2818751   2.073   0.353   4.144  0.0931 -0.5470  0.4000
  167SAPE   H8R18752   2.057   0.462   4.147 -2.5942 -0.6102 -3.5302
  167SAPE   C2918753   2.103   0.279   4.251 -0.2928  1.0378 -0.4674
  167SAPE   H9R18754   2.106   0.324   4.351  1.1895  0.1156 -0.0527
  167SAPE  C21018755   2.128   0.125   4.253  0.5170 -0.6279  0.4226
  167SAPE  H10R18756   2.177   0.086   4.162 -0.7442 -1.9201  0.2590
  167SAPE  H10S18757   2.026   0.080   4.253  0.1933 -0.3181 -4.1248
  167SAPE  C21118758   2.205   0.080   4.377  0.4527  0.3156  0.0579
  167SAPE  H11R18759   2.314   0.071   4.364  0.3697 -0.5530 -0.0689
  167SAPE  C21218760   2.136   0.032   4.492 -0.5154 -0.0712  0.0578
  167SAPE  H12R18761   2.193  -0.014   4.574  3.0119 -1.7304 -3.0660
  167SAPE  C21318762   1.990   0.026   4.516 -0.1648  0.2170 -0.9463
  167SAPE  H13R18763   1.942   0.004   4.419 -0.0729 -1.0043 -0.7296
  167SAPE  H13S18764   1.961   0.130   4.543  0.3636  0.4063 -1.0918
  167SAPE  C21418765   1.947  -0.072   4.629  0.4568 -0.1755  0.4874
  167SAPE  H14R18766   2.025  -0.134   4.674  1.2003  1.3534  1.3897
  167SAPE  C21518767   1.824  -0.083   4.675  0.0883  0.2448  0.2077
  167SAPE  H15R18768   1.805  -0.160   4.752 -3.4479 -1.0458 -1.7235
  167SAPE  C21618769   1.709   0.010   4.641  0.4664 -0.4437 -0.1322
  167SAPE  H16R18770   1.659  -0.036   4.553 -1.7180 -3.7087  2.5466
  167SAPE  H16S18771   1.747   0.109   4.607  1.4153 -1.1730 -1.2700
  167SAPE  C21718772   1.608   0.033   4.762  0.0096  0.3419 -0.2224
  167SAPE  H17R18773   1.585  -0.062   4.815  2.0815 -1.4815 -2.3463
  167SAPE  H17S18774   1.519   0.090   4.727 -0.1687 -1.0777 -2.2770
  167SAPE  C21818775   1.677   0.115   4.879 -0.0143  0.2790  0.8289
  167SAPE  H18R18776   1.711   0.213   4.838  0.4356 -0.7615 -1.4366
  167SAPE  H18S18777   1.765   0.053   4.908  0.3277  0.3302 -0.0713
  167SAPE  C21918778   1.587   0.149   4.994  0.3290 -0.1425  0.0731
  167SAPE  H19R18779   1.644   0.197   5.077 -2.0618 -1.1482  2.4299
  167SAPE  H19S18780   1.545   0.055   5.035  1.2810 -0.1764  1.0262
  167SAPE  C22018781   1.470   0.243   4.949  0.3284  0.6817  0.1335
  167SAPE  H20R18782   1.428   0.296   5.038  1.1962  1.0790  0.3206
  167SAPE  H20S18783   1.387   0.189   4.900 -1.4453  0.4004  3.1514
  167SAPE  H20T18784   1.503   0.326   4.883 -1.1941 -0.4808 -2.2134
  167SAPE   C3318785   1.884  -0.137   3.816 -0.1183  0.0030  0.1531
  167SAPE   H3X18786   1.818  -0.214   3.772  0.1227  0.0658 -0.3235
  167SAPE   H3Y18787   1.814  -0.074   3.875  1.9228  1.1001  1.5568
  167SAPE   C3418788   1.975  -0.219   3.918 -0.2039  0.4125  0.0530
  167SAPE   H4X18789   2.042  -0.292   3.866  0.7565  1.0352  0.3835
  167SAPE   H4Y18790   1.908  -0.276   3.985 -0.4372  1.1876  0.4838
  167SAPE   C3518791   2.057  -0.134   4.017  0.0958 -0.0550  0.3009
  167SAPE   H5X18792   1.985  -0.060   4.060 -0.5551  0.0439 -0.9159
  167SAPE   H5Y18793   2.138  -0.086   3.958 -1.3471 -1.1961 -2.7872
  167SAPE   C3618794   2.117  -0.211   4.137 -0.0705  0.0011 -0.5339
  167SAPE   H6X18795   2.032  -0.243   4.201 -0.7964  0.6967 -1.1289
  167SAPE   H6Y18796   2.177  -0.154   4.212  0.9415 -3.3402  1.3822
  167SAPE   C3718797   2.210  -0.336   4.101  0.1518  0.3119 -0.3443
  167SAPE   H7X18798   2.275  -0.292   4.023 -1.9101  1.0342 -1.7383
  167SAPE   H7Y18799   2.142  -0.409   4.052  0.6915 -0.1381 -0.4399
  167SAPE   C3818800   2.286  -0.394   4.217  0.1924 -0.4908 -0.7712
  167SAPE   H8X18801   2.215  -0.432   4.293 -0.5549  0.0707 -1.1675
  167SAPE   H8Y18802   2.353  -0.319   4.264  0.2063 -0.4568 -0.8445
  167SAPE   C3918803   2.383  -0.502   4.174 -0.3955  0.0128  0.2589
  167SAPE   H9X18804   2.458  -0.451   4.109  0.9886 -0.3490  1.5035
  167SAPE   H9Y18805   2.338  -0.592   4.129 -3.5195  0.2478  2.5798
  167SAPE  C31018806   2.476  -0.543   4.287 -0.3078 -0.3220  0.1353
  167SAPE  H10X18807   2.512  -0.452   4.341  2.6996 -1.1283 -0.3281
  167SAPE  H10Y18808   2.565  -0.600   4.254 -0.1388  0.3037 -0.5123
  167SAPE  C31118809   2.403  -0.640   4.382 -0.0290 -0.4947 -0.2705
  167SAPE  H11X18810   2.403  -0.736   4.326  0.1242 -1.0607  0.6726
  167SAPE  H11Y18811   2.304  -0.596   4.404  0.8099  1.5789 -0.4573
  167SAPE  C31218812   2.483  -0.683   4.512 -1.1633 -0.1577 -1.0543
  167SAPE  H12X18813   2.524  -0.589   4.556 -0.8859 -0.3680 -0.8661
  167SAPE  H12Y18814   2.574  -0.730   4.470 -0.6722  0.0342 -0.2181
  167SAPE  C31318815   2.405  -0.770   4.608 -0.0012  0.1456  1.2103
  167SAPE  H13X18816   2.376  -0.868   4.564  0.3171  0.5770  0.0089
  167SAPE  H13Y18817   2.318  -0.706   4.631 -1.6419 -2.1936  1.9137
  167SAPE  C31418818   2.487  -0.805   4.728  0.6189 -0.0549 -0.6476
  167SAPE  H14X18819   2.417  -0.847   4.803  0.1009  1.4724 -0.2431
  167SAPE  H14Y18820   2.530  -0.715   4.777  0.2527 -0.1610 -0.1282
  167SAPE  C31518821   2.604  -0.899   4.704 -0.0442  0.3689 -0.8766
  167SAPE  H15X18822   2.697  -0.841   4.686 -0.3501  0.7207 -1.3548
  167SAPE  H15Y18823   2.575  -0.957   4.614 -1.0456  0.5474 -0.6740
  167SAPE  C31618824   2.649  -0.992   4.817  0.6250  0.2874  0.4478
  167SAPE  H16X18825   2.562  -1.053   4.851  0.6036  1.6083  3.0027
  167SAPE  H16Y18826   2.687  -0.926   4.897  1.2561  2.4232 -1.5174
  167SAPE  C31718827   2.765  -1.078   4.764  0.2266  0.3247 -0.0314
  167SAPE  H17X18828   2.767  -1.063   4.654  2.2472 -0.5605 -0.1490
  167SAPE  H17Y18829   2.734  -1.181   4.792  2.4227 -0.0980  1.0861
  167SAPE  C31818830   2.901  -1.040   4.811 -0.3375 -0.5187 -0.3233
  167SAPE  H18X18831   2.919  -1.074   4.915 -0.0432  1.4857  0.3393
  167SAPE  H18Y18832   2.913  -0.930   4.801 -2.0152 -0.2323  0.4152
  167SAPE  H18Z18833   2.972  -1.098   4.748  0.3360 -1.4197  1.2150
  168SAPE     N18834   5.339   6.797   2.816  0.0202  0.0981  0.2219
  168SAPE   HN118835   5.336   6.714   2.753 -1.8916 -0.3176  0.8171
  168SAPE   HN218836   5.310   6.762   2.909  1.1527 -2.0852 -0.1695
  168SAPE   HN318837   5.266   6.863   2.783  0.7131  0.7630 -0.0225
  168SAPE   C1218838   5.482   6.859   2.810  1.2147 -0.5520  0.4787
  168SAPE  H12A18839   5.486   6.895   2.705  0.1599  1.8734  1.1787
  168SAPE  H12B18840   5.559   6.783   2.838  0.2332 -0.4171  4.0343
  168SAPE   C1118841   5.483   6.981   2.907 -0.0796  0.1645 -0.2829
  168SAPE  H11A18842   5.409   7.059   2.879 -0.5455  0.7842  2.3774
  168SAPE  H11B18843   5.586   7.022   2.901  1.4264 -3.4492 -2.0450
  168SAPE     P18844   5.405   7.028   3.160  0.4526  0.0005  0.0522
  168SAPE   O1318845   5.428   7.164   3.123 -0.0933 -0.2529 -0.6253
  168SAPE   O1418846   5.267   6.992   3.202  0.9722 -0.2816  0.2654
  168SAPE   O1218847   5.453   6.935   3.038 -0.6071  0.0498  0.0013
  168SAPE   O1118848   5.507   6.971   3.263  0.0664  0.1549  0.0766
  168SAPE    C118849   5.506   7.012   3.397  0.4255 -0.6003 -0.5240
  168SAPE    HA18850   5.613   7.014   3.426  0.0481  0.2529  0.8908
  168SAPE    HB18851   5.458   7.111   3.413 -2.9716 -2.2215  0.2656
  168SAPE    C218852   5.440   6.900   3.485  0.9341 -0.5260  0.3975
  168SAPE    HS18853   5.334   6.901   3.451  0.4034  1.5183  1.9163
  168SAPE   O2118854   5.446   6.925   3.627 -0.1385  0.2225  0.3376
  168SAPE   C2118855   5.382   7.029   3.671  0.2045  0.1962 -0.1392
  168SAPE   O2218856   5.308   7.098   3.608  1.1958 -0.0603  0.1597
  168SAPE   C2218857   5.413   7.066   3.816 -0.0653  0.3295  0.0911
  168SAPE   H2R18858   5.384   6.981   3.881  2.3049 -0.0391  0.7601
  168SAPE   H2S18859   5.523   7.068   3.829 -0.0105 -1.1910 -0.0054
  168SAPE    C318860   5.495   6.763   3.457  0.4140 -0.1447 -0.2313
  168SAPE    HX18861   5.600   6.745   3.489  0.1495 -2.2640 -0.3725
  168SAPE    HY18862   5.494   6.739   3.348  0.0546  0.8006 -0.4478
  168SAPE   O3118863   5.408   6.659   3.516 -0.1190  0.2954  0.1997
  168SAPE   C3118864   5.451   6.586   3.621 -0.5385  0.3491  0.7493
  168SAPE   O3218865   5.565   6.567   3.650 -0.7332  0.0024 -0.2095
  168SAPE   C3218866   5.335   6.523   3.689  0.2260  0.4354 -0.0914
  168SAPE   H2X18867   5.358   6.415   3.696 -0.0043  0.4699  2.3211
  168SAPE   H2Y18868   5.232   6.541   3.651 -1.0729  0.8367  3.2472
  168SAPE   C2318869   5.337   7.185   3.877 -0.5506  0.5343  0.4904
  168SAPE   H3R18870   5.229   7.159   3.868 -0.1151 -0.8597 -1.6864
  168SAPE   H3S18871   5.356   7.278   3.818  0.8258 -0.0226  0.0133
  168SAPE   C2418872   5.369   7.200   4.020 -0.7866 -0.0923  0.0161
  168SAPE   H4R18873   5.469   7.246   4.035 -0.2904 -1.5286  1.2372
  168SAPE   H4S18874   5.368   7.100   4.067  1.1832 -0.1986 -0.1045
  168SAPE   C2518875   5.258   7.286   4.079  0.1375 -0.6531  0.3699
  168SAPE   H5R18876   5.158   7.254   4.046  0.3275  0.1610 -1.0754
  168SAPE   C2618877   5.276   7.389   4.169 -0.8130  0.2500 -0.1853
  168SAPE   H6R18878   5.187   7.446   4.202 -2.2806 -0.5982 -2.4411
  168SAPE   C2718879   5.413   7.419   4.217  0.2144  0.0055  0.0662
  168SAPE   H7R18880   5.477   7.466   4.139  3.6539 -4.6147 -0.3582
  168SAPE   H7S18881   5.469   7.327   4.244  1.3573 -0.0998 -2.3652
  168SAPE   C2818882   5.414   7.511   4.342 -0.1967  0.2561 -0.6422
  168SAPE   H8R18883   5.430   7.617   4.316  1.7122 -0.5140 -3.0813
  168SAPE   C2918884   5.406   7.461   4.466 -0.7704 -0.9056 -0.5843
  168SAPE   H9R18885   5.399   7.538   4.544 -0.3451  0.4201 -1.8163
  168SAPE  C21018886   5.386   7.325   4.513  0.7503 -0.4561  0.8683
  168SAPE  H10R18887   5.430   7.315   4.614  1.2311  2.9593  1.1121
  168SAPE  H10S18888   5.442   7.251   4.451  0.6856 -0.3448  0.6737
  168SAPE  C21118889   5.234   7.289   4.506  0.4375  0.1468 -0.2193
  168SAPE  H11R18890   5.206   7.256   4.406 -0.7424 -1.5197  0.6217
  168SAPE  C21218891   5.154   7.283   4.616  0.6796  0.4427 -0.0364
  168SAPE  H12R18892   5.047   7.266   4.595  0.5190  0.3254  0.8378
  168SAPE  C21318893   5.201   7.296   4.761  0.6073  0.3144 -0.2171
  168SAPE  H13R18894   5.207   7.404   4.784 -1.6956  0.2598  0.9466
  168SAPE  H13S18895   5.303   7.255   4.775  0.8184  1.1813  0.8951
  168SAPE  C21418896   5.116   7.227   4.870  0.3883  0.2130  0.1237
  168SAPE  H14R18897   5.019   7.193   4.832 -0.2855  0.2155  1.7642
  168SAPE  C21518898   5.147   7.206   4.998 -0.2518 -0.1495 -0.6887
  168SAPE  H15R18899   5.075   7.141   5.050 -1.3513  1.6045  0.0674
  168SAPE  C21618900   5.274   7.244   5.071 -0.1074  0.4794  0.9726
  168SAPE  H16R18901   5.309   7.338   5.022 -0.5418 -0.3391 -0.9861
  168SAPE  H16S18902   5.363   7.178   5.073  0.1774  0.7997 -0.2073
  168SAPE  C21718903   5.240   7.283   5.217  0.5575  0.2645  0.4067
  168SAPE  H17R18904   5.162   7.362   5.214  0.2377 -0.0540  0.3244
  168SAPE  H17S18905   5.333   7.329   5.256  1.2312  0.7680 -1.6897
  168SAPE  C21818906   5.210   7.168   5.309  0.0877 -0.4776 -0.3317
  168SAPE  H18R18907   5.172   7.077   5.257 -1.1098 -0.5564  0.6273
  168SAPE  H18S18908   5.125   7.189   5.378 -0.2889 -0.5699 -0.7609
  168SAPE  C21918909   5.337   7.135   5.390 -0.8438  1.5639 -0.1976
  168SAPE  H19R18910   5.382   7.232   5.420  2.3600 -0.0506  0.6057
  168SAPE  H19S18911   5.417   7.099   5.322  0.1314  2.3533  0.5156
  168SAPE  C22018912   5.323   7.021   5.491 -0.5648 -0.0755 -0.0801
  168SAPE  H20R18913   5.323   6.918   5.449 -0.5032 -0.4169  0.7450
  168SAPE  H20S18914   5.226   7.041   5.541 -0.8601  0.4182 -0.8303
  168SAPE  H20T18915   5.413   7.018   5.556 -1.6646 -1.6089  1.4500
  168SAPE   C3318916   5.336   6.570   3.838  0.0466 -0.3301  0.6960
  168SAPE   H3X18917   5.234   6.553   3.877 -1.5063  2.4707 -1.7854
  168SAPE   H3Y18918   5.345   6.681   3.833 -1.8629 -0.2047 -2.0570
  168SAPE   C3418919   5.446   6.511   3.932 -0.7270  0.6025  0.4698
  168SAPE   H4X18920   5.542   6.546   3.889 -0.9684 -0.0750 -0.6816
  168SAPE   H4Y18921   5.433   6.401   3.939 -0.2579  0.3005 -2.2914
  168SAPE   C3518922   5.437   6.563   4.075  0.2725  0.1215 -0.3644
  168SAPE   H5X18923   5.330   6.559   4.102  0.1533 -0.7230 -0.9459
  168SAPE   H5Y18924   5.459   6.672   4.078 -2.2301  0.6834  1.2036
  168SAPE   C3618925   5.529   6.484   4.168 -0.1417  0.1783 -0.0277
  168SAPE   H6X18926   5.636   6.501   4.145  0.0895 -0.8413  0.2376
  168SAPE   H6Y18927   5.506   6.375   4.163 -2.3307  0.6389 -1.1862
  168SAPE   C3718928   5.490   6.511   4.311  0.5570  0.3445  0.3819
  168SAPE   H7X18929   5.380   6.498   4.319  0.4480 -0.8469 -2.1294
  168SAPE   H7Y18930   5.517   6.617   4.335  0.8537  0.1654  0.8513
  168SAPE   C3818931   5.549   6.410   4.407 -0.0402 -0.6453  0.3826
  168SAPE   H8X18932   5.660   6.402   4.396  0.0029  0.8951 -0.5145
  168SAPE   H8Y18933   5.503   6.311   4.385 -1.4529 -0.4652  2.3093
  168SAPE   C3918934   5.521   6.430   4.556  0.3774  0.0638  0.2949
  168SAPE   H9X18935   5.414   6.415   4.582 -0.4607 -0.3976 -2.9607
  168SAPE   H9Y18936   5.538   6.534   4.593 -1.9494 -0.7879  4.3324
  168SAPE  C31018937   5.617   6.340   4.636  0.3501 -0.1480  0.2157
  168SAPE  H10X18938   5.724   6.366   4.625  0.3978 -0.5958 -0.4114
  168SAPE  H10Y18939   5.593   6.234   4.616 -0.8034  0.5184 -2.3476
  168SAPE  C31118940   5.584   6.344   4.789 -0.4897 -0.3177  0.9423
  168SAPE  H11X18941   5.664   6.287   4.840  2.4763  2.5558 -0.1387
  168SAPE  H11Y18942   5.483   6.299   4.804  0.0538 -2.5384 -1.3082
  168SAPE  C31218943   5.589   6.480   4.855 -0.9257 -0.3900 -0.2475
  168SAPE  H12X18944   5.512   6.556   4.830 -0.3466 -0.2097 -1.6126
  168SAPE  H12Y18945   5.691   6.522   4.839  0.3336 -1.7167  3.2839
  168SAPE  C31318946   5.586   6.472   5.009  0.3967  0.3461 -0.4671
  168SAPE  H13X18947   5.634   6.374   5.027  1.2839  0.8922  0.2590
  168SAPE  H13Y18948   5.481   6.443   5.030 -0.0747  0.4370 -2.4905
  168SAPE  C31418949   5.651   6.579   5.088  0.2562  0.2959  0.2738
  168SAPE  H14X18950   5.584   6.667   5.075  0.7656  0.5601 -0.6266
  168SAPE  H14Y18951   5.755   6.596   5.054  0.8889 -0.2883  1.8196
  168SAPE  C31518952   5.677   6.555   5.240 -0.7784  0.1955 -0.5404
  168SAPE  H15X18953   5.762   6.484   5.248 -0.3823  0.7640  0.3870
  168SAPE  H15Y18954   5.590   6.502   5.284  1.3188 -0.9396  2.5503
  168SAPE  C31618955   5.699   6.680   5.322  0.5157  0.4584  0.3184
  168SAPE  H16X18956   5.626   6.749   5.273 -3.2385 -2.8585  0.7250
  168SAPE  H16Y18957   5.803   6.718   5.312 -0.1544  2.0423 -1.2858
  168SAPE  C31718958   5.663   6.676   5.474  0.0496 -0.2994 -0.1227
  168SAPE  H17X18959   5.726   6.597   5.520  0.2855  0.1508  0.3383
  168SAPE  H17Y18960   5.556   6.648   5.487  0.1937  0.0182  2.1551
  168SAPE  C31818961   5.701   6.804   5.545  0.0586  0.4873 -0.6461
  168SAPE  H18X18962   5.641   6.893   5.518 -0.2521  0.7521  0.8303
  168SAPE  H18Y18963   5.808   6.823   5.524  0.1841 -0.0984 -0.5691
  168SAPE  H18Z18964   5.680   6.788   5.653  0.8002  1.5736 -0.3231
  169SAPE     N18965   2.629   4.225   2.835  0.1152  0.4733  0.0802
  169SAPE   HN118966   2.600   4.233   2.934 -0.7529 -0.0484 -0.1195
  169SAPE   HN218967   2.569   4.296   2.788  0.6648 -0.1207 -1.6092
  169SAPE   HN318968   2.600   4.133   2.796 -0.6362  2.0235 -3.3895
  169SAPE   C1218969   2.767   4.255   2.791 -0.5669 -0.3822  0.1671
  169SAPE  H12A18970   2.767   4.217   2.687  0.6592 -0.2496  0.1120
  169SAPE  H12B18971   2.848   4.196   2.839  1.3221 -0.4361 -2.8195
  169SAPE   C1118972   2.804   4.403   2.801  0.4182  1.0639 -0.1018
  169SAPE  H11A18973   2.903   4.417   2.753  0.5597 -0.2791 -0.2585
  169SAPE  H11B18974   2.811   4.434   2.907 -0.2703  0.6419  0.0808
  169SAPE     P18975   2.740   4.636   2.714 -0.1864  0.1850  0.1791
  169SAPE   O1318976   2.885   4.656   2.728 -0.5210  0.5558 -0.2833
  169SAPE   O1418977   2.682   4.674   2.587 -0.2754 -0.0629  0.0716
  169SAPE   O1218978   2.702   4.482   2.743  0.0857 -0.1746  0.1386
  169SAPE   O1118979   2.665   4.709   2.835 -0.5181 -0.3733 -0.3473
  169SAPE    C118980   2.568   4.648   2.915 -0.8413 -0.4057  0.2131
  169SAPE    HA18981   2.471   4.685   2.877 -1.1679  0.4997  1.8044
  169SAPE    HB18982   2.576   4.537   2.910 -0.4997 -0.4633  1.5094
  169SAPE    C218983   2.597   4.690   3.058 -0.4506 -0.6787 -0.2519
  169SAPE    HS18984   2.572   4.797   3.071  0.7627 -0.6551  2.5248
  169SAPE   O2118985   2.739   4.668   3.087 -0.2629 -0.3130  0.1365
  169SAPE   C2118986   2.795   4.742   3.185 -0.6323  0.3322  0.3786
  169SAPE   O2218987   2.734   4.816   3.261 -0.4035  0.1733  0.0407
  169SAPE   C2218988   2.946   4.709   3.209  0.6051  0.7155  0.5434
  169SAPE   H2R18989   2.952   4.598   3.203 -0.1765  0.7585 -2.5777
  169SAPE   H2S18990   2.993   4.749   3.117  0.3148 -0.1758 -0.0088
  169SAPE    C318991   2.508   4.604   3.157  0.5166 -0.6578 -0.4602
  169SAPE    HX18992   2.504   4.498   3.122 -0.1088 -1.2081  1.2042
  169SAPE    HY18993   2.403   4.639   3.160  0.4836 -0.8148  2.2075
  169SAPE   O3118994   2.540   4.609   3.297 -0.3488 -0.0320  0.2512
  169SAPE   C3118995   2.601   4.502   3.356  0.5441  0.2256  0.6671
  169SAPE   O3218996   2.658   4.409   3.294 -0.0708 -0.2351 -0.7424
  169SAPE   C3218997   2.580   4.515   3.506  0.0441 -0.5943 -0.2484
  169SAPE   H2X18998   2.473   4.531   3.534  0.3395 -1.5877  1.5960
  169SAPE   H2Y18999   2.638   4.605   3.534 -0.3099  0.1115 -1.6778
  169SAPE   C2319000   2.998   4.762   3.342 -0.5155 -0.4912  0.8971
  169SAPE   H3R19001   2.976   4.871   3.350  2.7573  0.3908 -0.6647
  169SAPE   H3S19002   3.106   4.741   3.356 -0.6801 -0.2814  2.6461
  169SAPE   C2419003   2.938   4.701   3.473 -0.2590  0.1614 -0.1377
  169SAPE   H4R19004   2.827   4.707   3.466 -0.1236  1.4369 -2.2782
  169SAPE   H4S19005   2.964   4.771   3.556 -0.2275 -0.7593  0.6380
  169SAPE   C2519006   2.987   4.563   3.506 -0.0329  0.6704 -0.6677
  169SAPE   H5R19007   2.986   4.495   3.420  1.4222  0.0950 -0.2536
  169SAPE   C2619008   3.029   4.508   3.620 -1.0308  0.0220 -0.6787
  169SAPE   H6R19009   3.051   4.401   3.612  0.1825  0.2782 -0.9751
  169SAPE   C2719010   3.031   4.572   3.756 -0.0300 -0.1796  0.3410
  169SAPE   H7R19011   2.931   4.562   3.806 -0.3618 -0.2935 -0.3377
  169SAPE   H7S19012   3.027   4.683   3.747 -0.0089 -0.1353  0.8179
  169SAPE   C2819013   3.142   4.522   3.851  0.4696 -0.8711  0.8837
  169SAPE   H8R19014   3.226   4.474   3.799  0.3546  1.4441 -1.6581
  169SAPE   C2919015   3.161   4.544   3.983  0.7156 -0.0146 -0.4527
  169SAPE   H9R19016   3.249   4.499   4.031 -0.6272 -1.3628  0.8503
  169SAPE  C21019017   3.056   4.630   4.060 -0.4090  0.0062  0.4342
  169SAPE  H10R19018   2.971   4.567   4.092  0.6163 -1.3392  0.5947
  169SAPE  H10S19019   3.025   4.714   3.994  1.2850  0.3044 -0.0345
  169SAPE  C21119020   3.131   4.678   4.186 -0.3993  0.3068 -0.0925
  169SAPE  H11R19021   3.236   4.705   4.170  0.1953 -1.3887  0.6408
  169SAPE  C21219022   3.107   4.667   4.318 -1.2675  0.2814 -0.6916
  169SAPE  H12R19023   3.178   4.710   4.391 -0.7310  0.7360 -1.4722
  169SAPE  C21319024   2.976   4.605   4.373  0.6723  0.0889 -0.2897
  169SAPE  H13R19025   3.012   4.527   4.443 -0.6839 -1.2890 -1.0674
  169SAPE  H13S19026   2.924   4.549   4.292  2.2241 -0.0960 -1.2047
  169SAPE  C21419027   2.901   4.719   4.444  0.9890  0.4586  0.6011
  169SAPE  H14R19028   2.844   4.767   4.363 -1.2975 -1.8086  0.7256
  169SAPE  C21519029   2.889   4.753   4.574  0.4238  0.4774 -0.3287
  169SAPE  H15R19030   2.836   4.846   4.598 -0.5128  0.4050 -1.9642
  169SAPE  C21619031   2.952   4.673   4.685 -0.1521  0.1210  0.4594
  169SAPE  H16R19032   3.037   4.611   4.650  1.6676  2.5004  0.4037
  169SAPE  H16S19033   2.873   4.601   4.715  0.8876 -0.4787  1.8314
  169SAPE  C21719034   2.992   4.766   4.798  0.8582 -0.4367  0.0489
  169SAPE  H17R19035   2.898   4.815   4.832 -0.1038 -0.2198 -2.6831
  169SAPE  H17S19036   3.047   4.851   4.753 -0.8230  1.5840  1.5754
  169SAPE  C21819037   3.069   4.698   4.912 -0.4843 -0.8089 -0.3094
  169SAPE  H18R19038   3.114   4.771   4.983  0.5832  0.0981 -1.8207
  169SAPE  H18S19039   3.158   4.648   4.868  0.7582  0.8241  0.2372
  169SAPE  C21919040   2.992   4.602   4.998  0.7141  0.3938 -0.1427
  169SAPE  H19R19041   2.961   4.514   4.937 -1.5775  1.8777 -1.2398
  169SAPE  H19S19042   2.901   4.649   5.041  0.8787  0.8363 -0.2737
  169SAPE  C22019043   3.066   4.552   5.122 -0.6295 -0.1728  0.3519
  169SAPE  H20R19044   3.003   4.481   5.181 -1.8189  1.1803  0.7926
  169SAPE  H20S19045   3.077   4.637   5.193  2.4331 -1.4196  1.5299
  169SAPE  H20T19046   3.162   4.500   5.101 -0.9870 -1.1730  1.0844
  169SAPE   C3319047   2.625   4.388   3.580 -0.3410  0.0097 -0.0508
  169SAPE   H3X19048   2.736   4.387   3.578 -0.2569  2.8489 -0.8594
  169SAPE   H3Y19049   2.593   4.297   3.526 -1.4806  0.4659 -0.1585
  169SAPE   C3419050   2.569   4.365   3.723 -0.2696 -0.0574  0.3234
  169SAPE   H4X19051   2.460   4.382   3.720  0.1101  2.8791  0.0172
  169SAPE   H4Y19052   2.616   4.432   3.798 -1.7278 -1.8134  2.9661
  169SAPE   C3519053   2.598   4.230   3.774 -0.2367 -0.9639 -0.4112
  169SAPE   H5X19054   2.697   4.192   3.740  0.4281  1.2973 -1.1847
  169SAPE   H5Y19055   2.513   4.167   3.741 -1.1382  0.4335 -0.8206
  169SAPE   C3619056   2.596   4.235   3.926 -0.1350  0.2986  0.0912
  169SAPE   H6X19057   2.509   4.293   3.964  0.8658  1.2639  0.9988
  169SAPE   H6Y19058   2.682   4.285   3.976  1.2158  0.4499 -2.2307
  169SAPE   C3719059   2.597   4.095   3.985  0.3369 -0.6205 -0.1984
  169SAPE   H7X19060   2.692   4.046   3.955  1.5709  1.3236  0.3374
  169SAPE   H7Y19061   2.519   4.032   3.938  2.3045 -2.2123 -1.4485
  169SAPE   C3819062   2.582   4.098   4.138 -0.7265 -0.6925  0.9387
  169SAPE   H8X19063   2.483   4.137   4.173 -1.9776 -3.9583  1.4346
  169SAPE   H8Y19064   2.670   4.150   4.181  0.2929 -1.2265 -0.4318
  169SAPE   C3919065   2.589   3.958   4.204  0.1223 -0.9304  0.2832
  169SAPE   H9X19066   2.683   3.906   4.175  1.5541  0.9015  1.4541
  169SAPE   H9Y19067   2.501   3.902   4.164 -0.0141  1.9500 -4.1560
  169SAPE  C31019068   2.578   3.950   4.358  0.1692 -0.0157 -0.3327
  169SAPE  H10X19069   2.478   3.987   4.392  0.5909 -0.3673  1.3746
  169SAPE  H10Y19070   2.661   4.003   4.409 -0.3840  0.5944 -0.0402
  169SAPE  C31119071   2.576   3.803   4.402 -0.2173  0.2753  0.5128
  169SAPE  H11X19072   2.652   3.743   4.347 -2.7033 -0.3105 -2.6415
  169SAPE  H11Y19073   2.478   3.765   4.364  1.0847 -2.5288 -0.2967
  169SAPE  C31219074   2.580   3.780   4.550  0.2086 -0.0782 -0.5236
  169SAPE  H12X19075   2.680   3.791   4.598 -0.2860  0.7141  0.3477
  169SAPE  H12Y19076   2.560   3.672   4.566 -0.0847  0.0583  0.0669
  169SAPE  C31319077   2.473   3.846   4.637  0.4329  0.4095  0.4674
  169SAPE  H13X19078   2.372   3.814   4.607  0.8701  0.3387 -1.0041
  169SAPE  H13Y19079   2.475   3.957   4.624 -0.1064  0.1361 -2.4541
  169SAPE  C31419080   2.502   3.821   4.787 -0.0003  0.2037  0.0049
  169SAPE  H14X19081   2.603   3.859   4.812  0.7133  0.1279 -2.5190
  169SAPE  H14Y19082   2.502   3.712   4.806 -0.1224  0.1288 -0.4122
  169SAPE  C31519083   2.398   3.881   4.889 -0.5280 -0.9362 -0.1985
  169SAPE  H15X19084   2.414   3.829   4.986 -0.1802 -1.7495 -0.6887
  169SAPE  H15Y19085   2.294   3.865   4.854 -0.1011 -0.8456 -1.5636
  169SAPE  C31619086   2.421   4.033   4.914  0.2570  0.5956  0.2271
  169SAPE  H16X19087   2.408   4.076   4.813 -4.7094 -2.0124 -0.5839
  169SAPE  H16Y19088   2.524   4.044   4.953  0.8828 -1.6952 -0.6163
  169SAPE  C31719089   2.319   4.109   5.009  0.3434  0.0730  0.2145
  169SAPE  H17X19090   2.323   4.057   5.107  0.3328  0.1517  0.2563
  169SAPE  H17Y19091   2.218   4.103   4.961  1.5319 -2.6274 -2.2874
  169SAPE  C31819092   2.349   4.258   5.024  0.0118 -0.6211 -0.6824
  169SAPE  H18X19093   2.333   4.318   4.932  0.9403  0.5576 -0.1050
  169SAPE  H18Y19094   2.455   4.267   5.058  0.2254 -0.0730 -1.4719
  169SAPE  H18Z19095   2.281   4.295   5.103  1.5295 -1.3337  1.0347
  170SAPE     N19096   3.335   6.303   2.915 -0.9292 -0.3182  0.5011
  170SAPE   HN119097   3.276   6.339   2.837 -1.5519 -2.0497  0.1329
  170SAPE   HN219098   3.263   6.266   2.980 -2.4589 -0.3661 -1.1393
  170SAPE   HN319099   3.382   6.383   2.963  1.4190 -0.5333 -1.2236
  170SAPE   C1219100   3.445   6.203   2.873 -0.5227  0.3529 -0.4648
  170SAPE  H12A19101   3.497   6.251   2.788 -0.4003  1.1948  0.0762
  170SAPE  H12B19102   3.397   6.112   2.830 -0.5987  0.0984  0.1521
  170SAPE   C1119103   3.550   6.177   2.984  0.0365 -0.5781 -0.1356
  170SAPE  H11A19104   3.614   6.094   2.948 -0.2654 -0.8814  0.0194
  170SAPE  H11B19105   3.491   6.143   3.072  0.2362 -1.0395 -0.1741
  170SAPE     P19106   3.794   6.294   3.044 -0.4243 -0.0887 -0.5578
  170SAPE   O1319107   3.830   6.153   3.059 -0.1294 -0.2135 -0.1266
  170SAPE   O1419108   3.867   6.374   2.947 -0.0774 -0.5093 -0.2977
  170SAPE   O1219109   3.633   6.299   3.005 -0.3122  0.0705 -0.0490
  170SAPE   O1119110   3.794   6.359   3.184 -0.0348  0.0414 -0.3068
  170SAPE    C119111   3.693   6.320   3.285  0.4554  0.1490  0.0028
  170SAPE    HA19112   3.592   6.294   3.247 -0.4156 -0.0072  2.3077
  170SAPE    HB19113   3.725   6.234   3.348 -0.8287  0.7927  1.6090
  170SAPE    C219114   3.667   6.449   3.377  0.3172 -0.4781 -0.3065
  170SAPE    HS19115   3.711   6.533   3.320  0.2853  0.2536  0.7240
  170SAPE   O2119116   3.728   6.449   3.506  0.2690  0.2631 -0.0236
  170SAPE   C2119117   3.854   6.439   3.529  0.3198 -0.1653  0.7070
  170SAPE   O2219118   3.930   6.426   3.431  0.1246 -0.1354  0.2768
  170SAPE   C2219119   3.881   6.450   3.672  0.5504  0.5060  0.1530
  170SAPE   H2R19120   3.907   6.556   3.692 -0.3448  0.9011 -0.7196
  170SAPE   H2S19121   3.791   6.431   3.734  0.4005  0.5035 -0.0651
  170SAPE    C319122   3.517   6.472   3.387  0.3627 -0.1770 -0.1949
  170SAPE    HX19123   3.474   6.482   3.284 -1.4702  0.7764  0.6093
  170SAPE    HY19124   3.495   6.559   3.453  0.4648  0.3622 -0.8495
  170SAPE   O3119125   3.458   6.348   3.443 -0.5858  0.2118  0.8624
  170SAPE   C3119126   3.338   6.371   3.492  0.5154  0.9026 -0.2164
  170SAPE   O3219127   3.281   6.478   3.489 -0.4450 -0.2815  0.2043
  170SAPE   C3219128   3.278   6.245   3.546 -0.1531 -0.3782 -0.4668
  170SAPE   H2X19129   3.365   6.177   3.561  1.2469  1.5436  0.5767
  170SAPE   H2Y19130   3.197   6.208   3.480 -1.8808 -1.8045  2.2452
  170SAPE   C2319131   3.997   6.348   3.709 -0.2650 -0.4484 -0.1216
  170SAPE   H3R19132   4.032   6.396   3.803 -1.0647  0.6881 -0.3821
  170SAPE   H3S19133   4.080   6.349   3.635  1.9333 -1.9854  2.1440
  170SAPE   C2419134   3.960   6.201   3.736 -0.1715  0.2119 -0.3712
  170SAPE   H4R19135   3.930   6.154   3.640 -1.3272 -0.3102  0.2218
  170SAPE   H4S19136   3.870   6.190   3.800 -1.0496  0.5878 -1.5044
  170SAPE   C2519137   4.079   6.130   3.784 -0.1064 -0.1649 -0.3346
  170SAPE   H5R19138   4.134   6.074   3.707 -1.2143  0.0410 -1.2850
  170SAPE   C2619139   4.129   6.117   3.912  0.0843 -0.6007  0.1114
  170SAPE   H6R19140   4.225   6.064   3.915  0.1227 -0.7182 -1.7481
  170SAPE   C2719141   4.067   6.196   4.026 -0.1290 -0.3896  0.6024
  170SAPE   H7R19142   3.961   6.220   4.002  0.3043 -0.2663 -1.3044
  170SAPE   H7S19143   4.109   6.296   4.051 -2.1558  0.6230  0.2022
  170SAPE   C2819144   4.066   6.096   4.145 -0.8815 -0.5389  0.2852
  170SAPE   H8R19145   4.061   5.986   4.138 -3.7429 -0.6460  2.5939
  170SAPE   C2919146   4.078   6.143   4.275  0.7593  0.0620  0.3335
  170SAPE   H9R19147   4.079   6.065   4.353 -0.0668  0.1346  0.4214
  170SAPE  C21019148   4.087   6.280   4.325 -0.0221 -0.5211  0.2298
  170SAPE  H10R19149   4.089   6.355   4.243  2.0913  0.3151  0.9917
  170SAPE  H10S19150   4.176   6.304   4.386  0.2674  1.1467 -0.7727
  170SAPE  C21119151   3.969   6.319   4.412  0.5521  0.0042 -0.4308
  170SAPE  H11R19152   3.872   6.321   4.360 -0.4300 -0.3993  1.2809
  170SAPE  C21219153   3.969   6.353   4.540  0.2528 -0.0764 -0.0549
  170SAPE  H12R19154   3.871   6.393   4.571  0.3177 -0.2680  0.4008
  170SAPE  C21319155   4.083   6.342   4.636  0.1221  0.5769 -0.4388
  170SAPE  H13R19156   4.134   6.440   4.644  0.1482  0.4245  1.7544
  170SAPE  H13S19157   4.159   6.269   4.601  1.1717  1.5288 -0.2071
  170SAPE  C21419158   4.044   6.292   4.768 -1.0117 -0.0892  0.0484
  170SAPE  H14R19159   3.954   6.228   4.774 -0.4831 -0.9455 -0.8912
  170SAPE  C21519160   4.115   6.295   4.881 -0.2214  0.2821  0.0931
  170SAPE  H15R19161   4.069   6.255   4.973  0.5013  2.6641  1.5747
  170SAPE  C21619162   4.257   6.354   4.908  0.4638 -0.0900 -0.2575
  170SAPE  H16R19163   4.318   6.339   4.816 -0.9168  1.0659 -1.4003
  170SAPE  H16S19164   4.302   6.284   4.982 -1.0668 -1.1113 -0.2357
  170SAPE  C21719165   4.258   6.495   4.964 -0.1951  0.0819 -0.8225
  170SAPE  H17R19166   4.230   6.499   5.071 -0.7476  1.4289 -1.0001
  170SAPE  H17S19167   4.184   6.559   4.911 -1.2434  0.7507  1.3599
  170SAPE  C21819168   4.393   6.566   4.955 -0.2061  0.1023  0.5579
  170SAPE  H18R19169   4.450   6.538   4.864 -0.8198 -1.7706  0.7144
  170SAPE  H18S19170   4.443   6.524   5.045  0.7130 -0.1758 -0.0611
  170SAPE  C21919171   4.399   6.716   4.978 -0.0340  0.9886  0.2712
  170SAPE  H19R19172   4.508   6.737   4.989  0.6243 -1.8083 -0.0368
  170SAPE  H19S19173   4.353   6.735   5.077  0.1495  0.3715  0.4834
  170SAPE  C22019174   4.348   6.803   4.863  0.3375 -0.2724 -0.4094
  170SAPE  H20R19175   4.238   6.794   4.849 -0.2863  1.8849  2.1982
  170SAPE  H20S19176   4.393   6.781   4.764 -2.0183  0.6943 -1.7880
  170SAPE  H20T19177   4.382   6.905   4.890 -0.2734 -0.3408  0.7216
  170SAPE   C3319178   3.197   6.259   3.683 -1.4031  0.1763  0.2503
  170SAPE   H3X19179   3.159   6.155   3.695  1.9073 -0.8980  3.5143
  170SAPE   H3Y19180   3.118   6.336   3.675 -1.3984  0.1042 -0.6260
  170SAPE   C3419181   3.291   6.276   3.804  0.2794  0.0466  0.0772
  170SAPE   H4X19182   3.343   6.373   3.793 -0.5790  0.6287  0.9804
  170SAPE   H4Y19183   3.381   6.213   3.786  0.5480  0.8761 -1.6770
  170SAPE   C3519184   3.217   6.278   3.936  0.6814 -0.2275  1.0399
  170SAPE   H5X19185   3.109   6.254   3.937 -0.0985  2.8683  1.9506
  170SAPE   H5Y19186   3.218   6.384   3.969 -1.4194  0.1769 -0.0541
  170SAPE   C3619187   3.290   6.193   4.044 -0.6853  0.0088  0.7866
  170SAPE   H6X19188   3.273   6.086   4.019 -1.9502  0.3153  0.2567
  170SAPE   H6Y19189   3.235   6.212   4.138  0.5690 -2.4528  2.1046
  170SAPE   C3719190   3.440   6.211   4.061  0.0654 -0.8112  0.0998
  170SAPE   H7X19191   3.489   6.240   3.966  0.9170 -0.1713  0.7168
  170SAPE   H7Y19192   3.485   6.115   4.094 -0.1275 -0.5751  1.0820
  170SAPE   C3819193   3.473   6.308   4.179 -0.4939 -1.2472 -0.3549
  170SAPE   H8X19194   3.429   6.269   4.273  0.3975  0.0569  0.6349
  170SAPE   H8Y19195   3.432   6.411   4.164  2.7051  0.5738  2.0576
  170SAPE   C3919196   3.627   6.327   4.191 -0.2153 -0.3520 -0.6481
  170SAPE   H9X19197   3.682   6.235   4.163  1.4761  0.4353 -0.0878
  170SAPE   H9Y19198   3.644   6.350   4.299  0.3898  0.6770 -0.9435
  170SAPE  C31019199   3.677   6.434   4.097  0.0483 -0.6603  0.6928
  170SAPE  H10X19200   3.597   6.511   4.101 -0.3437 -0.9480 -0.8909
  170SAPE  H10Y19201   3.674   6.398   3.992  0.7956 -0.6421  0.6601
  170SAPE  C31119202   3.819   6.476   4.126 -0.2956  0.3952  0.1574
  170SAPE  H11X19203   3.881   6.385   4.142 -2.3217 -1.2186 -0.6731
  170SAPE  H11Y19204   3.830   6.531   4.223  3.3794  0.3991 -0.1337
  170SAPE  C31219205   3.890   6.574   4.026 -0.1897 -0.0671  0.4544
  170SAPE  H12X19206   3.843   6.675   4.017  0.6469  0.3480  0.6020
  170SAPE  H12Y19207   3.878   6.532   3.924 -0.3426  1.6205 -0.2638
  170SAPE  C31319208   4.034   6.606   4.055 -0.8139  0.0216 -0.1669
  170SAPE  H13X19209   4.093   6.644   3.969 -1.3762 -1.4151 -1.2345
  170SAPE  H13Y19210   4.095   6.517   4.083 -0.8493 -0.1227 -0.5349
  170SAPE  C31419211   4.049   6.720   4.154 -0.0326  0.8356 -0.6123
  170SAPE  H14X19212   4.010   6.689   4.254  3.1318  0.7320  0.7031
  170SAPE  H14Y19213   3.980   6.804   4.129  0.2345  1.3521  0.3180
  170SAPE  C31519214   4.191   6.771   4.169  0.2655 -0.4034 -1.2526
  170SAPE  H15X19215   4.180   6.871   4.215  1.4669 -1.1788  0.8953
  170SAPE  H15Y19216   4.221   6.776   4.063 -0.0414 -4.1944 -1.6714
  170SAPE  C31619217   4.291   6.677   4.229 -0.1352  0.8044 -0.3685
  170SAPE  H16X19218   4.395   6.715   4.236 -1.0587  3.3756  0.3873
  170SAPE  H16Y19219   4.297   6.584   4.167 -2.3910  0.2796  0.1272
  170SAPE  C31719220   4.257   6.642   4.374 -1.2931  0.3738  0.0949
  170SAPE  H17X19221   4.328   6.559   4.391 -0.8416  0.3761 -1.6283
  170SAPE  H17Y19222   4.156   6.597   4.388 -1.5648  0.4746 -1.4026
  170SAPE  C31819223   4.270   6.761   4.472  0.9963  0.2282  0.1860
  170SAPE  H18X19224   4.184   6.832   4.479 -0.4373 -1.4463  0.5439
  170SAPE  H18Y19225   4.360   6.817   4.440  1.8955 -1.3678 -0.1629
  170SAPE  H18Z19226   4.288   6.717   4.573 -1.0778 -1.0183  0.0864
  171SAPE     N19227   3.454   5.429   2.679 -0.4487  0.0872  0.2961
  171SAPE   HN119228   3.425   5.478   2.766  0.6683  0.5070  0.4510
  171SAPE   HN219229   3.367   5.377   2.655 -0.9979  0.4089  1.5029
  171SAPE   HN319230   3.526   5.365   2.717  0.9244 -0.0221 -2.2671
  171SAPE   C1219231   3.498   5.533   2.580 -0.7781  0.5253 -0.3878
  171SAPE  H12A19232   3.418   5.610   2.579 -1.6389 -0.2513  1.8046
  171SAPE  H12B19233   3.502   5.478   2.484 -1.0090  1.3060 -0.8583
  171SAPE   C1119234   3.642   5.591   2.598  0.1352 -0.4844 -0.2046
  171SAPE  H11A19235   3.652   5.669   2.519  3.7791 -2.6093 -2.0969
  171SAPE  H11B19236   3.713   5.511   2.568  0.1928 -0.9059  0.9736
  171SAPE     P19237   3.768   5.572   2.825  0.5286  0.0986  0.1245
  171SAPE   O1319238   3.876   5.516   2.741  0.1159 -0.4143 -0.0881
  171SAPE   O1419239   3.803   5.671   2.926  0.0625  0.5406  0.0365
  171SAPE   O1219240   3.678   5.643   2.725  0.6730 -0.1807 -0.0767
  171SAPE   O1119241   3.670   5.472   2.886  0.6053 -0.8212  0.1026
  171SAPE    C119242   3.710   5.364   2.970  0.1004 -0.2222  0.3209
  171SAPE    HA19243   3.623   5.295   2.961  0.4950 -0.6126 -0.5501
  171SAPE    HB19244   3.790   5.296   2.933 -0.1158 -0.5812  0.5101
  171SAPE    C219245   3.723   5.394   3.122  0.5041 -0.2127 -0.1446
  171SAPE    HS19246   3.631   5.453   3.146 -0.0443 -0.9646 -0.3490
  171SAPE   O2119247   3.837   5.475   3.148  0.3500  0.3383  0.1475
  171SAPE   C2119248   3.810   5.576   3.237  0.1290  0.6261  0.2233
  171SAPE   O2219249   3.707   5.600   3.299 -0.2326 -0.3255 -0.3718
  171SAPE   C2219250   3.942   5.657   3.253  0.2408  0.0951 -0.3042
  171SAPE   H2R19251   4.024   5.587   3.279  1.5721  1.4183 -0.8746
  171SAPE   H2S19252   3.962   5.703   3.154  1.2014 -1.5749 -0.9273
  171SAPE    C319253   3.726   5.267   3.211 -0.1913 -0.3803 -0.6297
  171SAPE    HX19254   3.821   5.215   3.187 -0.1575 -0.3442 -0.5742
  171SAPE    HY19255   3.638   5.202   3.193  0.3810 -1.4177  0.1948
  171SAPE   O3119256   3.728   5.308   3.353 -0.2655 -0.0654  0.4874
  171SAPE   C3119257   3.618   5.308   3.416 -0.2376  0.5314 -0.0675
  171SAPE   O3219258   3.509   5.275   3.381 -0.0135  1.4843 -0.0391
  171SAPE   C3219259   3.646   5.361   3.556 -0.1501 -0.5431  0.1519
  171SAPE   H2X19260   3.656   5.471   3.545 -0.6816 -0.3971  1.0116
  171SAPE   H2Y19261   3.748   5.328   3.584 -0.0338 -0.4936 -0.2089
  171SAPE   C2319262   3.915   5.773   3.355 -0.2986  0.5746 -0.4378
  171SAPE   H3R19263   3.813   5.818   3.354 -0.0610  1.1132 -0.5484
  171SAPE   H3S19264   3.980   5.846   3.303  2.9212 -0.3970  1.9136
  171SAPE   C2419265   3.975   5.749   3.493 -0.6134 -0.5294  0.2839
  171SAPE   H4R19266   3.999   5.845   3.541  2.8662 -0.8522 -0.5609
  171SAPE   H4S19267   4.076   5.704   3.479 -0.2105  0.5380 -0.3904
  171SAPE   C2519268   3.879   5.670   3.571 -0.6206  0.5591  0.4248
  171SAPE   H5R19269   3.772   5.673   3.549 -1.1502 -3.5783  1.5198
  171SAPE   C2619270   3.920   5.589   3.672  0.6301 -0.5584 -0.0928
  171SAPE   H6R19271   3.848   5.537   3.736 -2.0932  0.5359 -2.0671
  171SAPE   C2719272   4.064   5.586   3.717  0.4912 -0.5401  0.4311
  171SAPE   H7R19273   4.099   5.690   3.732  0.6626 -0.7472  1.5346
  171SAPE   H7S19274   4.129   5.540   3.639 -0.7788  0.6579 -1.4337
  171SAPE   C2819275   4.076   5.523   3.853 -0.7939 -0.4465  1.0985
  171SAPE   H8R19276   4.044   5.418   3.856  0.3479 -0.8582 -0.3851
  171SAPE   C2919277   4.102   5.579   3.969  0.1706 -0.3283 -1.0082
  171SAPE   H9R19278   4.108   5.519   4.061  2.0896  0.6937 -0.4013
  171SAPE  C21019279   4.156   5.717   3.992  0.4764  0.2613 -0.0603
  171SAPE  H10R19280   4.078   5.783   4.036  0.3984  0.6036 -0.7048
  171SAPE  H10S19281   4.169   5.779   3.901 -1.4069  1.4951  0.4411
  171SAPE  C21119282   4.278   5.700   4.079 -0.0807  0.6793  0.0106
  171SAPE  H11R19283   4.367   5.658   4.032  0.6552  0.1164  1.8327
  171SAPE  C21219284   4.291   5.716   4.215  0.4483  0.3733 -0.4759
  171SAPE  H12R19285   4.388   5.692   4.262  0.7095  1.6900 -0.2989
  171SAPE  C21319286   4.187   5.772   4.302  0.2787 -0.7285 -0.0289
  171SAPE  H13R19287   4.164   5.872   4.260  0.6845  0.2614  1.9650
  171SAPE  H13S19288   4.237   5.791   4.400 -1.0528 -0.5751  0.6540
  171SAPE  C21419289   4.056   5.692   4.328 -0.1791  0.0006  0.4828
  171SAPE  H14R19290   3.999   5.692   4.234  1.8636  1.9115 -0.8645
  171SAPE  C21519291   4.002   5.664   4.450  0.8352  0.9265 -0.2887
  171SAPE  H15R19292   3.911   5.604   4.444 -0.0978  2.2058  0.5146
  171SAPE  C21619293   4.077   5.667   4.577  0.0203  0.2469 -0.0681
  171SAPE  H16R19294   4.177   5.627   4.551 -0.4553 -1.0753  0.0492
  171SAPE  H16S19295   4.037   5.596   4.653  0.2861  2.1977  2.0070
  171SAPE  C21719296   4.085   5.804   4.658 -0.0282 -0.2276 -0.0967
  171SAPE  H17R19297   3.984   5.832   4.695  0.2324  0.1809  0.3270
  171SAPE  H17S19298   4.116   5.888   4.592 -1.7498  2.8300  2.6458
  171SAPE  C21819299   4.173   5.794   4.778 -0.1599 -0.0039  0.4880
  171SAPE  H18R19300   4.283   5.792   4.761  0.0615  0.3472  1.7586
  171SAPE  H18S19301   4.149   5.700   4.832  0.1160 -1.5552 -1.9465
  171SAPE  C21919302   4.159   5.914   4.876  0.9070 -0.2318 -0.2337
  171SAPE  H19R19303   4.052   5.924   4.904  0.2872  1.3022 -2.7895
  171SAPE  H19S19304   4.177   6.007   4.818 -2.4854  0.7473  0.0274
  171SAPE  C22019305   4.245   5.919   5.008  0.0873  0.6529 -0.6808
  171SAPE  H20R19306   4.352   5.907   4.980  0.3524  1.0670  0.1321
  171SAPE  H20S19307   4.215   5.834   5.072 -0.1103  0.1946 -1.3651
  171SAPE  H20T19308   4.233   6.008   5.073 -2.0542 -1.4096  1.9611
  171SAPE   C3319309   3.542   5.316   3.657  0.0225  0.3181 -0.0318
  171SAPE   H3X19310   3.528   5.206   3.670 -1.7350  0.2393 -1.9548
  171SAPE   H3Y19311   3.447   5.345   3.608 -0.5002  0.4115  1.0124
  171SAPE   C3419312   3.563   5.392   3.792  0.4493  0.1735  0.6720
  171SAPE   H4X19313   3.463   5.408   3.838 -0.0060 -0.8167  0.0547
  171SAPE   H4Y19314   3.607   5.491   3.765 -0.9122 -0.1385 -3.3711
  171SAPE   C3519315   3.652   5.311   3.887 -0.4286 -0.4935  0.1965
  171SAPE   H5X19316   3.748   5.276   3.843 -0.9987 -0.3959 -1.1845
  171SAPE   H5Y19317   3.601   5.214   3.906 -0.3737 -0.0842  2.7189
  171SAPE   C3619318   3.686   5.381   4.020  0.3543 -0.1917  0.1390
  171SAPE   H6X19319   3.632   5.478   4.018  0.8357  0.1455  1.6895
  171SAPE   H6Y19320   3.795   5.401   4.031  0.7514 -1.7827 -0.6197
  171SAPE   C3719321   3.654   5.309   4.146 -0.6765  0.6608 -0.0953
  171SAPE   H7X19322   3.706   5.211   4.136  0.1205  0.7613  2.3374
  171SAPE   H7Y19323   3.545   5.294   4.162 -0.7563  2.4667  1.2559
  171SAPE   C3819324   3.704   5.374   4.271 -0.8116 -0.4001  0.2020
  171SAPE   H8X19325   3.684   5.484   4.269  0.8248 -0.0790 -1.5300
  171SAPE   H8Y19326   3.814   5.372   4.255 -0.6002  0.1555  1.4976
  171SAPE   C3919327   3.660   5.303   4.395 -0.0708 -0.2121  0.1704
  171SAPE   H9X19328   3.653   5.195   4.370 -0.0285 -0.3696  0.8334
  171SAPE   H9Y19329   3.559   5.341   4.421  0.1066 -1.2173  2.5695
  171SAPE  C31019330   3.747   5.326   4.513  0.3419 -0.3448  0.4371
  171SAPE  H10X19331   3.741   5.435   4.530  5.2533  0.4430 -1.2287
  171SAPE  H10Y19332   3.852   5.311   4.481 -0.3299 -1.1954 -1.4643
  171SAPE  C31119333   3.701   5.256   4.640  1.1098 -0.3209  0.0817
  171SAPE  H11X19334   3.724   5.147   4.643  2.3418 -0.2219 -2.8086
  171SAPE  H11Y19335   3.591   5.266   4.651  1.1731 -0.6533  1.1363
  171SAPE  C31219336   3.766   5.309   4.768 -0.6757 -0.4624  1.0321
  171SAPE  H12X19337   3.745   5.417   4.780  1.0832  0.2242 -1.2086
  171SAPE  H12Y19338   3.876   5.297   4.758 -0.8172 -1.1228 -0.0221
  171SAPE  C31319339   3.726   5.243   4.895  0.5056  0.0163 -0.6542
  171SAPE  H13X19340   3.726   5.133   4.879 -0.2744 -0.2402  0.9213
  171SAPE  H13Y19341   3.625   5.274   4.929  0.8374 -0.4175  0.8126
  171SAPE  C31419342   3.824   5.278   5.011 -0.1027 -0.3579  0.0584
  171SAPE  H14X19343   3.919   5.221   5.000 -1.0596 -1.6998 -1.7819
  171SAPE  H14Y19344   3.781   5.233   5.102  0.2989 -1.0993 -0.1050
  171SAPE  C31519345   3.852   5.432   5.028  0.3197  0.0484 -0.2525
  171SAPE  H15X19346   3.910   5.474   4.943 -0.1950  0.3893 -0.4391
  171SAPE  H15Y19347   3.923   5.444   5.112  1.0996 -0.0176 -0.8901
  171SAPE  C31619348   3.738   5.527   5.054 -0.6593  0.0999 -0.5061
  171SAPE  H16X19349   3.663   5.469   5.111 -2.1077  2.0694 -0.2918
  171SAPE  H16Y19350   3.699   5.577   4.962 -0.1001  5.2524  1.6797
  171SAPE  C31719351   3.767   5.648   5.139 -0.1949  0.0584  0.6040
  171SAPE  H17X19352   3.830   5.709   5.071 -0.2859  1.5312  1.7846
  171SAPE  H17Y19353   3.828   5.616   5.226 -0.5380 -1.5789  0.2722
  171SAPE  C31819354   3.649   5.738   5.185  1.0037 -0.2885  0.1746
  171SAPE  H18X19355   3.604   5.685   5.271  0.5851  2.0041  1.4335
  171SAPE  H18Y19356   3.581   5.774   5.105 -0.4132  1.3622  2.0406
  171SAPE  H18Z19357   3.699   5.833   5.211  0.7645 -0.0024 -0.3936
  172SAPE     N19358   2.598   6.366   2.783 -0.1015 -0.2283  0.5543
  172SAPE   HN119359   2.563   6.397   2.690 -1.2842  0.0649  1.0786
  172SAPE   HN219360   2.542   6.420   2.852  0.2863  1.1724 -0.1857
  172SAPE   HN319361   2.697   6.397   2.782 -0.7922  2.1821  0.6307
  172SAPE   C1219362   2.614   6.217   2.787  0.0991  0.6930 -0.5540
  172SAPE  H12A19363   2.689   6.192   2.709 -0.8104  0.0441 -1.2390
  172SAPE  H12B19364   2.515   6.167   2.778  0.6068 -0.7617  1.2457
  172SAPE   C1119365   2.672   6.181   2.924 -0.4759  0.6007  0.0019
  172SAPE  H11A19366   2.687   6.072   2.913 -1.3583  0.3287  1.3113
  172SAPE  H11B19367   2.593   6.203   2.998 -0.2484  2.2693 -0.2021
  172SAPE     P19368   2.864   6.302   3.084 -0.1708  0.4687  0.1389
  172SAPE   O1319369   2.902   6.188   3.168 -0.1987 -0.0354 -0.2636
  172SAPE   O1419370   2.966   6.405   3.044 -0.2744  0.0438 -0.6180
  172SAPE   O1219371   2.799   6.250   2.955  0.2423 -0.0456 -0.0359
  172SAPE   O1119372   2.744   6.376   3.158  0.3432  0.5502 -0.0178
  172SAPE    C119373   2.754   6.501   3.225  0.5568 -0.9446  0.2854
  172SAPE    HA19374   2.832   6.567   3.180  0.8392  0.1005  2.2381
  172SAPE    HB19375   2.655   6.551   3.226  1.1752  0.6170 -2.8432
  172SAPE    C219376   2.802   6.488   3.372 -0.2856  0.6185 -0.1122
  172SAPE    HS19377   2.913   6.494   3.374 -0.1310 -1.0683 -1.3897
  172SAPE   O2119378   2.759   6.362   3.426 -0.5756 -0.7288 -0.0097
  172SAPE   C2119379   2.851   6.279   3.470  0.2319  0.8361 -0.3156
  172SAPE   O2219380   2.971   6.296   3.471 -0.1750 -0.0327 -0.1243
  172SAPE   C2219381   2.787   6.162   3.545  0.1796 -0.2790  0.1250
  172SAPE   H2R19382   2.780   6.192   3.652 -1.8630  2.7600 -0.7356
  172SAPE   H2S19383   2.684   6.134   3.514  0.3826 -2.1615  0.9984
  172SAPE    C319384   2.740   6.604   3.454  0.0726 -0.1845  0.3518
  172SAPE    HX19385   2.630   6.591   3.447  0.2838 -1.2058 -2.0279
  172SAPE    HY19386   2.774   6.698   3.404 -1.6443 -0.4716 -1.4374
  172SAPE   O3119387   2.764   6.592   3.592 -0.8485 -0.6343 -0.9062
  172SAPE   C3119388   2.892   6.625   3.631  0.5252 -0.1487  0.1482
  172SAPE   O3219389   2.968   6.690   3.565 -0.0413 -0.5597  0.0894
  172SAPE   C3219390   2.916   6.575   3.775  0.1785  0.6042  0.7322
  172SAPE   H2X19391   2.872   6.655   3.839  0.6808  1.0519  0.5236
  172SAPE   H2Y19392   3.024   6.561   3.793  0.5193  0.8127 -0.9313
  172SAPE   C2319393   2.886   6.044   3.557 -0.1494  0.0259  0.4551
  172SAPE   H3R19394   2.967   6.072   3.627 -0.2555 -0.8167  0.9303
  172SAPE   H3S19395   2.926   6.027   3.454  1.9897  4.5847  0.3128
  172SAPE   C2419396   2.805   5.922   3.591  0.2144  0.1881  0.0143
  172SAPE   H4R19397   2.847   5.819   3.595 -1.2079 -0.4728 -1.0809
  172SAPE   H4S19398   2.717   5.918   3.524  1.0348  0.8759 -1.1390
  172SAPE   C2519399   2.763   5.927   3.735  0.4791 -0.0544  0.2801
  172SAPE   H5R19400   2.668   5.980   3.750 -0.4672 -2.1098  1.9974
  172SAPE   C2619401   2.829   5.881   3.844 -0.2500  0.3021 -0.0439
  172SAPE   H6R19402   2.791   5.907   3.944  0.0080 -0.9994  0.4230
  172SAPE   C2719403   2.963   5.815   3.850  0.3003 -0.3070 -0.6801
  172SAPE   H7R19404   3.017   5.827   3.754  1.1852 -2.4170 -0.5073
  172SAPE   H7S19405   2.948   5.706   3.859  1.8948 -0.6406 -1.6480
  172SAPE   C2819406   3.065   5.870   3.948  0.1992  0.5292 -0.2745
  172SAPE   H8R19407   3.100   5.973   3.930  0.6605  0.2996 -0.7365
  172SAPE   C2919408   3.129   5.803   4.042  0.1573  0.2461 -0.7020
  172SAPE   H9R19409   3.206   5.859   4.096 -0.0716 -1.3703  1.4223
  172SAPE  C21019410   3.107   5.657   4.079 -0.0183 -0.2182  0.1912
  172SAPE  H10R19411   3.055   5.605   3.995 -2.1752  0.9029  0.7713
  172SAPE  H10S19412   3.050   5.638   4.172 -0.0570  0.1263  0.2371
  172SAPE  C21119413   3.248   5.593   4.075  0.2127  0.0594 -0.2428
  172SAPE  H11R19414   3.288   5.570   3.975  0.3120 -1.2631  0.0815
  172SAPE  C21219415   3.313   5.543   4.178  0.2789 -0.4109 -0.7211
  172SAPE  H12R19416   3.414   5.504   4.161  0.4344  0.6384 -2.4092
  172SAPE  C21319417   3.262   5.563   4.322 -0.1132  0.2396  0.0557
  172SAPE  H13R19418   3.233   5.466   4.370  2.1066  0.1294  1.3169
  172SAPE  H13S19419   3.180   5.635   4.338 -0.5811 -0.1229 -0.6688
  172SAPE  C21419420   3.376   5.635   4.398  0.2334  0.5586 -0.3390
  172SAPE  H14R19421   3.427   5.716   4.344 -0.9933 -0.1734 -2.7770
  172SAPE  C21519422   3.438   5.601   4.513  0.2887  0.1678  0.3781
  172SAPE  H15R19423   3.514   5.676   4.536  0.3980  0.4892 -0.9181
  172SAPE  C21619424   3.399   5.493   4.612  0.1490 -0.1406 -0.1210
  172SAPE  H16R19425   3.448   5.400   4.575 -1.2993 -0.4528 -1.3559
  172SAPE  H16S19426   3.291   5.470   4.601 -0.2018  1.7365 -0.8707
  172SAPE  C21719427   3.423   5.527   4.758 -0.2848  0.0870 -0.4416
  172SAPE  H17R19428   3.514   5.591   4.764 -1.2210  1.4579 -0.5949
  172SAPE  H17S19429   3.439   5.442   4.828 -1.7735  0.8286  0.8389
  172SAPE  C21819430   3.313   5.607   4.838 -0.1090  0.6111 -0.1521
  172SAPE  H18R19431   3.216   5.558   4.812 -0.3571  0.5341  0.8854
  172SAPE  H18S19432   3.299   5.713   4.807 -2.3880  0.2294 -0.6568
  172SAPE  C21919433   3.337   5.597   4.992  0.0351 -0.2195  0.1382
  172SAPE  H19R19434   3.440   5.633   5.007  0.6471 -0.9861 -1.8334
  172SAPE  H19S19435   3.334   5.486   4.999 -1.6764 -0.1673  0.7532
  172SAPE  C22019436   3.239   5.669   5.091  0.3827  0.8606 -0.5617
  172SAPE  H20R19437   3.271   5.663   5.197  0.0086 -1.4321 -0.5204
  172SAPE  H20S19438   3.138   5.624   5.080  1.3774 -1.9579  0.7007
  172SAPE  H20T19439   3.245   5.778   5.074  3.4116  0.5882 -1.8785
  172SAPE   C3319440   2.846   6.440   3.802 -0.1961  0.2254 -0.4330
  172SAPE   H3X19441   2.896   6.368   3.734 -1.3257  1.2145 -2.4144
  172SAPE   H3Y19442   2.738   6.439   3.775 -0.4259 -1.8069  0.3940
  172SAPE   C3419443   2.869   6.403   3.948  0.4676  0.0731 -0.4776
  172SAPE   H4X19444   2.833   6.480   4.020 -0.8953 -3.7700  3.3792
  172SAPE   H4Y19445   2.977   6.424   3.963  0.5861 -1.6323  1.3021
  172SAPE   C3519446   2.845   6.261   3.999  0.4463  0.7666  0.4808
  172SAPE   H5X19447   2.892   6.188   3.930  0.0770  1.4067 -0.4668
  172SAPE   H5Y19448   2.736   6.242   4.011  0.1307  1.5274 -1.0310
  172SAPE   C3619449   2.897   6.240   4.135 -0.2508  0.9021 -0.0630
  172SAPE   H6X19450   2.853   6.306   4.213  0.6161 -0.6378  1.8062
  172SAPE   H6Y19451   3.005   6.267   4.143 -0.1215  0.6945 -1.0816
  172SAPE   C3719452   2.885   6.088   4.178  0.0481  0.1549 -0.8577
  172SAPE   H7X19453   2.926   6.021   4.099 -0.8343  0.2528 -1.4125
  172SAPE   H7Y19454   2.775   6.073   4.165  0.1888 -0.5086 -1.3279
  172SAPE   C3819455   2.926   6.052   4.313 -0.2686 -0.0242 -0.4131
  172SAPE   H8X19456   2.911   5.943   4.323 -2.5332  0.0185 -2.4415
  172SAPE   H8Y19457   2.857   6.084   4.394 -1.6764 -1.5065 -0.9662
  172SAPE   C3919458   3.074   6.085   4.358 -0.7075  0.3102 -0.5730
  172SAPE   H9X19459   3.073   6.183   4.409 -1.8141  0.7751 -1.4534
  172SAPE   H9Y19460   3.137   6.098   4.266  0.6417  0.3962  0.3278
  172SAPE  C31019461   3.144   5.975   4.441 -0.0325 -0.1123  0.5488
  172SAPE  H10X19462   3.162   5.888   4.375  2.1342  0.2802  0.5790
  172SAPE  H10Y19463   3.067   5.953   4.519 -2.0627 -0.7324 -1.5092
  172SAPE  C31119464   3.280   6.014   4.503 -0.1358 -0.2405 -0.3898
  172SAPE  H11X19465   3.351   6.035   4.420 -1.8044  0.2823 -1.7459
  172SAPE  H11Y19466   3.311   5.922   4.557 -0.2761 -0.2688 -0.3573
  172SAPE  C31219467   3.284   6.141   4.587  0.2308 -0.0635 -0.3857
  172SAPE  H12X19468   3.248   6.228   4.528 -0.0166 -1.1024 -1.8420
  172SAPE  H12Y19469   3.388   6.158   4.623  1.0443 -0.3104 -2.4676
  172SAPE  C31319470   3.204   6.132   4.717  0.4746  0.1482  0.2968
  172SAPE  H13X19471   3.109   6.088   4.680  0.1249  0.1742  1.1539
  172SAPE  H13Y19472   3.177   6.227   4.767  0.2263  1.1383 -1.6121
  172SAPE  C31419473   3.269   6.048   4.825  0.0172  0.5011  0.2426
  172SAPE  H14X19474   3.331   5.964   4.786  0.6660 -0.1494  2.4779
  172SAPE  H14Y19475   3.182   6.005   4.879 -1.5261  0.5168 -2.1267
  172SAPE  C31519476   3.350   6.133   4.930 -0.0236  0.4176  0.1916
  172SAPE  H15X19477   3.284   6.219   4.955  0.4331  0.6414  0.6486
  172SAPE  H15Y19478   3.443   6.174   4.885 -1.5502  1.3427 -2.3369
  172SAPE  C31619479   3.387   6.061   5.061 -0.3035  0.7466  0.3052
  172SAPE  H16X19480   3.453   5.984   5.015 -2.1396 -0.1394 -0.9488
  172SAPE  H16Y19481   3.293   6.025   5.107 -0.8277 -0.3182 -1.4923
  172SAPE  C31719482   3.463   6.138   5.175  0.2448  0.2447 -0.6205
  172SAPE  H17X19483   3.552   6.193   5.137  0.9322 -0.6559 -0.3428
  172SAPE  H17Y19484   3.499   6.063   5.249 -0.8276 -1.7352 -1.9936
  172SAPE  C31819485   3.359   6.227   5.243  0.7830 -0.5544  0.2341
  172SAPE  H18X19486   3.271   6.163   5.268 -1.1015  1.7191 -0.1760
  172SAPE  H18Y19487   3.307   6.293   5.170 -0.7257 -0.1746  1.5917
  172SAPE  H18Z19488   3.391   6.286   5.332 -0.3592  2.7053 -1.3282
  173SLPC     N19489   1.035   0.413   7.434 -0.2425 -0.0183  0.0210
  173SLPC   C1319490   0.922   0.368   7.528 -0.2395  0.1916  0.4102
  173SLPC  H13A19491   0.953   0.376   7.632 -3.0359  1.0424  1.2644
  173SLPC  H13B19492   0.837   0.434   7.519 -0.1131  0.6547  2.1266
  173SLPC  H13C19493   0.891   0.267   7.505  0.6137  0.1395 -0.5486
  173SLPC   C1419494   1.147   0.316   7.447  0.4847 -0.4060 -0.4045
  173SLPC  H14A19495   1.113   0.214   7.453 -1.4941  0.2372  0.0977
  173SLPC  H14B19496   1.212   0.325   7.361  1.3149  0.9522  0.3190
  173SLPC  H14C19497   1.199   0.343   7.538 -2.0811  0.7667  0.8181
  173SLPC   C1519498   1.075   0.547   7.477  0.3924  0.0794  0.3230
  173SLPC  H15A19499   1.149   0.586   7.409 -0.0513  0.1082 -0.1533
  173SLPC  H15B19500   0.996   0.621   7.481  2.7512  2.6894  1.4654
  173SLPC  H15C19501   1.110   0.529   7.577 -3.7852 -1.4442  1.7227
  173SLPC   C1219502   0.990   0.427   7.295  0.2740  0.6022 -0.0405
  173SLPC  H12A19503   0.921   0.511   7.290 -1.6152 -0.8563  0.4469
  173SLPC  H12B19504   0.923   0.349   7.262  1.3232 -0.8171  1.1094
  173SLPC   C1119505   1.104   0.444   7.177  1.1089 -0.3595 -0.0691
  173SLPC  H11A19506   1.045   0.460   7.084  1.5346 -3.3247 -0.9330
  173SLPC  H11B19507   1.165   0.352   7.170 -0.2970 -1.5343  1.8926
  173SLPC     P19508   1.315   0.590   7.118  0.4565 -0.0469  0.1047
  173SLPC   O1319509   1.301   0.740   7.101 -0.1374  0.2519  0.1637
  173SLPC   O1419510   1.438   0.538   7.175 -0.4849 -0.8093 -0.2355
  173SLPC   O1219511   1.189   0.558   7.198 -0.1444  0.3558  0.2147
  173SLPC   O1119512   1.291   0.515   6.986  0.6348 -0.3415  0.1087
  173SLPC    C119513   1.310   0.571   6.855  0.2698 -0.2583  0.3589
  173SLPC    HA19514   1.327   0.680   6.854 -1.7264  0.1245 -1.8673
  173SLPC    HB19515   1.382   0.505   6.803 -1.0675 -0.3219 -1.5191
  173SLPC    C219516   1.177   0.567   6.773 -0.1422  0.3209  0.1592
  173SLPC    HS19517   1.104   0.635   6.822  0.6012 -0.0827  1.9180
  173SLPC   O2119518   1.130   0.432   6.770  0.6573 -0.3819  0.6102
  173SLPC   C2119519   1.017   0.409   6.827  0.9951  0.6345 -0.1741
  173SLPC   O2219520   0.925   0.491   6.856 -0.5012 -0.3110 -0.5476
  173SLPC   C2219521   1.000   0.253   6.844  0.3683  0.6375 -1.1277
  173SLPC   H2R19522   1.096   0.197   6.849 -0.1957 -0.2317  2.3429
  173SLPC   H2S19523   0.955   0.226   6.942  0.0263  0.5438 -1.3052
  173SLPC    C319524   1.207   0.623   6.627  0.5349  0.5922 -0.3197
  173SLPC    HX19525   1.111   0.616   6.572 -0.2236  1.2501  0.8727
  173SLPC    HY19526   1.278   0.554   6.577 -0.8176 -0.3142 -1.0521
  173SLPC   O3119527   1.258   0.755   6.638 -0.1824 -0.2190  0.1378
  173SLPC   C3119528   1.172   0.855   6.651  0.3797 -0.3599  0.7178
  173SLPC   O3219529   1.052   0.847   6.667 -0.0259  0.0750  0.0284
  173SLPC   C3219530   1.240   0.986   6.605 -0.1790  0.4271 -0.0639
  173SLPC   H2X19531   1.350   0.970   6.612 -0.4422 -0.8580  3.0493
  173SLPC   H2Y19532   1.205   1.067   6.674  0.3630  0.0221  0.7082
  173SLPC   C2319533   0.918   0.183   6.732 -0.0095 -0.1112 -0.0814
  173SLPC   H3R19534   0.818   0.230   6.719 -0.0731  0.4321  1.9706
  173SLPC   H3S19535   0.888   0.080   6.760 -0.0190 -0.0612  0.0900
  173SLPC   C2419536   1.004   0.169   6.603  0.6133  0.4658  0.3224
  173SLPC   H4R19537   1.091   0.100   6.610  0.6392  0.5282  0.6198
  173SLPC   H4S19538   1.050   0.268   6.582  2.9198 -0.1850  1.9301
  173SLPC   C2519539   0.922   0.120   6.477 -0.7767  0.7227 -0.3095
  173SLPC   H5R19540   0.854   0.202   6.446 -0.1416  0.6366 -2.0430
  173SLPC   H5S19541   0.870   0.025   6.505  0.0374  0.0802 -0.9560
  173SLPC   C2619542   1.009   0.085   6.352  0.2695 -0.4600  0.4645
  173SLPC   H6R19543   1.059  -0.010   6.380  1.3484  0.4117  1.6461
  173SLPC   H6S19544   1.082   0.167   6.336 -2.5411  1.9070 -1.0988
  173SLPC   C2719545   0.925   0.083   6.221 -0.2493  0.0995  0.4070
  173SLPC   H7R19546   0.897   0.186   6.191  0.8693  0.8194  1.6984
  173SLPC   H7S19547   0.829   0.033   6.247 -0.8873  0.7506 -0.6416
  173SLPC   C2819548   1.006   0.019   6.105 -0.1006 -0.3960 -0.1366
  173SLPC   H8R19549   0.942  -0.007   6.018 -1.0893 -0.6086  0.6408
  173SLPC   H8S19550   1.039  -0.081   6.139 -2.6237 -0.5461  2.2586
  173SLPC   C2919551   1.113   0.108   6.057  0.4008  0.1118 -0.1325
  173SLPC   H9R19552   1.215   0.078   6.084  1.4131  2.9937 -0.3449
  173SLPC  C21019553   1.104   0.206   5.964 -0.5079  0.2666 -0.4927
  173SLPC  H10R19554   1.196   0.249   5.921  0.5324 -2.3145 -1.0425
  173SLPC  C21119555   0.977   0.271   5.909 -0.0094  0.1305 -0.4513
  173SLPC  H11R19556   0.996   0.381   5.910  0.9884 -0.0166 -1.3712
  173SLPC  H11S19557   0.892   0.238   5.972 -0.2676 -0.2221 -0.9765
  173SLPC  C21219558   0.947   0.210   5.776  0.4087 -0.0923  0.2887
  173SLPC  H12R19559   0.943   0.102   5.756  4.0764 -0.3817  0.4810
  173SLPC  C21319560   0.916   0.290   5.667 -0.9182  0.0058 -0.0023
  173SLPC  H13R19561   0.889   0.228   5.581 -1.3678 -2.0606  1.5459
  173SLPC  C21419562   0.897   0.439   5.659 -0.3824 -0.6595 -0.3013
  173SLPC  H14R19563   0.997   0.472   5.623 -1.4022  0.3775 -2.3671
  173SLPC  H14S19564   0.866   0.487   5.754  1.9624 -0.3311  0.3539
  173SLPC  C21519565   0.797   0.492   5.548  0.0863 -0.9643  0.4659
  173SLPC  H15R19566   0.698   0.466   5.592  0.1355 -0.3768  0.9352
  173SLPC  H15S19567   0.810   0.442   5.450 -0.4082 -2.7710  1.2805
  173SLPC  C21619568   0.812   0.646   5.537  0.3056  1.3870 -0.0147
  173SLPC  H16R19569   0.912   0.649   5.491 -0.9834  0.6933 -3.1181
  173SLPC  H16S19570   0.819   0.703   5.632 -3.1404  1.2095  0.4867
  173SLPC  C21719571   0.709   0.719   5.443 -0.0295  0.8060 -0.2737
  173SLPC  H17R19572   0.732   0.827   5.459 -0.3020  0.6431  1.3641
  173SLPC  H17S19573   0.607   0.686   5.469  0.6628 -1.8826 -0.6938
  173SLPC  C21819574   0.723   0.685   5.295  0.6680  0.3702 -0.2295
  173SLPC  H18R19575   0.827   0.697   5.258  0.9477 -0.0442  0.4034
  173SLPC  H18S19576   0.656   0.754   5.240  0.8645  1.0644  0.3817
  173SLPC  H18T19577   0.678   0.585   5.279 -0.2330  0.2679  2.4609
  173SLPC   C3319578   1.202   1.026   6.457  0.2962  0.0351  0.5038
  173SLPC   H3X19579   1.112   1.090   6.460  0.9904  1.0284  2.6661
  173SLPC   H3Y19580   1.186   0.926   6.412 -1.1861 -0.0571  1.1828
  173SLPC   C3419581   1.312   1.111   6.383  0.1772 -0.1911 -0.0810
  173SLPC   H4X19582   1.415   1.069   6.376  1.3330  2.3391  0.8090
  173SLPC   H4Y19583   1.322   1.210   6.433 -0.6430  1.1264 -2.3917
  173SLPC   C3519584   1.255   1.149   6.248 -0.2860  0.4056 -0.0598
  173SLPC   H5X19585   1.283   1.249   6.208 -0.9078  1.7153  2.5079
  173SLPC   H5Y19586   1.144   1.157   6.254 -0.5257 -1.9906 -0.2685
  173SLPC   C3619587   1.281   1.041   6.135 -0.1715  0.2298  0.0382
  173SLPC   H6X19588   1.257   0.943   6.183  1.6403 -0.0065  0.5353
  173SLPC   H6Y19589   1.392   1.038   6.127 -0.2868 -1.8986 -2.0197
  173SLPC   C3719590   1.215   1.063   5.995  0.5302  0.5169 -0.5079
  173SLPC   H7X19591   1.105   1.075   6.006  0.3031 -0.3400 -1.6769
  173SLPC   H7Y19592   1.228   0.972   5.933 -0.0565 -0.3782  0.6455
  173SLPC   C3819593   1.268   1.191   5.929  0.0807 -0.4610 -0.4356
  173SLPC   H8X19594   1.379   1.191   5.944  0.4638 -0.0672 -2.8248
  173SLPC   H8Y19595   1.229   1.281   5.979  1.2601 -0.5833  0.7426
  173SLPC   C3919596   1.233   1.198   5.781  0.1331 -0.4751 -0.4545
  173SLPC   H9X19597   1.123   1.186   5.770  0.4956 -3.1805 -1.9983
  173SLPC   H9Y19598   1.268   1.112   5.720  0.5058 -0.9280  0.3712
  173SLPC  C31019599   1.260   1.329   5.704 -0.3599 -0.7150 -0.5213
  173SLPC  H10X19600   1.370   1.344   5.693 -0.5613  1.1434 -0.3140
  173SLPC  H10Y19601   1.217   1.396   5.781 -1.5229 -0.8310 -1.0471
  173SLPC  C31119602   1.186   1.344   5.571 -0.1441 -0.1846 -0.0373
  173SLPC  H11X19603   1.086   1.297   5.561  0.0639 -0.7862  0.6104
  173SLPC  H11Y19604   1.245   1.294   5.491 -0.4302 -0.5188 -0.0431
  173SLPC  C31219605   1.173   1.494   5.523  0.1064 -0.4019 -0.4009
  173SLPC  H12X19606   1.279   1.526   5.516  0.2248 -1.1251 -2.3132
  173SLPC  H12Y19607   1.113   1.543   5.603 -0.8208  0.0928 -1.3720
  173SLPC  C31319608   1.101   1.499   5.392  0.2156 -0.0898 -0.0100
  173SLPC  H13X19609   1.008   1.439   5.407 -0.5287  1.2661  1.0623
  173SLPC  H13Y19610   1.169   1.443   5.325 -1.1508 -2.6763  0.6123
  173SLPC  C31419611   1.080   1.640   5.334 -0.4381 -0.2191  0.7416
  173SLPC  H14X19612   1.180   1.685   5.314  0.7832 -2.2378  2.0001
  173SLPC  H14Y19613   1.030   1.715   5.399  0.1364  1.5716 -0.7908
  173SLPC  C31519614   0.988   1.637   5.203 -0.3908  0.2050  0.8216
  173SLPC  H15X19615   0.879   1.643   5.225 -0.1352  1.3163  1.8742
  173SLPC  H15Y19616   1.014   1.546   5.144  1.2499  0.6497  0.8129
  173SLPC  C31619617   0.998   1.762   5.119  0.1485 -0.9441  0.3982
  173SLPC  H16X19618   0.953   1.846   5.175 -1.1665 -1.6114  0.3655
  173SLPC  H16Y19619   0.941   1.737   5.027 -0.8961 -0.7588  0.9826
  173SLPC  C31719620   1.145   1.779   5.069  0.0835 -0.3747 -1.1008
  173SLPC  H17X19621   1.196   1.810   5.163 -0.6145  1.0916 -1.1782
  173SLPC  H17Y19622   1.150   1.853   4.986  0.5214 -0.0226 -0.7660
  173SLPC  C31819623   1.213   1.649   5.014  0.4655 -0.1571  0.8028
  173SLPC  H18X19624   1.219   1.570   5.092  3.1084  1.7310  2.7003
  173SLPC  H18Y19625   1.314   1.668   4.973  0.8231 -1.8104  0.8353
  173SLPC  H18Z19626   1.148   1.612   4.931  0.3086  3.5906 -0.9321
  174SLPC     N19627   3.811   1.801   7.796  0.1420  0.1720  0.6928
  174SLPC   C1319628   3.924   1.737   7.722  0.6883  0.2022  0.1883
  174SLPC  H13A19629   3.992   1.805   7.673  0.4469 -0.0225 -0.4752
  174SLPC  H13B19630   3.976   1.686   7.802 -1.6970  0.7878  2.2495
  174SLPC  H13C19631   3.900   1.652   7.659  0.4618 -1.5865  2.5531
  174SLPC   C1419632   3.861   1.893   7.902  0.0869 -0.6739  0.6086
  174SLPC  H14A19633   3.919   1.836   7.973  1.5964 -1.5456 -1.2452
  174SLPC  H14B19634   3.931   1.961   7.858 -0.9862 -0.9799 -1.7585
  174SLPC  H14C19635   3.784   1.943   7.958 -0.6735 -1.3262  0.1795
  174SLPC   C1519636   3.723   1.694   7.858 -0.0322 -0.4014  0.4665
  174SLPC  H15A19637   3.670   1.636   7.783  1.7371 -2.3439  0.6229
  174SLPC  H15B19638   3.778   1.624   7.919  1.3200 -0.9475 -1.2718
  174SLPC  H15C19639   3.650   1.742   7.921  1.3368  0.0718  1.7268
  174SLPC   C1219640   3.720   1.879   7.702  0.3372 -0.2886 -0.0131
  174SLPC  H12A19641   3.778   1.955   7.652 -0.3973 -0.0927 -0.5868
  174SLPC  H12B19642   3.643   1.919   7.766 -0.5862 -1.8462 -0.1050
  174SLPC   C1119643   3.644   1.809   7.582  0.9153  0.2627  0.0112
  174SLPC  H11A19644   3.716   1.752   7.520 -1.0613 -2.4372 -0.0378
  174SLPC  H11B19645   3.599   1.885   7.515  1.1593  0.9466  0.6081
  174SLPC     P19646   3.395   1.768   7.629  0.1090  0.0841  0.3461
  174SLPC   O1319647   3.315   1.669   7.705 -0.2550  0.5644  1.4163
  174SLPC   O1419648   3.387   1.904   7.679  0.4387  0.0936  0.2579
  174SLPC   O1219649   3.541   1.715   7.619 -0.3877 -0.1073 -0.7028
  174SLPC   O1119650   3.343   1.760   7.484 -0.0901  0.3947  1.0204
  174SLPC    C119651   3.271   1.647   7.432 -0.4469 -0.0293  0.5030
  174SLPC    HA19652   3.309   1.554   7.479 -1.5769 -0.8504 -0.1727
  174SLPC    HB19653   3.165   1.655   7.464 -0.5915  1.5718 -0.2544
  174SLPC    C219654   3.288   1.627   7.284  0.3574 -0.2967 -0.2005
  174SLPC    HS19655   3.248   1.715   7.229  0.2409 -0.9737 -1.2220
  174SLPC   O2119656   3.221   1.507   7.236  0.3726  0.1166 -0.2204
  174SLPC   C2119657   3.087   1.517   7.222  0.3815  0.4418  0.1066
  174SLPC   O2219658   3.017   1.612   7.259 -0.1492  0.1597  0.3838
  174SLPC   C2219659   3.039   1.404   7.130 -0.6244  0.3059 -0.1459
  174SLPC   H2R19660   3.113   1.405   7.047 -1.8073  0.7436 -1.2254
  174SLPC   H2S19661   3.045   1.309   7.187  1.0898  0.9037  0.7626
  174SLPC    C319662   3.434   1.602   7.244  0.2280  0.1926 -0.0754
  174SLPC    HX19663   3.476   1.527   7.314 -1.9390 -0.9193  0.1080
  174SLPC    HY19664   3.493   1.696   7.256 -1.3294  1.0284  1.5875
  174SLPC   O3119665   3.446   1.549   7.114  0.3219 -0.1314 -0.1830
  174SLPC   C3119666   3.573   1.531   7.075  0.2527 -0.0922 -0.0776
  174SLPC   O3219667   3.674   1.561   7.134 -0.5816 -0.1764  0.2039
  174SLPC   C3219668   3.554   1.469   6.932  0.4432 -0.0746 -0.4087
  174SLPC   H2X19669   3.511   1.552   6.871  1.7598  0.0276 -1.2444
  174SLPC   H2Y19670   3.476   1.393   6.954 -1.3402  2.3586  2.4075
  174SLPC   C2319671   2.908   1.428   7.058 -0.4849 -0.0641 -0.4500
  174SLPC   H3R19672   2.895   1.533   7.026 -1.9801 -1.1378 -3.8308
  174SLPC   H3S19673   2.827   1.389   7.123 -2.0590  0.4575 -2.0211
  174SLPC   C2419674   2.900   1.342   6.936 -0.7536  0.5594 -0.0272
  174SLPC   H4R19675   2.942   1.242   6.962 -0.9143  0.2368 -0.9717
  174SLPC   H4S19676   2.973   1.390   6.868  1.5611 -1.5187  0.8343
  174SLPC   C2519677   2.762   1.330   6.872  0.0181  0.5098  0.0212
  174SLPC   H5R19678   2.733   1.437   6.870  0.0081  0.5096  0.1764
  174SLPC   H5S19679   2.704   1.271   6.946  0.7456 -0.3346 -0.0513
  174SLPC   C2619680   2.758   1.264   6.723  0.1938  0.0472 -0.1135
  174SLPC   H6R19681   2.801   1.161   6.720  2.4840  0.9555 -0.3901
  174SLPC   H6S19682   2.828   1.323   6.661  0.8479  0.0445  0.6042
  174SLPC   C2719683   2.617   1.253   6.670  0.2022  0.1887  0.4384
  174SLPC   H7R19684   2.574   1.353   6.693  0.0060 -0.1471  1.5430
  174SLPC   H7S19685   2.563   1.171   6.720  1.6794 -0.8493  0.4100
  174SLPC   C2819686   2.611   1.219   6.521 -0.0580  0.1558 -0.8879
  174SLPC   H8R19687   2.649   1.316   6.481 -0.5222  0.4861 -0.5271
  174SLPC   H8S19688   2.508   1.235   6.483 -0.2374  0.9130 -0.1106
  174SLPC   C2919689   2.669   1.096   6.462 -0.0317  0.1891 -0.3688
  174SLPC   H9R19690   2.659   1.016   6.536 -1.5868 -0.3373 -1.0946
  174SLPC  C21019691   2.718   1.075   6.339  0.0443 -0.0116  0.7339
  174SLPC  H10R19692   2.746   0.973   6.311 -1.3029 -0.2041 -0.0169
  174SLPC  C21119693   2.736   1.166   6.223  0.1579 -0.0542 -0.6884
  174SLPC  H11R19694   2.844   1.170   6.199  0.3007 -2.8220 -0.8184
  174SLPC  H11S19695   2.712   1.270   6.255 -0.5902 -0.1865 -0.8092
  174SLPC  C21219696   2.653   1.125   6.107  0.3340  0.4190 -0.1466
  174SLPC  H12R19697   2.659   1.015   6.097 -0.5627  0.2984  0.4655
  174SLPC  C21319698   2.587   1.201   6.020  0.3602  0.0967 -0.1795
  174SLPC  H13R19699   2.525   1.145   5.948 -0.3234  0.1349  0.3695
  174SLPC  C21419700   2.597   1.351   6.009 -0.0794  0.1932  0.5155
  174SLPC  H14R19701   2.706   1.364   5.992  0.2473 -2.1091  0.5486
  174SLPC  H14S19702   2.571   1.394   6.108  1.4074  1.2747  0.4678
  174SLPC  C21519703   2.518   1.405   5.890 -0.4064 -0.7429  0.4043
  174SLPC  H15R19704   2.470   1.505   5.899  0.3564 -0.1104 -1.7711
  174SLPC  H15S19705   2.442   1.330   5.860 -1.4018  0.5636 -0.4697
  174SLPC  C21619706   2.613   1.417   5.769  0.1648  0.1179 -0.3139
  174SLPC  H16R19707   2.674   1.329   5.739 -1.0559 -0.5347 -0.9502
  174SLPC  H16S19708   2.684   1.499   5.792 -0.1393  1.0976 -2.5943
  174SLPC  C21719709   2.532   1.484   5.650  0.0483  0.8071 -0.8456
  174SLPC  H17R19710   2.454   1.543   5.701 -0.8478 -0.5315 -0.6007
  174SLPC  H17S19711   2.467   1.407   5.603 -1.5665  1.3722  0.3793
  174SLPC  C21819712   2.596   1.561   5.544  0.1812 -0.6908 -0.0362
  174SLPC  H18R19713   2.664   1.508   5.475 -0.3287  0.0242 -1.1159
  174SLPC  H18S19714   2.661   1.645   5.577 -0.4552 -0.2001  0.0047
  174SLPC  H18T19715   2.518   1.616   5.487  1.7965  1.9718  0.1560
  174SLPC   C3319716   3.687   1.411   6.874 -0.4063 -0.2011  0.2992
  174SLPC   H3X19717   3.733   1.349   6.954 -2.5297 -0.5994  1.2636
  174SLPC   H3Y19718   3.755   1.494   6.844 -1.1029  0.6961  1.1223
  174SLPC   C3419719   3.657   1.321   6.753  0.3068  0.1715 -0.0032
  174SLPC   H4X19720   3.576   1.245   6.763  1.0854 -1.3880 -3.7647
  174SLPC   H4Y19721   3.746   1.258   6.736  1.9531  2.3931 -0.0219
  174SLPC   C3519722   3.640   1.415   6.626  0.3099  0.7642 -0.0298
  174SLPC   H5X19723   3.734   1.473   6.618 -0.0069  1.6708  2.2001
  174SLPC   H5Y19724   3.558   1.489   6.642 -1.9540 -1.5286 -0.2972
  174SLPC   C3619725   3.605   1.318   6.509 -0.0017 -0.7167 -0.1784
  174SLPC   H6X19726   3.538   1.239   6.551 -1.5260  1.0982  0.9821
  174SLPC   H6Y19727   3.703   1.270   6.493 -0.5257 -1.7296 -0.4119
  174SLPC   C3719728   3.539   1.378   6.389  0.2245  0.4025  0.4844
  174SLPC   H7X19729   3.602   1.464   6.356  0.0767  0.0569 -0.7251
  174SLPC   H7Y19730   3.441   1.425   6.412 -1.7543 -1.9640 -2.4122
  174SLPC   C3819731   3.531   1.279   6.270 -0.7307 -0.5059 -0.6770
  174SLPC   H8X19732   3.456   1.199   6.288 -2.7690  1.1269 -1.4647
  174SLPC   H8Y19733   3.627   1.231   6.242 -0.4567 -0.2193 -0.2334
  174SLPC   C3919734   3.469   1.342   6.146  0.6382 -1.2280  0.7680
  174SLPC   H9X19735   3.389   1.412   6.179  1.4109  0.3869 -0.6614
  174SLPC   H9Y19736   3.419   1.264   6.085  2.2567 -0.4351 -1.7515
  174SLPC  C31019737   3.569   1.418   6.052 -0.1644  0.1179 -0.2212
  174SLPC  H10X19738   3.648   1.345   6.023  0.5017  0.0848  1.5568
  174SLPC  H10Y19739   3.625   1.496   6.109 -1.3698  0.7447  0.1411
  174SLPC  C31119740   3.494   1.476   5.933  0.5074 -0.3634 -0.3309
  174SLPC  H11X19741   3.400   1.513   5.980  1.1073  1.0955 -0.2364
  174SLPC  H11Y19742   3.468   1.402   5.855  1.4376 -1.6159  0.5137
  174SLPC  C31219743   3.574   1.583   5.863 -0.4731  0.0619 -0.3573
  174SLPC  H12X19744   3.675   1.538   5.854 -1.0288 -1.4512  0.6110
  174SLPC  H12Y19745   3.578   1.678   5.920  0.5800  1.4377 -2.5972
  174SLPC  C31319746   3.524   1.609   5.720  1.0300 -0.3522 -1.0231
  174SLPC  H13X19747   3.414   1.615   5.733  1.1963  0.6103  0.1628
  174SLPC  H13Y19748   3.543   1.517   5.661 -1.1891 -1.3025 -0.3739
  174SLPC  C31419749   3.581   1.731   5.647 -0.2193  0.7826  0.2165
  174SLPC  H14X19750   3.690   1.734   5.668 -0.4173 -0.5942  1.6431
  174SLPC  H14Y19751   3.524   1.809   5.702 -1.5346 -0.0237  0.0455
  174SLPC  C31519752   3.544   1.744   5.499 -0.5472 -0.2208 -0.1028
  174SLPC  H15X19753   3.606   1.672   5.442  0.4245  0.3986  0.1470
  174SLPC  H15Y19754   3.561   1.843   5.453 -2.6361  0.1797 -0.0928
  174SLPC  C31619755   3.393   1.712   5.477 -0.3149 -0.4545  0.2233
  174SLPC  H16X19756   3.323   1.771   5.540 -0.4410  2.7055 -2.6034
  174SLPC  H16Y19757   3.388   1.602   5.495  1.2707 -0.8746 -1.5385
  174SLPC  C31719758   3.354   1.757   5.335  0.4833  0.4044 -1.0976
  174SLPC  H17X19759   3.349   1.868   5.337 -1.4052  0.3619  0.8248
  174SLPC  H17Y19760   3.248   1.725   5.320  1.0745 -1.7671 -1.0069
  174SLPC  C31819761   3.439   1.695   5.224  0.0854 -0.5412  0.0952
  174SLPC  H18X19762   3.527   1.761   5.209  0.2796 -1.1200 -1.4709
  174SLPC  H18Y19763   3.379   1.702   5.131 -1.9457 -1.5399  1.2405
  174SLPC  H18Z19764   3.465   1.591   5.256 -1.4954 -0.6774  1.0892
  175SLPC     N19765   5.927   3.978   7.605 -0.2507 -0.8123  0.3111
  175SLPC   C1319766   5.796   4.010   7.664  0.5311  0.6388 -0.8918
  175SLPC  H13A19767   5.769   3.929   7.730  2.1942 -1.4003 -2.5561
  175SLPC  H13B19768   5.794   4.104   7.717 -0.5834  0.4161 -0.5115
  175SLPC  H13C19769   5.715   4.004   7.591 -0.7242 -0.5295  0.5374
  175SLPC   C1419770   5.924   3.843   7.555 -0.4949 -0.5561 -0.7726
  175SLPC  H14A19771   6.023   3.805   7.536 -0.2703 -0.6378  0.4888
  175SLPC  H14B19772   5.873   3.769   7.615 -0.4561  0.5106  0.6073
  175SLPC  H14C19773   5.878   3.841   7.457  0.0965 -2.5442 -1.0529
  175SLPC   C1519774   6.026   3.971   7.719 -0.0442 -0.2752 -0.4342
  175SLPC  H15A19775   6.123   3.934   7.689  0.1142 -0.9836  0.8499
  175SLPC  H15B19776   6.048   4.072   7.749 -0.3469  0.2523 -1.9177
  175SLPC  H15C19777   5.991   3.903   7.796  1.5172 -0.9107 -0.2341
  175SLPC   C1219778   5.968   4.078   7.500 -0.2522  0.1742 -0.9571
  175SLPC  H12A19779   6.072   4.067   7.473  0.8172  0.6954  2.5053
  175SLPC  H12B19780   5.970   4.179   7.539 -0.5133  0.0439 -0.6071
  175SLPC   C1119781   5.890   4.086   7.366 -0.0131 -0.3029 -0.4243
  175SLPC  H11A19782   5.922   4.171   7.302 -2.4722 -1.1248 -2.9548
  175SLPC  H11B19783   5.783   4.112   7.386 -0.3111 -2.7709  1.7603
  175SLPC     P19784   6.037   3.915   7.229 -0.0493  0.0468  0.1147
  175SLPC   O1319785   6.143   4.013   7.254 -0.5266 -0.1005 -0.3120
  175SLPC   O1419786   6.058   3.770   7.263  0.0188  0.3939 -0.1252
  175SLPC   O1219787   5.897   3.963   7.288 -0.3541 -0.2868  0.3903
  175SLPC   O1119788   6.004   3.925   7.078  0.0111 -0.4982 -0.3505
  175SLPC    C119789   5.935   4.030   7.012  0.2344  0.2058  0.5641
  175SLPC    HA19790   5.836   4.037   7.061  0.4513 -3.7678  1.9313
  175SLPC    HB19791   5.996   4.123   7.009 -0.6019  0.7579  0.1327
  175SLPC    C219792   5.911   3.990   6.864  0.4870  0.2207  0.1257
  175SLPC    HS19793   5.827   4.053   6.826  1.5368  1.1830 -0.6625
  175SLPC   O2119794   5.882   3.851   6.848 -0.2573  0.1910 -0.2229
  175SLPC   C2119795   5.763   3.816   6.907 -0.0590 -0.4852  0.2678
  175SLPC   O2219796   5.681   3.897   6.945 -0.2950  0.2324 -0.5077
  175SLPC   C2219797   5.753   3.664   6.918 -0.1926 -0.3157 -0.5054
  175SLPC   H2R19798   5.834   3.637   6.989 -0.3968 -1.4274 -0.6719
  175SLPC   H2S19799   5.656   3.635   6.964  0.2424 -1.7084 -0.4342
  175SLPC    C319800   6.029   4.020   6.771 -0.1164 -0.3043  1.3540
  175SLPC    HX19801   6.101   3.956   6.826  0.5260  0.4204  1.3831
  175SLPC    HY19802   6.068   4.124   6.765 -1.5344  0.1832 -2.5705
  175SLPC   O3119803   6.006   3.986   6.632  0.1333  0.2356 -0.1403
  175SLPC   C3119804   6.052   3.864   6.588 -1.0408  0.2000 -0.7221
  175SLPC   O3219805   6.105   3.786   6.659  0.0972  0.2025 -0.4263
  175SLPC   C3219806   6.021   3.845   6.439 -0.6726  0.5038 -0.1970
  175SLPC   H2X19807   6.049   3.939   6.386 -0.4664  0.2321 -0.5632
  175SLPC   H2Y19808   5.910   3.848   6.426 -0.6108  1.7798 -0.6309
  175SLPC   C2319809   5.793   3.588   6.787  0.0952  0.2972 -0.3200
  175SLPC   H3R19810   5.900   3.556   6.790  0.1143  0.4147  0.3691
  175SLPC   H3S19811   5.791   3.647   6.693 -1.4213  0.3157 -0.3030
  175SLPC   C2419812   5.708   3.464   6.762  0.4516 -0.0044 -0.1493
  175SLPC   H4R19813   5.614   3.508   6.723 -0.5391 -0.9918  1.0405
  175SLPC   H4S19814   5.686   3.399   6.849 -0.7082  0.3840 -0.1337
  175SLPC   C2519815   5.771   3.375   6.648 -0.4565 -0.9362  0.8097
  175SLPC   H5R19816   5.800   3.445   6.566  0.2431 -0.6090  1.3234
  175SLPC   H5S19817   5.686   3.317   6.606 -0.7106 -0.1541  0.2236
  175SLPC   C2619818   5.900   3.288   6.682 -0.0011  0.5774 -0.3795
  175SLPC   H6R19819   5.878   3.223   6.770  0.5896 -1.7681 -1.8527
  175SLPC   H6S19820   5.985   3.351   6.715  0.2099  0.7185 -1.1800
  175SLPC   C2719821   5.950   3.196   6.573  0.4955 -0.0426 -0.0408
  175SLPC   H7R19822   5.871   3.169   6.500  2.3255 -0.1453 -2.0917
  175SLPC   H7S19823   5.972   3.096   6.615  0.2997 -0.6815 -1.4105
  175SLPC   C2819824   6.077   3.256   6.504  0.6286 -0.5427 -0.1360
  175SLPC   H8R19825   6.146   3.268   6.589  0.7303 -0.8473 -0.1746
  175SLPC   H8S19826   6.058   3.359   6.465 -0.7485  0.1841  2.2480
  175SLPC   C2919827   6.128   3.149   6.401  0.0792 -0.0492 -0.2256
  175SLPC   H9R19828   6.122   3.044   6.433  1.5167 -0.9083 -2.5235
  175SLPC  C21019829   6.178   3.157   6.276  0.2976  0.0869 -0.0786
  175SLPC  H10R19830   6.192   3.068   6.214 -1.5252 -0.4676  0.2555
  175SLPC  C21119831   6.201   3.296   6.219 -0.2469 -0.0124 -0.6803
  175SLPC  H11R19832   6.233   3.356   6.307  4.5455 -1.5842 -1.0931
  175SLPC  H11S19833   6.107   3.339   6.177  0.5688  1.3583 -1.1544
  175SLPC  C21219834   6.312   3.292   6.119  0.2542  0.2130 -0.0695
  175SLPC  H12R19835   6.396   3.222   6.126  0.0837 -0.2974 -2.2280
  175SLPC  C21319836   6.305   3.366   6.009  0.3218  0.1575  0.6455
  175SLPC  H13R19837   6.386   3.360   5.934  0.6583  2.1031  0.8112
  175SLPC  C21419838   6.209   3.478   5.969 -0.8911 -0.2101 -0.1102
  175SLPC  H14R19839   6.271   3.571   5.968  1.9557 -1.6975  4.7168
  175SLPC  H14S19840   6.127   3.497   6.041 -0.0473  0.8745  0.5911
  175SLPC  C21519841   6.158   3.465   5.820 -0.5357 -0.3917 -0.7636
  175SLPC  H15R19842   6.084   3.382   5.815  1.7905 -2.6685  0.5803
  175SLPC  H15S19843   6.242   3.442   5.751 -0.7604 -0.8126 -0.8982
  175SLPC  C21619844   6.106   3.603   5.771 -0.2214 -0.2822 -0.4189
  175SLPC  H16R19845   6.193   3.670   5.755  0.1243 -0.8918 -1.1686
  175SLPC  H16S19846   6.035   3.650   5.843 -0.2697 -0.8878 -0.0544
  175SLPC  C21719847   6.040   3.596   5.628 -0.6924 -0.3005  0.2831
  175SLPC  H17R19848   5.938   3.551   5.627 -1.7746  1.9861 -0.6331
  175SLPC  H17S19849   6.110   3.551   5.555 -1.5359  0.5934 -1.1266
  175SLPC  C21819850   6.008   3.734   5.567 -0.4191 -0.8092  0.2047
  175SLPC  H18R19851   5.956   3.797   5.642  0.1458 -1.3461  1.0671
  175SLPC  H18S19852   5.950   3.718   5.475  1.6814 -2.6655 -0.9044
  175SLPC  H18T19853   6.098   3.795   5.542 -2.7699  2.1187 -1.6758
  175SLPC   C3319854   6.091   3.721   6.384 -0.4268 -0.9979  0.3992
  175SLPC   H3X19855   6.041   3.702   6.286 -0.7067  2.4184 -0.2524
  175SLPC   H3Y19856   6.081   3.627   6.443 -0.5009 -1.3610 -0.1816
  175SLPC   C3419857   6.243   3.752   6.351 -0.3964 -0.6475  0.2841
  175SLPC   H4X19858   6.302   3.784   6.440  2.1161  3.3221 -2.4899
  175SLPC   H4Y19859   6.247   3.834   6.277 -1.1135 -2.3183 -1.7145
  175SLPC   C3519860   6.322   3.636   6.286  0.2554 -0.0180 -0.2577
  175SLPC   H5X19861   6.274   3.612   6.189 -0.5949  1.5023 -0.2474
  175SLPC   H5Y19862   6.312   3.544   6.348  0.8185  0.0570 -0.0522
  175SLPC   C3619863   6.462   3.681   6.256 -0.2836 -0.0421 -0.4170
  175SLPC   H6X19864   6.514   3.692   6.354  1.9060 -1.7497 -1.3067
  175SLPC   H6Y19865   6.470   3.780   6.206  2.9743 -0.2429 -0.4875
  175SLPC   C3719866   6.537   3.582   6.172 -0.2329  0.5604 -0.1303
  175SLPC   H7X19867   6.507   3.581   6.065  0.4897  3.4403 -0.4377
  175SLPC   H7Y19868   6.534   3.474   6.199 -1.0927 -0.0035 -2.2325
  175SLPC   C3819869   6.678   3.629   6.151  0.2806 -0.3548 -0.6610
  175SLPC   H8X19870   6.735   3.602   6.243 -0.7334  2.9372  1.1037
  175SLPC   H8Y19871   6.668   3.739   6.146 -0.3235 -0.2187  2.0772
  175SLPC   C3919872   6.759   3.580   6.031 -0.4665  0.3899  0.3322
  175SLPC   H9X19873   6.865   3.605   6.051 -0.6166  0.9179  0.4998
  175SLPC   H9Y19874   6.727   3.636   5.940 -0.8188 -2.4792 -1.4361
  175SLPC  C31019875   6.758   3.431   6.006 -0.3305 -0.4240 -0.4576
  175SLPC  H10X19876   6.652   3.405   5.985 -0.9415  1.2453  0.3754
  175SLPC  H10Y19877   6.787   3.377   6.098  1.9453  4.0452  1.7954
  175SLPC  C31119878   6.854   3.380   5.897  0.0187 -0.4008  0.6790
  175SLPC  H11X19879   6.934   3.456   5.893 -0.8402  0.5044  0.3472
  175SLPC  H11Y19880   6.799   3.387   5.801  0.9144  2.6458  0.2809
  175SLPC  C31219881   6.916   3.240   5.926  0.6260  0.3535 -0.0144
  175SLPC  H12X19882   6.840   3.164   5.898 -0.0372  0.9156  0.2221
  175SLPC  H12Y19883   6.922   3.221   6.036 -1.6368 -0.1881  0.0605
  175SLPC  C31319884   7.041   3.215   5.846 -0.1764 -0.5461  0.6259
  175SLPC  H13X19885   7.103   3.129   5.880  2.6221  1.8594  2.1561
  175SLPC  H13Y19886   7.096   3.310   5.864 -0.6721  0.6052 -3.0881
  175SLPC  C31419887   7.014   3.213   5.692 -0.0923  0.0449  0.0374
  175SLPC  H14X19888   7.116   3.192   5.655  0.0657 -0.4128  0.7134
  175SLPC  H14Y19889   6.981   3.303   5.636 -0.8871 -0.5698 -0.5098
  175SLPC  C31519890   6.929   3.094   5.653  0.0028 -0.0492  0.3985
  175SLPC  H15X19891   6.828   3.104   5.699  0.2737  1.5404  0.7253
  175SLPC  H15Y19892   6.978   2.997   5.675 -0.4294 -0.9336 -2.1372
  175SLPC  C31619893   6.913   3.087   5.502 -0.3849  0.4444 -0.0629
  175SLPC  H16X19894   7.006   3.047   5.456 -0.2926 -0.6389  1.0165
  175SLPC  H16Y19895   6.893   3.188   5.459  0.3173  0.3040 -0.7487
  175SLPC  C31719896   6.799   2.989   5.457  0.4835  0.3944  0.2552
  175SLPC  H17X19897   6.711   3.000   5.523 -0.2809  0.5322 -0.7667
  175SLPC  H17Y19898   6.836   2.885   5.452 -0.9320 -0.0803 -3.3942
  175SLPC  C31819899   6.744   3.016   5.319 -0.1507  0.7120  0.5942
  175SLPC  H18X19900   6.716   3.124   5.314  0.4023  0.8577  0.6334
  175SLPC  H18Y19901   6.661   2.949   5.286  0.6912  0.3010 -0.7715
  175SLPC  H18Z19902   6.823   3.012   5.241 -2.5710  3.3725 -2.2480
  176SLPC     N19903   0.098   2.429   7.836 -0.1238  0.3709  0.1033
  176SLPC   C1319904   0.118   2.496   7.968 -0.2077  0.1329  0.2271
  176SLPC  H13A19905   0.089   2.600   7.975  1.6974  0.7555 -0.6342
  176SLPC  H13B19906   0.065   2.438   8.042  0.5228  1.1427  1.5763
  176SLPC  H13C19907   0.223   2.497   7.991  0.0598 -1.0463 -0.8858
  176SLPC   C1419908  -0.039   2.414   7.811 -0.3309 -0.3144  0.2596
  176SLPC  H14A19909  -0.100   2.359   7.882  1.6225 -1.3569  1.2006
  176SLPC  H14B19910  -0.089   2.509   7.825  1.0597  0.6679 -1.0957
  176SLPC  H14C19911  -0.073   2.380   7.714  1.9220 -3.0073  0.3011
  176SLPC   C1519912   0.153   2.295   7.847 -0.2789 -0.6430 -0.1049
  176SLPC  H15A19913   0.111   2.231   7.771 -0.5843 -1.3655  0.6511
  176SLPC  H15B19914   0.257   2.290   7.821 -0.2324 -1.4100  0.1984
  176SLPC  H15C19915   0.142   2.265   7.950 -0.0232 -0.2635  0.0373
  176SLPC   C1219916   0.180   2.488   7.717 -0.0070  0.1169 -1.0262
  176SLPC  H12A19917   0.285   2.473   7.739  0.5622  3.1240 -1.1252
  176SLPC  H12B19918   0.163   2.595   7.713 -2.4951 -0.2000 -0.3641
  176SLPC   C1119919   0.137   2.433   7.576 -0.1757  0.4664 -0.6320
  176SLPC  H11A19920   0.173   2.327   7.573  0.0081  0.5404 -3.4429
  176SLPC  H11B19921   0.192   2.477   7.491  0.3146 -1.8347 -1.6014
  176SLPC     P19922  -0.076   2.560   7.478 -0.2182 -0.2925 -0.1151
  176SLPC   O1319923  -0.220   2.526   7.474 -0.1259 -0.4304  0.1292
  176SLPC   O1419924  -0.035   2.671   7.568  0.6924  0.1234  0.5822
  176SLPC   O1219925  -0.010   2.437   7.548 -0.0902  0.5261  0.4824
  176SLPC   O1119926  -0.006   2.574   7.340  0.2552 -0.5370  0.6527
  176SLPC    C119927   0.034   2.464   7.259 -0.4629  0.3660 -0.3217
  176SLPC    HA19928   0.123   2.409   7.296 -1.3838 -3.4091 -3.1050
  176SLPC    HB19929  -0.046   2.386   7.255 -0.1440  0.0536 -0.6648
  176SLPC    C219930   0.071   2.509   7.123  0.0765 -0.2798  0.0682
  176SLPC    HS19931   0.099   2.424   7.058  1.0477  1.2532 -1.6057
  176SLPC   O2119932   0.180   2.603   7.133  0.0774 -0.2154 -0.3007
  176SLPC   C2119933   0.298   2.555   7.165  0.4048 -0.2415 -1.0191
  176SLPC   O2219934   0.329   2.444   7.198 -0.2925 -0.0197  0.4442
  176SLPC   C2219935   0.394   2.667   7.156  0.7680  0.1036 -0.3567
  176SLPC   H2R19936   0.362   2.742   7.233 -0.4899 -0.6864 -0.0908
  176SLPC   H2S19937   0.491   2.635   7.200  0.9906  3.2023  1.8336
  176SLPC    C319938  -0.034   2.593   7.054  0.5971 -0.4776 -0.1677
  176SLPC    HX19939   0.017   2.652   6.975 -0.6116  1.8978  0.7111
  176SLPC    HY19940  -0.080   2.661   7.129 -2.1670  0.0840 -2.2224
  176SLPC   O3119941  -0.145   2.516   7.004 -0.0182  0.2942  0.0556
  176SLPC   C3119942  -0.121   2.454   6.897 -0.0385  0.6328  0.5365
  176SLPC   O3219943  -0.017   2.453   6.833 -0.1967 -0.0742 -0.2299
  176SLPC   C3219944  -0.243   2.376   6.849  0.1728  0.3627  0.1389
  176SLPC   H2X19945  -0.334   2.437   6.868 -0.4121 -0.8299  1.3280
  176SLPC   H2Y19946  -0.248   2.286   6.915  0.6743  0.9464  0.9937
  176SLPC   C2319947   0.399   2.721   7.004  0.2235 -0.2308 -0.1583
  176SLPC   H3R19948   0.480   2.797   7.005  0.7508 -0.7139 -1.9015
  176SLPC   H3S19949   0.305   2.774   6.978  0.3239  0.5529  1.0321
  176SLPC   C2419950   0.437   2.614   6.898 -0.4607 -0.3540 -0.6091
  176SLPC   H4R19951   0.375   2.525   6.925 -0.2540 -0.0835  0.8667
  176SLPC   H4S19952   0.543   2.586   6.911 -0.8977 -2.6844 -1.5403
  176SLPC   C2519953   0.427   2.666   6.753  0.5411  0.6492 -0.1111
  176SLPC   H5R19954   0.493   2.746   6.712 -0.9923  1.4074 -1.1759
  176SLPC   H5S19955   0.323   2.699   6.732  0.7942  0.7682 -1.2512
  176SLPC   C2619956   0.441   2.549   6.653  1.2359  0.0771 -0.5746
  176SLPC   H6R19957   0.413   2.454   6.703  0.3423  0.9604  0.6517
  176SLPC   H6S19958   0.551   2.544   6.640  1.4117  0.7108  0.5447
  176SLPC   C2719959   0.365   2.558   6.522 -0.1012 -0.0779 -0.2981
  176SLPC   H7R19960   0.426   2.636   6.473  1.6725 -0.7629  0.7200
  176SLPC   H7S19961   0.261   2.590   6.546  0.6747  1.9139  0.6089
  176SLPC   C2819962   0.359   2.431   6.429  0.2613 -0.6503 -0.3582
  176SLPC   H8R19963   0.288   2.453   6.347 -2.0647 -1.1726  1.3899
  176SLPC   H8S19964   0.309   2.358   6.497 -0.4147  1.3672  1.4133
  176SLPC   C2919965   0.495   2.378   6.379  0.0818 -0.3133 -0.4364
  176SLPC   H9R19966   0.575   2.375   6.456 -0.3164  1.4700  0.1018
  176SLPC  C21019967   0.518   2.338   6.255  0.2144  0.0964  0.2119
  176SLPC  H10R19968   0.616   2.290   6.244  0.4328  0.7024 -0.5640
  176SLPC  C21119969   0.411   2.339   6.148 -0.1568  0.1249  0.2840
  176SLPC  H11R19970   0.320   2.291   6.190 -1.2342  1.3578 -0.5450
  176SLPC  H11S19971   0.460   2.283   6.065  1.9314  2.4400 -0.1924
  176SLPC  C21219972   0.365   2.469   6.096 -0.5069  0.5511  0.5350
  176SLPC  H12R19973   0.273   2.507   6.143 -0.5500 -1.2700  2.0412
  176SLPC  C21319974   0.436   2.545   6.009 -0.5513 -0.7134  0.3479
  176SLPC  H13R19975   0.399   2.643   5.974 -0.1533 -1.2909 -1.8202
  176SLPC  C21419976   0.554   2.495   5.933  0.2498 -0.1715  0.6079
  176SLPC  H14R19977   0.590   2.391   5.943  2.5488  0.1641 -2.7054
  176SLPC  H14S19978   0.648   2.550   5.952  0.4247 -0.1054 -0.4156
  176SLPC  C21519979   0.536   2.495   5.781 -0.0483 -0.2036 -0.0989
  176SLPC  H15R19980   0.626   2.452   5.732  0.1922 -1.4952  1.3913
  176SLPC  H15S19981   0.513   2.597   5.742 -1.3689  0.4439  2.1487
  176SLPC  C21619982   0.415   2.408   5.729 -0.4619 -0.1805 -0.3825
  176SLPC  H16R19983   0.327   2.443   5.787  1.9546  2.6797  1.9130
  176SLPC  H16S19984   0.437   2.301   5.752 -0.8913 -0.5310 -1.5531
  176SLPC  C21719985   0.387   2.423   5.581 -0.9050 -0.7169 -0.5242
  176SLPC  H17R19986   0.377   2.532   5.564  0.7151 -0.3847  0.4665
  176SLPC  H17S19987   0.285   2.384   5.560 -0.6857 -1.4684 -0.2096
  176SLPC  C21819988   0.495   2.357   5.492 -0.3283 -0.0595 -0.0150
  176SLPC  H18R19989   0.450   2.336   5.392 -0.1929 -1.7759  0.2460
  176SLPC  H18S19990   0.512   2.258   5.539 -3.4738 -0.6861 -0.0041
  176SLPC  H18T19991   0.585   2.421   5.484  0.1362 -0.7017 -0.0590
  176SLPC   C3319992  -0.240   2.345   6.701 -0.1244  0.8989 -1.0077
  176SLPC   H3X19993  -0.150   2.288   6.669 -1.5677 -0.1406 -3.5417
  176SLPC   H3Y19994  -0.243   2.437   6.639  1.1252  0.9907 -0.9437
  176SLPC   C3419995  -0.364   2.265   6.649  0.6221 -0.4719 -0.1143
  176SLPC   H4X19996  -0.457   2.321   6.674 -0.4643 -2.3792  0.3387
  176SLPC   H4Y19997  -0.366   2.160   6.688  0.6920 -1.0083 -1.5165
  176SLPC   C3519998  -0.376   2.246   6.497  0.0061 -0.1622  0.2443
  176SLPC   H5X19999  -0.274   2.220   6.464 -0.0135  0.5701 -0.3972
  176SLPC   H5Y20000  -0.384   2.345   6.447 -1.0059 -0.8190 -0.9483
  176SLPC   C3620001  -0.505   2.164   6.452 -0.1369  0.0134  0.4780
  176SLPC   H6X20002  -0.531   2.199   6.350  2.4684 -1.4439 -0.7662
  176SLPC   H6Y20003  -0.595   2.193   6.511 -1.0890 -0.2949 -0.7798
  176SLPC   C3720004  -0.495   2.009   6.449  0.9363  0.9074  0.3195
  176SLPC   H7X20005  -0.483   1.969   6.552  1.8406 -1.7213 -0.7157
  176SLPC   H7Y20006  -0.396   1.995   6.400  0.5340  2.5273 -1.0630
  176SLPC   C3820007  -0.609   1.934   6.384  0.0334 -0.4603 -0.3589
  176SLPC   H8X20008  -0.703   1.927   6.443 -0.5766  1.6999 -0.9705
  176SLPC   H8Y20009  -0.571   1.830   6.381 -0.0101 -0.4709 -0.5822
  176SLPC   C3920010  -0.647   1.989   6.247  0.4889  0.6232  0.6068
  176SLPC   H9X20011  -0.559   2.011   6.183 -0.1856  0.4984 -0.3848
  176SLPC   H9Y20012  -0.691   2.091   6.254 -0.7755  0.2954 -1.6335
  176SLPC  C31020013  -0.745   1.903   6.162 -0.6175 -0.6949  0.1379
  176SLPC  H10X20014  -0.823   1.858   6.227  0.6008 -0.6606  1.6682
  176SLPC  H10Y20015  -0.695   1.812   6.122  3.1316  1.4649 -0.5877
  176SLPC  C31120016  -0.808   1.986   6.050 -0.2840  0.5572 -0.0628
  176SLPC  H11X20017  -0.845   2.087   6.075 -0.4197  0.1786  1.3674
  176SLPC  H11Y20018  -0.898   1.925   6.026 -1.1079  1.2643  1.1495
  176SLPC  C31220019  -0.716   1.991   5.934 -0.5488  0.4826 -0.1130
  176SLPC  H12X20020  -0.669   1.890   5.932  0.4355  0.9180  0.3636
  176SLPC  H12Y20021  -0.641   2.068   5.962 -1.5416  1.6262 -0.5142
  176SLPC  C31320022  -0.781   2.029   5.801  0.1364  0.3316  0.0051
  176SLPC  H13X20023  -0.845   1.940   5.779  3.3441 -2.6850  1.7441
  176SLPC  H13Y20024  -0.701   2.047   5.727 -1.6283 -1.2544 -2.4235
  176SLPC  C31420025  -0.881   2.151   5.803 -0.2032  0.3624 -0.5701
  176SLPC  H14X20026  -0.819   2.241   5.817 -0.5869  0.5147  0.1668
  176SLPC  H14Y20027  -0.935   2.126   5.897 -0.2799 -2.7651 -1.3138
  176SLPC  C31520028  -0.969   2.163   5.681  0.0542 -0.8456  0.1397
  176SLPC  H15X20029  -1.000   2.059   5.654 -0.4020 -0.7822  0.3950
  176SLPC  H15Y20030  -0.903   2.195   5.598  1.0733 -0.3023  1.1335
  176SLPC  C31620031  -1.087   2.265   5.712 -0.1233  0.4235  0.5073
  176SLPC  H16X20032  -1.054   2.367   5.739  0.9531  0.2338 -0.0178
  176SLPC  H16Y20033  -1.147   2.222   5.795  1.0930 -0.4500  0.9565
  176SLPC  C31720034  -1.173   2.270   5.582 -0.3794 -0.0515  0.1157
  176SLPC  H17X20035  -1.272   2.317   5.598 -0.7043 -0.7314  0.1305
  176SLPC  H17Y20036  -1.182   2.165   5.549 -0.3569  0.1438 -0.5234
  176SLPC  C31820037  -1.098   2.346   5.475  0.1655 -0.1848 -1.2945
  176SLPC  H18X20038  -1.019   2.277   5.440 -0.2359 -0.8986 -0.8238
  176SLPC  H18Y20039  -1.049   2.434   5.524 -2.0240  0.3757  0.0604
  176SLPC  H18Z20040  -1.155   2.378   5.385 -1.6172 -0.3173 -0.2719
  177SLPC     N20041   0.889   2.721   7.805 -0.3895  0.0576 -0.0858
  177SLPC   C1320042   0.941   2.786   7.684 -0.0945 -0.2461 -0.5578
  177SLPC  H13A20043   1.049   2.781   7.677  0.1020  0.4623  1.3332
  177SLPC  H13B20044   0.897   2.741   7.596  0.2018  0.0781 -0.8741
  177SLPC  H13C20045   0.903   2.887   7.686 -2.1316 -0.9885  0.7243
  177SLPC   C1420046   0.749   2.762   7.822  0.3596 -0.1268 -0.4329
  177SLPC  H14A20047   0.693   2.728   7.736  0.2652  1.8443 -1.1967
  177SLPC  H14B20048   0.702   2.706   7.902  0.2330 -1.9584 -1.7315
  177SLPC  H14C20049   0.728   2.868   7.824 -0.4248 -0.2109 -2.3228
  177SLPC   C1520050   0.976   2.771   7.918 -0.2390  1.0987 -0.6389
  177SLPC  H15A20051   0.970   2.714   8.010  3.6294  2.3967  0.5901
  177SLPC  H15B20052   1.075   2.780   7.878  0.2472  3.3762  0.8747
  177SLPC  H15C20053   0.962   2.876   7.940  0.2368  0.9058  0.6968
  177SLPC   C1220054   0.907   2.570   7.796  0.5410  0.0359 -0.0977
  177SLPC  H12A20055   0.856   2.533   7.708  0.9537  1.9669 -1.1991
  177SLPC  H12B20056   0.859   2.536   7.887  0.0735  3.2486  0.9993
  177SLPC   C1120057   1.055   2.514   7.786  0.4640 -0.2592 -0.2023
  177SLPC  H11A20058   1.056   2.405   7.808  0.1959 -0.5665 -1.6366
  177SLPC  H11B20059   1.115   2.560   7.867  0.8518  0.2171 -0.7554
  177SLPC     P20060   1.079   2.486   7.528  0.0686  0.3155  0.3581
  177SLPC   O1320061   1.075   2.339   7.540  0.0198 -0.0021 -0.3806
  177SLPC   O1420062   0.957   2.560   7.483  0.0547  0.1109 -0.0342
  177SLPC   O1220063   1.113   2.548   7.667 -0.1426 -0.1015 -0.2130
  177SLPC   O1120064   1.207   2.523   7.441 -0.0170 -0.1087 -0.6372
  177SLPC    C120065   1.232   2.662   7.415  0.1416  0.0351 -0.2868
  177SLPC    HA20066   1.184   2.732   7.486 -1.9569 -0.9274 -0.6578
  177SLPC    HB20067   1.342   2.670   7.413  0.1941  0.7001  2.3706
  177SLPC    C220068   1.186   2.697   7.271 -0.7551  0.5618 -0.0358
  177SLPC    HS20069   1.075   2.684   7.266 -0.7120  0.0192  0.3491
  177SLPC   O2120070   1.242   2.602   7.182  0.0087 -0.0016 -0.1052
  177SLPC   C2120071   1.174   2.508   7.111  0.2021 -0.4446 -0.2270
  177SLPC   O2220072   1.051   2.496   7.123 -0.0490  0.2750  0.2171
  177SLPC   C2220073   1.264   2.428   7.027  0.0762 -0.0326  0.4805
  177SLPC   H2R20074   1.359   2.415   7.083  0.0939 -2.1631  0.0629
  177SLPC   H2S20075   1.215   2.329   7.011 -0.7346  0.7357 -2.4426
  177SLPC    C320076   1.224   2.843   7.227 -0.1905 -0.1730 -0.2480
  177SLPC    HX20077   1.336   2.844   7.226 -0.1872  0.2725  0.3279
  177SLPC    HY20078   1.197   2.934   7.285 -2.3712  0.1069 -1.5827
  177SLPC   O3120079   1.185   2.861   7.092  0.9378 -1.0624  1.0135
  177SLPC   C3120080   1.064   2.908   7.071  0.4884 -0.1957 -0.2986
  177SLPC   O3220081   0.985   2.958   7.155 -0.5355  0.3541  0.6573
  177SLPC   C3220082   1.032   2.892   6.925 -0.7333 -0.2472  0.2426
  177SLPC   H2X20083   1.103   2.827   6.869 -0.0754 -0.6181  1.4645
  177SLPC   H2Y20084   1.050   2.994   6.885 -0.9162  0.0116  0.8072
  177SLPC   C2320085   1.276   2.498   6.894  0.3615  0.1500  0.0739
  177SLPC   H3R20086   1.370   2.458   6.850 -0.3324 -1.4839  0.0091
  177SLPC   H3S20087   1.273   2.609   6.893 -1.3091  0.1801  1.7896
  177SLPC   C2420088   1.158   2.443   6.805 -0.2727  0.5499 -1.0232
  177SLPC   H4R20089   1.060   2.468   6.851  1.1593  1.3420  1.8187
  177SLPC   H4S20090   1.178   2.335   6.787  1.1334  1.1729 -3.7708
  177SLPC   C2520091   1.172   2.509   6.667  0.0440 -0.3174  0.3390
  177SLPC   H5R20092   1.267   2.475   6.620 -0.0666  0.3448 -0.3942
  177SLPC   H5S20093   1.183   2.619   6.682  1.1663 -0.1070 -1.6058
  177SLPC   C2620094   1.051   2.481   6.562  0.0821  0.1801 -0.1396
  177SLPC   H6R20095   0.961   2.540   6.588 -1.0341 -1.2220 -0.7152
  177SLPC   H6S20096   1.037   2.371   6.558 -2.0510  0.3117  1.6065
  177SLPC   C2720097   1.102   2.528   6.425  0.8338 -0.6106 -0.3752
  177SLPC   H7R20098   1.203   2.484   6.411  1.6349  1.4683 -1.4916
  177SLPC   H7S20099   1.102   2.639   6.428 -2.1696 -0.5209 -0.8408
  177SLPC   C2820100   1.008   2.479   6.309  0.6871 -0.4996 -0.3884
  177SLPC   H8R20101   1.025   2.369   6.308  1.2331 -0.4127 -1.1573
  177SLPC   H8S20102   1.050   2.509   6.211  1.2146  0.7722  0.2044
  177SLPC   C2920103   0.863   2.524   6.303  0.1349 -0.7575 -0.1102
  177SLPC   H9R20104   0.807   2.480   6.386 -0.9656  1.2142  0.2557
  177SLPC  C21020105   0.801   2.614   6.221 -0.1807  0.3212 -0.3275
  177SLPC  H10R20106   0.692   2.620   6.233 -0.1842 -2.1403  1.5484
  177SLPC  C21120107   0.863   2.675   6.099 -0.0806  0.7457 -0.1658
  177SLPC  H11R20108   0.779   2.700   6.030 -0.9754  0.2448  0.7083
  177SLPC  H11S20109   0.914   2.594   6.043  1.5176 -0.2260  2.5015
  177SLPC  C21220110   0.949   2.792   6.127 -0.0607  0.3350  0.1447
  177SLPC  H12R20111   1.003   2.788   6.223  0.2726  1.2201  0.0059
  177SLPC  C21320112   0.975   2.889   6.040 -0.5991  0.0025 -0.3760
  177SLPC  H13R20113   1.053   2.963   6.060  0.6905 -0.8630 -2.0199
  177SLPC  C21420114   0.922   2.899   5.897  0.0776  0.2109 -0.7651
  177SLPC  H14R20115   0.946   3.002   5.863 -0.5103  1.1144  1.4526
  177SLPC  H14S20116   0.812   2.884   5.894  0.2361 -1.8658  1.2818
  177SLPC  C21520117   0.979   2.802   5.803 -0.0584 -0.1963  0.3845
  177SLPC  H15R20118   0.919   2.708   5.804 -4.4793  2.3235 -1.2505
  177SLPC  H15S20119   1.086   2.783   5.824 -0.3223 -0.9526  1.1168
  177SLPC  C21620120   0.962   2.841   5.656  0.5753  0.0795 -0.1626
  177SLPC  H16R20121   1.000   2.943   5.634  1.6699 -0.4810 -1.0006
  177SLPC  H16S20122   0.855   2.832   5.628  0.2179  1.1661  0.7884
  177SLPC  C21720123   1.039   2.744   5.563 -0.6491  0.3136  0.4466
  177SLPC  H17R20124   1.134   2.716   5.613 -0.1971  3.1248  1.3094
  177SLPC  H17S20125   1.055   2.781   5.460  0.4841  1.3402  0.9749
  177SLPC  C21820126   0.970   2.610   5.554 -0.6093  0.0144  0.4350
  177SLPC  H18R20127   0.867   2.632   5.519 -0.3467  0.8630  0.1743
  177SLPC  H18S20128   0.952   2.574   5.658 -2.1311 -0.1033  0.1539
  177SLPC  H18T20129   1.032   2.536   5.498 -1.3743 -0.4323  0.1645
  177SLPC   C3320130   0.890   2.849   6.908  0.3738  0.3238 -0.0972
  177SLPC   H3X20131   0.827   2.870   6.997  0.2868  0.3385 -0.1611
  177SLPC   H3Y20132   0.870   2.740   6.900  0.4733  0.3133 -0.2056
  177SLPC   C3420133   0.820   2.928   6.792 -0.3061  0.6808  0.0890
  177SLPC   H4X20134   0.824   3.038   6.803  1.9494  0.7469 -0.9659
  177SLPC   H4Y20135   0.712   2.903   6.796 -0.3778  1.0768  3.1906
  177SLPC   C3520136   0.875   2.889   6.660  0.5950 -0.4096 -0.3897
  177SLPC   H5X20137   0.855   2.780   6.647 -2.4525  0.1845 -1.5270
  177SLPC   H5Y20138   0.980   2.922   6.649 -0.2463  2.0918 -1.8239
  177SLPC   C3620139   0.802   2.963   6.546  0.0822  0.0658 -0.6428
  177SLPC   H6X20140   0.695   2.982   6.566  0.3940  2.0751 -0.7247
  177SLPC   H6Y20141   0.805   2.897   6.456 -0.1219  0.8535 -1.2417
  177SLPC   C3720142   0.864   3.095   6.511 -0.1829 -0.3353  0.6243
  177SLPC   H7X20143   0.974   3.084   6.493 -0.1614 -0.2849  0.7228
  177SLPC   H7Y20144   0.845   3.164   6.596 -3.0253 -0.8391  0.4814
  177SLPC   C3820145   0.803   3.142   6.374  0.0587 -0.1419 -0.1855
  177SLPC   H8X20146   0.693   3.150   6.392  0.1011  1.2790 -0.4080
  177SLPC   H8Y20147   0.827   3.058   6.306  1.5585  0.7240 -0.7616
  177SLPC   C3920148   0.855   3.280   6.331  0.3375 -0.3626  0.2929
  177SLPC   H9X20149   0.966   3.273   6.330  0.5000  0.8458 -2.6877
  177SLPC   H9Y20150   0.814   3.352   6.404  1.5869 -0.6675  1.3207
  177SLPC  C31020151   0.827   3.317   6.178 -0.1907 -0.3659  0.0591
  177SLPC  H10X20152   0.863   3.422   6.163  0.1507 -0.5239 -0.2499
  177SLPC  H10Y20153   0.718   3.311   6.160 -0.3609  0.5689  0.6908
  177SLPC  C31120154   0.907   3.224   6.079 -0.1327 -0.5347 -0.2621
  177SLPC  H11X20155   0.843   3.141   6.040 -1.6267  0.7765 -0.7173
  177SLPC  H11Y20156   1.002   3.185   6.121  0.1576  1.1149  0.6909
  177SLPC  C31220157   0.928   3.297   5.943  0.4128 -1.0000  0.2558
  177SLPC  H12X20158   0.989   3.235   5.873  1.3980  1.3019 -1.0261
  177SLPC  H12Y20159   0.990   3.386   5.967 -0.2000 -0.5974  0.3526
  177SLPC  C31320160   0.806   3.344   5.858 -0.3236  0.2521  0.0686
  177SLPC  H13X20161   0.772   3.446   5.888 -1.6625  0.0920 -0.8407
  177SLPC  H13Y20162   0.721   3.279   5.885  0.2449  0.0613  1.4619
  177SLPC  C31420163   0.826   3.330   5.703 -0.7691 -0.4778 -0.0261
  177SLPC  H14X20164   0.869   3.230   5.681  1.7560  0.5272  0.0465
  177SLPC  H14Y20165   0.909   3.397   5.672 -0.6597 -0.1967  0.8442
  177SLPC  C31520166   0.698   3.368   5.625  0.0270  0.2189  0.8996
  177SLPC  H15X20167   0.689   3.471   5.585  0.9778 -0.1683 -0.3678
  177SLPC  H15Y20168   0.614   3.350   5.696  2.1178 -0.6108  3.3263
  177SLPC  C31620169   0.675   3.271   5.503 -0.6145 -0.1636 -0.6960
  177SLPC  H16X20170   0.673   3.170   5.549 -0.8993 -0.2136 -0.8157
  177SLPC  H16Y20171   0.764   3.273   5.437  0.8139  0.6402  1.1704
  177SLPC  C31720172   0.553   3.310   5.433 -0.5617 -0.6796  0.7310
  177SLPC  H17X20173   0.458   3.305   5.490 -0.2791 -2.7519  1.0935
  177SLPC  H17Y20174   0.544   3.230   5.356  2.0131  1.8815 -2.5560
  177SLPC  C31820175   0.557   3.439   5.343 -0.2282  0.5309  0.5707
  177SLPC  H18X20176   0.635   3.446   5.264  0.2801 -3.8377  0.4474
  177SLPC  H18Y20177   0.591   3.525   5.404  2.0795 -1.3506  2.1318
  177SLPC  H18Z20178   0.461   3.466   5.295 -0.4391 -1.1769 -0.0420
  178SLPC     N20179   5.400   0.436   8.083 -0.2232 -0.7068  0.2126
  178SLPC   C1320180   5.384   0.431   8.236  0.5512  0.2225  0.0139
  178SLPC  H13A20181   5.484   0.419   8.275  0.4511  1.7186  0.7939
  178SLPC  H13B20182   5.341   0.521   8.277 -0.8589 -1.1311  1.7137
  178SLPC  H13C20183   5.328   0.342   8.263  1.2378 -1.2687 -3.0751
  178SLPC   C1420184   5.471   0.315   8.035  0.0971 -0.7938  0.9016
  178SLPC  H14A20185   5.549   0.280   8.101 -0.2305 -1.3933  0.9736
  178SLPC  H14B20186   5.408   0.228   8.035 -0.5437 -0.3789 -1.0556
  178SLPC  H14C20187   5.494   0.335   7.931 -0.3566  1.1455  1.1348
  178SLPC   C1520188   5.477   0.564   8.054  0.0675  0.1803 -0.4955
  178SLPC  H15A20189   5.434   0.647   8.107  1.0922  1.5414 -1.7247
  178SLPC  H15B20190   5.580   0.552   8.084 -0.0676 -2.2074 -0.7714
  178SLPC  H15C20191   5.469   0.581   7.948  1.2127  1.9012 -0.3357
  178SLPC   C1220192   5.270   0.449   8.019  0.9831 -0.1261 -0.1484
  178SLPC  H12A20193   5.298   0.456   7.915 -1.1083  2.3645 -0.6539
  178SLPC  H12B20194   5.219   0.542   8.038 -0.3183 -0.4762 -1.6826
  178SLPC   C1120195   5.171   0.331   8.029 -0.5756  0.1917 -0.5492
  178SLPC  H11A20196   5.076   0.376   7.993 -1.0568 -1.8611 -2.0312
  178SLPC  H11B20197   5.154   0.308   8.136 -0.4341 -0.4567 -0.6627
  178SLPC     P20198   5.208   0.212   7.790  0.1619 -0.4539  0.1762
  178SLPC   O1320199   5.348   0.212   7.745  0.0686 -0.1872 -0.5678
  178SLPC   O1420200   5.126   0.102   7.749  0.1964 -0.1702 -0.4678
  178SLPC   O1220201   5.209   0.218   7.947  0.1693 -0.1649 -0.7587
  178SLPC   O1120202   5.146   0.351   7.750 -0.3352  0.1621 -0.1093
  178SLPC    C120203   5.036   0.334   7.656  0.1154  0.1153 -0.2204
  178SLPC    HA20204   4.952   0.270   7.690  0.1335 -0.7022 -1.6529
  178SLPC    HB20205   4.991   0.436   7.650  3.0994  1.4935 -1.7474
  178SLPC    C220206   5.082   0.295   7.512 -0.0002 -0.6927  0.0998
  178SLPC    HS20207   5.125   0.193   7.522  0.6295 -0.3226  1.4198
  178SLPC   O2120208   5.172   0.397   7.461 -0.2156  0.0159 -0.0271
  178SLPC   C2120209   5.242   0.366   7.350  0.3776 -0.0599 -0.3283
  178SLPC   O2220210   5.267   0.247   7.322 -0.1328  0.4216 -0.3027
  178SLPC   C2220211   5.280   0.496   7.278 -0.6799  0.8354 -0.4704
  178SLPC   H2R20212   5.288   0.571   7.359  0.5555 -0.2078  0.3939
  178SLPC   H2S20213   5.381   0.478   7.237  0.0924  1.5600  1.0435
  178SLPC    C320214   4.959   0.273   7.414 -0.2290  0.4185 -0.0491
  178SLPC    HX20215   4.912   0.371   7.392  0.8670  0.6237 -1.6534
  178SLPC    HY20216   4.883   0.212   7.468  1.8798 -0.2248  2.3705
  178SLPC   O3120217   4.996   0.205   7.287  0.2696  0.0734 -0.2372
  178SLPC   C3120218   5.011   0.070   7.287  0.5794  0.4376 -0.3811
  178SLPC   O3220219   5.020   0.003   7.390  0.7050  0.2745 -0.5614
  178SLPC   C3220220   5.029   0.016   7.146  0.1210 -0.1239 -0.6853
  178SLPC   H2X20221   5.129  -0.033   7.148 -0.0221 -0.3971  0.6919
  178SLPC   H2Y20222   5.029   0.096   7.069  0.9226 -1.0049 -1.6279
  178SLPC   C2320223   5.190   0.534   7.153 -0.0948  0.1155 -0.3360
  178SLPC   H3R20224   5.212   0.634   7.112 -0.2295  0.9936  1.6347
  178SLPC   H3S20225   5.088   0.542   7.197 -0.0046  1.0572 -0.2878
  178SLPC   C2420226   5.200   0.427   7.042  0.0470  0.2127 -0.4308
  178SLPC   H4R20227   5.134   0.341   7.067 -1.5721  1.0434 -1.6311
  178SLPC   H4S20228   5.306   0.397   7.027  0.1707  0.1680  0.4724
  178SLPC   C2520229   5.152   0.471   6.904 -0.6301 -1.0444 -0.1178
  178SLPC   H5R20230   5.189   0.573   6.882 -2.2124 -0.5884 -0.7750
  178SLPC   H5S20231   5.043   0.483   6.919 -0.5204  0.6299 -0.4892
  178SLPC   C2620232   5.176   0.373   6.791 -0.0029 -0.4008 -0.0750
  178SLPC   H6R20233   5.092   0.299   6.793  1.6968 -2.4209  1.9830
  178SLPC   H6S20234   5.267   0.313   6.810 -1.4266 -2.7264 -0.1452
  178SLPC   C2720235   5.178   0.434   6.649  0.4665 -0.3141 -0.4285
  178SLPC   H7R20236   5.274   0.486   6.633  1.6305 -2.2585 -0.0897
  178SLPC   H7S20237   5.105   0.518   6.651  1.7595  0.8739 -1.4631
  178SLPC   C2820238   5.129   0.341   6.536  0.2256 -0.4405 -0.1017
  178SLPC   H8R20239   5.028   0.305   6.565  0.7081 -1.7082  0.0703
  178SLPC   H8S20240   5.194   0.252   6.528  0.2032 -0.6682  1.8606
  178SLPC   C2920241   5.118   0.410   6.399 -0.3970 -0.3284 -0.0997
  178SLPC   H9R20242   5.129   0.519   6.403  0.9565 -0.3640 -1.6623
  178SLPC  C21020243   5.082   0.351   6.280 -0.3946 -0.5011 -0.4257
  178SLPC  H10R20244   5.064   0.412   6.191 -2.9402 -0.3074  0.1538
  178SLPC  C21120245   5.072   0.202   6.251 -0.2660 -0.2360  0.0392
  178SLPC  H11R20246   4.971   0.175   6.213 -0.3338 -0.8542  0.6347
  178SLPC  H11S20247   5.092   0.143   6.343  1.9653  2.1912  1.2259
  178SLPC  C21220248   5.167   0.148   6.147 -0.6448  0.5589 -0.5254
  178SLPC  H12R20249   5.251   0.091   6.188 -0.0677  1.7933  0.0534
  178SLPC  C21320250   5.159   0.159   6.014  0.4524 -0.9812 -0.0588
  178SLPC  H13R20251   5.241   0.115   5.956 -0.0096 -0.6767 -0.9624
  178SLPC  C21420252   5.050   0.225   5.928 -0.1457  0.0483 -0.8983
  178SLPC  H14R20253   5.101   0.283   5.849  0.4181  0.1132 -0.4876
  178SLPC  H14S20254   4.988   0.292   5.992  0.3096 -0.1803 -0.2001
  178SLPC  C21520255   4.955   0.129   5.865 -0.1915  0.7632  0.3095
  178SLPC  H15R20256   4.911   0.060   5.940 -1.4224  0.7132 -0.4379
  178SLPC  H15S20257   5.020   0.057   5.811  0.8078  1.5362  0.4281
  178SLPC  C21620258   4.848   0.193   5.778 -0.3934 -0.3443  0.3286
  178SLPC  H16R20259   4.809   0.277   5.840  1.0331  0.6266 -0.0466
  178SLPC  H16S20260   4.782   0.107   5.755  0.0326  0.1065 -3.1079
  178SLPC  C21720261   4.902   0.235   5.638 -0.2170 -0.5818 -0.1985
  178SLPC  H17R20262   4.983   0.169   5.601  0.5275  0.6299 -0.7999
  178SLPC  H17S20263   4.944   0.337   5.634  1.6503 -1.3522 -1.6957
  178SLPC  C21820264   4.791   0.244   5.531 -0.7808  0.0215 -0.7154
  178SLPC  H18R20265   4.821   0.308   5.446 -0.6836  1.3911  0.3237
  178SLPC  H18S20266   4.695   0.284   5.570  0.2847  1.8296  0.1694
  178SLPC  H18T20267   4.774   0.139   5.497  1.5804 -0.4323 -0.6548
  178SLPC   C3320268   4.933  -0.103   7.128 -0.3197 -0.1512  0.6361
  178SLPC   H3X20269   4.836  -0.050   7.111 -0.2087 -0.4704 -1.1699
  178SLPC   H3Y20270   4.923  -0.164   7.220  1.5009  0.7837  1.5071
  178SLPC   C3420271   4.958  -0.190   7.001 -0.3075  0.6153  0.6410
  178SLPC   H4X20272   4.885  -0.274   7.005  0.8522 -0.4019  0.8656
  178SLPC   H4Y20273   5.063  -0.224   6.991 -0.1854  1.3543 -0.9170
  178SLPC   C3520274   4.918  -0.120   6.871  0.3326  0.0955  0.7739
  178SLPC   H5X20275   4.979  -0.027   6.861 -1.8436  1.5567  0.3341
  178SLPC   H5Y20276   4.811  -0.092   6.862  0.5915  1.3601  1.4674
  178SLPC   C3620277   4.937  -0.208   6.743  0.2788 -0.7090  0.1220
  178SLPC   H6X20278   4.887  -0.307   6.749 -0.3920 -0.3531  0.5688
  178SLPC   H6Y20279   5.043  -0.237   6.729  1.1361  2.1015  0.0839
  178SLPC   C3720280   4.889  -0.120   6.620  0.2567  0.0791  0.5348
  178SLPC   H7X20281   4.947  -0.026   6.631 -0.0697  0.4070 -0.5363
  178SLPC   H7Y20282   4.779  -0.106   6.619 -0.1531 -2.6712 -0.4492
  178SLPC   C3820283   4.917  -0.185   6.491  0.2683 -0.0146 -0.8858
  178SLPC   H8X20284   4.885  -0.290   6.506 -0.2841  0.2295 -0.3453
  178SLPC   H8Y20285   5.028  -0.188   6.476  0.7691  0.7081  2.1195
  178SLPC   C3920286   4.867  -0.110   6.362  0.0298  0.3501 -0.1018
  178SLPC   H9X20287   4.915  -0.012   6.342 -1.4334  1.0525 -0.2837
  178SLPC   H9Y20288   4.758  -0.092   6.370  0.0059  0.7430 -1.1393
  178SLPC  C31020289   4.876  -0.203   6.240  0.0541  0.1625  0.5799
  178SLPC  H10X20290   4.812  -0.161   6.160  0.3912 -0.1409  0.1419
  178SLPC  H10Y20291   4.835  -0.305   6.259  0.2426 -0.2176 -0.9387
  178SLPC  C31120292   5.021  -0.203   6.175  0.2081  0.2051 -0.1840
  178SLPC  H11X20293   5.074  -0.243   6.265 -0.3137  2.1906  1.0576
  178SLPC  H11Y20294   5.062  -0.102   6.156  0.1409  0.4658  0.9707
  178SLPC  C31220295   5.032  -0.301   6.058  0.4004 -0.5886 -0.3955
  178SLPC  H12X20296   5.132  -0.286   6.011 -0.3056  1.6803 -1.3055
  178SLPC  H12Y20297   4.958  -0.277   5.979 -0.7523 -1.0530  0.5227
  178SLPC  C31320298   5.020  -0.450   6.091  0.1172  0.3832 -0.2772
  178SLPC  H13X20299   5.062  -0.512   6.009 -1.7736 -1.5318  0.0946
  178SLPC  H13Y20300   4.912  -0.471   6.111  0.3375  0.3041  0.9072
  178SLPC  C31420301   5.087  -0.514   6.215 -0.4037  0.3182  0.3164
  178SLPC  H14X20302   5.027  -0.469   6.297  1.5707  2.4617  0.6902
  178SLPC  H14Y20303   5.192  -0.478   6.214 -0.3301  0.1021  0.0946
  178SLPC  C31520304   5.088  -0.673   6.224  0.8190 -0.8495  0.3917
  178SLPC  H15X20305   5.156  -0.711   6.145 -0.6051 -0.2481 -1.1885
  178SLPC  H15Y20306   4.986  -0.700   6.190 -0.7416  2.5337  1.8557
  178SLPC  C31620307   5.111  -0.727   6.364 -0.4075  0.0246 -0.0902
  178SLPC  H16X20308   5.076  -0.831   6.379  0.3837  0.0331  2.3281
  178SLPC  H16Y20309   5.059  -0.660   6.437  1.4579  0.5406  0.8220
  178SLPC  C31720310   5.262  -0.704   6.398 -0.9825  0.6813 -0.0362
  178SLPC  H17X20311   5.295  -0.604   6.363 -0.3647  1.7249  3.1524
  178SLPC  H17Y20312   5.325  -0.780   6.347  1.1896  1.6826  1.0068
  178SLPC  C31820313   5.276  -0.707   6.555  0.1102 -0.2968 -0.6385
  178SLPC  H18X20314   5.376  -0.664   6.578  0.2962  0.3119 -2.4170
  178SLPC  H18Y20315   5.266  -0.807   6.602 -0.0876  0.5478  1.1748
  178SLPC  H18Z20316   5.208  -0.633   6.602  0.2943  0.9154 -2.1594
  179SLPC     N20317   6.509   1.203   2.884  0.0588 -0.3027  0.3294
  179SLPC   C1320318   6.653   1.188   2.910  0.0145  0.2137 -0.5902
  179SLPC  H13A20319   6.685   1.087   2.932  1.4967  0.5291 -1.1519
  179SLPC  H13B20320   6.704   1.232   2.825 -0.6730  0.8972 -0.6602
  179SLPC  H13C20321   6.682   1.251   2.993 -1.8286 -0.4910  0.6471
  179SLPC   C1420322   6.466   1.132   2.768 -0.6998  0.4453  0.4440
  179SLPC  H14A20323   6.524   1.162   2.683 -1.7543 -1.0855 -0.8744
  179SLPC  H14B20324   6.486   1.027   2.778  0.5026  0.6297  0.0661
  179SLPC  H14C20325   6.369   1.154   2.727 -1.1292 -0.2137  1.0792
  179SLPC   C1520326   6.484   1.344   2.854 -0.0830 -0.2575  0.1660
  179SLPC  H15A20327   6.529   1.411   2.926 -1.6894 -1.2243  2.1848
  179SLPC  H15B20328   6.526   1.358   2.755  2.0566  0.4452  1.1274
  179SLPC  H15C20329   6.379   1.369   2.843  0.2432  0.2938 -2.2451
  179SLPC   C1220330   6.412   1.169   3.001 -0.7629 -0.6014 -0.4459
  179SLPC  H12A20331   6.387   1.064   3.003  1.7850 -1.2713  1.6719
  179SLPC  H12B20332   6.322   1.225   2.983  0.2776  0.6166 -2.1911
  179SLPC   C1120333   6.448   1.216   3.143 -0.8536 -0.4456  0.3563
  179SLPC  H11A20334   6.547   1.171   3.167  0.1626  1.0869 -0.7782
  179SLPC  H11B20335   6.370   1.170   3.208 -1.1504 -0.5665 -0.0846
  179SLPC     P20336   6.338   1.444   3.164 -0.1622 -0.1812 -0.2200
  179SLPC   O1320337   6.359   1.552   3.067 -0.7112 -0.0379 -0.5338
  179SLPC   O1420338   6.221   1.362   3.143 -0.0656  0.7187 -0.0603
  179SLPC   O1220339   6.463   1.357   3.161 -0.1202  0.1312  0.7061
  179SLPC   O1120340   6.323   1.507   3.303 -0.6134 -0.3134 -0.1355
  179SLPC    C120341   6.269   1.426   3.413  0.3391 -0.3861 -0.2987
  179SLPC    HA20342   6.158   1.426   3.408  0.3684 -0.3030 -1.0323
  179SLPC    HB20343   6.300   1.320   3.411 -1.0302 -0.8341  0.6884
  179SLPC    C220344   6.311   1.482   3.556  0.1466 -0.0356  0.0027
  179SLPC    HS20345   6.269   1.414   3.633 -0.3856  2.5566  2.1470
  179SLPC   O2120346   6.265   1.612   3.574  0.7393 -0.1110 -0.3263
  179SLPC   C2120347   6.135   1.622   3.625 -1.2108  0.5430  0.6848
  179SLPC   O2220348   6.052   1.534   3.617  0.1122 -0.5844  0.0664
  179SLPC   C2220349   6.117   1.756   3.694 -0.2450  0.0579 -0.6440
  179SLPC   H2R20350   6.130   1.841   3.624  1.3539  3.3808  3.3154
  179SLPC   H2S20351   6.016   1.761   3.740 -0.1847  1.5876 -0.6320
  179SLPC    C320352   6.463   1.478   3.571 -0.0109  0.3150  0.1758
  179SLPC    HX20353   6.489   1.553   3.494 -0.6860  0.0310 -0.3343
  179SLPC    HY20354   6.502   1.382   3.531 -0.3222  0.7486 -1.2276
  179SLPC   O3120355   6.499   1.510   3.709  0.0922 -0.7552 -0.0086
  179SLPC   C3120356   6.585   1.612   3.724 -0.0514 -0.2740 -1.2239
  179SLPC   O3220357   6.666   1.655   3.647  0.8722  0.2254  0.5039
  179SLPC   C3220358   6.572   1.657   3.867  0.7137  0.4506  0.0486
  179SLPC   H2X20359   6.489   1.608   3.922  0.9522  0.1826  0.1724
  179SLPC   H2Y20360   6.559   1.767   3.876  1.5207  0.4248  2.3755
  179SLPC   C2320361   6.228   1.768   3.797 -0.3517  0.0889 -0.3407
  179SLPC   H3R20362   6.235   1.877   3.819  0.4761 -0.3522  1.8561
  179SLPC   H3S20363   6.328   1.729   3.771 -0.4086  0.7753 -1.7109
  179SLPC   C2420364   6.195   1.696   3.926  0.1097  0.4570  0.5334
  179SLPC   H4R20365   6.222   1.590   3.905 -0.5248  0.4946 -0.5428
  179SLPC   H4S20366   6.085   1.693   3.934  0.0896 -1.5662  0.1510
  179SLPC   C2520367   6.261   1.754   4.047 -0.3387 -0.4848 -0.2897
  179SLPC   H5R20368   6.223   1.858   4.063  1.3245  0.5366 -2.5063
  179SLPC   H5S20369   6.368   1.775   4.026 -0.5936  1.1337 -0.1000
  179SLPC   C2620370   6.247   1.664   4.168  0.0156  0.0543  0.4429
  179SLPC   H6R20371   6.292   1.563   4.154  0.8330  0.5295 -0.4257
  179SLPC   H6S20372   6.139   1.655   4.196  0.3932  0.4218  2.1052
  179SLPC   C2720373   6.335   1.721   4.281 -0.1015 -0.1265  1.3964
  179SLPC   H7R20374   6.324   1.830   4.294  0.2961  0.1299 -0.1747
  179SLPC   H7S20375   6.444   1.706   4.264 -0.0536  1.0959  0.5105
  179SLPC   C2820376   6.310   1.665   4.422 -0.2537  0.0092 -0.0781
  179SLPC   H8R20377   6.377   1.715   4.495 -0.4163  0.6448 -0.3604
  179SLPC   H8S20378   6.346   1.562   4.402  0.9519  0.6694 -1.4046
  179SLPC   C2920379   6.167   1.659   4.464  0.3146 -0.1162  0.2136
  179SLPC   H9R20380   6.105   1.748   4.445  2.9060  1.7284 -0.1056
  179SLPC  C21020381   6.119   1.553   4.531  0.2325  0.2446 -0.4443
  179SLPC  H10R20382   6.013   1.556   4.562  0.2118 -1.5060 -0.2582
  179SLPC  C21120383   6.180   1.419   4.576 -0.4143 -0.2044 -0.3928
  179SLPC  H11R20384   6.263   1.386   4.511  0.1325  2.2268 -1.0010
  179SLPC  H11S20385   6.105   1.337   4.568 -0.5077 -0.2857  0.9918
  179SLPC  C21220386   6.244   1.427   4.710  0.0136 -0.2393 -1.2058
  179SLPC  H12R20387   6.350   1.448   4.730  0.0149 -2.3994  1.8192
  179SLPC  C21320388   6.173   1.411   4.823 -0.1123 -0.7279  0.2066
  179SLPC  H13R20389   6.227   1.418   4.918 -2.9510 -0.2171  1.9070
  179SLPC  C21420390   6.027   1.391   4.831  0.3726 -0.4061 -0.1991
  179SLPC  H14R20391   5.976   1.409   4.734 -0.1178 -1.1371 -0.0795
  179SLPC  H14S20392   5.991   1.466   4.906  2.0873  1.9515 -1.5829
  179SLPC  C21520393   5.991   1.248   4.873  0.4790 -0.4285  0.1523
  179SLPC  H15R20394   6.018   1.173   4.796 -1.2897 -0.6248 -0.3050
  179SLPC  H15S20395   5.881   1.245   4.861  0.5697  0.8501 -1.3809
  179SLPC  C21620396   6.030   1.207   5.021  0.1302  0.2816 -0.4670
  179SLPC  H16R20397   5.995   1.293   5.082 -1.3344 -0.2999 -0.4431
  179SLPC  H16S20398   6.139   1.200   5.039  0.1919  3.1952  0.9019
  179SLPC  C21720399   5.971   1.072   5.059  0.2337 -0.6459 -0.1869
  179SLPC  H17R20400   5.992   0.996   4.981  1.5150  0.6705 -1.1955
  179SLPC  H17S20401   5.861   1.089   5.056  0.0220 -1.6553  1.3178
  179SLPC  C21820402   6.012   1.049   5.201 -0.6226  0.5045 -0.2899
  179SLPC  H18R20403   5.978   0.946   5.227  0.8855  0.2599  0.8455
  179SLPC  H18S20404   5.971   1.124   5.271 -1.4854  0.5175 -0.7984
  179SLPC  H18T20405   6.123   1.041   5.203 -0.7209 -1.4521 -0.6702
  179SLPC   C3320406   6.700   1.619   3.943 -0.1937 -0.3048  0.7409
  179SLPC   H3X20407   6.782   1.685   3.907 -0.2731  0.1402  1.3551
  179SLPC   H3Y20408   6.724   1.511   3.936 -2.5568 -0.7865 -0.9001
  179SLPC   C3420409   6.682   1.653   4.088  0.4966  0.4802  0.2417
  179SLPC   H4X20410   6.605   1.592   4.139  1.3484  0.7644  1.9303
  179SLPC   H4Y20411   6.641   1.756   4.097 -1.2648 -0.1697  0.1043
  179SLPC   C3520412   6.802   1.641   4.184 -0.5994 -0.3398 -0.2953
  179SLPC   H5X20413   6.845   1.539   4.188 -0.5679 -0.4426 -2.3694
  179SLPC   H5Y20414   6.877   1.714   4.147  0.5867 -1.6942 -0.6566
  179SLPC   C3620415   6.762   1.680   4.324  0.6391  0.1689 -0.6343
  179SLPC   H6X20416   6.689   1.604   4.357 -0.5966  0.7180 -2.0308
  179SLPC   H6Y20417   6.704   1.774   4.319  0.1717 -0.0913 -0.1762
  179SLPC   C3720418   6.881   1.689   4.422 -0.2452  1.2237  0.3252
  179SLPC   H7X20419   6.947   1.761   4.369 -0.9945  1.7581  0.0900
  179SLPC   H7Y20420   6.929   1.589   4.429 -0.2230  1.0894 -1.2684
  179SLPC   C3820421   6.844   1.738   4.563  0.8491  0.4685 -1.2177
  179SLPC   H8X20422   6.937   1.739   4.623 -0.4463  2.0832  0.9161
  179SLPC   H8Y20423   6.774   1.671   4.617  1.3479  1.1029  0.2903
  179SLPC   C3920424   6.790   1.885   4.586 -1.1862 -0.6858 -0.6032
  179SLPC   H9X20425   6.698   1.891   4.523 -2.8429 -1.9162  1.5673
  179SLPC   H9Y20426   6.863   1.962   4.554 -2.3645  0.1648 -1.3348
  179SLPC  C31020427   6.749   1.911   4.736 -0.4682  0.1606  0.0434
  179SLPC  H10X20428   6.660   1.855   4.772 -0.2078 -2.2635 -2.7330
  179SLPC  H10Y20429   6.714   2.017   4.736  2.5569  1.3759  3.6637
  179SLPC  C31120430   6.873   1.920   4.824  0.5753 -0.1670  0.3286
  179SLPC  H11X20431   6.955   1.985   4.786  0.4868 -0.8887 -1.1849
  179SLPC  H11Y20432   6.917   1.817   4.827  3.0321  0.8020  0.1313
  179SLPC  C31220433   6.840   1.957   4.966  0.2065 -0.1729 -0.1398
  179SLPC  H12X20434   6.823   1.871   5.033  2.5677 -1.6132 -1.2501
  179SLPC  H12Y20435   6.763   2.037   4.971  1.9657  1.5669  0.4932
  179SLPC  C31320436   6.961   2.021   5.036 -0.3337  0.0220  0.2750
  179SLPC  H13X20437   6.936   2.061   5.137 -2.2161 -1.0672  0.2814
  179SLPC  H13Y20438   6.993   2.110   4.977 -2.2726 -1.4159 -3.2698
  179SLPC  C31420439   7.080   1.924   5.063 -0.1664 -0.2843  0.7978
  179SLPC  H14X20440   7.125   1.883   4.970  1.4370  4.1472 -0.6183
  179SLPC  H14Y20441   7.048   1.839   5.127 -2.7872  0.5997  0.7899
  179SLPC  C31520442   7.192   1.996   5.133  0.0820 -0.5634  0.5221
  179SLPC  H15X20443   7.148   2.038   5.226 -0.3313  0.1822 -0.0038
  179SLPC  H15Y20444   7.231   2.079   5.071  0.1269 -1.1164 -0.2013
  179SLPC  C31620445   7.308   1.908   5.154 -0.3481 -0.3900 -0.3731
  179SLPC  H16X20446   7.359   1.908   5.055 -2.1388  0.5792 -1.3506
  179SLPC  H16Y20447   7.278   1.803   5.175  1.7924 -0.7846  1.1192
  179SLPC  C31720448   7.412   1.969   5.255 -0.0591  0.6117 -0.1541
  179SLPC  H17X20449   7.510   1.918   5.246 -1.3422 -2.2194  0.7375
  179SLPC  H17Y20450   7.388   1.954   5.362  2.9274 -0.6577  0.4312
  179SLPC  C31820451   7.441   2.122   5.246 -0.3353 -0.0817  0.6960
  179SLPC  H18X20452   7.502   2.144   5.336  1.2358  0.2295 -0.4004
  179SLPC  H18Y20453   7.347   2.178   5.262 -1.4796 -1.8234  0.3619
  179SLPC  H18Z20454   7.499   2.145   5.154 -2.6529 -3.3294 -1.8089
  180SLPC     N20455   4.904   1.335   2.792 -0.2889 -0.1172 -0.4352
  180SLPC   C1320456   4.908   1.206   2.715 -0.7969  0.7251 -0.4404
  180SLPC  H13A20457   4.831   1.190   2.642  0.5325 -0.5056 -1.6235
  180SLPC  H13B20458   5.006   1.201   2.670  0.9052  0.3796  2.9740
  180SLPC  H13C20459   4.917   1.130   2.791 -2.3056  0.7454 -0.2219
  180SLPC   C1420460   4.924   1.462   2.708 -0.1351 -0.1861  0.1384
  180SLPC  H14A20461   4.904   1.544   2.776  1.8822  0.8638 -0.4767
  180SLPC  H14B20462   5.025   1.467   2.670  0.0903 -3.6179  0.0313
  180SLPC  H14C20463   4.846   1.469   2.633 -0.0360  1.5304  0.1511
  180SLPC   C1520464   5.007   1.330   2.898 -0.1560  0.0259  0.0736
  180SLPC  H15A20465   5.101   1.323   2.845  0.1657 -0.4437  0.6983
  180SLPC  H15B20466   5.023   1.423   2.950 -2.4572 -0.3335  1.5948
  180SLPC  H15C20467   5.000   1.245   2.963 -2.2925  1.9541  2.5804
  180SLPC   C1220468   4.762   1.340   2.855  0.1599  1.3210 -0.0362
  180SLPC  H12A20469   4.740   1.249   2.909  0.3224  0.5150 -1.2917
  180SLPC  H12B20470   4.687   1.344   2.778 -0.1839 -0.0038  0.1934
  180SLPC   C1120471   4.726   1.451   2.955 -0.4877  0.6917 -0.7461
  180SLPC  H11A20472   4.797   1.441   3.040 -1.7713  1.7255  0.4875
  180SLPC  H11B20473   4.636   1.427   3.014  0.7034  1.3324  1.4635
  180SLPC     P20474   4.595   1.643   2.845  0.0283  0.2765  0.1552
  180SLPC   O1320475   4.614   1.770   2.766 -0.4984  0.6015  0.0596
  180SLPC   O1420476   4.521   1.537   2.778 -0.0487  0.4759  0.3011
  180SLPC   O1220477   4.733   1.583   2.893 -0.2483 -0.7467 -0.1131
  180SLPC   O1120478   4.514   1.674   2.971 -0.3511  0.2595 -0.2222
  180SLPC    C120479   4.557   1.757   3.078  0.3536 -0.9167  0.1843
  180SLPC    HA20480   4.629   1.834   3.044 -0.0048 -0.7206 -0.1373
  180SLPC    HB20481   4.468   1.814   3.114  0.3986 -0.0077 -1.1136
  180SLPC    C220482   4.609   1.687   3.201  0.2042  0.4616 -0.0486
  180SLPC    HS20483   4.700   1.637   3.161  0.2827  1.2166 -0.8564
  180SLPC   O2120484   4.512   1.590   3.247  0.2692  0.4015  0.3652
  180SLPC   C2120485   4.552   1.471   3.282 -0.8726  0.2470 -0.2366
  180SLPC   O2220486   4.668   1.430   3.275  0.3552  0.1359  0.3669
  180SLPC   C2220487   4.439   1.393   3.353 -0.2345 -0.1313 -1.1203
  180SLPC   H2R20488   4.348   1.455   3.367  2.1265  3.1322  1.5524
  180SLPC   H2S20489   4.417   1.313   3.279 -0.8695 -0.2598 -0.7996
  180SLPC    C320490   4.651   1.777   3.324  0.2433 -0.0050  0.7882
  180SLPC    HX20491   4.559   1.820   3.368 -1.6876 -1.7285 -1.3588
  180SLPC    HY20492   4.709   1.864   3.288 -0.3963  1.2172  2.5853
  180SLPC   O3120493   4.707   1.700   3.433 -0.0927 -0.0449 -0.7385
  180SLPC   C3120494   4.839   1.696   3.426 -0.6022  0.2050  0.8430
  180SLPC   O3220495   4.907   1.743   3.339 -0.5042 -0.1330 -0.0516
  180SLPC   C3220496   4.896   1.598   3.534  0.0067 -0.3785  0.6858
  180SLPC   H2X20497   4.923   1.506   3.479  0.3288 -0.1514  0.4601
  180SLPC   H2Y20498   4.811   1.573   3.602 -1.0483  3.2473  0.9196
  180SLPC   C2320499   4.479   1.345   3.491  0.3457 -0.1503  0.0928
  180SLPC   H3R20500   4.575   1.290   3.482  1.2509  0.9299  2.2095
  180SLPC   H3S20501   4.408   1.265   3.521  2.1473 -1.7645  0.2805
  180SLPC   C2420502   4.499   1.460   3.595 -0.0293  0.1516 -0.4940
  180SLPC   H4R20503   4.400   1.479   3.641 -0.9420 -1.7415 -1.5580
  180SLPC   H4S20504   4.543   1.546   3.539 -0.1244 -0.3880 -1.4112
  180SLPC   C2520505   4.586   1.419   3.708  0.5624  0.5186 -0.4667
  180SLPC   H5R20506   4.689   1.395   3.675  0.4587  0.2788 -0.6230
  180SLPC   H5S20507   4.549   1.323   3.750 -0.3718  0.3060 -1.6934
  180SLPC   C2620508   4.591   1.531   3.824 -0.0561  0.7300  0.8454
  180SLPC   H6R20509   4.598   1.628   3.771 -0.9296  1.2720  1.6930
  180SLPC   H6S20510   4.679   1.503   3.886 -0.8022 -0.4203  1.4206
  180SLPC   C2720511   4.463   1.526   3.909 -0.1027 -0.2932  0.2156
  180SLPC   H7R20512   4.457   1.424   3.953 -0.6054 -0.8965 -1.2070
  180SLPC   H7S20513   4.369   1.527   3.849 -0.7098  2.2594  1.0636
  180SLPC   C2820514   4.457   1.637   4.012  0.6932 -0.2349 -0.5408
  180SLPC   H8R20515   4.351   1.633   4.048  0.2074  1.8571 -1.5468
  180SLPC   H8S20516   4.470   1.739   3.971 -1.3292 -0.9934 -3.3584
  180SLPC   C2920517   4.550   1.621   4.126 -0.6000  0.1916  0.0081
  180SLPC   H9R20518   4.650   1.593   4.088  0.1070  1.4787  0.8468
  180SLPC  C21020519   4.534   1.615   4.263 -0.2040  0.7555  0.0208
  180SLPC  H10R20520   4.620   1.589   4.327  0.5122  1.0275 -0.8208
  180SLPC  C21120521   4.409   1.640   4.338 -0.3409  0.5129 -0.1535
  180SLPC  H11R20522   4.326   1.673   4.272 -1.0164 -1.5668 -0.3988
  180SLPC  H11S20523   4.438   1.724   4.405  0.0864 -0.9973  1.6355
  180SLPC  C21220524   4.367   1.515   4.407 -0.2996 -0.4357  0.4784
  180SLPC  H12R20525   4.355   1.424   4.345 -0.2824  0.1145 -0.3484
  180SLPC  C21320526   4.361   1.489   4.542 -0.3665 -0.1170 -0.3462
  180SLPC  H13R20527   4.315   1.391   4.557  0.2845 -0.2509  0.9446
  180SLPC  C21420528   4.373   1.589   4.656  0.4781 -0.0490 -0.4045
  180SLPC  H14R20529   4.368   1.693   4.618 -2.4199  0.1427  0.2897
  180SLPC  H14S20530   4.475   1.580   4.700  1.1885  0.4291 -1.9104
  180SLPC  C21520531   4.270   1.563   4.768  0.6356 -0.6593 -0.8752
  180SLPC  H15R20532   4.243   1.456   4.780 -1.3134 -0.1887 -0.6327
  180SLPC  H15S20533   4.179   1.617   4.734  0.5181  1.3472  2.2152
  180SLPC  C21620534   4.305   1.625   4.908 -0.7220  0.5281  0.0989
  180SLPC  H16R20535   4.343   1.729   4.904 -2.7014  1.2863  0.1315
  180SLPC  H16S20536   4.392   1.571   4.953 -0.2897  0.8321 -0.3531
  180SLPC  C21720537   4.183   1.621   5.000  0.1807 -0.4884 -0.0040
  180SLPC  H17R20538   4.154   1.515   5.014  1.6542 -1.1253 -1.4517
  180SLPC  H17S20539   4.098   1.674   4.952  0.6962  0.2909 -0.0756
  180SLPC  C21820540   4.213   1.682   5.142 -0.2170  0.1785 -0.2600
  180SLPC  H18R20541   4.119   1.686   5.201  0.5071 -0.9654  1.0294
  180SLPC  H18S20542   4.252   1.785   5.128 -0.3564  0.0031 -2.1963
  180SLPC  H18T20543   4.296   1.624   5.188 -0.1044  2.2653  2.4498
  180SLPC   C3320544   5.007   1.657   3.624 -0.0037 -0.5791 -0.1741
  180SLPC   H3X20545   4.994   1.766   3.644 -3.0472 -0.7250 -0.8216
  180SLPC   H3Y20546   5.102   1.644   3.569 -0.4812  0.4568 -1.3033
  180SLPC   C3420547   5.012   1.597   3.759  1.2067  0.1375 -0.0548
  180SLPC   H4X20548   5.034   1.489   3.756 -0.6133 -0.2561 -0.6954
  180SLPC   H4Y20549   4.913   1.621   3.806  0.7413 -0.5887 -0.6479
  180SLPC   C3520550   5.120   1.661   3.847 -0.2835  0.8633  0.3329
  180SLPC   H5X20551   5.093   1.768   3.861  2.0542  1.4624  0.8111
  180SLPC   H5Y20552   5.214   1.666   3.788 -1.4145  2.0946 -1.4579
  180SLPC   C3620553   5.127   1.616   3.993  0.2199 -0.3098 -0.5950
  180SLPC   H6X20554   5.205   1.676   4.044 -0.3818 -1.1514  1.3887
  180SLPC   H6Y20555   5.185   1.521   3.997  1.6253  0.5258 -0.5629
  180SLPC   C3720556   5.003   1.622   4.085 -0.4830 -0.3050  0.3130
  180SLPC   H7X20557   4.915   1.562   4.053 -0.2104 -0.3894 -0.2830
  180SLPC   H7Y20558   4.965   1.725   4.098 -1.8545 -0.6542 -0.7588
  180SLPC   C3820559   5.049   1.583   4.228  0.1407  0.5803 -0.3967
  180SLPC   H8X20560   5.138   1.643   4.257  1.2650 -0.5589 -1.3226
  180SLPC   H8Y20561   5.058   1.472   4.226  0.9163  0.6393 -1.4896
  180SLPC   C3920562   4.949   1.629   4.338 -0.5012  0.3765 -0.4249
  180SLPC   H9X20563   4.847   1.598   4.305  0.0429 -0.4913 -1.3372
  180SLPC   H9Y20564   4.964   1.739   4.347 -2.0884  0.5153  1.0002
  180SLPC  C31020565   4.980   1.572   4.476  0.3000  0.1103  0.1042
  180SLPC  H10X20566   4.996   1.463   4.466 -1.3483 -0.1886  0.4478
  180SLPC  H10Y20567   4.890   1.585   4.539  0.3207 -1.7410  0.5600
  180SLPC  C31120568   5.095   1.650   4.549  0.3538 -0.3163  0.5841
  180SLPC  H11X20569   5.061   1.751   4.579 -1.1004 -0.0000 -1.8151
  180SLPC  H11Y20570   5.168   1.680   4.470 -0.6748 -1.0861 -0.7126
  180SLPC  C31220571   5.163   1.581   4.667  0.5012 -0.6517 -0.6547
  180SLPC  H12X20572   5.262   1.631   4.673 -0.2862  0.8501  0.5883
  180SLPC  H12Y20573   5.184   1.476   4.636 -2.1778 -1.5222  0.1737
  180SLPC  C31320574   5.100   1.592   4.810 -0.3843  0.4820  0.5255
  180SLPC  H13X20575   5.049   1.495   4.828  1.2949 -0.4552  0.4692
  180SLPC  H13Y20576   5.028   1.677   4.813 -1.0246 -0.0702  1.0605
  180SLPC  C31420577   5.203   1.621   4.919  0.5295 -0.2838 -0.7081
  180SLPC  H14X20578   5.275   1.702   4.896  0.6458  0.1716  1.1016
  180SLPC  H14Y20579   5.257   1.526   4.938  1.3785  0.5350  1.2192
  180SLPC  C31520580   5.130   1.654   5.050  0.1224 -0.1330 -0.5707
  180SLPC  H15X20581   5.085   1.558   5.084  1.2808 -0.3462  0.4413
  180SLPC  H15Y20582   5.047   1.726   5.037  1.3553  1.6013  0.8107
  180SLPC  C31620583   5.224   1.711   5.162  0.9320  0.2532 -0.0760
  180SLPC  H16X20584   5.275   1.803   5.128  0.4416  0.9777  1.0617
  180SLPC  H16Y20585   5.298   1.634   5.192  0.4632 -0.5942 -1.0245
  180SLPC  C31720586   5.148   1.771   5.290 -0.1384  0.0915  0.3586
  180SLPC  H17X20587   5.227   1.774   5.367 -0.0138  0.2652  0.2258
  180SLPC  H17Y20588   5.069   1.694   5.303  0.9552 -1.4762 -1.6972
  180SLPC  C31820589   5.083   1.910   5.256  0.1376 -0.5427 -0.0675
  180SLPC  H18X20590   5.066   1.957   5.355 -1.2287 -2.1714  0.5304
  180SLPC  H18Y20591   4.980   1.887   5.221 -1.1813 -2.2387  4.1910
  180SLPC  H18Z20592   5.133   1.970   5.177  0.9449 -0.0622  0.7892
  181SLPC     N20593   4.125   2.476   3.065  0.8230 -0.1854  0.0910
  181SLPC   C1320594   4.008   2.485   3.164 -0.5602 -0.4639 -0.2451
  181SLPC  H13A20595   3.958   2.390   3.179  2.2305 -1.8642  1.0148
  181SLPC  H13B20596   4.048   2.509   3.262 -1.3148 -0.3075  0.0304
  181SLPC  H13C20597   3.935   2.557   3.132 -1.3340 -2.5013 -3.5717
  181SLPC   C1420598   4.209   2.365   3.101 -0.0247 -0.5148 -0.4451
  181SLPC  H14A20599   4.292   2.358   3.031  0.0498 -2.9578 -0.2066
  181SLPC  H14B20600   4.242   2.375   3.203  1.6283  0.2921 -1.0210
  181SLPC  H14C20601   4.149   2.275   3.101 -1.4067  0.2965 -3.0698
  181SLPC   C1520602   4.196   2.603   3.081 -0.1162 -0.9588 -0.1780
  181SLPC  H15A20603   4.228   2.623   3.182  0.4591 -0.6270 -0.4208
  181SLPC  H15B20604   4.288   2.599   3.025  0.5648 -1.2269  0.9200
  181SLPC  H15C20605   4.134   2.682   3.040  0.0562 -1.0532 -0.6224
  181SLPC   C1220606   4.076   2.468   2.922 -0.7988 -0.2313 -0.2058
  181SLPC  H12A20607   4.157   2.489   2.853 -0.0521  0.5633  0.8924
  181SLPC  H12B20608   3.999   2.540   2.899  0.7261  0.9359 -1.9143
  181SLPC   C1120609   4.013   2.333   2.875 -0.9597 -0.1745  0.6509
  181SLPC  H11A20610   4.092   2.255   2.878 -1.6084 -0.8615  0.2975
  181SLPC  H11B20611   3.987   2.330   2.767 -1.1823 -2.8292  0.7062
  181SLPC     P20612   3.849   2.148   2.953 -0.2726 -0.0529  0.4394
  181SLPC   O1320613   3.705   2.161   2.983  0.5137  0.3321 -0.4486
  181SLPC   O1420614   3.890   2.084   2.824 -0.2040  0.2974 -0.0390
  181SLPC   O1220615   3.901   2.293   2.952 -0.4552 -0.1244  0.0207
  181SLPC   O1120616   3.920   2.072   3.076  0.4872 -0.2422 -0.4923
  181SLPC    C120617   3.892   1.937   3.086 -0.2480 -0.0160 -0.5556
  181SLPC    HA20618   3.786   1.909   3.074  0.0797 -1.1505 -0.9657
  181SLPC    HB20619   3.952   1.880   3.012  0.7040  1.2383 -0.8009
  181SLPC    C220620   3.933   1.894   3.227 -0.9586 -0.0566 -0.0466
  181SLPC    HS20621   3.935   1.783   3.232 -0.3938  0.0047  2.4680
  181SLPC   O2120622   3.843   1.946   3.320  0.7585  0.5679  0.3181
  181SLPC   C2120623   3.836   1.872   3.433  0.4856 -0.5200  0.4976
  181SLPC   O2220624   3.887   1.769   3.455 -0.6367  0.2523 -0.1785
  181SLPC   C2220625   3.746   1.939   3.543 -0.9140 -0.0210  0.6384
  181SLPC   H2R20626   3.791   2.039   3.563 -1.9255  0.3701  1.0314
  181SLPC   H2S20627   3.643   1.951   3.501 -0.5679  0.4502 -0.0934
  181SLPC    C320628   4.080   1.942   3.253 -0.2426 -0.1763 -0.3335
  181SLPC    HX20629   4.081   2.053   3.249  2.3400 -0.1858 -1.7830
  181SLPC    HY20630   4.138   1.903   3.167  1.0865  1.6786 -0.3372
  181SLPC   O3120631   4.132   1.896   3.383  0.5275 -0.3432 -0.5101
  181SLPC   C3120632   4.182   1.778   3.402 -0.3756  0.0499 -0.7662
  181SLPC   O3220633   4.194   1.693   3.312  0.0672 -0.3959 -0.1147
  181SLPC   C3220634   4.212   1.741   3.546  0.1988  0.5232 -0.4474
  181SLPC   H2X20635   4.321   1.748   3.566  0.3771  1.2303 -1.5836
  181SLPC   H2Y20636   4.171   1.641   3.571  0.2347  0.6006 -0.0647
  181SLPC   C2320637   3.749   1.852   3.672 -0.2169 -0.1740  0.4646
  181SLPC   H3R20638   3.851   1.838   3.713  0.3420  1.0454 -0.4215
  181SLPC   H3S20639   3.713   1.750   3.647 -1.2457 -0.4515  2.8355
  181SLPC   C2420640   3.658   1.909   3.779 -0.1320 -0.0314 -0.0431
  181SLPC   H4R20641   3.551   1.901   3.751 -1.0392 -0.6446  3.1883
  181SLPC   H4S20642   3.679   2.017   3.795 -0.0712  0.3425 -2.2510
  181SLPC   C2520643   3.672   1.845   3.923  0.0171 -0.3950 -0.3188
  181SLPC   H5R20644   3.774   1.860   3.963 -0.4076  0.9105  0.3323
  181SLPC   H5S20645   3.653   1.737   3.907  0.1940 -0.3162 -1.0919
  181SLPC   C2620646   3.564   1.898   4.025  0.4734  0.9029 -0.1565
  181SLPC   H6R20647   3.474   1.844   3.990  1.6836 -0.5775 -1.1240
  181SLPC   H6S20648   3.557   2.005   3.996  2.0166  0.9404 -0.5166
  181SLPC   C2720649   3.593   1.869   4.172  0.3502  0.0462 -0.9193
  181SLPC   H7R20650   3.695   1.902   4.200 -0.5055  0.4186  2.0535
  181SLPC   H7S20651   3.599   1.759   4.185 -1.4864  0.0506  0.3130
  181SLPC   C2820652   3.478   1.925   4.267  0.3677 -0.4454 -0.1238
  181SLPC   H8R20653   3.499   1.892   4.371 -2.0099 -0.6160  0.3654
  181SLPC   H8S20654   3.382   1.879   4.234  1.1436 -1.5373 -0.9170
  181SLPC   C2920655   3.454   2.077   4.256 -0.2126  0.2928 -0.1313
  181SLPC   H9R20656   3.443   2.126   4.158 -0.9560  0.1682 -0.1160
  181SLPC  C21020657   3.442   2.163   4.358  0.3141 -0.2591  0.0041
  181SLPC  H10R20658   3.411   2.265   4.333 -0.9903 -0.6369 -0.0394
  181SLPC  C21120659   3.448   2.122   4.505  0.3868  0.6205 -0.0092
  181SLPC  H11R20660   3.433   2.218   4.559 -0.1537  1.0879 -0.9657
  181SLPC  H11S20661   3.553   2.087   4.515  1.1603  2.9387  0.5739
  181SLPC  C21220662   3.345   2.021   4.561 -0.1955  0.4109  0.5330
  181SLPC  H12R20663   3.267   1.978   4.496  0.3872  1.2441 -0.7524
  181SLPC  C21320664   3.358   1.963   4.676 -0.0269  0.0727  0.1122
  181SLPC  H13R20665   3.292   1.877   4.696  0.8130 -0.1515  2.1159
  181SLPC  C21420666   3.463   2.000   4.779 -0.0789 -0.1291  0.3290
  181SLPC  H14R20667   3.555   2.041   4.731  1.0626 -3.6701 -0.8481
  181SLPC  H14S20668   3.503   1.910   4.831  1.1475 -1.0404 -2.0177
  181SLPC  C21520669   3.395   2.095   4.884 -0.3386  0.2786  0.5822
  181SLPC  H15R20670   3.319   2.035   4.938  0.9596  0.9517  3.3397
  181SLPC  H15S20671   3.356   2.187   4.837 -0.7719 -0.4143 -0.4675
  181SLPC  C21620672   3.487   2.149   4.994 -0.3927  0.4262 -1.0261
  181SLPC  H16R20673   3.552   2.226   4.947  1.0286 -0.1625 -0.0836
  181SLPC  H16S20674   3.555   2.068   5.028 -0.2750  0.9619  0.0313
  181SLPC  C21720675   3.408   2.214   5.109  0.1179 -0.0362 -0.1047
  181SLPC  H17R20676   3.316   2.262   5.070  0.9911  0.0279 -2.2063
  181SLPC  H17S20677   3.475   2.293   5.150  1.2316 -0.8140 -0.3718
  181SLPC  C21820678   3.370   2.120   5.223  0.4570  0.2703  0.0759
  181SLPC  H18R20679   3.306   2.038   5.185  0.8882 -0.5091  0.9805
  181SLPC  H18S20680   3.317   2.177   5.302  1.4459  1.7289 -0.2591
  181SLPC  H18T20681   3.459   2.074   5.270 -0.2122  2.1290  3.4408
  181SLPC   C3320682   4.159   1.845   3.654  0.8636 -0.3222 -0.2138
  181SLPC   H3X20683   4.049   1.840   3.641  0.9967  0.2970 -1.9512
  181SLPC   H3Y20684   4.203   1.945   3.629  0.7839 -0.0466  0.7288
  181SLPC   C3420685   4.169   1.792   3.796  0.3439  0.2377  0.4815
  181SLPC   H4X20686   4.273   1.774   3.829  0.1611 -3.1533 -0.4357
  181SLPC   H4Y20687   4.106   1.700   3.802  0.6764 -0.1008 -0.8852
  181SLPC   C3520688   4.113   1.889   3.901 -0.2564  0.1832 -0.8937
  181SLPC   H5X20689   4.003   1.890   3.886 -0.0949 -0.9566 -2.3374
  181SLPC   H5Y20690   4.149   1.993   3.888  0.2086  0.4473  1.7750
  181SLPC   C3620691   4.139   1.854   4.046  0.1194  0.1943 -0.4829
  181SLPC   H6X20692   4.248   1.835   4.054  0.2173  1.1144  0.5499
  181SLPC   H6Y20693   4.088   1.759   4.072  1.5349 -0.6864 -0.8156
  181SLPC   C3720694   4.095   1.958   4.151 -0.1868 -0.6241 -1.2929
  181SLPC   H7X20695   3.992   2.000   4.143 -0.2755 -0.3902  0.5152
  181SLPC   H7Y20696   4.168   2.040   4.133 -1.1896  0.7925  0.6793
  181SLPC   C3820697   4.116   1.911   4.300  0.5274 -0.1491 -0.1020
  181SLPC   H8X20698   4.191   1.831   4.314 -0.6364 -1.4845 -1.1969
  181SLPC   H8Y20699   4.027   1.897   4.365  0.8126 -1.2686  0.0545
  181SLPC   C3920700   4.192   2.028   4.368  0.4404 -0.5021 -0.8311
  181SLPC   H9X20701   4.152   2.130   4.348  0.0048 -0.6476 -0.7177
  181SLPC   H9Y20702   4.299   2.032   4.338  0.9527 -0.8790  0.8219
  181SLPC  C31020703   4.176   2.017   4.527 -0.6222 -0.0218  0.2492
  181SLPC  H10X20704   4.173   1.908   4.547  1.7825 -0.8204 -2.8998
  181SLPC  H10Y20705   4.078   2.055   4.563 -0.0467  0.9180  0.8437
  181SLPC  C31120706   4.293   2.090   4.599  0.2266  0.0266  0.0204
  181SLPC  H11X20707   4.289   2.196   4.565 -0.2569  0.4743  1.3953
  181SLPC  H11Y20708   4.395   2.063   4.564 -0.1410  0.1812 -1.2264
  181SLPC  C31220709   4.282   2.095   4.755 -0.0570 -0.3070  0.1892
  181SLPC  H12X20710   4.312   1.996   4.795  0.8706  0.7101  2.1496
  181SLPC  H12Y20711   4.177   2.120   4.782 -0.4753  1.6305 -2.7110
  181SLPC  C31320712   4.393   2.181   4.821  0.3620 -0.8885 -0.3378
  181SLPC  H13X20713   4.493   2.178   4.772  1.6064  2.5509  1.6274
  181SLPC  H13Y20714   4.411   2.149   4.925 -1.4903 -2.0008 -0.3119
  181SLPC  C31420715   4.352   2.319   4.844  0.1892  0.2842 -0.4044
  181SLPC  H14X20716   4.276   2.330   4.924  2.0656 -1.2843  1.7451
  181SLPC  H14Y20717   4.288   2.335   4.755  1.3528 -0.4468 -1.4033
  181SLPC  C31520718   4.456   2.423   4.820 -0.1568 -0.4105 -0.5492
  181SLPC  H15X20719   4.399   2.517   4.831  0.5413 -0.1883  1.4408
  181SLPC  H15Y20720   4.500   2.424   4.718  2.8666  0.0778  0.6532
  181SLPC  C31620721   4.582   2.421   4.903 -0.3834 -0.0092 -0.7637
  181SLPC  H16X20722   4.635   2.517   4.888 -0.3987 -0.1635 -1.8791
  181SLPC  H16Y20723   4.644   2.334   4.871  2.3850  0.7431  2.0925
  181SLPC  C31720724   4.560   2.410   5.062 -0.6459  0.1022  0.2523
  181SLPC  H17X20725   4.477   2.341   5.087 -0.5034 -0.2097 -0.1387
  181SLPC  H17Y20726   4.523   2.512   5.085  0.0163  0.5743 -0.6820
  181SLPC  C31820727   4.692   2.398   5.143 -0.0714  0.3769 -0.3740
  181SLPC  H18X20728   4.750   2.493   5.138  0.7206  0.0148  1.2371
  181SLPC  H18Y20729   4.761   2.321   5.101  1.0097  1.8371 -1.3874
  181SLPC  H18Z20730   4.675   2.374   5.250 -0.0611  1.4292 -0.1252
  182SLPC     N20731   1.729   3.629   2.629  0.6140  0.3449 -0.0966
  182SLPC   C1320732   1.622   3.733   2.646  0.5085  0.9861 -0.5322
  182SLPC  H13A20733   1.612   3.786   2.552  3.4335  3.4721  0.3882
  182SLPC  H13B20734   1.526   3.690   2.670  0.6414  2.5002  3.5363
  182SLPC  H13C20735   1.642   3.800   2.728 -0.5546  2.4076 -1.3810
  182SLPC   C1420736   1.854   3.684   2.567  0.6539 -0.7447 -0.6926
  182SLPC  H14A20737   1.820   3.738   2.480  2.8903  2.9151  0.5060
  182SLPC  H14B20738   1.891   3.765   2.628  0.8254 -0.2946 -1.3761
  182SLPC  H14C20739   1.924   3.611   2.528  1.4412 -0.8328  0.8316
  182SLPC   C1520740   1.678   3.526   2.532  0.7140 -0.1752  0.1012
  182SLPC  H15A20741   1.638   3.580   2.447 -0.7343 -0.4970  0.5525
  182SLPC  H15B20742   1.755   3.454   2.507  1.7436  1.3569 -1.3835
  182SLPC  H15C20743   1.591   3.486   2.582 -0.2954  2.1852  0.3797
  182SLPC   C1220744   1.771   3.572   2.765  0.3757 -0.0790 -0.1185
  182SLPC  H12A20745   1.823   3.653   2.814 -1.5476 -0.3378  2.5405
  182SLPC  H12B20746   1.845   3.497   2.741 -0.2616 -0.4294 -1.0472
  182SLPC   C1120747   1.666   3.516   2.854  0.1658  0.0884 -0.3608
  182SLPC  H11A20748   1.725   3.469   2.935 -0.3205 -0.4828 -0.3279
  182SLPC  H11B20749   1.611   3.439   2.795  1.1214  0.7034 -2.1176
  182SLPC     P20750   1.624   3.714   3.024 -0.1327  0.2243 -0.2937
  182SLPC   O1320751   1.758   3.767   2.991 -0.2767  0.4752  0.5855
  182SLPC   O1420752   1.517   3.815   3.042  0.3731  0.3771 -0.1237
  182SLPC   O1220753   1.576   3.613   2.913 -0.6932 -0.1129  0.1241
  182SLPC   O1120754   1.641   3.622   3.145  0.4524 -0.1791  0.3080
  182SLPC    C120755   1.533   3.561   3.215  0.1650  0.2242  0.1046
  182SLPC    HA20756   1.454   3.523   3.147 -0.0137 -0.3041  0.5974
  182SLPC    HB20757   1.570   3.468   3.265  0.3354  0.1034 -0.2419
  182SLPC    C220758   1.479   3.649   3.324  0.5764  0.5211  0.5094
  182SLPC    HS20759   1.478   3.754   3.289  2.5421  0.1872 -0.7359
  182SLPC   O2120760   1.561   3.626   3.441 -0.1790  0.2103  0.0629
  182SLPC   C2120761   1.579   3.736   3.517  0.0517 -0.7265 -0.0295
  182SLPC   O2220762   1.544   3.848   3.482 -0.3851 -0.6780  0.8363
  182SLPC   C2220763   1.658   3.701   3.648 -0.6183 -0.0597 -0.0987
  182SLPC   H2R20764   1.656   3.790   3.715 -1.1888  0.8273 -1.2556
  182SLPC   H2S20765   1.604   3.617   3.697  0.2915 -0.2338  0.6313
  182SLPC    C320766   1.333   3.614   3.370  0.2430  0.2021 -0.5398
  182SLPC    HX20767   1.267   3.621   3.281 -2.5883 -1.4624  1.2623
  182SLPC    HY20768   1.285   3.687   3.438  2.0538 -1.3927  2.6762
  182SLPC   O3120769   1.333   3.478   3.416  0.4284 -0.0141 -0.4486
  182SLPC   C3120770   1.331   3.464   3.553  0.4808  0.2909  0.6370
  182SLPC   O3220771   1.329   3.547   3.636 -0.0813 -0.2401 -0.5911
  182SLPC   C3220772   1.329   3.313   3.577 -0.0587  0.1086  0.2423
  182SLPC   H2X20773   1.371   3.261   3.489 -2.0321 -0.8262 -0.2158
  182SLPC   H2Y20774   1.226   3.283   3.608 -0.2645  2.2535  1.8681
  182SLPC   C2320775   1.809   3.681   3.619  0.7134  0.5668  0.3072
  182SLPC   H3R20776   1.852   3.778   3.584 -0.7144  1.4103  0.8036
  182SLPC   H3S20777   1.823   3.591   3.556 -1.2249 -0.0260  0.6821
  182SLPC   C2420778   1.889   3.647   3.744  0.5367 -0.0879  0.2869
  182SLPC   H4R20779   1.899   3.722   3.824  1.6278 -0.0053  0.0901
  182SLPC   H4S20780   1.992   3.627   3.708  0.9245  1.6405  0.3630
  182SLPC   C2520781   1.847   3.516   3.811  0.5610  0.1227  0.3865
  182SLPC   H5R20782   1.933   3.461   3.854 -0.3913 -0.9372  1.0025
  182SLPC   H5S20783   1.808   3.451   3.731  1.7240 -1.3241  0.9494
  182SLPC   C2620784   1.753   3.544   3.936  0.0034  0.2218 -0.7785
  182SLPC   H6R20785   1.647   3.538   3.901 -1.6594  0.6321  3.6080
  182SLPC   H6S20786   1.759   3.651   3.962 -0.8483  0.0608  0.1429
  182SLPC   C2720787   1.795   3.438   4.043  0.5999  0.3539 -0.5163
  182SLPC   H7R20788   1.894   3.460   4.088  1.1173  0.3704 -1.6367
  182SLPC   H7S20789   1.790   3.342   3.987 -0.6379 -0.2104  0.5074
  182SLPC   C2820790   1.706   3.430   4.172  0.1578  0.2383  0.1555
  182SLPC   H8R20791   1.704   3.532   4.216 -3.8099  0.1393  0.5822
  182SLPC   H8S20792   1.760   3.366   4.245  0.7966  1.6234  0.9228
  182SLPC   C2920793   1.558   3.390   4.157 -0.3455  0.0085  0.9811
  182SLPC   H9R20794   1.514   3.376   4.057  1.8646  1.5325 -0.2939
  182SLPC  C21020795   1.492   3.347   4.265 -0.0300 -0.3525 -0.3341
  182SLPC  H10R20796   1.385   3.322   4.259  0.1573 -1.0212 -0.8609
  182SLPC  C21120797   1.544   3.346   4.407  0.2838  0.6510  0.5852
  182SLPC  H11R20798   1.654   3.330   4.416  0.3840  1.4408  0.8866
  182SLPC  H11S20799   1.509   3.250   4.451  1.8457  0.2391  1.0057
  182SLPC  C21220800   1.494   3.459   4.491 -0.8718  0.4042  0.2884
  182SLPC  H12R20801   1.556   3.545   4.462  0.2846 -0.3816  0.3750
  182SLPC  C21320802   1.386   3.463   4.569  0.3426 -0.1592  0.0132
  182SLPC  H13R20803   1.372   3.555   4.629  1.8110  1.5491 -2.1257
  182SLPC  C21420804   1.293   3.344   4.602  0.4731  0.2359  0.0934
  182SLPC  H14R20805   1.269   3.278   4.516  0.4596  0.0015  0.2770
  182SLPC  H14S20806   1.197   3.378   4.649  1.4087 -0.2693  2.5286
  182SLPC  C21520807   1.352   3.257   4.706  0.0989  0.9868 -0.4219
  182SLPC  H15R20808   1.449   3.216   4.668 -0.6898 -0.3762 -1.0368
  182SLPC  H15S20809   1.286   3.170   4.727 -0.8122  2.0055  1.0921
  182SLPC  C21620810   1.387   3.319   4.839  0.0177 -0.9054 -1.1564
  182SLPC  H16R20811   1.300   3.364   4.890  2.4911  2.1964  0.6758
  182SLPC  H16S20812   1.465   3.398   4.832  1.9943 -2.5545  0.7226
  182SLPC  C21720813   1.460   3.231   4.939 -0.9250  0.6363  0.5130
  182SLPC  H17R20814   1.387   3.148   4.950 -0.6821 -0.0095 -1.9868
  182SLPC  H17S20815   1.482   3.295   5.027  1.7922  1.0399 -0.3509
  182SLPC  C21820816   1.591   3.171   4.891 -0.5112 -0.7078  0.1107
  182SLPC  H18R20817   1.584   3.145   4.784 -1.4255  1.4118 -0.4003
  182SLPC  H18S20818   1.627   3.086   4.954  1.5311 -0.7997 -1.1110
  182SLPC  H18T20819   1.669   3.250   4.886 -1.9478  0.9662  2.2522
  182SLPC   C3320820   1.409   3.288   3.706  0.2651  0.8774 -0.1211
  182SLPC   H3X20821   1.352   3.330   3.792 -0.6167 -0.9294  0.2300
  182SLPC   H3Y20822   1.509   3.335   3.698  1.9534 -2.6209 -2.0894
  182SLPC   C3420823   1.429   3.140   3.725  0.2407  0.0885  0.0130
  182SLPC   H4X20824   1.475   3.090   3.637 -0.7057  0.0020 -0.4416
  182SLPC   H4Y20825   1.332   3.087   3.735 -0.1426  0.8262  0.2742
  182SLPC   C3520826   1.524   3.104   3.844 -0.0312  0.4112 -0.8356
  182SLPC   H5X20827   1.604   3.180   3.856 -0.2457  0.9087 -2.3605
  182SLPC   H5Y20828   1.572   3.005   3.829 -2.2415 -0.6638 -1.3120
  182SLPC   C3620829   1.454   3.073   3.982 -0.9263  0.0710 -0.5372
  182SLPC   H6X20830   1.378   2.995   3.958  1.4563 -1.2951 -4.6228
  182SLPC   H6Y20831   1.410   3.166   4.023 -0.2046  0.0382  0.3271
  182SLPC   C3720832   1.553   3.022   4.084  0.3557  0.8653 -1.3572
  182SLPC   H7X20833   1.617   3.104   4.123  1.6735  0.4509 -2.5258
  182SLPC   H7Y20834   1.613   2.946   4.029  0.5555  0.5032 -0.6525
  182SLPC   C3820835   1.494   2.952   4.201  0.3458  0.1949 -0.6164
  182SLPC   H8X20836   1.431   2.866   4.169 -0.1831 -0.3790  1.8072
  182SLPC   H8Y20837   1.438   3.030   4.257 -0.1964 -1.0913  0.6883
  182SLPC   C3920838   1.595   2.889   4.302  0.0877  0.3720 -0.2102
  182SLPC   H9X20839   1.657   2.970   4.346 -1.6692  1.3666  0.5164
  182SLPC   H9Y20840   1.660   2.815   4.251  0.3460  1.0937 -0.9567
  182SLPC  C31020841   1.522   2.823   4.419  0.2153 -0.2749  0.4764
  182SLPC  H10X20842   1.454   2.749   4.372 -1.4747  0.8683  0.9854
  182SLPC  H10Y20843   1.445   2.885   4.470 -0.7774 -0.1345 -1.1192
  182SLPC  C31120844   1.615   2.766   4.524 -0.2635 -0.3923  0.6459
  182SLPC  H11X20845   1.664   2.847   4.583 -1.9736  0.0352  1.5449
  182SLPC  H11Y20846   1.691   2.704   4.471  1.6687  1.5365  1.0184
  182SLPC  C31220847   1.548   2.676   4.630 -0.1074  0.1476  0.5572
  182SLPC  H12X20848   1.636   2.622   4.671  2.5806  1.0090 -3.5925
  182SLPC  H12Y20849   1.484   2.596   4.586 -0.7148  0.9379 -0.0120
  182SLPC  C31320850   1.481   2.761   4.739 -0.1635 -0.1958  0.2732
  182SLPC  H13X20851   1.419   2.836   4.686  0.4169 -0.7117 -1.2119
  182SLPC  H13Y20852   1.558   2.822   4.792 -0.4220  1.3683 -1.0735
  182SLPC  C31420853   1.385   2.672   4.822  0.3006 -0.1175  0.2712
  182SLPC  H14X20854   1.441   2.589   4.870 -1.3284 -1.2383  0.3258
  182SLPC  H14Y20855   1.307   2.617   4.765 -0.1425  0.7713 -0.0054
  182SLPC  C31520856   1.316   2.744   4.933  0.9545  0.1429 -0.0165
  182SLPC  H15X20857   1.403   2.782   4.990  1.8086 -1.5501 -0.1036
  182SLPC  H15Y20858   1.250   2.684   4.999 -1.6428 -0.3714 -2.8071
  182SLPC  C31620859   1.230   2.862   4.885 -0.2012  0.2709  0.5579
  182SLPC  H16X20860   1.141   2.835   4.824  1.2546 -2.9819 -0.3338
  182SLPC  H16Y20861   1.298   2.925   4.824  1.3613  0.4727  2.4114
  182SLPC  C31720862   1.170   2.943   4.999 -0.0152  0.1942  0.0477
  182SLPC  H17X20863   1.114   3.032   4.962 -1.5512 -0.5688  0.4645
  182SLPC  H17Y20864   1.258   2.978   5.057 -0.0029 -0.6026  0.5306
  182SLPC  C31820865   1.060   2.872   5.089  0.2936 -0.0205  0.0357
  182SLPC  H18X20866   1.014   2.780   5.048 -2.1694  0.8092  0.7995
  182SLPC  H18Y20867   0.984   2.951   5.108  1.3422  1.0732 -0.2121
  182SLPC  H18Z20868   1.105   2.834   5.183 -1.1991 -2.6576 -0.2321
  183SLPC     N20869   3.253   2.441   2.621 -0.4371 -0.2232  0.0883
  183SLPC   C1320870   3.293   2.487   2.757  0.1356  0.3573  0.3921
  183SLPC  H13A20871   3.394   2.458   2.781  0.5789  1.9813  0.6618
  183SLPC  H13B20872   3.289   2.595   2.758  1.7829  0.5420 -2.3730
  183SLPC  H13C20873   3.221   2.443   2.823  1.2477 -0.8203  0.8622
  183SLPC   C1420874   3.204   2.302   2.622  0.4125 -0.4379  0.3486
  183SLPC  H14A20875   3.277   2.240   2.673  0.3912 -1.6952 -1.0945
  183SLPC  H14B20876   3.115   2.288   2.681  1.2448  0.2302  1.8269
  183SLPC  H14C20877   3.180   2.260   2.526  0.0835 -1.7849  0.9929
  183SLPC   C1520878   3.377   2.453   2.534  0.8284 -0.0004 -0.1883
  183SLPC  H15A20879   3.367   2.407   2.436  1.5191 -1.2983  0.3264
  183SLPC  H15B20880   3.402   2.557   2.520 -0.2331  0.3359  0.3045
  183SLPC  H15C20881   3.468   2.415   2.578  1.3366  2.0307  0.6064
  183SLPC   C1220882   3.131   2.517   2.565 -0.6065  0.0717 -0.2804
  183SLPC  H12A20883   3.049   2.498   2.632  1.0014  0.5735  1.9627
  183SLPC  H12B20884   3.107   2.483   2.466  2.3000  1.4182 -1.5824
  183SLPC   C1120885   3.140   2.669   2.561  0.7444  0.0106  0.4697
  183SLPC  H11A20886   3.061   2.706   2.493 -0.7650 -1.4332  1.3468
  183SLPC  H11B20887   3.237   2.697   2.515 -0.2878  0.8338 -1.2891
  183SLPC     P20888   2.999   2.792   2.749  0.2362 -0.1761  0.0769
  183SLPC   O1320889   2.948   2.891   2.656  0.3552 -0.0765 -0.0219
  183SLPC   O1420890   2.911   2.678   2.769 -0.3221  0.7067 -0.1048
  183SLPC   O1220891   3.135   2.732   2.691 -0.0020  0.6137 -0.0197
  183SLPC   O1120892   3.015   2.855   2.889  0.2661  0.6133 -0.1785
  183SLPC    C120893   3.141   2.833   2.951 -0.8526  0.7012 -0.0222
  183SLPC    HA20894   3.217   2.778   2.891 -2.2537  0.4539 -1.6093
  183SLPC    HB20895   3.190   2.931   2.973  0.8099 -0.0907 -0.0126
  183SLPC    C220896   3.139   2.759   3.090  0.0287 -0.6711  0.1609
  183SLPC    HS20897   3.108   2.652   3.085 -1.7094 -0.1270 -1.3810
  183SLPC   O2120898   3.041   2.826   3.168 -0.3579  0.0314 -0.1238
  183SLPC   C2120899   2.914   2.789   3.166  0.2009  0.1488  0.2130
  183SLPC   O2220900   2.868   2.684   3.133  0.4632 -0.0526  0.8661
  183SLPC   C2220901   2.831   2.901   3.221  0.1515 -0.1089  0.0061
  183SLPC   H2R20902   2.798   2.950   3.127 -0.5249 -2.8141 -1.2773
  183SLPC   H2S20903   2.737   2.854   3.256 -0.3017  1.2492  0.7007
  183SLPC    C320904   3.280   2.770   3.152  0.2878  0.6567  0.1273
  183SLPC    HX20905   3.302   2.878   3.159  1.8045  0.4783 -1.2177
  183SLPC    HY20906   3.349   2.720   3.080 -1.6955 -0.5767 -1.0083
  183SLPC   O3120907   3.288   2.695   3.280  0.6279  0.3055 -0.1358
  183SLPC   C3120908   3.305   2.782   3.382 -0.2327 -0.5639 -0.4132
  183SLPC   O3220909   3.349   2.897   3.378  0.1957 -0.1105 -0.2214
  183SLPC   C3220910   3.272   2.714   3.512  0.0004  0.3028  0.5674
  183SLPC   H2X20911   3.324   2.617   3.526  0.1057  0.7730  4.5766
  183SLPC   H2Y20912   3.163   2.692   3.521  0.1342 -0.4506  0.3497
  183SLPC   C2320913   2.897   2.995   3.333  0.5274  0.5817 -0.2464
  183SLPC   H3R20914   2.842   3.091   3.332 -1.2642 -0.4038  0.0299
  183SLPC   H3S20915   3.003   3.019   3.309  0.7620  0.1841  0.3749
  183SLPC   C2420916   2.881   2.913   3.464  0.6431  0.3319 -0.2614
  183SLPC   H4R20917   2.911   2.808   3.446 -1.4221 -0.2402 -0.6561
  183SLPC   H4S20918   2.773   2.909   3.491  1.1450 -0.8520  1.7600
  183SLPC   C2520919   2.958   2.959   3.591 -0.2621 -0.9104  0.4501
  183SLPC   H5R20920   2.930   3.067   3.589 -0.4785 -0.9339  1.3713
  183SLPC   H5S20921   3.065   2.973   3.565 -0.6538  2.1554  0.1373
  183SLPC   C2620922   2.920   2.881   3.718 -0.1452  0.0582  0.2063
  183SLPC   H6R20923   2.948   2.773   3.717 -1.0745 -0.1991 -1.0623
  183SLPC   H6S20924   2.809   2.883   3.724 -0.0666  1.3614  1.4620
  183SLPC   C2720925   2.983   2.958   3.844  0.5399  0.4596  0.6522
  183SLPC   H7R20926   2.921   3.051   3.846 -0.4932  0.0655 -3.3464
  183SLPC   H7S20927   3.089   2.984   3.824  1.3511 -1.5364  2.0523
  183SLPC   C2820928   2.962   2.883   3.973 -0.0515  0.2816 -0.2543
  183SLPC   H8R20929   3.000   2.779   3.959  1.1555  0.4471  1.4215
  183SLPC   H8S20930   2.852   2.878   3.987 -0.1252  1.4281 -0.3446
  183SLPC   C2920931   3.039   2.938   4.089  0.2325 -1.1360  0.0704
  183SLPC   H9R20932   3.134   2.989   4.068 -1.1010  1.0745 -0.8934
  183SLPC  C21020933   2.997   2.954   4.217  0.0063  0.4892  0.3489
  183SLPC  H10R20934   3.055   3.009   4.293  3.0407  0.0694 -1.5262
  183SLPC  C21120935   2.865   2.898   4.277 -0.2173 -0.1315 -0.1264
  183SLPC  H11R20936   2.797   2.887   4.190  0.6935 -1.3766 -0.7222
  183SLPC  H11S20937   2.817   2.971   4.345  0.2113 -0.8206  0.9540
  183SLPC  C21220938   2.884   2.767   4.347  0.0151  0.1492 -0.0507
  183SLPC  H12R20939   2.866   2.685   4.276 -0.1406 -0.1285  0.3061
  183SLPC  C21320940   2.918   2.745   4.475  0.2742 -0.0673  0.1964
  183SLPC  H13R20941   2.930   2.640   4.505 -1.0237 -0.9587 -2.1531
  183SLPC  C21420942   2.950   2.852   4.573 -0.2980  0.6197  0.1374
  183SLPC  H14R20943   2.971   2.951   4.529 -2.8192  0.7693 -0.9158
  183SLPC  H14S20944   3.035   2.813   4.634  0.2280  1.7121  0.1137
  183SLPC  C21520945   2.836   2.878   4.663 -0.4816  0.2807 -0.0838
  183SLPC  H15R20946   2.789   2.785   4.701 -0.2755 -0.6456 -1.9851
  183SLPC  H15S20947   2.759   2.931   4.602 -0.1585 -1.0830 -1.7617
  183SLPC  C21620948   2.875   2.969   4.783 -0.9991  0.7273  0.6327
  183SLPC  H16R20949   2.782   2.985   4.842 -1.7410 -0.0965 -0.2692
  183SLPC  H16S20950   2.905   3.064   4.736 -0.9005  0.6446  0.5289
  183SLPC  C21720951   2.988   2.922   4.884  0.1086 -0.5601  0.1392
  183SLPC  H17R20952   3.008   3.004   4.955  1.5106 -1.1407  0.4422
  183SLPC  H17S20953   3.081   2.910   4.825  0.1891 -3.2243  0.6702
  183SLPC  C21820954   2.967   2.793   4.963 -0.4871  0.1253 -0.4166
  183SLPC  H18R20955   2.861   2.797   4.997 -0.0854  1.1046  0.8152
  183SLPC  H18S20956   3.041   2.784   5.045 -0.2568  0.0466 -0.6300
  183SLPC  H18T20957   2.979   2.701   4.903 -1.8881 -0.1193 -0.3672
  183SLPC   C3320958   3.309   2.799   3.641  0.2205  0.7561  0.0334
  183SLPC   H3X20959   3.236   2.780   3.724 -0.5967 -1.6343 -1.1155
  183SLPC   H3Y20960   3.298   2.907   3.618 -0.8817  0.5479 -0.4760
  183SLPC   C3420961   3.446   2.761   3.683  0.0278 -0.6836 -0.5880
  183SLPC   H4X20962   3.520   2.736   3.605  0.0062 -1.2337 -0.4366
  183SLPC   H4Y20963   3.436   2.660   3.727  0.0168  0.2345  1.6513
  183SLPC   C3520964   3.501   2.847   3.800  0.0864 -0.2649  0.5311
  183SLPC   H5X20965   3.548   2.935   3.752 -0.4091  0.2350  0.9366
  183SLPC   H5Y20966   3.584   2.785   3.840 -0.2488 -1.0745  0.0044
  183SLPC   C3620967   3.399   2.888   3.908  0.6163 -0.0096  0.4506
  183SLPC   H6X20968   3.334   2.814   3.958  1.4923 -0.0133  1.6262
  183SLPC   H6Y20969   3.324   2.952   3.857  1.1497 -0.6512 -1.2117
  183SLPC   C3720970   3.468   2.959   4.026  0.5514  0.3652  0.1066
  183SLPC   H7X20971   3.392   3.025   4.073 -0.0758 -0.7295  0.6529
  183SLPC   H7Y20972   3.550   3.021   3.983  0.9050 -0.6852 -0.7830
  183SLPC   C3820973   3.532   2.864   4.131  0.0494 -0.0503 -0.1086
  183SLPC   H8X20974   3.575   2.929   4.210 -0.5136  0.4366 -0.1931
  183SLPC   H8Y20975   3.620   2.815   4.085  0.3632 -0.2557  0.6919
  183SLPC   C3920976   3.431   2.772   4.209 -0.7081  0.6258 -0.0200
  183SLPC   H9X20977   3.404   2.685   4.145  0.5811 -0.2816  0.6200
  183SLPC   H9Y20978   3.337   2.830   4.219 -0.4413  1.2781 -1.1498
  183SLPC  C31020979   3.488   2.724   4.339 -0.1048  0.3337  0.1158
  183SLPC  H10X20980   3.501   2.817   4.397  1.2645 -0.1757  0.6545
  183SLPC  H10Y20981   3.589   2.679   4.326  0.6784  1.8409  0.8230
  183SLPC  C31120982   3.397   2.621   4.408  0.5269  0.0279 -0.3931
  183SLPC  H11X20983   3.387   2.538   4.335  0.4227 -0.3478  0.0425
  183SLPC  H11Y20984   3.297   2.666   4.431  0.7928  0.3628  0.1439
  183SLPC  C31220985   3.452   2.565   4.543  0.2280  0.0918  0.1461
  183SLPC  H12X20986   3.509   2.651   4.585  2.8913 -0.2793 -2.4109
  183SLPC  H12Y20987   3.527   2.487   4.519  0.8820  0.8662 -0.4149
  183SLPC  C31320988   3.345   2.519   4.644  0.6573 -0.0626 -0.0987
  183SLPC  H13X20989   3.307   2.427   4.596  1.9110 -1.1223  0.8498
  183SLPC  H13Y20990   3.264   2.593   4.659 -0.6303 -1.2260 -1.0869
  183SLPC  C31420991   3.386   2.482   4.788 -0.1774 -0.0852 -0.0182
  183SLPC  H14X20992   3.448   2.389   4.791 -0.1218 -0.0573  3.1780
  183SLPC  H14Y20993   3.301   2.451   4.852 -0.2654 -3.0934 -1.4374
  183SLPC  C31520994   3.466   2.582   4.854 -0.1582 -0.5523 -0.0728
  183SLPC  H15X20995   3.418   2.681   4.843 -0.7305 -0.8952 -0.6967
  183SLPC  H15Y20996   3.567   2.575   4.807  1.3756  0.9006  2.7341
  183SLPC  C31620997   3.476   2.561   5.002  0.0256 -0.0188 -0.2420
  183SLPC  H16X20998   3.569   2.608   5.041 -0.1674 -0.2678  0.5338
  183SLPC  H16Y20999   3.490   2.451   5.018  2.2096 -0.1532 -2.4703
  183SLPC  C31721000   3.360   2.630   5.088  0.3444  0.6123  0.2226
  183SLPC  H17X21001   3.255   2.601   5.064 -0.5139  2.5151  1.3731
  183SLPC  H17Y21002   3.358   2.740   5.073 -1.2000  0.4539 -0.9903
  183SLPC  C31821003   3.376   2.598   5.241 -0.3741 -0.2787 -0.7526
  183SLPC  H18X21004   3.302   2.650   5.306 -1.0547 -0.8747 -1.0375
  183SLPC  H18Y21005   3.479   2.623   5.276 -0.4314 -1.3502  0.2125
  183SLPC  H18Z21006   3.372   2.490   5.266  0.3442  0.5906  4.1513
  184SLPC     N21007   2.183   5.199   3.046  0.0462 -0.2448 -0.3784
  184SLPC   C1321008   2.120   5.070   3.079 -0.7096 -0.0074 -0.4181
  184SLPC  H13A21009   2.070   5.071   3.175  0.9058 -2.2562  0.5206
  184SLPC  H13B21010   2.042   5.061   3.004  0.8175 -0.1831 -2.0554
  184SLPC  H13C21011   2.183   4.983   3.070 -0.3899  0.2297 -0.5194
  184SLPC   C1421012   2.090   5.306   3.096 -0.6400  0.7438 -0.2931
  184SLPC  H14A21013   1.994   5.289   3.050 -1.5661 -1.3202  2.1750
  184SLPC  H14B21014   2.073   5.307   3.203  0.3129  2.0110 -0.1201
  184SLPC  H14C21015   2.136   5.403   3.081  2.5898 -0.6510 -0.2874
  184SLPC   C1521016   2.205   5.198   2.898  0.7243  0.3269 -0.4362
  184SLPC  H15A21017   2.264   5.282   2.864  0.5835 -1.2051 -5.0910
  184SLPC  H15B21018   2.265   5.113   2.871 -0.6244 -1.0264  0.6836
  184SLPC  H15C21019   2.115   5.194   2.838  0.3618  1.8101 -0.0326
  184SLPC   C1221020   2.308   5.215   3.127  0.3075 -0.5080  0.0615
  184SLPC  H12A21021   2.377   5.140   3.091  0.9911  0.2511 -0.2339
  184SLPC  H12B21022   2.286   5.182   3.228 -1.1694  0.7275  0.1774
  184SLPC   C1121023   2.383   5.344   3.120 -0.5423  0.6766 -0.0048
  184SLPC  H11A21024   2.480   5.331   3.172 -0.9170 -0.7641  0.3750
  184SLPC  H11B21025   2.329   5.415   3.186  0.1852  1.1814  0.0588
  184SLPC     P21026   2.476   5.515   2.953 -0.2198 -0.0668 -0.0926
  184SLPC   O1321027   2.591   5.481   2.863 -0.5501 -0.4443  0.7193
  184SLPC   O1421028   2.384   5.617   2.900 -0.0846 -0.2638 -0.6501
  184SLPC   O1221029   2.392   5.392   2.988 -0.2165  0.0832 -0.0159
  184SLPC   O1121030   2.531   5.574   3.082 -0.6487 -0.0169 -0.4255
  184SLPC    C121031   2.670   5.587   3.111  0.2974 -0.1283 -0.9169
  184SLPC    HA21032   2.737   5.520   3.054  1.6615 -0.6374  1.1575
  184SLPC    HB21033   2.702   5.693   3.116 -0.6297  0.1373 -0.4431
  184SLPC    C221034   2.698   5.550   3.254  0.3507  0.0085  0.0744
  184SLPC    HS21035   2.672   5.444   3.274  1.9611  0.0735  2.9454
  184SLPC   O2121036   2.638   5.645   3.348  0.0305  0.0117 -0.1659
  184SLPC   C2121037   2.570   5.584   3.444  0.8666 -0.7628 -0.1549
  184SLPC   O2221038   2.551   5.466   3.463 -0.1646  0.3943 -0.7196
  184SLPC   C2221039   2.518   5.688   3.546  0.5557  0.0420  0.4704
  184SLPC   H2R21040   2.603   5.726   3.607  2.1535 -1.4550 -0.7286
  184SLPC   H2S21041   2.470   5.768   3.486 -0.8073 -0.7878  0.4026
  184SLPC    C321042   2.855   5.564   3.275 -0.2599  0.4112 -0.6272
  184SLPC    HX21043   2.885   5.666   3.242 -2.6290  0.6068 -2.3857
  184SLPC    HY21044   2.913   5.486   3.222  0.5037 -0.3752  1.2498
  184SLPC   O3121045   2.895   5.571   3.422  0.5611  0.1846  0.2547
  184SLPC   C3121046   2.921   5.454   3.476  0.0790 -0.0290  0.3246
  184SLPC   O3221047   2.930   5.351   3.409 -0.4798 -0.6275 -0.5511
  184SLPC   C3221048   2.926   5.467   3.628  0.0455  0.1115  0.1903
  184SLPC   H2X21049   2.878   5.560   3.664 -0.6422 -0.2989  0.3478
  184SLPC   H2Y21050   3.035   5.470   3.652 -0.3725  2.8431  2.3169
  184SLPC   C2321051   2.409   5.626   3.634 -0.2249 -0.5500  1.6248
  184SLPC   H3R21052   2.338   5.576   3.564  0.7294  2.5851 -1.8677
  184SLPC   H3S21053   2.343   5.703   3.679 -2.3128 -0.4118 -1.3239
  184SLPC   C2421054   2.450   5.533   3.749 -0.5651 -0.5118 -0.4522
  184SLPC   H4R21055   2.509   5.605   3.809 -0.4570  0.5903 -1.8147
  184SLPC   H4S21056   2.495   5.433   3.727  1.6305  0.6168 -1.4376
  184SLPC   C2521057   2.322   5.496   3.825  0.2332 -0.1590 -0.7182
  184SLPC   H5R21058   2.238   5.467   3.759  0.8766 -0.1284 -1.5691
  184SLPC   H5S21059   2.290   5.594   3.866 -2.2199 -0.2731 -2.1890
  184SLPC   C2621060   2.342   5.382   3.926 -0.5017 -0.5608 -0.6302
  184SLPC   H6R21061   2.438   5.408   3.977 -1.2859  1.6340 -0.1986
  184SLPC   H6S21062   2.349   5.281   3.880  0.5172 -0.7076 -0.1872
  184SLPC   C2721063   2.237   5.390   4.038 -0.0198  0.2231 -0.2403
  184SLPC   H7R21064   2.134   5.361   4.008 -1.1380  1.0702  2.5011
  184SLPC   H7S21065   2.227   5.498   4.063 -0.3491  0.6740 -2.1449
  184SLPC   C2821066   2.284   5.300   4.155 -0.9017 -0.5008  0.4528
  184SLPC   H8R21067   2.392   5.312   4.178 -0.3535  1.6186 -2.6059
  184SLPC   H8S21068   2.285   5.193   4.122 -0.6012 -0.2248 -0.4815
  184SLPC   C2921069   2.202   5.317   4.283  0.7447  0.4322 -0.2774
  184SLPC   H9R21070   2.173   5.421   4.305  1.2769  0.2778  1.2260
  184SLPC  C21021071   2.158   5.209   4.364  0.1251 -0.7544  0.0671
  184SLPC  H10R21072   2.120   5.227   4.465 -1.2477  1.2338 -0.7303
  184SLPC  C21121073   2.203   5.067   4.324  0.1623  0.4866 -0.4592
  184SLPC  H11R21074   2.311   5.055   4.306  0.9164  0.1759  3.4175
  184SLPC  H11S21075   2.153   5.040   4.228  0.9953  0.4271 -0.8764
  184SLPC  C21221076   2.150   4.974   4.435 -0.9947  0.5618  0.2520
  184SLPC  H12R21077   2.226   4.926   4.499  0.2477  1.9887 -0.1060
  184SLPC  C21321078   2.025   4.929   4.465  0.3210 -0.4311 -0.2719
  184SLPC  H13R21079   2.009   4.847   4.536  0.8684 -1.3520 -1.1994
  184SLPC  C21421080   1.905   4.984   4.393  0.3788  0.5106  0.1113
  184SLPC  H14R21081   1.929   5.072   4.328  0.2053 -0.3834 -1.1993
  184SLPC  H14S21082   1.835   5.023   4.470  2.1406  0.7726  1.6524
  184SLPC  C21521083   1.834   4.869   4.314 -0.3627 -0.5442  0.0165
  184SLPC  H15R21084   1.734   4.902   4.278 -0.1620  1.1041  0.8688
  184SLPC  H15S21085   1.805   4.785   4.380  0.1478 -0.0559  0.8881
  184SLPC  C21621086   1.921   4.826   4.190 -0.0196  0.9155 -0.2111
  184SLPC  H16R21087   2.022   4.787   4.212  0.3006  2.4279  1.2466
  184SLPC  H16S21088   1.926   4.913   4.121 -1.6667  0.7331 -0.6153
  184SLPC  C21721089   1.836   4.722   4.119  0.4433  0.0190 -0.1584
  184SLPC  H17R21090   1.742   4.771   4.086 -0.8749 -0.9439  1.9456
  184SLPC  H17S21091   1.823   4.641   4.194  2.0375 -0.4240 -0.3209
  184SLPC  C21821092   1.898   4.662   3.994 -0.2507 -0.1884  0.1943
  184SLPC  H18R21093   1.842   4.572   3.961  2.5441 -2.3260  0.8249
  184SLPC  H18S21094   2.006   4.638   4.010  0.3090  1.0661 -1.3879
  184SLPC  H18T21095   1.913   4.742   3.918  0.9049 -1.9864 -1.5725
  184SLPC   C3321096   2.853   5.351   3.693 -0.0595  0.2786  0.2621
  184SLPC   H3X21097   2.894   5.254   3.657  0.5592  0.8802 -0.7297
  184SLPC   H3Y21098   2.749   5.371   3.659  0.5466 -0.0284 -1.9825
  184SLPC   C3421099   2.867   5.345   3.848  0.6144  0.1209  0.1444
  184SLPC   H4X21100   2.968   5.381   3.878  0.0411  2.1872 -0.2928
  184SLPC   H4Y21101   2.853   5.239   3.879  0.2745 -0.1250 -0.8120
  184SLPC   C3521102   2.758   5.423   3.914  0.0184 -0.3633 -0.4464
  184SLPC   H5X21103   2.661   5.374   3.889  0.2183 -2.2759  2.1311
  184SLPC   H5Y21104   2.759   5.528   3.877 -0.7102  0.6430  2.1548
  184SLPC   C3621105   2.774   5.419   4.065  0.5411  0.2108  0.0020
  184SLPC   H6X21106   2.883   5.413   4.088  0.2677  0.7625  1.5371
  184SLPC   H6Y21107   2.711   5.339   4.109 -0.1431  2.7545  4.3004
  184SLPC   C3721108   2.728   5.547   4.134  0.1608 -0.4585  0.3911
  184SLPC   H7X21109   2.622   5.569   4.110 -0.0533  2.7557  3.4243
  184SLPC   H7Y21110   2.802   5.626   4.112 -0.1186 -0.3074 -0.0195
  184SLPC   C3821111   2.715   5.535   4.290 -0.5616 -0.4207  0.2517
  184SLPC   H8X21112   2.743   5.633   4.335  2.0277 -1.6725  1.5578
  184SLPC   H8Y21113   2.801   5.474   4.325 -0.2905 -1.3268 -1.8836
  184SLPC   C3921114   2.593   5.474   4.351 -0.7083  0.4119  0.2555
  184SLPC   H9X21115   2.605   5.364   4.342 -0.6075  0.4017  0.5200
  184SLPC   H9Y21116   2.513   5.504   4.279 -0.8769 -1.6342 -0.4872
  184SLPC  C31021117   2.558   5.519   4.490  0.6996 -0.1997  0.3466
  184SLPC  H10X21118   2.571   5.628   4.509  0.4721 -0.3185  1.2317
  184SLPC  H10Y21119   2.633   5.475   4.558 -0.5876 -0.3760  1.7048
  184SLPC  C31121120   2.414   5.480   4.541 -0.1462  0.3492 -1.1087
  184SLPC  H11X21121   2.410   5.373   4.570  1.0466  0.3204 -0.9866
  184SLPC  H11Y21122   2.346   5.502   4.456 -0.0190 -1.7888 -1.8129
  184SLPC  C31221123   2.357   5.559   4.661  0.0811  0.3331  0.5086
  184SLPC  H12X21124   2.324   5.659   4.626  0.7522  0.7125  0.9419
  184SLPC  H12Y21125   2.450   5.572   4.720  1.0019  1.4765 -1.1022
  184SLPC  C31321126   2.238   5.490   4.732  0.2310  0.7063 -0.8520
  184SLPC  H13X21127   2.171   5.468   4.646  2.5915  1.2420 -2.9655
  184SLPC  H13Y21128   2.190   5.567   4.795 -2.0324 -1.0226 -0.3348
  184SLPC  C31421129   2.274   5.368   4.812 -0.4492  0.0568 -0.1122
  184SLPC  H14X21130   2.354   5.408   4.879 -0.6580 -0.8675  0.7033
  184SLPC  H14Y21131   2.310   5.288   4.745  0.9003 -0.0229  0.6722
  184SLPC  C31521132   2.148   5.321   4.889  0.0994 -0.1886  0.0170
  184SLPC  H15X21133   2.087   5.409   4.919  0.0836  0.2820 -1.3603
  184SLPC  H15Y21134   2.179   5.271   4.984 -1.8571 -2.3255 -0.3714
  184SLPC  C31621135   2.069   5.223   4.811  0.7719  0.6745  0.3059
  184SLPC  H16X21136   2.131   5.156   4.748  1.8304  1.5791  0.3560
  184SLPC  H16Y21137   1.991   5.275   4.751 -0.2144  0.1709  1.1166
  184SLPC  C31721138   1.998   5.111   4.902 -0.1611 -0.0031  0.3500
  184SLPC  H17X21139   1.966   5.158   4.998 -0.6314  1.9950 -0.7130
  184SLPC  H17Y21140   2.078   5.035   4.912  1.1713  1.0690 -1.4996
  184SLPC  C31821141   1.871   5.056   4.837 -0.3063 -0.0866 -1.3728
  184SLPC  H18X21142   1.894   4.991   4.750  1.6134 -1.3627  0.0214
  184SLPC  H18Y21143   1.815   5.142   4.793  1.1133  0.3630 -2.3609
  184SLPC  H18Z21144   1.807   5.000   4.909 -0.0352  2.9152  1.4378
  185POPC     N21145   1.311   5.573   7.919  0.4385  0.5248  0.1347
  185POPC   C1221146   1.345   5.554   7.768 -0.5849 -0.3248  0.2923
  185POPC  H12A21147   1.317   5.456   7.734 -0.3572 -0.1945 -0.2725
  185POPC  H12B21148   1.452   5.559   7.760 -0.7552  1.0933 -2.2472
  185POPC   C1321149   1.161   5.564   7.942 -0.1077 -0.8630 -1.2994
  185POPC  H13A21150   1.128   5.462   7.950 -2.4936 -0.2292 -2.1900
  185POPC  H13B21151   1.146   5.623   8.031  1.3128  0.5734 -1.9711
  185POPC  H13C21152   1.114   5.608   7.855  1.5334  1.1179 -1.2651
  185POPC   C1421153   1.381   5.474   8.003  0.3947  0.0830 -0.7476
  185POPC  H14A21154   1.485   5.459   7.977  1.2299  2.0517  1.0885
  185POPC  H14B21155   1.360   5.490   8.108 -2.1198 -1.4147 -0.9471
  185POPC  H14C21156   1.337   5.378   7.984 -0.8093  0.6140 -0.7312
  185POPC   C1521157   1.355   5.707   7.957  0.4289  0.6513 -0.2609
  185POPC  H15A21158   1.346   5.711   8.065 -1.9914 -0.5506 -0.3417
  185POPC  H15B21159   1.288   5.780   7.915 -0.2521  0.4850  0.4975
  185POPC  H15C21160   1.458   5.732   7.937  0.6819 -0.0950  0.0696
  185POPC   C1121161   1.280   5.658   7.673 -1.6591  0.6217  0.5913
  185POPC  H11A21162   1.334   5.665   7.575  0.4333  4.4545  1.8173
  185POPC  H11B21163   1.297   5.759   7.714 -1.1833  0.2725  1.2754
  185POPC     P21164   1.087   5.514   7.590 -0.2233  0.3080  0.3393
  185POPC   O1321165   1.004   5.433   7.680 -1.0178 -0.0679 -0.6518
  185POPC   O1421166   1.189   5.433   7.527 -0.5333  0.3871 -0.9653
  185POPC   O1221167   1.142   5.636   7.663 -0.4731 -0.1463  0.1551
  185POPC   O1121168   1.004   5.564   7.473  0.5631  0.0423  0.0723
  185POPC    C121169   0.977   5.702   7.435  1.0916 -0.1393 -0.1109
  185POPC    HA21170   1.061   5.772   7.454  0.1446  0.7700  0.8868
  185POPC    HB21171   0.896   5.743   7.500  0.5493  2.2952 -2.1840
  185POPC    C221172   0.927   5.728   7.291  0.2649 -0.0678  0.0681
  185POPC    HS21173   0.907   5.836   7.274  2.4896  0.4245  0.2653
  185POPC   O2121174   0.801   5.647   7.281  0.0707 -0.0495  0.0241
  185POPC   C2121175   0.687   5.710   7.265 -0.4863 -0.5031 -0.4379
  185POPC   O2221176   0.672   5.833   7.255 -0.3051 -0.0290 -0.0673
  185POPC   C2221177   0.574   5.612   7.275 -0.0748 -0.9817 -0.2114
  185POPC   H2R21178   0.526   5.635   7.373  1.5477  4.3763 -0.3416
  185POPC   H2S21179   0.598   5.503   7.270 -1.2949 -1.1969 -2.9144
  185POPC    C321180   1.035   5.676   7.190  0.0553  0.5254  0.3500
  185POPC    HX21181   1.070   5.574   7.218  2.0262  1.0842  0.0356
  185POPC    HY21182   1.124   5.742   7.188  0.7982 -0.4716 -0.9860
  185POPC   O3121183   0.990   5.663   7.052  0.7536  0.0055  0.1142
  185POPC   C3121184   1.082   5.626   6.965 -0.0716  0.2242 -0.0372
  185POPC   O3221185   1.196   5.598   7.000  0.4264 -0.0649  0.2418
  185POPC   C3221186   1.026   5.613   6.820 -0.0219  0.4495 -0.3003
  185POPC   H2X21187   1.003   5.718   6.793  1.4197  1.4983  2.1776
  185POPC   H2Y21188   0.944   5.538   6.819 -0.0487  0.4581  0.4861
  185POPC   C2321189   0.467   5.633   7.163 -0.0278  0.2193  0.3574
  185POPC   H3R21190   0.432   5.739   7.167  3.1994  1.3830  0.4416
  185POPC   H3S21191   0.381   5.573   7.201 -1.8136  1.2189 -1.8186
  185POPC   C2421192   0.527   5.603   7.026  0.1876 -0.1655  0.0016
  185POPC   H4R21193   0.586   5.510   7.039  0.5030  0.1327  0.7124
  185POPC   H4S21194   0.597   5.684   6.996 -1.5295  0.9037 -1.3617
  185POPC   C2521195   0.428   5.590   6.908 -0.8641 -0.1447  0.0065
  185POPC   H5R21196   0.399   5.694   6.880  1.0734  1.2470  2.6600
  185POPC   H5S21197   0.334   5.535   6.928 -1.0916  0.2185 -0.0505
  185POPC   C2621198   0.495   5.507   6.799 -0.1283 -0.1854 -0.4656
  185POPC   H6R21199   0.513   5.405   6.841 -0.0146 -0.6006 -1.4848
  185POPC   H6S21200   0.592   5.546   6.760 -1.1106  1.0704 -1.7679
  185POPC   C2721201   0.409   5.487   6.675  1.1880 -0.0711  0.1742
  185POPC   H7R21202   0.479   5.507   6.591  1.0397  1.0058  0.2880
  185POPC   H7S21203   0.331   5.566   6.676 -0.2091 -1.3822 -0.6950
  185POPC   C2821204   0.348   5.350   6.666  1.0394 -0.5142  0.6180
  185POPC   H8R21205   0.313   5.314   6.765 -1.1605 -1.2542 -0.3804
  185POPC   H8S21206   0.424   5.280   6.626  0.3864 -2.1957  2.1866
  185POPC   C2921207   0.226   5.327   6.573 -0.3179 -0.6045  0.3581
  185POPC   H9121208   0.126   5.335   6.619 -1.0177 -0.2808 -1.1589
  185POPC  C21021209   0.237   5.324   6.431 -0.1703  0.1252  0.1182
  185POPC  H10121210   0.147   5.310   6.369  1.7059  0.9527 -2.9847
  185POPC  C21121211   0.364   5.346   6.359 -0.2673 -0.0458  0.5354
  185POPC  H11R21212   0.369   5.272   6.276  0.3182  0.9685 -0.3647
  185POPC  H11S21213   0.448   5.326   6.429 -1.1304  2.0471  2.2708
  185POPC  C21221214   0.403   5.485   6.297  0.5536 -0.2444 -0.7392
  185POPC  H12R21215   0.505   5.485   6.253  1.6181  0.6504  1.5441
  185POPC  H12S21216   0.409   5.563   6.375 -1.5427  0.2943 -1.0591
  185POPC  C21321217   0.299   5.531   6.190 -0.1953  0.0146 -0.4103
  185POPC  H13R21218   0.198   5.536   6.236 -0.7734  0.2201 -1.6513
  185POPC  H13S21219   0.279   5.456   6.111 -2.6883 -0.2543  0.4053
  185POPC  C21421220   0.322   5.669   6.129  0.4958 -0.6042  0.5120
  185POPC  H14R21221   0.237   5.707   6.069  0.0178 -1.4831  0.6297
  185POPC  H14S21222   0.409   5.656   6.061 -0.1840  1.9217 -0.9847
  185POPC  C21521223   0.373   5.774   6.230  0.1758 -0.0244  0.5839
  185POPC  H15R21224   0.470   5.741   6.273  1.5670 -0.7085 -2.7729
  185POPC  H15S21225   0.288   5.771   6.302 -1.5479 -1.6974 -1.4053
  185POPC  C21621226   0.383   5.911   6.160  1.0207 -0.0349 -0.8437
  185POPC  H16R21227   0.279   5.936   6.132  0.1210 -0.9627  1.4099
  185POPC  H16S21228   0.454   5.900   6.075  0.6302  1.4877 -1.3882
  185POPC  C21721229   0.420   6.029   6.264  0.4211 -0.1028  0.2703
  185POPC  H17R21230   0.503   6.001   6.333  0.7077  0.3517  0.1180
  185POPC  H17S21231   0.328   6.042   6.325  0.5435 -0.5799  0.5616
  185POPC  C21821232   0.461   6.157   6.198 -0.0241 -0.0180 -0.2013
  185POPC  H18R21233   0.566   6.147   6.163  0.5395  1.0455  1.0838
  185POPC  H18S21234   0.459   6.238   6.275  0.6188  0.7672 -0.9840
  185POPC  H18T21235   0.391   6.179   6.115 -0.5939 -0.8747  0.0394
  185POPC   C3321236   1.139   5.560   6.731  0.6163 -0.0266  0.3437
  185POPC   H3X21237   1.168   5.463   6.778  1.9230 -0.5290 -1.3991
  185POPC   H3Y21238   1.226   5.629   6.745  0.2228  0.3883  0.7936
  185POPC   C3421239   1.110   5.538   6.583  0.0075 -0.2372 -0.4277
  185POPC   H4X21240   1.087   5.638   6.538 -2.9579 -0.2770  0.7522
  185POPC   H4Y21241   1.018   5.482   6.558 -0.1794 -0.1912  0.1399
  185POPC   C3521242   1.234   5.482   6.515 -0.1293  0.1950  0.1184
  185POPC   H5X21243   1.268   5.385   6.558 -0.5834  0.6954  1.7085
  185POPC   H5Y21244   1.323   5.546   6.535 -0.8988  1.1540  0.5684
  185POPC   C3621245   1.232   5.477   6.367  0.2990 -0.3376 -0.8187
  185POPC   H6X21246   1.205   5.574   6.319  0.7918  0.1651 -0.0939
  185POPC   H6Y21247   1.159   5.396   6.343 -0.5922  0.3100 -0.3390
  185POPC   C3721248   1.363   5.419   6.310 -0.9123  0.2158 -0.6423
  185POPC   H7X21249   1.377   5.317   6.350  0.5076  0.2956 -0.9023
  185POPC   H7Y21250   1.448   5.484   6.339  0.7034 -2.0782  0.0282
  185POPC   C3821251   1.351   5.402   6.157 -0.0990 -0.0622  0.2618
  185POPC   H8X21252   1.270   5.329   6.140 -0.6971  0.0430  2.3499
  185POPC   H8Y21253   1.445   5.357   6.118  0.8691  1.3865  0.8269
  185POPC   C3921254   1.350   5.537   6.075 -0.5927  0.2126  0.3032
  185POPC   H9X21255   1.435   5.603   6.103 -0.2242 -0.8707  1.8745
  185POPC   H9Y21256   1.252   5.584   6.100 -1.9100 -1.3643 -1.6155
  185POPC  C31021257   1.359   5.509   5.927  0.1789  0.0864  0.1960
  185POPC  H10X21258   1.284   5.428   5.911 -0.0583  0.1522  0.9445
  185POPC  H10Y21259   1.462   5.471   5.908  0.0885  0.2004 -0.5422
  185POPC  C31121260   1.325   5.639   5.853  0.3126  0.4189 -0.4985
  185POPC  H11X21261   1.405   5.712   5.875  0.9552 -0.5374  0.4461
  185POPC  H11Y21262   1.235   5.686   5.898  1.4075  0.6128  1.6180
  185POPC  C31221263   1.299   5.611   5.698 -0.2338 -0.1336 -0.0915
  185POPC  H12X21264   1.257   5.704   5.653  2.6622  1.3875  0.1011
  185POPC  H12Y21265   1.222   5.531   5.693  0.7244 -0.9913 -3.4738
  185POPC  C31321266   1.429   5.596   5.620  0.2423 -0.3452  0.4053
  185POPC  H13X21267   1.477   5.501   5.652 -0.3445 -0.3750  1.2299
  185POPC  H13Y21268   1.489   5.679   5.663 -0.2446  0.0590  0.3172
  185POPC  C31421269   1.426   5.615   5.469 -0.0036 -0.5089 -0.2414
  185POPC  H14X21270   1.381   5.525   5.421 -0.8177  0.3594 -1.1464
  185POPC  H14Y21271   1.532   5.619   5.437 -0.1425 -2.0590 -0.9926
  185POPC  C31521272   1.357   5.735   5.401  0.8140  0.3357  0.2188
  185POPC  H15X21273   1.246   5.734   5.415  0.6577 -3.0646 -0.5602
  185POPC  H15Y21274   1.376   5.733   5.292  1.2637 -2.3640  0.2859
  185POPC  C31621275   1.403   5.874   5.460  0.3701  0.1606 -0.1948
  185POPC  H16X21276   1.340   5.962   5.433 -1.1786 -0.9502 -0.3461
  185POPC  H16Y21277   1.504   5.889   5.416  0.1399 -0.9604 -1.1577
  185POPC  H16Z21278   1.407   5.872   5.571  0.6138 -0.9245 -0.2207
  186POPC     N21279   4.792   6.377   7.714  0.5114 -0.0515  0.2966
  186POPC   C1221280   4.656   6.338   7.673 -0.6418  0.4852 -0.1310
  186POPC  H12A21281   4.627   6.243   7.716 -0.1423 -0.4508 -1.7537
  186POPC  H12B21282   4.659   6.321   7.566  2.8407 -0.0754 -0.0573
  186POPC   C1321283   4.798   6.380   7.868  0.1317  0.6995  0.2268
  186POPC  H13A21284   4.794   6.283   7.917  3.8989  0.8236  1.0909
  186POPC  H13B21285   4.880   6.428   7.919 -0.0147 -0.1740  1.3361
  186POPC  H13C21286   4.717   6.440   7.907  0.0568 -0.0825  1.3502
  186POPC   C1421287   4.893   6.290   7.657  0.1976 -0.4112  0.2824
  186POPC  H14A21288   4.993   6.307   7.694  0.5820 -2.0140  0.0729
  186POPC  H14B21289   4.873   6.189   7.690  0.0419 -0.7886 -0.9315
  186POPC  H14C21290   4.895   6.299   7.550  1.2572  1.2799  0.4078
  186POPC   C1521291   4.826   6.514   7.654 -0.1533  0.0084  0.2992
  186POPC  H15A21292   4.807   6.514   7.547 -1.0698  2.2098  0.4071
  186POPC  H15B21293   4.933   6.529   7.656 -0.1867  0.1550  1.1350
  186POPC  H15C21294   4.759   6.591   7.688 -0.3627 -0.4429  0.9176
  186POPC   C1121295   4.545   6.438   7.708 -0.7736  0.2649  0.2288
  186POPC  H11A21296   4.556   6.528   7.643  1.4112 -0.2916 -0.2560
  186POPC  H11B21297   4.550   6.475   7.812  1.8116 -0.5433  0.4569
  186POPC     P21298   4.357   6.354   7.549 -0.2255 -0.1025  0.5955
  186POPC   O1321299   4.214   6.312   7.558 -0.1996 -0.0626 -0.5115
  186POPC   O1421300   4.451   6.260   7.478 -0.1842 -0.1541 -0.1587
  186POPC   O1221301   4.414   6.380   7.694 -0.4769 -0.3635 -0.2310
  186POPC   O1121302   4.375   6.496   7.488  0.2147 -0.6340  0.2206
  186POPC    C121303   4.273   6.593   7.459 -0.2051  0.1415 -0.1927
  186POPC    HA21304   4.314   6.696   7.457  0.8744 -0.2514  0.6966
  186POPC    HB21305   4.199   6.599   7.542 -1.4364 -0.7772 -1.1796
  186POPC    C221306   4.198   6.556   7.335  0.6613  0.3908 -0.3802
  186POPC    HS21307   4.173   6.448   7.340 -0.8442  0.6751 -1.2888
  186POPC   O2121308   4.270   6.606   7.225 -0.1383 -1.2347  0.0737
  186POPC   C2121309   4.319   6.516   7.134 -0.6852 -0.3946 -0.1999
  186POPC   O2221310   4.302   6.395   7.135 -0.1078 -0.2880  0.7517
  186POPC   C2221311   4.410   6.598   7.042  0.7279  1.3041  0.5792
  186POPC   H2R21312   4.474   6.668   7.101  0.0666  0.5465  2.2695
  186POPC   H2S21313   4.343   6.647   6.969 -1.2885 -1.9835  0.0335
  186POPC    C321314   4.057   6.619   7.333  0.3600 -0.4941 -0.3706
  186POPC    HX21315   4.055   6.728   7.316  1.4702 -0.6238 -1.4664
  186POPC    HY21316   4.018   6.602   7.436  1.5662  0.2489  0.2273
  186POPC   O3121317   3.970   6.547   7.241  0.0422  0.7298  0.0960
  186POPC   C3121318   3.840   6.559   7.251 -0.5374 -0.3685 -0.7986
  186POPC   O3221319   3.783   6.619   7.345 -0.2709 -0.1899 -0.2567
  186POPC   C3221320   3.775   6.505   7.125  0.5750  0.1170  0.0526
  186POPC   H2X21321   3.838   6.429   7.072  0.0957 -0.5688  0.4503
  186POPC   H2Y21322   3.772   6.598   7.064  3.5504  1.1169  1.2659
  186POPC   C2321323   4.497   6.508   6.953  0.5396 -0.3777  0.1404
  186POPC   H3R21324   4.448   6.410   6.934  4.1711 -2.3404 -0.0030
  186POPC   H3S21325   4.595   6.488   7.001  0.5637 -1.1504 -0.2046
  186POPC   C2421326   4.541   6.574   6.820 -0.0537 -0.2802  0.1077
  186POPC   H4R21327   4.607   6.505   6.763 -1.2495 -1.3074 -0.0594
  186POPC   H4S21328   4.605   6.662   6.845 -2.3913  0.9357  2.1876
  186POPC   C2521329   4.426   6.628   6.731  0.1022  0.0179 -0.2155
  186POPC   H5R21330   4.395   6.727   6.771  0.4709 -0.5597  1.6041
  186POPC   H5S21331   4.343   6.556   6.748  1.5475 -1.3461  1.3995
  186POPC   C2621332   4.474   6.627   6.584 -0.1590 -0.5262  0.5909
  186POPC   H6R21333   4.521   6.527   6.569  0.2315 -0.1285 -0.9795
  186POPC   H6S21334   4.555   6.702   6.571 -2.2067  1.5324 -1.0290
  186POPC   C2721335   4.361   6.653   6.481  0.1647  1.0450  0.0163
  186POPC   H7R21336   4.312   6.731   6.543 -0.5874  0.2839  0.4035
  186POPC   H7S21337   4.299   6.561   6.467 -0.6369  1.4979  0.5340
  186POPC   C2821338   4.431   6.686   6.343  0.2273  0.0438  0.6576
  186POPC   H8R21339   4.501   6.600   6.337 -3.0896 -2.8570 -0.1982
  186POPC   H8S21340   4.481   6.784   6.354  1.0482 -0.2144 -0.4673
  186POPC   C2921341   4.330   6.695   6.225 -0.1314 -0.4919 -0.1529
  186POPC   H9121342   4.244   6.763   6.229  1.2670  1.6217 -2.7508
  186POPC  C21021343   4.337   6.616   6.116  0.5687  0.0455 -0.1108
  186POPC  H10121344   4.272   6.636   6.030  0.0314  0.4207  0.3748
  186POPC  C21121345   4.435   6.501   6.087 -0.0946 -0.4452  0.1028
  186POPC  H11R21346   4.393   6.401   6.110  0.3190 -0.0344  3.0398
  186POPC  H11S21347   4.520   6.508   6.158 -1.0737 -0.0881  1.2777
  186POPC  C21221348   4.485   6.501   5.941 -0.2144  0.3721 -0.2419
  186POPC  H12R21349   4.409   6.521   5.863 -0.1280  1.5715 -0.0442
  186POPC  H12S21350   4.532   6.402   5.921 -1.7282 -0.3557 -0.2909
  186POPC  C21321351   4.596   6.603   5.930  0.0055  0.0033  0.1188
  186POPC  H13R21352   4.685   6.576   5.990  0.8191  2.3967  0.0953
  186POPC  H13S21353   4.563   6.694   5.984 -0.5813 -0.3511  0.3698
  186POPC  C21421354   4.651   6.620   5.789 -0.0657 -1.2232 -0.1250
  186POPC  H14R21355   4.691   6.521   5.760  0.1570 -2.1430  2.9790
  186POPC  H14S21356   4.750   6.670   5.797 -0.8539  0.1927  1.3999
  186POPC  C21521357   4.556   6.686   5.685 -0.9885 -0.0347  0.3162
  186POPC  H15R21358   4.626   6.751   5.628  0.0456 -0.2509  1.2972
  186POPC  H15S21359   4.484   6.755   5.733 -1.6269 -1.6290  1.7473
  186POPC  C21621360   4.489   6.596   5.583  0.0483 -0.0346 -0.0441
  186POPC  H16R21361   4.393   6.565   5.631  0.9864  0.0092  1.9564
  186POPC  H16S21362   4.546   6.501   5.579  1.1038  0.6296 -1.7915
  186POPC  C21721363   4.471   6.653   5.448  0.0809 -0.3210  0.1527
  186POPC  H17R21364   4.571   6.637   5.404 -0.1560 -3.6337  0.5873
  186POPC  H17S21365   4.441   6.760   5.446  3.3560  0.7086 -1.6274
  186POPC  C21821366   4.368   6.562   5.381  0.3131 -0.2399 -0.1712
  186POPC  H18R21367   4.413   6.462   5.400  1.6926  0.1297 -1.3540
  186POPC  H18S21368   4.373   6.580   5.271  3.0522 -0.9731 -0.2411
  186POPC  H18T21369   4.267   6.568   5.427  0.2182  0.2060 -0.4317
  186POPC   C3321370   3.631   6.459   7.147  0.1502  0.2920  0.6610
  186POPC   H3X21371   3.587   6.518   7.231 -3.0582 -0.2983 -0.4633
  186POPC   H3Y21372   3.633   6.351   7.173  0.0698  0.3899  1.0826
  186POPC   C3421373   3.553   6.484   7.018  0.0446  0.8274 -0.0147
  186POPC   H4X21374   3.537   6.593   7.006 -0.5366  0.8042  0.5268
  186POPC   H4Y21375   3.449   6.447   7.026 -0.0627  0.5331 -2.1449
  186POPC   C3521376   3.621   6.427   6.891  0.3383  0.0600  0.1205
  186POPC   H5X21377   3.610   6.317   6.884 -0.8555  0.2384 -1.5021
  186POPC   H5Y21378   3.730   6.447   6.883  0.6842 -1.2431  1.2943
  186POPC   C3621379   3.557   6.492   6.768 -0.3671  0.0685  0.1763
  186POPC   H6X21380   3.573   6.601   6.779 -0.1233  0.0499  0.0275
  186POPC   H6Y21381   3.448   6.475   6.781 -0.1846 -0.6573  0.8207
  186POPC   C3721382   3.614   6.447   6.631 -0.1315 -0.1919 -0.6237
  186POPC   H7X21383   3.620   6.336   6.638  2.3732 -0.0833  0.1165
  186POPC   H7Y21384   3.718   6.486   6.620 -0.1416 -0.2908 -1.1068
  186POPC   C3821385   3.529   6.487   6.516 -0.2297 -0.4923  0.3817
  186POPC   H8X21386   3.529   6.598   6.516 -2.4419 -0.4475  1.8842
  186POPC   H8Y21387   3.424   6.457   6.534 -0.1904 -0.3228  0.9062
  186POPC   C3921388   3.590   6.410   6.388  0.1890  0.1151 -0.2353
  186POPC   H9X21389   3.589   6.302   6.415 -0.7968  0.3608  0.8187
  186POPC   H9Y21390   3.696   6.441   6.383  0.3710 -0.3249  0.7404
  186POPC  C31021391   3.511   6.436   6.261  0.2298  0.6994 -0.0948
  186POPC  H10X21392   3.470   6.539   6.271 -0.7946  0.1046  2.9959
  186POPC  H10Y21393   3.416   6.380   6.270  1.7420 -1.9315  0.5161
  186POPC  C31121394   3.586   6.395   6.135  0.1167 -1.5288 -0.4617
  186POPC  H11X21395   3.599   6.284   6.138  0.9248 -1.4401 -0.4898
  186POPC  H11Y21396   3.677   6.458   6.143 -0.0819 -1.3968  1.0580
  186POPC  C31221397   3.510   6.434   6.011 -0.0565 -0.5658  0.4279
  186POPC  H12X21398   3.465   6.535   6.025  0.5211  0.0233 -1.6169
  186POPC  H12Y21399   3.424   6.367   5.992  0.6667 -0.5151 -4.5171
  186POPC  C31321400   3.587   6.444   5.873  0.0741  0.4102 -0.4291
  186POPC  H13X21401   3.678   6.507   5.885  1.1095 -1.3399  1.6395
  186POPC  H13Y21402   3.511   6.484   5.802  0.7647  1.9033 -0.3504
  186POPC  C31421403   3.631   6.308   5.813  0.4350  0.5174 -0.8141
  186POPC  H14X21404   3.686   6.248   5.889  0.6405  2.2246  0.4417
  186POPC  H14Y21405   3.698   6.333   5.729  0.0988  0.4085 -1.1198
  186POPC  C31521406   3.520   6.206   5.765 -0.8773  0.0782  0.1317
  186POPC  H15X21407   3.463   6.176   5.856 -0.8948  0.6337  0.3106
  186POPC  H15Y21408   3.569   6.114   5.728 -0.5821  0.6436 -0.9276
  186POPC  C31621409   3.418   6.262   5.668 -0.1774  0.3283  0.3050
  186POPC  H16X21410   3.468   6.304   5.579 -0.8556 -2.4819 -1.5194
  186POPC  H16Y21411   3.343   6.334   5.708 -1.6810 -1.3553  0.6895
  186POPC  H16Z21412   3.362   6.175   5.626 -0.7792  0.7815  0.1561
  187POPC     N21413   1.097   0.698   2.757 -0.3106 -0.2009  0.7072
  187POPC   C1221414   1.081   0.824   2.828 -0.2297 -0.5242 -0.9361
  187POPC  H12A21415   0.995   0.834   2.892  0.8308 -2.1300  0.8552
  187POPC  H12B21416   1.069   0.899   2.751  0.3101  0.7770  0.2200
  187POPC   C1321417   0.967   0.653   2.699  0.3886 -0.1944 -0.3399
  187POPC  H13A21418   0.963   0.555   2.654  1.4900 -0.1767 -0.5232
  187POPC  H13B21419   0.894   0.649   2.777  0.0505 -0.2673 -0.6583
  187POPC  H13C21420   0.935   0.721   2.622 -1.3167  1.4414  1.7146
  187POPC   C1421421   1.201   0.702   2.652 -0.2062 -0.1258  0.2628
  187POPC  H14A21422   1.189   0.784   2.583  0.3302  0.1236  0.4635
  187POPC  H14B21423   1.302   0.708   2.690 -0.3246  1.4905  0.4087
  187POPC  H14C21424   1.198   0.609   2.597  1.2008 -1.0472  1.6728
  187POPC   C1521425   1.143   0.593   2.858  0.1590  0.0312  0.0321
  187POPC  H15A21426   1.236   0.611   2.909 -1.5946  0.6692  3.2431
  187POPC  H15B21427   1.143   0.496   2.812 -0.0496 -0.9012  1.9233
  187POPC  H15C21428   1.067   0.594   2.934  0.3913  0.4775  0.2599
  187POPC   C1121429   1.200   0.875   2.918  1.0175 -0.4702  0.3656
  187POPC  H11A21430   1.210   0.805   3.003 -1.9254  1.1871  2.2178
  187POPC  H11B21431   1.174   0.976   2.955 -0.4393 -0.6690 -0.0547
  187POPC     P21432   1.451   0.834   2.893 -0.0699  0.0404  0.1424
  187POPC   O1321433   1.573   0.898   2.831 -0.0121 -0.2552 -0.4202
  187POPC   O1421434   1.458   0.685   2.900  0.4221 -0.0626  0.1731
  187POPC   O1221435   1.311   0.886   2.832  0.0261 -0.4194  0.3155
  187POPC   O1121436   1.438   0.877   3.046  0.1633 -0.8118  0.0433
  187POPC    C121437   1.442   1.020   3.064 -0.3335  0.1074  0.2480
  187POPC    HA21438   1.362   1.061   2.998  2.0623 -1.3484 -3.9738
  187POPC    HB21439   1.535   1.071   3.030 -2.0443  3.4896  0.2274
  187POPC    C221440   1.419   1.054   3.210 -0.2591 -0.2371  1.0152
  187POPC    HS21441   1.490   0.982   3.255  1.4491  0.8588  0.1534
  187POPC   O2121442   1.286   1.028   3.240 -0.0750 -0.9439  0.1827
  187POPC   C2121443   1.274   0.995   3.367  0.2365  0.7802 -0.0216
  187POPC   O2221444   1.363   0.980   3.449  0.3547 -0.2046  0.5499
  187POPC   C2221445   1.129   0.980   3.395 -0.6211  0.9522 -0.2411
  187POPC   H2R21446   1.104   0.897   3.325  0.7106 -0.1998  0.5852
  187POPC   H2S21447   1.077   1.070   3.356 -2.5650 -0.2217 -0.4527
  187POPC    C321448   1.476   1.198   3.241 -0.4296  0.2839 -0.8415
  187POPC    HX21449   1.412   1.271   3.187  1.4194  1.1189 -2.0292
  187POPC    HY21450   1.579   1.197   3.199  0.4819 -1.5604  1.2457
  187POPC   O3121451   1.473   1.224   3.384 -0.1715  0.2061 -0.4424
  187POPC   C3121452   1.577   1.183   3.457 -1.0306  0.0795 -0.4675
  187POPC   O3221453   1.682   1.131   3.411 -0.2686 -0.8276 -0.0681
  187POPC   C3221454   1.553   1.214   3.604  0.9308  0.3837  0.1889
  187POPC   H2X21455   1.466   1.156   3.643  0.1498  1.1795 -0.3181
  187POPC   H2Y21456   1.527   1.322   3.613 -0.8855  0.1825 -1.8178
  187POPC   C2321457   1.099   0.948   3.537  0.9066  0.3732 -1.0652
  187POPC   H3R21458   1.139   1.017   3.614 -0.8542  0.5402 -0.2628
  187POPC   H3S21459   1.148   0.855   3.573 -1.0953  0.3366  1.9344
  187POPC   C2421460   0.953   0.916   3.571 -0.1749 -0.7612  0.6550
  187POPC   H4R21461   0.913   0.841   3.500  1.3122 -1.0748  0.1170
  187POPC   H4S21462   0.909   1.015   3.547  2.1185 -0.2041 -1.6385
  187POPC   C2521463   0.913   0.877   3.711 -0.0898 -0.4393 -0.6673
  187POPC   H5R21464   0.977   0.791   3.740 -0.8473 -1.7017 -2.5292
  187POPC   H5S21465   0.808   0.842   3.708 -0.0823 -0.7243  1.4393
  187POPC   C2621466   0.941   0.988   3.815  0.2663 -0.6357  0.0012
  187POPC   H6R21467   0.897   1.087   3.790 -0.4011 -0.7122  0.7823
  187POPC   H6S21468   1.048   1.013   3.828 -0.1985  1.3586  0.3213
  187POPC   C2721469   0.882   0.951   3.956 -0.3243 -0.4452  0.0149
  187POPC   H7R21470   0.919   0.850   3.983  0.5046 -1.1403 -3.3574
  187POPC   H7S21471   0.771   0.939   3.962 -0.4781  1.2605  1.9972
  187POPC   C2821472   0.926   1.043   4.071 -0.5826  0.1755 -0.0822
  187POPC   H8R21473   0.997   1.107   4.015  0.7087 -0.4861  0.7562
  187POPC   H8S21474   0.970   0.979   4.150  0.2227  1.2904  0.4011
  187POPC   C2921475   0.822   1.140   4.125 -0.5900  0.5853 -0.0952
  187POPC   H9121476   0.781   1.211   4.051 -0.2151  1.4704  0.5219
  187POPC  C21021477   0.797   1.161   4.255  0.3727 -0.1043 -0.4684
  187POPC  H10121478   0.715   1.230   4.279 -1.1086 -1.9241 -0.1706
  187POPC  C21121479   0.861   1.084   4.369  0.2121  0.4490 -0.7793
  187POPC  H11R21480   0.896   0.982   4.340 -2.3808 -1.1624  1.2415
  187POPC  H11S21481   0.791   1.063   4.453  1.7772  1.3100  0.8066
  187POPC  C21221482   0.976   1.171   4.436  0.1022 -0.1300 -0.2636
  187POPC  H12R21483   1.032   1.216   4.351 -0.2298  1.4026  0.3040
  187POPC  H12S21484   1.033   1.103   4.503 -1.2457 -2.4805 -1.3586
  187POPC  C21321485   0.918   1.293   4.509  0.2307 -0.2395 -0.0581
  187POPC  H13R21486   0.873   1.258   4.604  0.8495  0.7802  0.6266
  187POPC  H13S21487   0.842   1.339   4.441  1.4487 -1.8115 -2.6261
  187POPC  C21421488   1.039   1.385   4.539  0.3516 -0.3073  0.1926
  187POPC  H14R21489   1.071   1.446   4.452 -1.5185  0.1043 -0.2413
  187POPC  H14S21490   1.128   1.323   4.563  0.0110 -0.0846  2.2070
  187POPC  C21521491   0.998   1.473   4.664  0.0829 -0.0906 -0.5141
  187POPC  H15R21492   1.086   1.539   4.678 -0.6803  0.7395  0.5059
  187POPC  H15S21493   0.992   1.403   4.750 -1.4148 -0.9016 -1.2269
  187POPC  C21621494   0.870   1.559   4.643 -0.4364  0.1544  0.4817
  187POPC  H16R21495   0.789   1.510   4.585  2.7971 -3.7445 -1.2495
  187POPC  H16S21496   0.902   1.643   4.578 -0.4934 -1.1240 -1.2639
  187POPC  C21721497   0.826   1.638   4.766 -0.0255  0.0250 -0.8565
  187POPC  H17R21498   0.898   1.711   4.810 -3.2861  2.2946  1.0765
  187POPC  H17S21499   0.815   1.562   4.846 -2.1302 -0.9269 -1.9890
  187POPC  C21821500   0.694   1.725   4.750 -0.0193  0.0245  0.6389
  187POPC  H18R21501   0.599   1.669   4.762  0.5158 -1.0321  0.1355
  187POPC  H18S21502   0.687   1.780   4.654  0.3377 -1.5517 -0.3429
  187POPC  H18T21503   0.710   1.808   4.821  1.6678 -0.7514  1.2137
  187POPC   C3321504   1.672   1.178   3.697 -0.1662 -0.1746  0.5654
  187POPC   H3X21505   1.773   1.196   3.656 -0.4055 -1.1050 -0.4899
  187POPC   H3Y21506   1.662   1.067   3.702 -0.2353 -0.2746 -1.2514
  187POPC   C3421507   1.643   1.226   3.841  0.2594  0.2896  0.7159
  187POPC   H4X21508   1.558   1.165   3.877  0.6168 -0.3308  0.5302
  187POPC   H4Y21509   1.614   1.332   3.829  0.5586  0.5198  1.8516
  187POPC   C3521510   1.768   1.226   3.930 -0.6978 -0.8084 -0.3616
  187POPC   H5X21511   1.837   1.282   3.863 -0.8785 -2.0434 -1.6405
  187POPC   H5Y21512   1.812   1.124   3.928 -0.8438 -0.8667 -0.8206
  187POPC   C3621513   1.744   1.268   4.078  0.5462  0.6505 -0.3052
  187POPC   H6X21514   1.646   1.234   4.116  0.8598  0.7545  0.6123
  187POPC   H6Y21515   1.738   1.379   4.082 -0.5234  0.6166 -0.6517
  187POPC   C3721516   1.850   1.215   4.174 -0.0101 -0.7049  0.3254
  187POPC   H7X21517   1.949   1.256   4.144 -0.6793  2.7582  2.2900
  187POPC   H7Y21518   1.855   1.104   4.170 -1.2729 -0.8300  1.3612
  187POPC   C3821519   1.818   1.251   4.323  0.9330  0.1127 -0.0493
  187POPC   H8X21520   1.720   1.203   4.347  1.8147 -0.9035  1.6912
  187POPC   H8Y21521   1.803   1.360   4.337 -0.2298  0.2555 -2.0462
  187POPC   C3921522   1.929   1.186   4.406  1.0133  0.0882  0.0027
  187POPC   H9X21523   2.023   1.244   4.396  1.8418 -0.8186  1.9399
  187POPC   H9Y21524   1.954   1.084   4.369  1.3627  0.1001  0.1995
  187POPC  C31021525   1.897   1.194   4.553 -0.8654  0.6048 -0.6087
  187POPC  H10X21526   1.802   1.143   4.579  1.3000 -2.0352  3.1403
  187POPC  H10Y21527   1.899   1.298   4.591 -2.5200 -0.2335  2.0896
  187POPC  C31121528   2.001   1.110   4.632 -0.4891 -0.1364 -0.3320
  187POPC  H11X21529   2.103   1.152   4.643 -0.7432  0.6550 -0.9193
  187POPC  H11Y21530   2.000   1.008   4.589 -2.3936  0.0750 -0.8962
  187POPC  C31221531   1.961   1.084   4.783 -0.8018 -0.4238 -0.7173
  187POPC  H12X21532   1.861   1.035   4.790 -0.8388 -0.1115  1.7607
  187POPC  H12Y21533   1.936   1.179   4.836  1.3063  0.2825 -0.9231
  187POPC  C31321534   2.068   1.012   4.860  0.1835 -0.5905  0.5830
  187POPC  H13X21535   2.166   1.064   4.862  1.7270 -3.0353 -2.5870
  187POPC  H13Y21536   2.090   0.917   4.806 -2.1880 -1.6430  1.3488
  187POPC  C31421537   2.033   0.978   5.007  0.3219 -0.7760 -0.1536
  187POPC  H14X21538   1.946   0.909   5.003  0.2290 -0.7176  0.7256
  187POPC  H14Y21539   1.997   1.072   5.052  0.0252  0.0363 -1.9763
  187POPC  C31521540   2.142   0.899   5.083 -0.1791 -0.2903 -0.0623
  187POPC  H15X21541   2.231   0.966   5.076 -0.5537  0.3855  1.2556
  187POPC  H15Y21542   2.160   0.794   5.050 -0.9716 -1.6887  3.4411
  187POPC  C31621543   2.102   0.884   5.224 -0.2424 -0.2913  0.3616
  187POPC  H16X21544   2.005   0.831   5.233 -0.6147  0.6219  2.3990
  187POPC  H16Y21545   2.089   0.982   5.274 -0.1391 -0.3151  0.4363
  187POPC  H16Z21546   2.183   0.830   5.279  0.6746  1.6430  0.9895
  188POPC     N21547   1.018   5.889   2.993 -0.2034 -0.0844  0.3910
  188POPC   C1221548   0.917   5.946   2.889 -0.1156  0.2560 -0.4000
  188POPC  H12A21549   0.817   5.926   2.927 -0.8111  1.6322 -1.4007
  188POPC  H12B21550   0.925   5.887   2.799 -1.0372 -2.8715  1.4285
  188POPC   C1321551   1.017   5.735   2.991 -0.0130 -0.4066 -0.9869
  188POPC  H13A21552   1.035   5.700   2.891  2.6485 -1.4192 -0.2401
  188POPC  H13B21553   1.088   5.692   3.061  0.0680  1.7816  0.3908
  188POPC  H13C21554   0.921   5.693   3.016 -0.1204 -0.2185 -1.0841
  188POPC   C1421555   1.156   5.942   2.957 -0.0834  0.2949 -0.4929
  188POPC  H14A21556   1.152   6.049   2.950  0.4129  0.4655  1.3091
  188POPC  H14B21557   1.226   5.919   3.036 -0.1691 -0.0271 -0.5054
  188POPC  H14C21558   1.189   5.899   2.864  0.3929 -0.5013  0.0206
  188POPC   C1521559   0.990   5.930   3.136 -0.0528 -0.0467 -0.5360
  188POPC  H15A21560   0.885   5.919   3.160 -0.0216  1.9201  0.7439
  188POPC  H15B21561   0.998   6.037   3.145 -0.4008 -0.1171  0.8678
  188POPC  H15C21562   1.054   5.875   3.204 -1.3195 -0.8080  0.1014
  188POPC   C1121563   0.907   6.106   2.873 -0.5473  0.5551  0.4809
  188POPC  H11A21564   0.823   6.134   2.807  0.2846  0.0735 -0.8189
  188POPC  H11B21565   1.003   6.126   2.822 -0.6185  0.4020  0.2832
  188POPC     P21566   0.994   6.305   3.007 -0.2854  0.4515  0.0333
  188POPC   O1321567   0.955   6.417   2.914  0.2127 -0.2985  0.5342
  188POPC   O1421568   1.133   6.258   2.986  0.0838 -0.3467 -0.0643
  188POPC   O1221569   0.892   6.179   2.994  0.3275 -0.2394  0.0312
  188POPC   O1121570   0.979   6.355   3.155  0.1247  0.7185 -0.0895
  188POPC    C121571   0.946   6.256   3.260 -0.3240  0.0298 -0.3831
  188POPC    HA21572   1.036   6.197   3.288 -0.2535 -0.1344 -0.9396
  188POPC    HB21573   0.859   6.194   3.229 -0.6657  0.0245  0.5747
  188POPC    C221574   0.897   6.304   3.397  0.3724 -0.9944  0.6834
  188POPC    HS21575   0.792   6.337   3.386  0.4263 -1.1070 -0.2416
  188POPC   O2121576   0.983   6.393   3.467  0.0960 -0.4286  0.5243
  188POPC   C2121577   0.925   6.503   3.521 -0.2583  0.0526  0.4858
  188POPC   O2221578   0.811   6.537   3.494  0.3762 -0.8694  0.3621
  188POPC   C2221579   1.025   6.568   3.611  0.6104 -0.6447  0.2430
  188POPC   H2R21580   1.110   6.582   3.541  1.2589 -0.2084  1.1019
  188POPC   H2S21581   1.069   6.503   3.690  3.1986  1.1248  0.3860
  188POPC    C321582   0.889   6.174   3.481 -0.4258  0.3607  0.4098
  188POPC    HX21583   0.993   6.136   3.474 -0.5988 -0.4184  1.7384
  188POPC    HY21584   0.810   6.112   3.435 -0.4970  0.0603  0.9353
  188POPC   O3121585   0.860   6.203   3.621  0.2633 -0.3164 -0.7780
  188POPC   C3121586   0.843   6.093   3.705  0.1172 -1.2595 -0.4132
  188POPC   O3221587   0.869   5.982   3.665  0.7299  0.2518 -0.8434
  188POPC   C3221588   0.799   6.130   3.848 -0.5228  0.3119  0.2971
  188POPC   H2X21589   0.696   6.173   3.844 -2.8460 -4.5529  0.6006
  188POPC   H2Y21590   0.864   6.216   3.874 -1.2840  1.2720 -0.8390
  188POPC   C2321591   0.983   6.707   3.655 -0.6340  0.1227  0.2184
  188POPC   H3R21592   0.903   6.694   3.731  0.2528 -1.1570  0.9676
  188POPC   H3S21593   0.955   6.769   3.566  0.0281  0.6024  0.3396
  188POPC   C2421594   1.083   6.781   3.737  0.3069 -0.1766  0.2278
  188POPC   H4R21595   1.160   6.824   3.670 -0.8352  0.5950 -0.6218
  188POPC   H4S21596   1.122   6.706   3.809 -2.8961 -1.3152  0.9163
  188POPC   C2521597   1.007   6.889   3.813  0.2749 -0.1395  0.8318
  188POPC   H5R21598   0.904   6.862   3.845  0.2093  0.7027  1.3479
  188POPC   H5S21599   0.991   6.979   3.749  0.9444  1.2103  2.4951
  188POPC   C2621600   1.076   6.939   3.944  0.0838  0.3243 -0.2206
  188POPC   H6R21601   1.021   7.029   3.980  1.7010  2.1286 -2.0056
  188POPC   H6S21602   1.176   6.979   3.917  0.0345 -0.0127 -0.9157
  188POPC   C2721603   1.088   6.833   4.051  0.2302  0.2930  0.1638
  188POPC   H7R21604   1.165   6.756   4.025  0.2542  0.2002  0.5098
  188POPC   H7S21605   0.990   6.780   4.056  1.3260 -1.8498  0.3458
  188POPC   C2821606   1.120   6.899   4.183 -0.2516  0.4102  0.0709
  188POPC   H8R21607   1.125   6.817   4.257  3.3128 -0.3735 -0.8272
  188POPC   H8S21608   1.031   6.959   4.210 -0.3823 -0.2245  1.0800
  188POPC   C2921609   1.252   6.970   4.197 -0.4915 -0.2315  0.5911
  188POPC   H9121610   1.291   7.030   4.113 -2.7372  2.3333  1.2352
  188POPC  C21021611   1.319   6.975   4.312 -0.2517  0.3429  0.5090
  188POPC  H10121612   1.421   7.016   4.313 -0.7462  1.7421 -1.7050
  188POPC  C21121613   1.297   6.888   4.432  0.2527  0.0209 -0.1792
  188POPC  H11R21614   1.390   6.839   4.470  1.0012 -1.2990 -3.3809
  188POPC  H11S21615   1.220   6.808   4.429 -0.2376  0.4241  1.3006
  188POPC  C21221616   1.232   6.977   4.545 -0.0007 -0.1112  0.2919
  188POPC  H12R21617   1.139   7.018   4.500  1.0860  2.2220  0.0069
  188POPC  H12S21618   1.298   7.062   4.574  0.4395 -0.7983  1.3495
  188POPC  C21321619   1.197   6.905   4.679 -0.5636  0.0845  0.4487
  188POPC  H13R21620   1.292   6.872   4.725 -0.6104 -1.1057 -0.2665
  188POPC  H13S21621   1.144   6.809   4.661  1.0441 -0.6339 -0.7121
  188POPC  C21421622   1.123   7.001   4.773  0.2306  0.0245 -0.0933
  188POPC  H14R21623   1.028   7.031   4.724  0.1330  0.2325  0.2189
  188POPC  H14S21624   1.183   7.094   4.782  1.6863 -0.9928  1.3216
  188POPC  C21521625   1.096   6.943   4.910 -0.6136  0.1498 -0.4387
  188POPC  H15R21626   1.194   6.909   4.949 -1.0707  0.0415  0.6372
  188POPC  H15S21627   1.028   6.856   4.897  0.4535 -0.8120  0.2940
  188POPC  C21621628   1.020   7.040   5.001  0.4625  0.1297 -0.6212
  188POPC  H16R21629   0.985   6.985   5.091  0.5370  0.4965 -0.3650
  188POPC  H16S21630   0.930   7.082   4.953  1.2762 -0.5968 -2.9033
  188POPC  C21721631   1.115   7.149   5.057  0.1888  0.3354  0.5189
  188POPC  H17R21632   1.148   7.218   4.977  1.9376  1.4844  2.1630
  188POPC  H17S21633   1.199   7.096   5.105 -0.0920 -0.1269  0.5088
  188POPC  C21821634   1.062   7.227   5.178 -0.0845 -0.1743  0.0611
  188POPC  H18R21635   1.121   7.199   5.268  1.0807  0.8774 -0.3417
  188POPC  H18S21636   0.953   7.217   5.197 -0.0917 -0.0273  0.1026
  188POPC  H18T21637   1.098   7.332   5.167 -3.3022  1.5454  3.5525
  188POPC   C3321638   0.786   6.021   3.952  0.3168 -0.4713 -0.0237
  188POPC   H3X21639   0.888   5.992   3.986 -0.3674  0.0074  2.6203
  188POPC   H3Y21640   0.720   5.937   3.919 -0.6809  0.2735  0.0251
  188POPC   C3421641   0.725   6.089   4.072  0.3455  0.3227 -0.2696
  188POPC   H4X21642   0.630   6.130   4.034  0.7242 -0.1870 -1.8477
  188POPC   H4Y21643   0.781   6.182   4.095 -2.2060  2.0622 -0.7996
  188POPC   C3521644   0.723   6.010   4.199  0.2488 -0.4181  0.0449
  188POPC   H5X21645   0.671   5.914   4.175 -0.8373  0.5456 -1.6452
  188POPC   H5Y21646   0.663   6.069   4.272 -0.5203 -0.4749 -0.5259
  188POPC   C3621647   0.860   5.982   4.265 -0.3553 -0.0731 -0.5698
  188POPC   H6X21648   0.889   6.083   4.302  2.0073 -0.9514  0.1868
  188POPC   H6Y21649   0.927   5.950   4.182 -1.3647  1.5605 -2.0794
  188POPC   C3721650   0.840   5.878   4.375  0.4211  0.0475 -0.5564
  188POPC   H7X21651   0.944   5.862   4.411 -0.0446 -0.0953  0.7887
  188POPC   H7Y21652   0.795   5.783   4.338  1.0303 -0.8350  0.8559
  188POPC   C3821653   0.755   5.926   4.493 -0.1506  0.2273  0.4320
  188POPC   H8X21654   0.649   5.920   4.461 -0.9400 -1.9920  3.0678
  188POPC   H8Y21655   0.769   6.034   4.513  0.1380  0.7603 -2.3339
  188POPC   C3921656   0.781   5.838   4.613 -0.5730  0.1222  0.2817
  188POPC   H9X21657   0.845   5.884   4.692  1.0325 -1.0906 -0.2649
  188POPC   H9Y21658   0.830   5.746   4.575 -0.2533 -0.3920  1.8658
  188POPC  C31021659   0.647   5.798   4.671  0.6379 -0.2733 -0.1575
  188POPC  H10X21660   0.587   5.729   4.607 -0.5166 -2.7770  3.2926
  188POPC  H10Y21661   0.587   5.890   4.686 -1.9873 -1.4185 -2.6679
  188POPC  C31121662   0.670   5.736   4.810  1.1980  0.5373 -0.1265
  188POPC  H11X21663   0.733   5.801   4.874  0.3730 -0.8261  2.1932
  188POPC  H11Y21664   0.721   5.638   4.802  0.2041  0.0822 -1.1667
  188POPC  C31221665   0.539   5.722   4.898  0.2462 -0.0607 -0.3276
  188POPC  H12X21666   0.465   5.666   4.838 -0.8295  0.0701  0.8364
  188POPC  H12Y21667   0.487   5.817   4.921  0.0736 -0.1310 -0.4241
  188POPC  C31321668   0.570   5.649   5.026 -0.3995 -0.1518  0.0572
  188POPC  H13X21669   0.638   5.718   5.081  0.4038  0.3316 -1.4958
  188POPC  H13Y21670   0.619   5.560   4.982 -0.1638  0.9753 -2.0939
  188POPC  C31421671   0.451   5.634   5.116  0.1651  0.5418  0.3799
  188POPC  H14X21672   0.365   5.589   5.062  0.9254 -1.5212  0.7860
  188POPC  H14Y21673   0.405   5.733   5.138 -2.9534 -0.5562 -0.5566
  188POPC  C31521674   0.468   5.556   5.248 -0.0882 -0.3220  0.0964
  188POPC  H15X21675   0.376   5.560   5.311 -0.4200 -2.8282 -0.1132
  188POPC  H15Y21676   0.555   5.601   5.301  0.6866 -1.1355 -0.4550
  188POPC  C31621677   0.505   5.410   5.241 -0.3481 -0.4779  0.0641
  188POPC  H16X21678   0.529   5.368   5.341  2.8843 -1.7464 -1.1115
  188POPC  H16Y21679   0.590   5.396   5.171 -0.8438 -1.9916 -0.2651
  188POPC  H16Z21680   0.420   5.356   5.192 -1.9900  0.3904  1.8102
  189SAPI   C1221681   1.295   6.266   7.730  0.0654  0.6851  0.0269
  189SAPI    H221682   1.189   6.261   7.762 -0.3123  0.5805 -1.1803
  189SAPI    O221683   1.377   6.350   7.812  0.2760  0.3475 -0.1380
  189SAPI   HO221684   1.337   6.437   7.805 -0.7328 -0.1410 -0.6639
  189SAPI   C1321685   1.331   6.125   7.740 -0.1952  0.6594 -0.4273
  189SAPI    H321686   1.248   6.070   7.690 -0.4188 -0.2806  0.9265
  189SAPI    O321687   1.321   6.066   7.866 -0.7312 -0.3769  0.0552
  189SAPI   HO321688   1.406   6.083   7.907 -0.9650 -0.2601  0.4929
  189SAPI   C1421689   1.460   6.081   7.667  0.2737 -0.2031 -0.1726
  189SAPI    H421690   1.530   6.101   7.751  0.0529  2.9409 -0.6109
  189SAPI    O421691   1.473   5.942   7.644 -0.6381  0.2568  0.5836
  189SAPI   HO421692   1.402   5.924   7.582  1.2744  0.3747 -1.7954
  189SAPI   C1521693   1.514   6.168   7.554 -1.0031  0.0584 -0.0034
  189SAPI    H521694   1.498   6.106   7.462  2.4168  0.2154 -0.8498
  189SAPI    O521695   1.657   6.168   7.560  0.0720 -0.2627  0.0534
  189SAPI   HO521696   1.680   6.074   7.561 -1.0098 -0.5701 -1.2047
  189SAPI   C1621697   1.449   6.304   7.535  0.9730 -0.3332 -0.5697
  189SAPI    H621698   1.502   6.379   7.598 -0.2782  1.0690 -1.1153
  189SAPI    O621699   1.456   6.347   7.400  0.5012 -0.0057 -0.0615
  189SAPI   HO621700   1.476   6.440   7.394  1.1906 -0.0116  1.5917
  189SAPI   C1121701   1.304   6.307   7.588  0.2197 -0.0871 -0.0812
  189SAPI    H121702   1.237   6.239   7.531 -0.9012  0.4216  0.5980
  189SAPI     P21703   1.105   6.477   7.525 -0.4509 -0.2203  0.3137
  189SAPI   O1321704   1.088   6.623   7.529 -0.3328 -0.0437 -0.0528
  189SAPI   O1421705   1.009   6.399   7.602 -0.1184  0.0831 -0.0998
  189SAPI   O1221706   1.262   6.443   7.568  0.1657 -0.2924  0.0673
  189SAPI   O1121707   1.097   6.433   7.370 -0.2980 -0.7119 -0.0150
  189SAPI    C121708   1.181   6.497   7.273  0.3109 -0.0376 -0.2069
  189SAPI    HA21709   1.152   6.604   7.269  1.5846  0.3151 -0.6352
  189SAPI    HB21710   1.285   6.506   7.311  0.7897 -3.4841 -0.3815
  189SAPI    C221711   1.190   6.419   7.139 -0.0115 -0.7013 -0.2588
  189SAPI    HS21712   1.185   6.500   7.063 -2.8378 -0.9589 -0.4712
  189SAPI   O2121713   1.073   6.341   7.112  0.8758 -0.3103  0.0408
  189SAPI   C2121714   0.964   6.407   7.078  0.2340 -0.8280  0.4507
  189SAPI   O2221715   0.954   6.529   7.069  0.2275  0.4455 -0.3872
  189SAPI   C2221716   0.868   6.304   7.017  0.3275  0.1249  0.0453
  189SAPI   H2R21717   0.919   6.255   6.932  0.3421 -1.2263  0.8118
  189SAPI   H2S21718   0.856   6.220   7.088  2.4155  0.0194  0.3277
  189SAPI    C321719   1.326   6.342   7.112 -0.3016 -0.2024  0.2346
  189SAPI    HX21720   1.347   6.252   7.174 -0.4294  0.6123  1.5029
  189SAPI    HY21721   1.406   6.418   7.125 -0.2888 -0.2096  0.1989
  189SAPI   O3121722   1.328   6.296   6.981 -0.4406 -0.6786  0.4565
  189SAPI   C3121723   1.271   6.176   6.960  0.3051 -0.3525 -0.2184
  189SAPI   O3221724   1.217   6.114   7.049  0.2350  0.3032  0.6524
  189SAPI   C3221725   1.280   6.139   6.818 -0.1214  0.4224  0.6976
  189SAPI   H2X21726   1.386   6.142   6.784  0.0536 -1.5158  0.9408
  189SAPI   H2Y21727   1.215   6.213   6.767  1.3012  1.6581  0.6213
  189SAPI   C2321728   0.740   6.372   6.970 -0.1970 -0.2723  0.1813
  189SAPI   H3R21729   0.749   6.444   6.885 -0.4136 -0.3444  0.0967
  189SAPI   H3S21730   0.690   6.426   7.053 -1.8099 -0.2095 -0.7895
  189SAPI   C2421731   0.631   6.269   6.924  0.9934  0.7575  0.2077
  189SAPI   H4R21732   0.653   6.238   6.820  2.0718 -0.5819  0.8069
  189SAPI   H4S21733   0.542   6.335   6.930  0.9242  0.5208  2.4008
  189SAPI   C2521734   0.607   6.144   7.008  0.0282  0.3452  0.5695
  189SAPI   H5R21735   0.577   6.176   7.109 -0.7257  1.9886 -0.1533
  189SAPI   C2621736   0.637   6.014   6.983 -0.2684  0.3120  0.9474
  189SAPI   H6R21737   0.603   5.927   7.040  0.7848 -1.0162 -0.3688
  189SAPI   C2721738   0.687   5.970   6.844 -0.8213  0.4126  0.0609
  189SAPI   H7R21739   0.767   5.896   6.864 -0.9462  0.3170  0.2024
  189SAPI   H7S21740   0.741   6.046   6.784 -0.8022  0.2783 -0.0939
  189SAPI   C2821741   0.579   5.922   6.751  0.4285  0.1476 -0.3079
  189SAPI   H8R21742   0.478   5.909   6.794  0.4481 -0.9304 -0.5661
  189SAPI   C2921743   0.586   5.901   6.618 -0.1146  0.0190  0.1180
  189SAPI   H9R21744   0.495   5.873   6.562 -1.1925  0.1892  1.7056
  189SAPI  C21021745   0.715   5.908   6.539  1.2331  0.4259  0.4273
  189SAPI  H10R21746   0.802   5.933   6.603  0.2978 -0.1094  1.9570
  189SAPI  H10S21747   0.708   5.983   6.457  0.5721 -0.8461 -0.7273
  189SAPI  C21121748   0.730   5.768   6.482  0.1807 -0.5076 -0.7320
  189SAPI  H11R21749   0.693   5.694   6.554  0.1974  1.4965  1.4502
  189SAPI  C21221750   0.774   5.720   6.361  1.0244 -0.6246 -0.0623
  189SAPI  H12R21751   0.758   5.614   6.336 -1.0599 -0.0752 -1.3181
  189SAPI  C21321752   0.820   5.807   6.244 -0.5485  0.2022 -0.0650
  189SAPI  H13R21753   0.835   5.912   6.277 -2.2461 -0.2014  2.2060
  189SAPI  H13S21754   0.740   5.813   6.167 -1.2912 -0.2159  0.6546
  189SAPI  C21421755   0.943   5.744   6.181  0.4887  0.5260  0.0388
  189SAPI  H14R21756   1.035   5.736   6.240  0.6153 -0.3447 -0.2590
  189SAPI  C21521757   0.957   5.711   6.050 -0.7423 -0.3495  0.1693
  189SAPI  H15R21758   1.057   5.677   6.018 -1.4279 -1.6085 -0.7378
  189SAPI  C21621759   0.857   5.705   5.935  0.4060  0.3435  0.9768
  189SAPI  H16R21760   0.753   5.693   5.974  1.5395 -4.5237  3.4306
  189SAPI  H16S21761   0.862   5.610   5.877 -2.9589  1.6850 -1.8972
  189SAPI  C21721762   0.869   5.826   5.848 -0.6145  0.5155  0.4202
  189SAPI  H17R21763   0.832   5.794   5.748 -0.4837 -1.3310  0.9331
  189SAPI  H17S21764   0.969   5.869   5.825 -0.2175  0.4432  1.9173
  189SAPI  C21821765   0.772   5.936   5.898  0.5006  0.8654 -0.2586
  189SAPI  H18R21766   0.815   5.979   5.991 -0.7992  1.5156  0.0700
  189SAPI  H18S21767   0.671   5.896   5.921 -0.2196  2.8110  0.1532
  189SAPI  C21921768   0.761   6.049   5.802 -0.7371  0.5354  0.4125
  189SAPI  H19R21769   0.722   6.004   5.708 -0.2054 -1.6223  1.1626
  189SAPI  H19S21770   0.855   6.104   5.778 -0.3088 -0.0731  0.6574
  189SAPI  C22021771   0.656   6.155   5.841 -0.2847  0.2760 -0.0349
  189SAPI  H20R21772   0.562   6.095   5.841  0.8935 -1.6769 -0.1723
  189SAPI  H20S21773   0.662   6.231   5.760 -1.9479  0.2813 -0.1960
  189SAPI  H20T21774   0.678   6.195   5.942 -1.1138 -0.7602  0.5848
  189SAPI   C3321775   1.231   5.997   6.775  0.3395 -0.2179 -1.1198
  189SAPI   H3X21776   1.120   5.989   6.773  0.4854 -3.5120 -2.5221
  189SAPI   H3Y21777   1.256   5.911   6.841 -2.5215 -3.8324 -4.2474
  189SAPI   C3421778   1.285   5.961   6.636  0.2712 -0.0052  0.3731
  189SAPI   H4X21779   1.283   5.849   6.634 -1.3309  0.0133 -0.4970
  189SAPI   H4Y21780   1.392   5.992   6.632  0.6269 -1.0070  1.4656
  189SAPI   C3521781   1.198   6.014   6.520 -0.2771 -0.0760  0.0403
  189SAPI   H5X21782   1.216   6.118   6.486 -2.3290  0.3732  0.2220
  189SAPI   H5Y21783   1.094   6.012   6.560 -0.1870  1.0819  0.3678
  189SAPI   C3621784   1.217   5.921   6.402 -0.1526 -0.4303 -0.4915
  189SAPI   H6X21785   1.119   5.929   6.351 -0.0165  2.6763 -0.4105
  189SAPI   H6Y21786   1.246   5.818   6.435  0.9847  0.5037  1.5927
  189SAPI   C3721787   1.319   5.965   6.305  0.1883  0.4289  0.5769
  189SAPI   H7X21788   1.417   5.950   6.354  0.0602  2.4634  1.5747
  189SAPI   H7Y21789   1.326   6.075   6.290  3.1273  0.4077  1.1920
  189SAPI   C3821790   1.299   5.892   6.176  0.3847 -0.0182  0.9598
  189SAPI   H8X21791   1.200   5.908   6.128  1.6158  0.7666 -1.4961
  189SAPI   H8Y21792   1.319   5.783   6.173 -1.9282 -0.4735 -0.2784
  189SAPI   C3921793   1.387   5.965   6.072 -0.3737 -0.1095  0.0608
  189SAPI   H9X21794   1.414   5.898   5.987  2.0945  0.3835  0.3756
  189SAPI   H9Y21795   1.481   5.996   6.122  0.1030 -0.6641 -0.4662
  189SAPI  C31021796   1.321   6.081   6.003 -0.3723 -0.4718 -1.1832
  189SAPI  H10X21797   1.274   6.143   6.083  0.9046  1.6170 -1.9694
  189SAPI  H10Y21798   1.234   6.059   5.938 -0.4951  1.3369 -1.6925
  189SAPI  C31121799   1.420   6.172   5.923 -0.4222  0.8376 -0.1688
  189SAPI  H11X21800   1.524   6.143   5.951 -1.1421 -0.1190  1.6669
  189SAPI  H11Y21801   1.402   6.273   5.965 -1.8015 -0.4153  2.4898
  189SAPI  C31221802   1.401   6.166   5.772 -0.5969 -0.4107  0.3891
  189SAPI  H12X21803   1.402   6.061   5.734  1.1567 -1.0006  1.9365
  189SAPI  H12Y21804   1.480   6.228   5.725  0.0168 -0.7207  0.9939
  189SAPI  C31321805   1.272   6.236   5.732 -0.2694  0.6179  0.3404
  189SAPI  H13X21806   1.280   6.340   5.769 -0.9496  0.6494  0.4082
  189SAPI  H13Y21807   1.184   6.180   5.770  1.2290 -2.6421 -0.6281
  189SAPI  C31421808   1.260   6.245   5.577  0.0344  0.0177  0.0855
  189SAPI  H14X21809   1.299   6.151   5.533 -0.9510 -0.3373 -0.0683
  189SAPI  H14Y21810   1.327   6.328   5.547  0.1982 -0.4641 -0.9053
  189SAPI  C31521811   1.108   6.263   5.535 -0.3842 -0.4609 -0.5607
  189SAPI  H15X21812   1.120   6.303   5.432 -0.1931 -1.7256 -1.0437
  189SAPI  H15Y21813   1.061   6.341   5.599 -0.0852 -2.2813  2.0177
  189SAPI  C31621814   1.027   6.133   5.537  0.1566 -0.1192  0.6243
  189SAPI  H16X21815   0.999   6.105   5.640 -1.5111 -0.1201  0.1994
  189SAPI  H16Y21816   1.097   6.058   5.493  0.0852  0.8638 -1.3045
  189SAPI  C31721817   0.898   6.133   5.453 -0.4681 -0.6559 -0.5371
  189SAPI  H17X21818   0.841   6.038   5.460 -2.4679  0.4905 -0.6040
  189SAPI  H17Y21819   0.951   6.155   5.358 -1.4071  0.4097 -0.8272
  189SAPI  C31821820   0.813   6.253   5.482  0.6514  0.4252  0.0237
  189SAPI  H18X21821   0.857   6.352   5.458 -1.5083  1.1978 -1.0415
  189SAPI  H18Y21822   0.772   6.249   5.586  0.7611  2.6679  0.2216
  189SAPI  H18Z21823   0.723   6.244   5.418  0.6620  1.5010 -0.1696
  190SAPI   C1221824   2.146   1.037   7.528 -0.1964  0.0892  0.2795
  190SAPI    H221825   2.174   1.040   7.421 -0.0624 -0.3019  0.3041
  190SAPI    O221826   2.101   1.168   7.558  1.1275 -0.1080  0.8370
  190SAPI   HO221827   2.019   1.182   7.511  0.8472  2.2930  1.8994
  190SAPI   C1321828   2.035   0.944   7.555  0.1442 -0.5858 -0.2498
  190SAPI    H321829   2.083   0.847   7.528  1.2193 -0.0834 -0.1937
  190SAPI    O321830   1.925   0.971   7.458 -0.2043 -0.6589 -0.2617
  190SAPI   HO321831   1.874   1.037   7.505  1.4440 -0.7983  1.8616
  190SAPI   C1421832   1.989   0.940   7.696 -0.1513 -0.2987 -0.5332
  190SAPI    H421833   1.937   1.037   7.714 -0.5343 -0.8141  1.4252
  190SAPI    O421834   1.885   0.847   7.715 -0.5532 -0.6732 -0.1614
  190SAPI   HO421835   1.915   0.764   7.678  0.3119 -0.5914  0.3357
  190SAPI   C1521836   2.101   0.935   7.796  0.2939  0.5200 -0.0160
  190SAPI    H521837   2.132   0.829   7.809  1.2736  1.0238  2.4367
  190SAPI    O521838   2.064   0.972   7.926 -0.3859  0.0718  0.1587
  190SAPI   HO521839   2.038   1.064   7.928 -1.8788 -0.2911 -1.2038
  190SAPI   C1621840   2.234   1.000   7.762 -0.3708 -0.1226 -0.0589
  190SAPI    H621841   2.224   1.107   7.790  2.0210  0.0796  0.2209
  190SAPI    O621842   2.344   0.939   7.835 -0.1476  0.0454  0.4564
  190SAPI   HO621843   2.423   0.995   7.829 -0.8628  1.0412  0.0568
  190SAPI   C1121844   2.266   0.998   7.610 -0.9111 -0.5369 -0.2995
  190SAPI    H121845   2.282   0.892   7.582 -1.3008 -0.7890  0.3965
  190SAPI     P21846   2.480   1.047   7.458 -0.1331 -0.2785 -0.0597
  190SAPI   O1321847   2.507   0.902   7.455 -0.2594  0.3744  0.3882
  190SAPI   O1421848   2.591   1.139   7.485 -0.6889 -0.4254 -0.0551
  190SAPI   O1221849   2.380   1.079   7.585  0.0840  0.0672 -0.1655
  190SAPI   O1121850   2.409   1.102   7.323  0.2383  0.2059 -0.3017
  190SAPI    C121851   2.372   1.240   7.318  0.0466  0.2632 -1.1232
  190SAPI    HA21852   2.300   1.269   7.397 -0.8515 -0.8770 -1.5071
  190SAPI    HB21853   2.459   1.309   7.316  1.0560 -0.9709 -1.0591
  190SAPI    C221854   2.318   1.266   7.183  0.4983 -0.2162  0.7192
  190SAPI    HS21855   2.308   1.376   7.171 -2.3271 -0.4405  0.3967
  190SAPI   O2121856   2.200   1.194   7.161  0.6314  0.3288 -0.5672
  190SAPI   C2121857   2.094   1.261   7.132  0.0171 -0.1233 -0.8331
  190SAPI   O2221858   2.091   1.383   7.126  0.4886 -0.2059  0.1178
  190SAPI   C2221859   1.971   1.177   7.108 -0.2914 -0.7762  1.0355
  190SAPI   H2R21860   1.938   1.117   7.195 -2.3106 -3.4948 -1.4054
  190SAPI   H2S21861   1.893   1.256   7.106 -1.3789 -1.7987 -0.9906
  190SAPI    C321862   2.412   1.229   7.066  1.0824 -0.2423 -0.2965
  190SAPI    HX21863   2.438   1.121   7.064  3.4049  0.2743 -1.4889
  190SAPI    HY21864   2.509   1.283   7.077  0.1796  1.4503 -0.2077
  190SAPI   O3121865   2.350   1.245   6.943  0.3018 -0.0535  0.0540
  190SAPI   C3121866   2.363   1.366   6.886 -0.0273 -1.1061 -0.0144
  190SAPI   O3221867   2.438   1.452   6.936  0.2025 -0.7372  0.5307
  190SAPI   C3221868   2.266   1.384   6.767 -1.0606 -0.1826 -0.1606
  190SAPI   H2X21869   2.164   1.415   6.798 -2.3215 -4.5131  0.7595
  190SAPI   H2Y21870   2.267   1.290   6.707  0.8618 -0.0987 -0.3086
  190SAPI   C2321871   1.978   1.093   6.970  0.1117 -0.6988 -0.9166
  190SAPI   H3R21872   1.886   1.035   6.948 -0.9046  0.1674  0.9018
  190SAPI   H3S21873   2.059   1.018   6.988  0.4584 -0.0788  0.1559
  190SAPI   C2421874   2.010   1.181   6.847  0.1498 -0.0464 -0.2863
  190SAPI   H4R21875   2.030   1.112   6.762 -0.4380 -0.5516 -0.0278
  190SAPI   H4S21876   2.104   1.235   6.868  0.6265 -1.0946  0.3832
  190SAPI   C2521877   1.885   1.268   6.830  0.1741  0.1654 -0.1673
  190SAPI   H5R21878   1.852   1.328   6.915 -1.7422  0.5892 -1.1457
  190SAPI   C2621879   1.806   1.275   6.721  0.4143  0.1670  0.2374
  190SAPI   H6R21880   1.721   1.345   6.715  0.0773 -0.2812 -0.3528
  190SAPI   C2721881   1.814   1.197   6.595 -0.0682 -0.7956 -0.2855
  190SAPI   H7R21882   1.720   1.146   6.566  1.6568 -2.0541 -4.3562
  190SAPI   H7S21883   1.885   1.115   6.618  4.0486  2.7132  0.9429
  190SAPI   C2821884   1.878   1.281   6.488  0.5235 -0.5803  0.0381
  190SAPI   H8R21885   1.979   1.311   6.519 -0.0557  1.5978 -0.0079
  190SAPI   C2921886   1.818   1.329   6.374  0.3269  0.0560 -0.2391
  190SAPI   H9R21887   1.884   1.385   6.306  0.8757  0.5476  0.6734
  190SAPI  C21021888   1.677   1.298   6.323 -0.5496  0.2065 -0.1096
  190SAPI  H10R21889   1.610   1.273   6.408  0.3550  0.3199  0.6602
  190SAPI  H10S21890   1.685   1.225   6.240 -2.3711  0.8580 -0.8818
  190SAPI  C21121891   1.623   1.430   6.277  0.4263 -0.2162 -0.1159
  190SAPI  H11R21892   1.594   1.508   6.349  0.7471  2.0874 -2.3241
  190SAPI  C21221893   1.602   1.469   6.148  0.2459  0.1222  0.2251
  190SAPI  H12R21894   1.576   1.574   6.128  0.2752  0.7437  3.0005
  190SAPI  C21321895   1.619   1.397   6.019 -0.1061 -0.7974  0.4716
  190SAPI  H13R21896   1.537   1.423   5.948 -1.3024  3.1876  3.0271
  190SAPI  H13S21897   1.621   1.289   6.046  4.0281 -1.2706 -1.0696
  190SAPI  C21421898   1.741   1.430   5.944 -0.5715  0.2718 -0.0784
  190SAPI  H14R21899   1.825   1.389   6.004 -2.7162 -1.6416  1.8217
  190SAPI  C21521900   1.763   1.485   5.816  0.1777 -0.3674 -0.3002
  190SAPI  H15R21901   1.868   1.492   5.782  0.0145 -1.0399 -0.9725
  190SAPI  C21621902   1.663   1.528   5.714 -0.6684  0.5318  0.2521
  190SAPI  H16R21903   1.617   1.628   5.727  0.2351  1.1010 -0.7970
  190SAPI  H16S21904   1.579   1.455   5.712 -2.1937  2.2313 -0.6280
  190SAPI  C21721905   1.713   1.518   5.569 -0.0173 -0.5841 -0.1064
  190SAPI  H17R21906   1.747   1.413   5.556  0.7336 -0.1211 -2.3732
  190SAPI  H17S21907   1.790   1.597   5.551  0.8445 -1.3713  0.0200
  190SAPI  C21821908   1.605   1.558   5.466  0.3213 -0.0115 -1.0579
  190SAPI  H18R21909   1.579   1.665   5.478 -0.0702 -0.0111 -1.8411
  190SAPI  H18S21910   1.511   1.508   5.495 -0.7758  2.7420  0.5223
  190SAPI  C21921911   1.647   1.535   5.320 -0.9392 -0.5433 -0.2204
  190SAPI  H19R21912   1.666   1.427   5.301  0.9951 -0.2226 -0.3861
  190SAPI  H19S21913   1.749   1.579   5.318 -0.7325 -1.0123 -0.2646
  190SAPI  C22021914   1.564   1.602   5.212 -0.0358  0.2349 -0.2573
  190SAPI  H20R21915   1.463   1.555   5.205 -0.4193  0.8923  0.7037
  190SAPI  H20S21916   1.611   1.607   5.111  1.0397  2.4730  0.3041
  190SAPI  H20T21917   1.545   1.706   5.245 -1.1919  0.0724 -0.3727
  190SAPI   C3321918   2.315   1.494   6.665  0.2337  0.6831  0.2095
  190SAPI   H3X21919   2.425   1.496   6.651  0.1839 -0.7886 -0.5686
  190SAPI   H3Y21920   2.278   1.593   6.698 -1.0305 -0.2165  1.6684
  190SAPI   C3421921   2.253   1.461   6.526  0.0743  0.1016  0.3705
  190SAPI   H4X21922   2.144   1.441   6.540 -0.0323  0.3014 -0.1572
  190SAPI   H4Y21923   2.297   1.367   6.487 -0.6335 -0.9459  1.9885
  190SAPI   C3521924   2.274   1.571   6.420  0.1614  0.4958 -0.0874
  190SAPI   H5X21925   2.379   1.609   6.416 -0.7424  3.1003 -1.9283
  190SAPI   H5Y21926   2.199   1.651   6.438 -1.1634 -1.0891  1.7932
  190SAPI   C3621927   2.232   1.511   6.280 -0.4812 -0.7859  0.2701
  190SAPI   H6X21928   2.134   1.459   6.277 -0.5060 -0.7294  0.0770
  190SAPI   H6Y21929   2.311   1.441   6.245 -1.1715 -0.3715 -2.3259
  190SAPI   C3721930   2.222   1.630   6.186  0.1077  0.7596 -0.1598
  190SAPI   H7X21931   2.306   1.702   6.194  0.6095  0.0616  1.2043
  190SAPI   H7Y21932   2.136   1.692   6.218 -1.5005 -0.7061 -1.4032
  190SAPI   C3821933   2.204   1.584   6.043  0.7017  0.4074 -0.2615
  190SAPI   H8X21934   2.105   1.536   6.028  0.8101  0.1153 -0.0607
  190SAPI   H8Y21935   2.270   1.499   6.015 -2.5264 -1.9750 -1.2924
  190SAPI   C3921936   2.211   1.694   5.934  0.1847  0.8220 -0.4237
  190SAPI   H9X21937   2.314   1.733   5.940  0.8968 -1.0176  0.3793
  190SAPI   H9Y21938   2.149   1.783   5.957  0.7217  0.9417  0.6017
  190SAPI  C31021939   2.162   1.641   5.802  0.5195 -0.1579  0.9239
  190SAPI  H10X21940   2.059   1.599   5.809 -0.1841  1.1802 -0.6343
  190SAPI  H10Y21941   2.230   1.565   5.759  1.4735 -0.2468  2.5079
  190SAPI  C31121942   2.154   1.748   5.686  0.7114 -0.6312  0.1683
  190SAPI  H11X21943   2.261   1.770   5.666  1.0614 -1.1062  1.4528
  190SAPI  H11Y21944   2.099   1.836   5.727  2.3335  0.5700 -0.1572
  190SAPI  C31221945   2.085   1.711   5.552  0.9495  0.2028 -0.2768
  190SAPI  H12X21946   1.978   1.701   5.579  0.9541  1.1176  0.1128
  190SAPI  H12Y21947   2.117   1.618   5.500  0.6880  1.1437 -2.2494
  190SAPI  C31321948   2.088   1.828   5.447 -0.3138 -0.2435  0.2330
  190SAPI  H13X21949   2.189   1.871   5.430 -0.7927  1.2453  0.9436
  190SAPI  H13Y21950   2.024   1.913   5.482 -2.3528 -1.1236 -1.1628
  190SAPI  C31421951   2.034   1.788   5.314  0.1991 -0.0001 -0.0247
  190SAPI  H14X21952   1.934   1.740   5.329  0.0841  0.5352  1.0854
  190SAPI  H14Y21953   2.113   1.721   5.275  0.1539 -2.8693  4.1132
  190SAPI  C31521954   2.021   1.906   5.215 -0.1398 -0.0882 -1.0639
  190SAPI  H15X21955   2.118   1.960   5.205 -0.6018  0.7144 -1.3560
  190SAPI  H15Y21956   1.946   1.979   5.254 -0.4843 -1.2322  0.5441
  190SAPI  C31621957   2.002   1.852   5.070 -0.2170  0.0671 -0.2683
  190SAPI  H16X21958   2.083   1.777   5.054  1.2858  2.1973 -3.6886
  190SAPI  H16Y21959   2.013   1.934   4.997 -1.5032  1.3159  0.8689
  190SAPI  C31721960   1.861   1.787   5.050  0.3887 -0.1936 -0.0924
  190SAPI  H17X21961   1.790   1.853   5.104  1.2216 -0.8204  1.8864
  190SAPI  H17Y21962   1.859   1.691   5.107 -0.4632 -0.7775 -1.0532
  190SAPI  C31821963   1.827   1.779   4.901  0.3144  0.3124  0.1199
  190SAPI  H18X21964   1.722   1.743   4.895 -0.3379  2.1057  0.2572
  190SAPI  H18Y21965   1.890   1.702   4.852  1.4054  1.1300  0.2282
  190SAPI  H18Z21966   1.850   1.871   4.845  1.1037  1.1637  1.7798
  191SAPI   C1221967   1.549   5.111   3.032  0.3628 -1.0773 -1.2291
  191SAPI    H221968   1.444   5.102   3.067  0.7939  2.0260  1.3935
  191SAPI    O221969   1.626   5.169   3.139  0.1983  0.2909  0.0640
  191SAPI   HO221970   1.584   5.252   3.162 -0.6910  0.4743 -2.0447
  191SAPI   C1321971   1.591   4.975   2.984  0.5073 -0.1015  0.1887
  191SAPI    H321972   1.526   4.955   2.896  1.0589 -0.8240 -0.0650
  191SAPI    O321973   1.568   4.869   3.078  0.3283  0.6105  0.0952
  191SAPI   HO321974   1.580   4.785   3.034  1.6799  0.7928  0.0587
  191SAPI   C1421975   1.736   4.981   2.945 -0.1055 -0.0952  1.0063
  191SAPI    H421976   1.791   4.998   3.041 -1.1336 -1.6073  1.9037
  191SAPI    O421977   1.782   4.853   2.890 -0.5949 -0.8346 -0.0469
  191SAPI   HO421978   1.854   4.830   2.949 -0.0263 -0.7653 -0.7024
  191SAPI   C1521979   1.763   5.085   2.841  0.1472  0.3552  0.4618
  191SAPI    H521980   1.719   5.040   2.750  1.5876  0.0113 -0.0939
  191SAPI    O521981   1.904   5.115   2.817 -0.0412 -0.0949 -0.0164
  191SAPI   HO521982   1.948   5.048   2.764  0.8961 -0.1838  0.8421
  191SAPI   C1621983   1.683   5.213   2.858 -0.8358 -0.7652  0.4463
  191SAPI    H621984   1.738   5.287   2.920 -2.0663  0.1791  0.4475
  191SAPI    O621985   1.675   5.270   2.721 -0.3898 -0.8153 -0.1427
  191SAPI   HO621986   1.640   5.206   2.659 -3.3501  0.2646  0.2463
  191SAPI   C1121987   1.551   5.199   2.913 -0.6781 -0.0203  0.0801
  191SAPI    H121988   1.489   5.143   2.840 -0.7790 -1.2736  1.0860
  191SAPI     P21989   1.316   5.334   2.933 -0.1918  0.2161 -0.2119
  191SAPI   O1321990   1.255   5.209   2.882  0.4159 -0.4635 -0.2269
  191SAPI   O1421991   1.273   5.464   2.871 -0.1266 -0.4632 -0.3779
  191SAPI   O1221992   1.481   5.322   2.939 -0.1609 -0.1833  0.0448
  191SAPI   O1121993   1.282   5.340   3.084 -0.2226 -0.2983  0.0818
  191SAPI    C121994   1.148   5.375   3.125 -0.6093 -0.0199 -0.1867
  191SAPI    HA21995   1.103   5.468   3.083 -0.5488  0.9460  1.7344
  191SAPI    HB21996   1.080   5.293   3.095  2.2194 -1.9922 -1.5667
  191SAPI    C221997   1.145   5.371   3.275  0.4197 -0.0386 -0.6961
  191SAPI    HS21998   1.043   5.391   3.314  1.3313  1.3815  1.1491
  191SAPI   O2121999   1.241   5.455   3.344 -0.2386 -0.4175  0.7425
  191SAPI   C2122000   1.232   5.588   3.310 -0.1974 -0.5729  0.1653
  191SAPI   O2222001   1.139   5.635   3.246  0.6312  0.1811  0.2170
  191SAPI   C2222002   1.331   5.667   3.395 -0.0423 -0.3290 -0.0229
  191SAPI   H2R22003   1.331   5.627   3.498  1.8848 -2.3332 -0.7162
  191SAPI   H2S22004   1.432   5.658   3.350 -0.3195  0.8959 -0.9569
  191SAPI    C322005   1.190   5.222   3.315 -0.6747 -0.4715 -0.2374
  191SAPI    HX22006   1.296   5.227   3.281 -0.4756 -1.0519  0.2800
  191SAPI    HY22007   1.134   5.145   3.257  0.3277 -1.5164  0.1408
  191SAPI   O3122008   1.186   5.182   3.456  0.3919 -0.5321 -0.5861
  191SAPI   C3122009   1.065   5.172   3.497 -0.0552  0.6240 -0.4466
  191SAPI   O3222010   0.962   5.190   3.427 -0.7867 -0.2956  0.2482
  191SAPI   C3222011   1.067   5.138   3.652  0.5989  0.3754  0.6961
  191SAPI   H2X22012   1.145   5.200   3.700  0.5540  2.0820 -1.2914
  191SAPI   H2Y22013   1.083   5.028   3.663 -0.8865  0.3045  2.3710
  191SAPI   C2322014   1.306   5.820   3.385  0.6599 -0.0362 -0.5763
  191SAPI   H3R22015   1.198   5.846   3.395  0.9053  0.9078 -0.2330
  191SAPI   H3S22016   1.322   5.849   3.279 -2.2156  1.0351 -0.8026
  191SAPI   C2422017   1.387   5.911   3.482 -0.2454  0.4063 -0.4959
  191SAPI   H4R22018   1.492   5.876   3.473 -0.9158 -1.8966  0.0340
  191SAPI   H4S22019   1.350   5.887   3.584  1.7050 -1.8626 -0.2293
  191SAPI   C2522020   1.353   6.054   3.443  0.5309  0.1044  0.4914
  191SAPI   H5R22021   1.397   6.086   3.347  1.2035  0.6526  0.9798
  191SAPI   C2622022   1.276   6.149   3.511  0.0977  0.5012  0.6456
  191SAPI   H6R22023   1.268   6.250   3.469 -2.4143  0.4529  0.8373
  191SAPI   C2722024   1.202   6.124   3.640 -0.9082  0.6810 -0.6993
  191SAPI   H7R22025   1.164   6.020   3.647 -0.6060  0.6021 -0.1977
  191SAPI   H7S22026   1.121   6.198   3.658  1.4590  3.0014  1.2100
  191SAPI   C2822027   1.304   6.136   3.751 -0.0243 -0.6536  0.1601
  191SAPI   H8R22028   1.398   6.082   3.732  0.2721 -0.0651 -0.0735
  191SAPI   C2922029   1.288   6.203   3.861  0.0990 -0.9736 -0.5093
  191SAPI   H9R22030   1.357   6.199   3.946 -1.1120  2.7599  0.8517
  191SAPI  C21022031   1.166   6.286   3.900  0.4146  0.3184  0.2434
  191SAPI  H10R22032   1.089   6.310   3.823  0.7759  0.1004 -0.1911
  191SAPI  H10S22033   1.205   6.388   3.917 -1.0460  1.0724 -0.7004
  191SAPI  C21122034   1.099   6.229   4.023  0.4359 -0.7763  0.6118
  191SAPI  H11R22035   1.094   6.120   4.019  2.2147 -0.8592 -0.8883
  191SAPI  C21222036   1.060   6.300   4.129 -0.6952  0.0227 -0.1589
  191SAPI  H12R22037   1.028   6.247   4.220  1.6170 -0.7122  0.3048
  191SAPI  C21322038   1.072   6.448   4.148 -0.9628 -0.3522 -0.1486
  191SAPI  H13R22039   1.123   6.502   4.065 -3.2743  0.5493 -1.0460
  191SAPI  H13S22040   1.151   6.463   4.226  0.4017  0.4463 -1.6133
  191SAPI  C21422041   0.950   6.526   4.196  0.0856 -0.3483  0.0523
  191SAPI  H14R22042   0.909   6.599   4.123 -0.0777  0.1143  0.5980
  191SAPI  C21522043   0.888   6.511   4.309  0.0363  0.3340 -0.2821
  191SAPI  H15R22044   0.797   6.570   4.328  0.3021  0.2954  1.2387
  191SAPI  C21622045   0.932   6.417   4.417 -0.0375 -0.8235  0.2463
  191SAPI  H16R22046   1.030   6.367   4.402 -1.0095 -2.3913 -1.3077
  191SAPI  H16S22047   0.856   6.336   4.409 -0.6690 -0.0566 -2.4312
  191SAPI  C21722048   0.926   6.497   4.549 -0.7175 -1.2472  0.6031
  191SAPI  H17R22049   0.845   6.572   4.558  0.6183  0.8350 -2.6963
  191SAPI  H17S22050   1.020   6.554   4.559 -0.6593 -1.2975  0.3611
  191SAPI  C21822051   0.911   6.401   4.674 -0.3277 -0.0909 -0.4579
  191SAPI  H18R22052   0.923   6.465   4.764 -0.2782 -2.6251  1.4316
  191SAPI  H18S22053   0.995   6.329   4.672  1.8713  2.3489 -1.3408
  191SAPI  C21922054   0.786   6.328   4.703 -0.0536  0.1414 -0.1720
  191SAPI  H19R22055   0.781   6.255   4.619  1.2042 -0.1602 -0.0019
  191SAPI  H19S22056   0.699   6.397   4.694 -1.1933 -1.2506 -0.2681
  191SAPI  C22022057   0.780   6.254   4.834  0.4578 -0.2390  0.2498
  191SAPI  H20R22058   0.864   6.182   4.841  2.7123  2.3049  0.7466
  191SAPI  H20S22059   0.695   6.183   4.842 -1.6926  2.0492 -0.7672
  191SAPI  H20T22060   0.774   6.335   4.910 -1.1467 -0.5865  0.5301
  191SAPI   C3322061   0.934   5.176   3.722  0.2450  0.3441 -0.3553
  191SAPI   H3X22062   0.852   5.114   3.681  0.4341 -0.3446  0.2771
  191SAPI   H3Y22063   0.914   5.284   3.704  1.7882  0.5490 -0.9970
  191SAPI   C3422064   0.929   5.134   3.875  0.8423 -0.0285  0.4397
  191SAPI   H4X22065   0.988   5.209   3.932  0.6956 -1.1848  2.1831
  191SAPI   H4Y22066   0.988   5.040   3.886 -0.1707 -0.6246  0.8906
  191SAPI   C3522067   0.788   5.105   3.938 -0.3996 -0.5641  0.2279
  191SAPI   H5X22068   0.716   5.050   3.874 -1.0410 -0.0207  0.4673
  191SAPI   H5Y22069   0.747   5.208   3.952  0.8776 -0.0457  0.2494
  191SAPI   C3622070   0.790   5.027   4.073  0.1040  0.0883 -0.1898
  191SAPI   H6X22071   0.857   4.940   4.060 -0.2198  0.0421 -1.6759
  191SAPI   H6Y22072   0.686   4.999   4.099 -0.5789  1.3751 -1.4065
  191SAPI   C3722073   0.853   5.101   4.189 -0.3735  0.0904 -0.2605
  191SAPI   H7X22074   0.816   5.205   4.198  0.0862  0.1369  1.2738
  191SAPI   H7Y22075   0.964   5.100   4.178 -0.2634  0.0539  0.7604
  191SAPI   C3822076   0.842   5.020   4.320 -0.3652 -0.9537 -0.3864
  191SAPI   H8X22077   0.914   4.936   4.318 -0.5489 -1.0920 -1.6776
  191SAPI   H8Y22078   0.739   4.981   4.336 -0.5385 -0.9340 -1.4245
  191SAPI   C3922079   0.871   5.103   4.445  0.6091  0.6754  0.4752
  191SAPI   H9X22080   0.827   5.041   4.526  0.5867 -0.9420 -0.7036
  191SAPI   H9Y22081   0.814   5.198   4.444 -0.0395  0.3166  1.6222
  191SAPI  C31022082   1.020   5.116   4.477  0.3411  0.4254  0.6609
  191SAPI  H10X22083   1.069   5.172   4.395  2.2158 -1.9925  0.0147
  191SAPI  H10Y22084   1.069   5.016   4.471  0.6258  0.5222  1.3300
  191SAPI  C31122085   1.042   5.173   4.619  0.2471 -0.2793  0.5803
  191SAPI  H11X22086   0.997   5.107   4.696 -0.0343  0.5319  1.1262
  191SAPI  H11Y22087   0.989   5.270   4.628  0.5586 -0.2345  2.1154
  191SAPI  C31222088   1.190   5.201   4.669 -0.2670 -0.1466 -0.4291
  191SAPI  H12X22089   1.189   5.272   4.755  1.9479 -0.8416  0.2354
  191SAPI  H12Y22090   1.239   5.264   4.593  1.7378  1.3795  1.9604
  191SAPI  C31322091   1.262   5.073   4.712 -0.7736  0.2074 -0.3357
  191SAPI  H13X22092   1.291   5.004   4.631  1.8298 -2.0411  2.2708
  191SAPI  H13Y22093   1.199   5.008   4.777  2.6035 -2.2197  0.7894
  191SAPI  C31422094   1.382   5.123   4.795 -0.0543 -0.2463  0.7643
  191SAPI  H14X22095   1.338   5.158   4.891 -0.9897 -0.6323  0.4864
  191SAPI  H14Y22096   1.433   5.206   4.742  2.3525 -2.0374  0.1110
  191SAPI  C31522097   1.484   5.010   4.814  0.3486  0.2801  0.3730
  191SAPI  H15X22098   1.576   5.053   4.859 -0.5602  0.0227  2.5699
  191SAPI  H15Y22099   1.513   4.969   4.714  0.1629  0.7625  0.1177
  191SAPI  C31622100   1.454   4.894   4.917 -0.0036 -0.2329  0.3716
  191SAPI  H16X22101   1.358   4.847   4.888 -0.4978  0.1534  1.3308
  191SAPI  H16Y22102   1.446   4.929   5.022 -0.9773 -0.6355  0.4399
  191SAPI  C31722103   1.567   4.788   4.910  0.1605 -1.0597 -0.1943
  191SAPI  H17X22104   1.660   4.849   4.913 -0.5546  0.2204 -2.0049
  191SAPI  H17Y22105   1.559   4.743   4.808  0.4892  0.5533 -0.9761
  191SAPI  C31822106   1.558   4.689   5.027  0.4527  0.3295 -0.2889
  191SAPI  H18X22107   1.468   4.624   5.027 -0.2726  1.2302  2.2375
  191SAPI  H18Y22108   1.563   4.747   5.122 -0.5786 -1.6453  1.0414
  191SAPI  H18Z22109   1.646   4.623   5.031  0.9273  0.9894  0.4625
  192SAPI   C1222110   3.496   1.991   2.627 -0.0082 -0.0896 -0.7153
  192SAPI    H222111   3.430   2.078   2.648  2.5245  1.6394  0.6437
  192SAPI    O222112   3.432   1.909   2.523 -0.7228 -0.3319 -0.2582
  192SAPI   HO222113   3.362   1.959   2.480  0.8185  0.0354 -2.5550
  192SAPI   C1322114   3.633   2.037   2.589  0.0063 -0.7364  0.3125
  192SAPI    H322115   3.665   2.102   2.674 -0.4881  0.0970 -0.1270
  192SAPI    O322116   3.617   2.125   2.477 -0.8477  0.3333  0.5336
  192SAPI   HO322117   3.613   2.072   2.397  1.9309 -1.7548  1.6272
  192SAPI   C1422118   3.742   1.939   2.572 -0.1645  0.3052 -0.0693
  192SAPI    H422119   3.715   1.889   2.477 -0.2020 -1.2975  0.7580
  192SAPI    O422120   3.877   1.999   2.563  0.2699  0.7264 -0.2768
  192SAPI   HO422121   3.904   2.037   2.647  0.6737  0.5417 -0.3242
  192SAPI   C1522122   3.739   1.830   2.679  0.3488 -0.2788 -0.8457
  192SAPI    H522123   3.792   1.861   2.772 -1.8573 -1.7449  1.0080
  192SAPI    O522124   3.793   1.711   2.627 -0.9118 -0.0557 -0.3145
  192SAPI   HO522125   3.791   1.646   2.698 -0.5131 -0.3448 -0.5600
  192SAPI   C1622126   3.600   1.799   2.739  0.5137  0.1677  0.3111
  192SAPI    H622127   3.547   1.742   2.660  0.3065  1.6081 -0.6187
  192SAPI    O622128   3.619   1.714   2.853 -0.0981 -0.3312  0.0714
  192SAPI   HO622129   3.545   1.725   2.914 -0.7320 -0.0941 -0.7262
  192SAPI   C1122130   3.511   1.918   2.754  0.2796 -0.6990 -0.6706
  192SAPI    H122131   3.564   1.990   2.820  0.7845 -1.5401 -0.1312
  192SAPI     P22132   3.276   1.951   2.891 -0.0501  0.2077  0.3518
  192SAPI   O1322133   3.146   1.888   2.861 -0.0817  0.1276  0.3196
  192SAPI   O1422134   3.282   2.101   2.871 -0.0414  0.0785 -0.3573
  192SAPI   O1222135   3.387   1.867   2.796  0.0231 -0.6058  0.5395
  192SAPI   O1122136   3.322   1.917   3.039 -0.2225  0.2164  0.2813
  192SAPI    C122137   3.380   2.018   3.121 -0.1726 -0.1977 -0.8446
  192SAPI    HA22138   3.472   2.054   3.069  0.1042 -0.2213 -0.3835
  192SAPI    HB22139   3.320   2.107   3.150  2.2781  0.4829  2.9148
  192SAPI    C222140   3.420   1.956   3.251  0.2776 -1.0899 -0.0566
  192SAPI    HS22141   3.328   1.905   3.286 -1.0282 -0.2734 -2.1190
  192SAPI   O2122142   3.468   2.055   3.339 -0.2278 -0.0022 -0.4827
  192SAPI   C2122143   3.393   2.085   3.442 -0.6641  0.1768 -0.0312
  192SAPI   O2222144   3.292   2.024   3.477  0.3959  0.6668 -0.2688
  192SAPI   C2222145   3.450   2.208   3.501  0.1117 -0.2719  1.0167
  192SAPI   H2R22146   3.553   2.237   3.472 -0.9038  2.8742  0.0863
  192SAPI   H2S22147   3.400   2.299   3.461 -3.3272 -1.4316  2.2544
  192SAPI    C322148   3.533   1.848   3.220  0.7387 -0.2207  0.4396
  192SAPI    HX22149   3.622   1.903   3.184  0.5980 -0.3389 -0.1032
  192SAPI    HY22150   3.505   1.800   3.124  1.5360  1.2837 -0.5713
  192SAPI   O3122151   3.557   1.760   3.338  0.4582 -0.1661  0.2455
  192SAPI   C3122152   3.483   1.647   3.340  0.0160 -0.8526 -0.4096
  192SAPI   O3222153   3.393   1.622   3.266 -0.0192 -0.0270 -0.0789
  192SAPI   C3222154   3.541   1.551   3.436 -0.1343 -0.4022  0.3856
  192SAPI   H2X22155   3.639   1.590   3.471  0.2558 -1.6671  0.7706
  192SAPI   H2Y22156   3.555   1.465   3.366  0.4051  0.9580 -1.2472
  192SAPI   C2322157   3.429   2.213   3.655  0.3702 -0.7800  0.1114
  192SAPI   H3R22158   3.496   2.136   3.699  0.6749 -1.0592 -0.8247
  192SAPI   H3S22159   3.322   2.199   3.682  0.3407 -0.0195  0.4069
  192SAPI   C2422160   3.465   2.356   3.702 -0.5263 -0.1457 -0.5933
  192SAPI   H4R22161   3.435   2.370   3.808 -0.5508 -1.4460 -0.4126
  192SAPI   H4S22162   3.401   2.425   3.643 -3.2130 -1.8606  0.1044
  192SAPI   C2522163   3.612   2.379   3.692 -0.4839 -0.1335 -0.1928
  192SAPI   H5R22164   3.644   2.427   3.599  0.3496  1.4599  0.8587
  192SAPI   C2622165   3.707   2.341   3.785 -0.4224  0.0297  0.3667
  192SAPI   H6R22166   3.807   2.379   3.760 -0.9093  0.5101 -0.9633
  192SAPI   C2722167   3.699   2.280   3.922  0.1445  0.4558 -0.3998
  192SAPI   H7R22168   3.794   2.222   3.930 -1.5006 -2.9725 -2.9636
  192SAPI   H7S22169   3.618   2.203   3.922  0.3130  0.2779 -1.1051
  192SAPI   C2822170   3.675   2.377   4.041  0.0263  0.1327  0.6258
  192SAPI   H8R22171   3.632   2.473   4.008 -0.1099  0.3252  1.3620
  192SAPI   C2922172   3.725   2.368   4.166 -0.6476  0.4391  0.6217
  192SAPI   H9R22173   3.696   2.450   4.234 -1.2658 -0.4569  1.4511
  192SAPI  C21022174   3.791   2.244   4.231 -0.1550 -0.2310 -0.5480
  192SAPI  H10R22175   3.811   2.170   4.150  2.3198  0.3865 -0.5593
  192SAPI  H10S22176   3.732   2.182   4.302 -0.4672  0.3064 -0.3368
  192SAPI  C21122177   3.916   2.280   4.296  0.5726 -1.0066 -0.2181
  192SAPI  H11R22178   4.005   2.296   4.233  0.2666  0.2010 -0.3859
  192SAPI  C21222179   3.938   2.305   4.425  0.8001 -0.1194 -0.2284
  192SAPI  H12R22180   4.042   2.323   4.457  0.1176  1.2935  1.4106
  192SAPI  C21322181   3.835   2.325   4.535  0.3179  0.3752  0.0714
  192SAPI  H13R22182   3.737   2.294   4.492  1.6359 -2.4324 -1.2310
  192SAPI  H13S22183   3.807   2.427   4.568  2.1869  0.4009  1.8268
  192SAPI  C21422184   3.884   2.238   4.647  0.0909  0.3829 -0.5298
  192SAPI  H14R22185   3.886   2.131   4.624 -2.4579  0.4145 -1.2116
  192SAPI  C21522186   3.924   2.274   4.773  0.4464 -0.0498 -1.2731
  192SAPI  H15R22187   3.963   2.195   4.840 -0.6115 -0.0767 -0.6776
  192SAPI  C21622188   3.945   2.414   4.828 -0.3977  0.0827  0.2304
  192SAPI  H16R22189   3.890   2.489   4.767  2.3927  1.5769 -0.6031
  192SAPI  H16S22190   4.047   2.451   4.809  0.2640 -1.3782  0.7642
  192SAPI  C21722191   3.894   2.431   4.972  0.3696  0.9102 -0.9349
  192SAPI  H17R22192   3.791   2.391   4.990  0.6760  0.6373  0.3564
  192SAPI  H17S22193   3.888   2.539   4.995  0.3871  0.3192  2.4350
  192SAPI  C21822194   3.984   2.393   5.090 -0.2008 -0.0937  0.3819
  192SAPI  H18R22195   4.028   2.293   5.070  0.6574  0.5015 -0.8946
  192SAPI  H18S22196   3.934   2.380   5.188  2.1733 -0.2296  1.6448
  192SAPI  C21922197   4.105   2.476   5.113 -0.7840 -0.3902  0.0468
  192SAPI  H19R22198   4.072   2.579   5.138  1.5902 -0.0803  2.4317
  192SAPI  H19S22199   4.153   2.491   5.015  1.9319 -1.0452  1.1860
  192SAPI  C22022200   4.193   2.415   5.219 -0.1041  0.8649 -0.0099
  192SAPI  H20R22201   4.282   2.473   5.253  0.9733 -1.4997  1.4824
  192SAPI  H20S22202   4.217   2.309   5.195  1.6155  0.3499  3.3791
  192SAPI  H20T22203   4.134   2.411   5.314 -0.9987  1.4719 -0.5300
  192SAPI   C3322204   3.450   1.500   3.556  0.2439 -0.0064  0.0437
  192SAPI   H3X22205   3.447   1.389   3.547 -1.1489  0.0881 -0.9741
  192SAPI   H3Y22206   3.345   1.530   3.541  0.5846  0.8099 -0.8403
  192SAPI   C3422207   3.515   1.512   3.696  0.3959  0.3618  0.8366
  192SAPI   H4X22208   3.522   1.622   3.716 -1.4501  1.0459 -1.7617
  192SAPI   H4Y22209   3.619   1.471   3.691 -0.0260 -0.6643  0.2074
  192SAPI   C3522210   3.442   1.440   3.808 -0.3543  0.1443 -0.2922
  192SAPI   H5X22211   3.477   1.335   3.801  0.8911  0.5352 -0.3314
  192SAPI   H5Y22212   3.334   1.452   3.788 -0.1623  0.7904 -1.0214
  192SAPI   C3622213   3.482   1.509   3.943  0.1212 -0.5006  0.7942
  192SAPI   H6X22214   3.459   1.617   3.925 -0.6229 -0.2470  2.9370
  192SAPI   H6Y22215   3.591   1.507   3.964  0.8351  1.0140 -2.1653
  192SAPI   C3722216   3.412   1.457   4.066 -0.0916 -0.3858 -0.8658
  192SAPI   H7X22217   3.431   1.348   4.075  0.1321 -0.3886 -1.3222
  192SAPI   H7Y22218   3.302   1.460   4.055 -0.1394 -0.0583 -0.3526
  192SAPI   C3822219   3.441   1.543   4.193 -0.6102 -0.0381  0.0785
  192SAPI   H8X22220   3.397   1.641   4.164 -2.4887 -0.6812  0.5798
  192SAPI   H8Y22221   3.550   1.537   4.215 -0.3677  0.5270 -0.8675
  192SAPI   C3922222   3.354   1.486   4.305  0.1196  0.1032  0.3328
  192SAPI   H9X22223   3.339   1.376   4.312 -3.3962  0.4520 -0.0841
  192SAPI   H9Y22224   3.251   1.525   4.291  0.3714  1.0259  0.9585
  192SAPI  C31022225   3.415   1.546   4.436 -0.0851  0.1609 -0.3329
  192SAPI  H10X22226   3.404   1.656   4.429 -0.8980  0.0411 -1.2596
  192SAPI  H10Y22227   3.523   1.520   4.429 -0.0908 -0.9594  2.4215
  192SAPI  C31122228   3.336   1.496   4.561 -0.3875  0.4230  0.9264
  192SAPI  H11X22229   3.348   1.386   4.549  1.6379  0.6221  0.7756
  192SAPI  H11Y22230   3.229   1.522   4.551 -0.8487 -1.3584  0.9690
  192SAPI  C31222231   3.402   1.546   4.686 -0.8946 -0.3734 -0.6558
  192SAPI  H12X22232   3.331   1.552   4.772  0.4744 -1.8882  0.6379
  192SAPI  H12Y22233   3.423   1.653   4.665 -0.7050  0.1171  1.7356
  192SAPI  C31322234   3.523   1.470   4.736  0.2332 -0.3007 -0.6097
  192SAPI  H13X22235   3.592   1.430   4.658  1.3067 -1.7204  0.9786
  192SAPI  H13Y22236   3.479   1.379   4.781 -0.2582 -0.9007 -2.2247
  192SAPI  C31422237   3.611   1.534   4.847 -0.1847 -1.3350  0.1640
  192SAPI  H14X22238   3.684   1.454   4.875  1.6042  0.2205  0.1656
  192SAPI  H14Y22239   3.553   1.557   4.938 -1.0162  0.5259 -0.7815
  192SAPI  C31522240   3.693   1.663   4.803  0.1078  0.9007  0.6429
  192SAPI  H15X22241   3.748   1.708   4.888  2.4941 -0.7391  0.0914
  192SAPI  H15Y22242   3.625   1.740   4.761  1.5440  2.1467  0.5121
  192SAPI  C31622243   3.806   1.647   4.705  0.1082 -0.2235  0.6123
  192SAPI  H16X22244   3.766   1.577   4.628  0.0289 -0.9698  1.3082
  192SAPI  H16Y22245   3.883   1.579   4.748 -0.8508 -2.6053 -1.1981
  192SAPI  C31722246   3.860   1.754   4.616 -0.0414 -0.0372 -0.1902
  192SAPI  H17X22247   3.939   1.714   4.549  1.0197  1.3898  0.1549
  192SAPI  H17Y22248   3.916   1.825   4.681  1.3463  0.3378 -1.7304
  192SAPI  C31822249   3.761   1.828   4.532 -0.3666 -0.5446  0.1034
  192SAPI  H18X22250   3.732   1.773   4.440  1.5080 -0.8758 -0.3349
  192SAPI  H18Y22251   3.807   1.919   4.488 -1.3331  0.5529  1.3242
  192SAPI  H18Z22252   3.673   1.858   4.592 -0.5350  1.7774 -1.1975
  193SOD    SOD22253   6.509   0.648   0.980  0.0476 -0.6816 -0.0856
  194SOD    SOD22254   0.827   4.541   2.887 -0.0016 -0.1374 -0.0040
  195SOD    SOD22255   0.048   5.396   3.467 -0.0862 -0.2093  0.6728
  196SOD    SOD22256   1.874   0.914   8.414  0.8427  0.1004 -0.2557
  197SOD    SOD22257   6.390   4.886   7.723 -0.2034  0.1607  0.3202
  198SOD    SOD22258   3.865   6.285   8.126  0.0530  0.8727  0.6574
  199SOD    SOD22259   5.610   4.886   3.436  0.5574 -0.3856 -0.2071
  200SOD    SOD22260   1.288   5.214   7.556  0.3850  0.9267 -0.2222
  201SOD    SOD22261   4.108   4.782   8.022 -0.3012 -0.1665 -0.6592
  202SOD    SOD22262   0.240   0.421   1.747 -0.9391  0.3069  0.1097
  203SOD    SOD22263   1.372   3.090   0.951  0.1087 -0.2152  0.0050
  204SOD    SOD22264   0.022   2.557   2.044 -0.2319 -0.0725  0.0946
  205SOD    SOD22265   4.796   3.787   8.020 -0.3586 -0.0026 -0.2450
  206SOD    SOD22266   0.926   4.314   1.111 -0.5657 -0.1492  0.1213
  207SOD    SOD22267   1.436   0.558   8.220 -0.3091 -0.4786  0.1876
  208SOD    SOD22268   6.263   0.436   1.577 -0.1118 -0.0890  0.6372
  209SOD    SOD22269   0.203   4.999   2.613 -0.1332 -0.0057 -0.0199
  210SOD    SOD22270   2.934   4.664   2.255 -0.2907  0.0771  0.0946
  211SOD    SOD22271   0.304   0.424   8.525  0.7568  0.2312  0.4873
  212SOD    SOD22272   3.280   3.301   8.228 -0.4270  0.3673 -0.2452
  213SOD    SOD22273   6.778   1.766   2.558 -0.8370 -0.0816 -0.0864
  214SOD    SOD22274   5.866   3.072   0.934 -0.0180 -0.0529 -0.1645
  215SOD    SOD22275   2.276   4.406   2.410  0.2178 -0.2171  0.3933
  216SOD    SOD22276   4.738   6.488   2.541 -0.0552  0.1648  0.0784
  217SOD    SOD22277   5.740   5.535   3.225  0.2284 -0.2203  0.1190
  218SOD    SOD22278   2.469   4.661   1.396  0.1365 -0.3476 -0.2511
  219SOD    SOD22279   5.128   2.172   2.687 -0.0151 -0.0731 -0.1511
  220SOD    SOD22280   0.452   4.454   2.208 -0.5509 -0.1883  0.1190
  221SOD    SOD22281   4.279   5.460   1.764 -0.1596  0.1332  0.0899
  222SOD    SOD22282   3.183   5.884   1.477 -0.0644 -0.2879 -0.2927
  223SOD    SOD22283   2.395   5.846   8.214  0.5573 -0.5721  0.7155
  224SOD    SOD22284   5.929   1.032   3.164 -0.0553  1.1278  0.1485
  225SOD    SOD22285   4.945   0.785   7.614  0.1096  0.4763 -0.3375
  226SOD    SOD22286   2.547   1.925   7.466 -0.0582  0.0761 -0.0554
  227SOD    SOD22287   3.781   0.759   0.488 -0.1177  0.4214  0.1860
  228SOD    SOD22288   2.841   0.768   1.698  0.1096  0.0670  0.1572
  229SOD    SOD22289   1.804   6.298   7.765 -0.1452 -0.1828 -0.3434
  230SOD    SOD22290   2.162   5.657   7.572  0.0602  0.4005 -0.3889
  231SOD    SOD22291   3.311   1.918   8.400 -0.1696  0.7088  0.3497
  232SOD    SOD22292   6.507   6.215   1.552 -0.2455 -0.4772 -0.3417
  233SOD    SOD22293   5.035   2.935   1.691  0.1465 -0.4852 -0.0493
  234CLA    CLA22294   5.665   6.197   1.130 -0.0611 -0.4713  0.1533
  235CLA    CLA22295   6.024   0.748   1.467 -0.0444 -0.0484  0.2146
  236CLA    CLA22296   1.377   3.346   8.292 -0.1793 -0.0025 -0.2979
  237CLA    CLA22297   6.265   1.329   2.055 -0.0457 -0.3642  0.0187
  238CLA    CLA22298   3.835   5.540   2.093 -0.2265 -0.0459 -0.0037
  239CLA    CLA22299   1.325   4.202   1.253  0.0306  0.1287  0.1165
  240CLA    CLA22300   4.904   2.274   1.406 -0.0891 -0.1206  0.1895
  241CLA    CLA22301   4.387   6.563   1.440  0.2534 -0.0594  0.2353
  242CLA    CLA22302   4.533   3.854   1.589  0.2943  0.2121 -0.4929
  243CLA    CLA22303   4.606   1.628   1.077  0.0177  0.2707  0.1432
  244CLA    CLA22304   5.401   0.985   0.480 -0.4337  0.0342  0.0237
  245CLA    CLA22305   0.544   6.042   1.828  0.2560  0.5759  0.3052
  246CLA    CLA22306   2.489   3.597   0.271  0.0601 -0.1716 -0.1238
  247CLA    CLA22307   3.288   3.372   7.973  0.7952 -0.3553 -0.0759
  248CLA    CLA22308   5.985   6.002   1.882 -0.3115  0.5513  0.1761
  249CLA    CLA22309   5.614   2.391   0.133  0.0845  0.0379 -0.2603
  250CLA    CLA22310   2.655   6.568   1.766 -0.4944 -0.2629  0.2310
  251TIP3   OH222311   0.665   0.432   2.121 -0.3369  0.1130  0.0274
  251TIP3    H122312   0.636   0.422   2.031 -1.7681  0.5124  0.4249
  251TIP3    H222313   0.735   0.368   2.131  1.0824  1.2390 -1.8622
  252TIP3   OH222314   0.455   0.388   7.908 -0.4807 -0.2555  0.2519
  252TIP3    H122315   0.466   0.388   7.813  1.3422 -2.0383  0.3920
  252TIP3    H222316   0.544   0.381   7.943 -1.2234 -1.8554  2.0166
  253TIP3   OH222317   5.395   1.034   7.621 -0.2803 -0.1712  0.4976
  253TIP3    H122318   5.490   1.020   7.618 -0.5843 -2.3668 -0.3133
  253TIP3    H222319   5.378   1.099   7.552  0.5685 -0.0702  0.3726
  254TIP3   OH222320   4.796   4.797   2.149  0.0910  0.5343 -0.0120
  254TIP3    H122321   4.867   4.741   2.118  0.0853  1.1116 -1.1343
  254TIP3    H222322   4.830   4.838   2.228  0.0083 -1.1955  0.9734
  255TIP3   OH222323   5.671   0.502   2.098  0.6129 -0.0309  0.5435
  255TIP3    H122324   5.650   0.518   2.189 -1.1284  0.2368  0.1282
  255TIP3    H222325   5.742   0.564   2.078  0.2878  0.6421  1.4330
  256TIP3   OH222326   5.254   0.662   8.708  0.2736  0.2429  0.6171
  256TIP3    H122327   5.307   0.742   8.701  0.4578  0.1554  0.9559
  256TIP3    H222328   5.270   0.631   8.797  1.3179 -0.9378  0.0510
  257TIP3   OH222329   4.334   0.422   8.729 -0.5940 -0.6871  0.5865
  257TIP3    H122330   4.244   0.388   8.736 -0.0648 -1.7697  3.6288
  257TIP3    H222331   4.373   0.403   8.814  2.5160 -0.1039 -0.6043
  258TIP3   OH222332   2.817   0.942   1.532 -0.2595  0.0552 -0.1365
  258TIP3    H122333   2.829   1.032   1.563 -0.3381  0.1029 -0.2423
  258TIP3    H222334   2.795   0.952   1.440  0.9645 -0.1320 -0.4650
  259TIP3   OH222335   2.221   1.556   8.216 -0.1123  0.2946 -0.2760
  259TIP3    H122336   2.161   1.630   8.210 -0.8427 -0.1119  1.3762
  259TIP3    H222337   2.191   1.495   8.148 -2.3023 -0.3513  1.1582
  260TIP3   OH222338   4.382   5.309   8.764  0.0057  0.2885 -0.0407
  260TIP3    H122339   4.300   5.351   8.789 -0.1336 -0.8087  1.4748
  260TIP3    H222340   4.371   5.289   8.671 -1.6251 -0.1873  0.2196
  261TIP3   OH222341   5.595   3.284   2.326  0.1410 -0.1276  0.0335
  261TIP3    H122342   5.552   3.332   2.256 -0.6499 -1.4430 -0.4142
  261TIP3    H222343   5.684   3.319   2.328  0.3099 -0.3665 -1.9232
  262TIP3   OH222344   6.502   0.909   2.097 -0.0604 -0.2155 -0.3669
  262TIP3    H122345   6.417   0.937   2.132  0.0263 -0.8660  0.3786
  262TIP3    H222346   6.542   0.990   2.065  0.2660  0.5961  1.8944
  263TIP3   OH222347   6.233   3.209   1.219 -0.3738 -0.0917 -0.0673
  263TIP3    H122348   6.216   3.295   1.258  1.5341 -0.4509  1.7347
  263TIP3    H222349   6.300   3.170   1.275  0.6796 -1.7336 -2.3117
  264TIP3   OH222350   1.452   0.676   3.250 -0.0149  0.2561 -0.0993
  264TIP3    H122351   1.457   0.753   3.193 -3.0002  0.7791  0.1942
  264TIP3    H222352   1.518   0.692   3.317  2.3252  0.4903 -2.3059
  265TIP3   OH222353   4.644   2.196   8.743  0.0084 -0.4301 -0.4076
  265TIP3    H122354   4.674   2.117   8.787 -0.7087 -0.8688 -0.6741
  265TIP3    H222355   4.550   2.199   8.761 -0.2406 -0.4355 -1.5869
  266TIP3   OH222356   4.441   5.811   1.426 -0.0170  0.4322  0.1060
  266TIP3    H122357   4.475   5.897   1.399 -0.8398  0.9266  0.5911
  266TIP3    H222358   4.357   5.831   1.468 -1.0029 -0.7588 -1.2167
  267TIP3   OH222359   4.151   0.122   2.733  0.0457  0.2313 -0.0487
  267TIP3    H122360   4.191   0.155   2.814 -1.2142  0.5646  0.4733
  267TIP3    H222361   4.056   0.130   2.749 -0.2593 -1.3156 -0.8943
  268TIP3   OH222362   2.433   3.811   7.959 -0.4757  0.1764 -0.5613
  268TIP3    H122363   2.507   3.766   7.917  0.4783  0.3639  0.8604
  268TIP3    H222364   2.427   3.895   7.913  1.9405  1.2945  0.9693
  269TIP3   OH222365   1.915   6.695   1.936 -0.5413 -0.4215 -0.4730
  269TIP3    H122366   1.912   6.706   1.841 -0.7770  1.5963 -0.2800
  269TIP3    H222367   1.905   6.784   1.970  3.1463 -0.5614  1.4010
  270TIP3   OH222368   2.335   2.202   1.390  0.0243  0.0261  0.4637
  270TIP3    H122369   2.250   2.187   1.432 -0.6710  0.4647 -0.7153
  270TIP3    H222370   2.375   2.115   1.385 -0.1131 -0.1092  1.5044
  271TIP3   OH222371   0.829   0.787   1.185 -0.0341  0.2321 -0.6252
  271TIP3    H122372   0.813   0.758   1.095  0.3416 -0.0128 -0.6097
  271TIP3    H222373   0.864   0.876   1.175  0.4063  0.0470 -0.7390
  272TIP3   OH222374   4.621   3.752   0.717  0.2475  0.3451 -0.0982
  272TIP3    H122375   4.579   3.814   0.776 -1.2498  0.9700 -1.7336
  272TIP3    H222376   4.550   3.693   0.690  0.9108  0.0061 -1.1620
  273TIP3   OH222377   6.434   1.144   0.704 -0.5201 -0.3381  0.2373
  273TIP3    H122378   6.476   1.059   0.688 -0.5309 -0.1742 -0.7112
  273TIP3    H222379   6.392   1.166   0.621 -1.3119  0.1640  0.7599
  274TIP3   OH222380   1.628   4.880   0.787  0.3282 -0.2072  0.2394
  274TIP3    H122381   1.721   4.873   0.809  0.4685  0.1060 -0.2241
  274TIP3    H222382   1.617   4.821   0.712  0.5417  1.0099 -0.8033
  275TIP3   OH222383   1.352   0.425   0.583  0.5026 -0.1268 -0.5979
  275TIP3    H122384   1.372   0.363   0.653 -0.9816  0.7658  0.6746
  275TIP3    H222385   1.303   0.495   0.626  0.5284  1.0151 -2.3376
  276TIP3   OH222386   3.900   3.921   1.122 -0.3175  0.0218  0.4207
  276TIP3    H122387   3.986   3.962   1.112 -0.9068  0.9458 -1.2445
  276TIP3    H222388   3.912   3.857   1.192  2.0655 -0.7430 -0.5786
  277TIP3   OH222389   1.302   4.056   0.468 -0.0836  0.2690  0.5490
  277TIP3    H122390   1.381   4.014   0.435 -0.1740  0.1650  0.4641
  277TIP3    H222391   1.275   4.115   0.397 -1.5712 -1.6173 -0.5579
  278TIP3   OH222392   1.260   2.175   1.857  0.0173 -0.3762  0.0051
  278TIP3    H122393   1.289   2.245   1.915  0.8647  1.3241 -2.3473
  278TIP3    H222394   1.339   2.144   1.814 -0.7813 -0.3769 -1.5351
  279TIP3   OH222395   1.419   1.065   8.320 -0.8702 -0.5198  0.4668
  279TIP3    H122396   1.383   1.018   8.244  0.7317 -0.0172 -0.6514
  279TIP3    H222397   1.403   1.157   8.301  0.4277 -0.3241  0.2237
  280TIP3   OH222398   0.373   5.003   1.682 -0.1991 -0.2355  0.3540
  280TIP3    H122399   0.301   4.947   1.652 -2.2996  2.5795 -0.1818
  280TIP3    H222400   0.450   4.970   1.635 -1.4523 -2.2042 -0.4378
  281TIP3   OH222401   5.182   5.601   2.594  0.0042  1.0497 -0.2430
  281TIP3    H122402   5.270   5.569   2.574 -0.3426  0.1002 -0.2865
  281TIP3    H222403   5.194   5.694   2.614  1.3356  0.5161  1.7579
  282TIP3   OH222404   3.025   0.379   1.135 -0.1194 -0.2036  0.0518
  282TIP3    H122405   2.989   0.368   1.223  0.3298 -0.3777  0.2186
  282TIP3    H222406   3.113   0.342   1.141 -0.3821 -0.9670 -0.6888
  283TIP3   OH222407   4.852   4.503   2.286  0.5105  0.0869  0.2390
  283TIP3    H122408   4.858   4.407   2.288  1.0677  0.0836 -0.8231
  283TIP3    H222409   4.764   4.521   2.253  0.0200 -0.0329  1.4331
  284TIP3   OH222410   0.569   5.954   7.944 -0.1893 -0.1430  0.4422
  284TIP3    H122411   0.617   5.947   7.861  0.8375 -0.0782  1.0152
  284TIP3    H222412   0.556   5.863   7.971 -1.0940 -0.1809 -0.1036
  285TIP3   OH222413   2.284   3.014   2.658 -0.3797  0.0844  0.1056
  285TIP3    H122414   2.203   3.007   2.707 -1.6210  0.4053 -1.7717
  285TIP3    H222415   2.323   2.927   2.661 -0.6659 -0.0175  1.1959
  286TIP3   OH222416   6.631   4.277   2.532  0.2676 -0.2338 -0.3058
  286TIP3    H122417   6.571   4.242   2.467  0.3242 -2.2992  0.6655
  286TIP3    H222418   6.606   4.233   2.614  0.0221  2.4486  1.1840
  287TIP3   OH222419   4.730   1.235   8.012  1.0025 -0.3674 -0.4754
  287TIP3    H122420   4.694   1.267   7.930  0.5439  1.6305  0.4197
  287TIP3    H222421   4.823   1.259   8.008  1.3308 -1.6616 -1.0189
  288TIP3   OH222422   6.173   6.675   2.586  0.2263  0.9122  0.2151
  288TIP3    H122423   6.266   6.659   2.604 -0.3092 -0.9632  1.6516
  288TIP3    H222424   6.136   6.699   2.671 -0.4601  2.5937 -0.5278
  289TIP3   OH222425   6.336   4.557   2.225  0.3600  0.2107  0.1667
  289TIP3    H122426   6.346   4.640   2.273 -1.1545  0.9040 -0.6604
  289TIP3    H222427   6.242   4.546   2.215  0.5383 -1.5863  0.1638
  290TIP3   OH222428   5.859   5.113   2.520  0.4132  0.3276  0.1309
  290TIP3    H122429   5.853   5.084   2.429  0.3711  0.7909 -0.0179
  290TIP3    H222430   5.907   5.195   2.516 -1.2912  1.3895  0.2803
  291TIP3   OH222431   4.131   0.034   0.062  0.0126 -0.3109  0.7437
  291TIP3    H122432   4.133  -0.031  -0.009  0.2108  0.2146  0.2578
  291TIP3    H222433   4.057   0.009   0.116 -1.3726  0.4020 -0.7340
  292TIP3   OH222434   4.656   0.544   0.939  0.4481  0.2719 -0.3836
  292TIP3    H122435   4.685   0.458   0.908  0.0669  0.0510 -0.1333
  292TIP3    H222436   4.563   0.547   0.916  0.8330  1.3222 -1.9570
  293TIP3   OH222437   3.860   2.629   1.356  0.7079 -0.1061  0.1045
  293TIP3    H122438   3.864   2.725   1.357 -0.0860 -0.0244 -1.3508
  293TIP3    H222439   3.951   2.601   1.366  0.7819  0.7163  2.4676
  294TIP3   OH222440   1.377   1.586   8.706  0.6303  0.3761  0.2326
  294TIP3    H122441   1.325   1.642   8.650  1.8563  0.9460 -0.3851
  294TIP3    H222442   1.352   1.610   8.795  0.9782  1.7833 -0.0232
  295TIP3   OH222443   2.650   6.280   1.234 -0.7590  0.0938  0.2943
  295TIP3    H122444   2.651   6.271   1.329 -1.6788  1.8170  0.4987
  295TIP3    H222445   2.703   6.207   1.203 -1.6498 -1.3790  2.0417
  296TIP3   OH222446   2.458   5.958   7.771  0.1045 -0.0845  0.7141
  296TIP3    H122447   2.405   5.987   7.697 -1.5672  0.7740  2.1712
  296TIP3    H222448   2.485   5.869   7.749 -0.5417  0.0794 -0.8035
  297TIP3   OH222449   3.234   4.665   8.785  0.2472  0.0872 -0.5586
  297TIP3    H122450   3.213   4.579   8.821 -0.5496 -0.6705 -2.6664
  297TIP3    H222451   3.165   4.723   8.817 -1.6779 -1.0333 -2.4609
  298TIP3   OH222452   3.909   1.155   2.471  0.1792  0.2997  0.7504
  298TIP3    H122453   3.891   1.073   2.426  0.5013 -0.1937  1.4937
  298TIP3    H222454   3.936   1.216   2.402 -1.6566  0.2893 -0.0340
  299TIP3   OH222455   3.598   1.774   0.485 -0.7949 -0.7200 -0.1967
  299TIP3    H122456   3.578   1.710   0.554 -0.6556 -0.4275  0.1155
  299TIP3    H222457   3.517   1.780   0.435 -1.8870  1.1852  1.6437
  300TIP3   OH222458   0.377   6.448   2.077  0.7401 -0.1370 -0.3827
  300TIP3    H122459   0.430   6.385   2.029 -0.7791 -2.7460  1.1691
  300TIP3    H222460   0.291   6.446   2.034  0.4062  0.1427  0.2504
  301TIP3   OH222461   1.132   0.701   8.724 -0.3476 -0.7123 -0.4691
  301TIP3    H122462   1.098   0.720   8.811  2.2758  1.7401  0.1737
  301TIP3    H222463   1.079   0.755   8.665 -1.4160 -1.5397 -0.2891
  302TIP3   OH222464   5.775   4.941   2.732 -0.1256 -1.2500 -0.0178
  302TIP3    H122465   5.694   4.991   2.740  0.2331 -0.7056  0.2665
  302TIP3    H222466   5.819   4.978   2.656  0.1918 -1.0554  0.2564
  303TIP3   OH222467   0.474   3.977   8.722  0.0779 -0.3531  0.4484
  303TIP3    H122468   0.439   4.049   8.671  0.1388 -0.4249  0.3059
  303TIP3    H222469   0.412   3.966   8.794 -1.4229 -1.9547 -1.0110
  304TIP3   OH222470   1.212   5.880   8.214  0.1824  0.2853 -0.3730
  304TIP3    H122471   1.158   5.909   8.288 -0.0033  0.2416 -0.4894
  304TIP3    H222472   1.153   5.887   8.138  0.0612 -0.6139 -0.3724
  305TIP3   OH222473   0.159   6.458   7.543  0.6551  0.0555 -0.0298
  305TIP3    H122474   0.162   6.368   7.509  0.8426 -0.2786  0.8486
  305TIP3    H222475   0.103   6.504   7.481 -1.1972 -1.1784  0.6259
  306TIP3   OH222476   3.883   1.510   8.085 -0.4603 -0.4964  0.2186
  306TIP3    H122477   3.963   1.469   8.117  1.0352  0.0258 -2.4887
  306TIP3    H222478   3.840   1.442   8.033 -1.2671 -0.4734  0.8434
  307TIP3   OH222479   3.697   6.291   8.294  0.4331  0.3283 -0.0288
  307TIP3    H122480   3.602   6.279   8.284  0.4812 -0.2207  0.1476
  307TIP3    H222481   3.711   6.290   8.388  0.5573  0.8780 -0.0410
  308TIP3   OH222482   0.706   2.635   8.123 -0.0637 -0.2308  0.0567
  308TIP3    H122483   0.758   2.555   8.121  0.1114 -0.1279  0.4410
  308TIP3    H222484   0.727   2.676   8.207 -0.6169 -0.0906  0.1304
  309TIP3   OH222485   2.092   6.628   2.133 -0.6619 -0.5200  0.2881
  309TIP3    H122486   2.040   6.629   2.053 -0.3100 -1.0164  0.0542
  309TIP3    H222487   2.029   6.648   2.202 -1.2651 -1.5972  0.0637
  310TIP3   OH222488   1.066   3.754   1.394 -0.3384 -0.0591  0.3999
  310TIP3    H122489   1.138   3.697   1.421 -0.8008 -0.1586  1.4599
  310TIP3    H222490   1.056   3.816   1.466  0.4952  1.7339 -0.9510
  311TIP3   OH222491   6.043   3.055   3.230  0.3062  0.1330  0.3192
  311TIP3    H122492   6.110   3.035   3.296 -0.4748 -0.5660  0.9266
  311TIP3    H222493   6.027   2.971   3.186 -0.3995  0.2165  0.4087
  312TIP3   OH222494   4.756   4.562   1.408 -0.2042  0.4755 -0.0915
  312TIP3    H122495   4.757   4.535   1.500 -0.6427 -0.5560 -0.3769
  312TIP3    H222496   4.694   4.635   1.405  0.2959  0.9486  0.5272
  313TIP3   OH222497   5.197   2.402   8.155  0.2714 -0.2081  0.5269
  313TIP3    H122498   5.150   2.324   8.126 -1.4377  0.4523  1.3410
  313TIP3    H222499   5.215   2.386   8.248  1.8929 -0.5292  0.1817
  314TIP3   OH222500   2.997   0.974   2.442 -0.2256 -0.1148 -0.1597
  314TIP3    H122501   2.903   0.968   2.423 -0.7172  1.8185  1.3215
  314TIP3    H222502   3.002   0.979   2.537  1.1731  2.1081 -0.2864
  315TIP3   OH222503   3.289   1.798   1.487  0.6390  0.3737 -0.1944
  315TIP3    H122504   3.226   1.726   1.498  1.2501  0.1731  2.9550
  315TIP3    H222505   3.362   1.758   1.440 -1.3750  0.5996 -3.9031
  316TIP3   OH222506   1.215   0.026   7.115 -0.3202 -0.2349 -0.1586
  316TIP3    H122507   1.285  -0.016   7.164 -0.0794 -0.2480 -0.5090
  316TIP3    H222508   1.257   0.058   7.035 -1.0982 -2.0416 -1.3539
  317TIP3   OH222509   0.238   4.104   1.333  0.0159 -0.0015  0.0552
  317TIP3    H122510   0.212   4.194   1.351 -0.0708  0.0497 -0.3109
  317TIP3    H222511   0.208   4.054   1.408  0.3200  0.3235  0.3947
  318TIP3   OH222512   0.213   1.443   1.141  0.3769  0.3574  0.0476
  318TIP3    H122513   0.157   1.392   1.200  2.5546 -1.4346  0.7042
  318TIP3    H222514   0.249   1.512   1.196  0.9611 -0.1978  0.3823
  319TIP3   OH222515   5.546   5.397   2.809 -0.4622 -0.4930  0.5458
  319TIP3    H122516   5.553   5.492   2.804 -0.4815 -0.5601 -1.8009
  319TIP3    H222517   5.455   5.381   2.835 -0.2140  0.1194  1.8283
  320TIP3   OH222518   1.040   3.695   0.186  0.9038 -0.1861 -0.7272
  320TIP3    H122519   0.953   3.655   0.194  1.2592 -0.8980 -0.2871
  320TIP3    H222520   1.096   3.643   0.244  1.5143  0.5959 -0.5951
  321TIP3   OH222521   0.605   3.145   7.364 -0.0034 -0.3392 -0.2639
  321TIP3    H122522   0.622   3.215   7.300 -1.7903  1.2818  0.9457
  321TIP3    H222523   0.691   3.105   7.377  1.1330  1.6714 -0.9683
  322TIP3   OH222524   3.375   0.162   2.455  0.2322 -0.4415  0.1282
  322TIP3    H122525   3.400   0.091   2.514  1.4423 -0.1044  0.0518
  322TIP3    H222526   3.339   0.229   2.513 -0.7804 -1.0457  0.2161
  323TIP3   OH222527   5.057   6.547   0.710 -0.2461  0.1002 -0.2570
  323TIP3    H122528   5.003   6.574   0.636  0.1734 -3.1730 -1.9746
  323TIP3    H222529   5.147   6.563   0.681 -0.1077  2.4317  1.2357
  324TIP3   OH222530   0.362   3.034   2.432  0.2053  0.2920 -0.2963
  324TIP3    H122531   0.409   3.071   2.358 -1.5697  1.2949 -0.9937
  324TIP3    H222532   0.381   2.940   2.429  0.4560  0.3716 -1.7949
  325TIP3   OH222533   5.952   5.477   3.320 -0.7736 -0.3715  0.0933
  325TIP3    H122534   6.021   5.411   3.316  0.0046  0.4688 -0.3661
  325TIP3    H222535   5.971   5.526   3.400 -0.4844  0.2547 -0.3620
  326TIP3   OH222536   5.314   1.549   1.613 -0.0104  0.0329 -0.2465
  326TIP3    H122537   5.407   1.535   1.630 -0.3451 -0.8456  0.9375
  326TIP3    H222538   5.313   1.609   1.538  1.5097  1.0926  0.5156
  327TIP3   OH222539   5.441   3.876   1.219 -0.0622 -0.0170  0.2997
  327TIP3    H122540   5.527   3.886   1.260  1.1281 -0.6896 -1.9002
  327TIP3    H222541   5.391   3.823   1.281  0.9092  0.7881  1.8429
  328TIP3   OH222542   1.804   6.720   0.883  0.3704  0.2656 -0.2558
  328TIP3    H122543   1.721   6.673   0.875 -0.2404  0.9969  1.2032
  328TIP3    H222544   1.863   6.659   0.927  1.0807 -0.7426 -2.4923
  329TIP3   OH222545   5.774   4.064   2.948  0.1670  0.4233  0.0895
  329TIP3    H122546   5.861   4.024   2.950  0.2861  0.6952  1.0019
  329TIP3    H222547   5.789   4.153   2.916  0.1947  0.3917  0.0157
  330TIP3   OH222548   6.799   5.498   2.721 -0.6147  0.2790  0.4910
  330TIP3    H122549   6.891   5.483   2.698 -0.4410 -1.5905  2.0867
  330TIP3    H222550   6.803   5.554   2.799 -0.8375  0.3577  0.4468
  331TIP3   OH222551   4.098   5.997   8.534 -0.3219  0.4750  1.0011
  331TIP3    H122552   4.118   5.906   8.512 -1.2497  0.1636  1.4053
  331TIP3    H222553   4.047   5.992   8.615 -2.0995  1.1997 -0.0134
  332TIP3   OH222554   5.204   3.984   7.165 -0.2418 -0.4128 -0.1062
  332TIP3    H122555   5.238   4.064   7.125 -1.7151 -0.3789 -1.3622
  332TIP3    H222556   5.257   3.914   7.128 -0.6201 -0.2352 -1.0133
  333TIP3   OH222557   4.598   5.711   8.105 -0.0203 -0.3941  0.5853
  333TIP3    H122558   4.586   5.805   8.097  1.7822 -0.3171 -3.2739
  333TIP3    H222559   4.677   5.702   8.159 -1.3166  0.1088  2.6877
  334TIP3   OH222560   0.201   1.037   0.868  0.3068 -0.3180 -0.3598
  334TIP3    H122561   0.259   1.102   0.908  0.6049 -0.1108 -1.1023
  334TIP3    H222562   0.229   1.033   0.777  0.9872 -2.2543 -0.1167
  335TIP3   OH222563   6.184   6.271   2.328  0.3322  0.4788 -0.3545
  335TIP3    H122564   6.135   6.212   2.272  2.3569 -1.6042 -0.1200
  335TIP3    H222565   6.275   6.240   2.322  0.9837  1.5220  2.3278
  336TIP3   OH222566   1.327   0.400   1.134 -0.3136  0.1429  0.3926
  336TIP3    H122567   1.320   0.429   1.225  3.4943  0.0560  0.8574
  336TIP3    H222568   1.372   0.472   1.089  2.8106 -1.8985 -0.0515
  337TIP3   OH222569   0.957   3.099   7.763 -0.3766 -0.2578 -0.5448
  337TIP3    H122570   0.896   3.163   7.725 -1.1217 -1.4650 -1.4645
  337TIP3    H222571   0.936   3.097   7.856  0.7247  1.9548 -0.1853
  338TIP3   OH222572   5.306   6.312   1.858  0.4213  0.1451  0.2386
  338TIP3    H122573   5.259   6.273   1.784 -0.6565 -1.0877  1.5214
  338TIP3    H222574   5.311   6.405   1.836 -2.9314  0.4212  0.1196
  339TIP3   OH222575   2.228   2.116   8.377  0.2278  0.2540 -0.5908
  339TIP3    H122576   2.323   2.127   8.377  0.0271  2.9482  0.5885
  339TIP3    H222577   2.201   2.148   8.291  0.3770 -0.7325 -1.0156
  340TIP3   OH222578   6.533   0.966   8.406  0.3836  0.3266  0.6151
  340TIP3    H122579   6.626   0.988   8.400  0.3356  1.2418  2.4896
  340TIP3    H222580   6.493   1.041   8.451 -1.5315  0.5790 -1.2949
  341TIP3   OH222581   5.183   6.294   7.097 -0.6257 -0.2228  0.3715
  341TIP3    H122582   5.170   6.206   7.133 -1.3471 -0.5256 -0.5862
  341TIP3    H222583   5.135   6.351   7.157  0.8030 -0.3192  1.6549
  342TIP3   OH222584   1.936   1.162   1.107  0.1544  0.1748  0.1994
  342TIP3    H122585   1.967   1.185   1.195 -0.2421  0.0885  0.3631
  342TIP3    H222586   1.970   1.231   1.051  3.6807 -1.6647 -0.2411
  343TIP3   OH222587   1.073   0.506   1.060  0.4184 -0.2555 -0.3607
  343TIP3    H122588   1.097   0.588   1.104  1.8737  0.4276 -2.3077
  343TIP3    H222589   1.110   0.438   1.115 -0.7252  0.3346  1.2427
  344TIP3   OH222590   4.709   4.959   2.486 -0.3825  0.5331 -0.5211
  344TIP3    H122591   4.713   5.028   2.552 -1.2539  2.1836 -2.1097
  344TIP3    H222592   4.675   5.002   2.408 -0.2361 -1.5455 -1.8129
  345TIP3   OH222593   5.051   3.555   1.909 -0.1323  0.2348 -0.2336
  345TIP3    H122594   5.006   3.481   1.868 -0.2537 -0.7881  1.6019
  345TIP3    H222595   5.027   3.631   1.856 -1.8612 -0.7086 -0.8781
  346TIP3   OH222596   1.247   5.088   0.459  0.3934 -0.4113 -0.0154
  346TIP3    H122597   1.174   5.125   0.410 -0.8298 -2.7877 -0.1465
  346TIP3    H222598   1.232   5.117   0.549 -0.8711 -1.0342 -0.0020
  347TIP3   OH222599   5.065   3.423   8.722 -0.1147 -0.0669 -0.0569
  347TIP3    H122600   5.036   3.513   8.734  1.7606  0.6713 -0.6550
  347TIP3    H222601   5.063   3.410   8.627 -0.3496 -0.6542  0.0272
  348TIP3   OH222602   4.036   1.337   2.285  0.6232 -0.1425 -0.5651
  348TIP3    H122603   4.125   1.367   2.306  0.4784  0.1727 -0.3941
  348TIP3    H222604   4.001   1.404   2.227  0.4952 -0.2691 -0.6358
  349TIP3   OH222605   2.885   0.403   2.694  0.3787  0.2198  0.4195
  349TIP3    H122606   2.940   0.324   2.687 -1.2769 -0.9336 -0.3352
  349TIP3    H222607   2.796   0.371   2.679 -0.1867  2.5330 -1.8123
  350TIP3   OH222608   5.027   5.125   1.245 -0.0534 -0.2536 -0.1370
  350TIP3    H122609   4.960   5.071   1.203 -0.6155 -2.3663  3.0967
  350TIP3    H222610   4.987   5.212   1.251 -0.2518 -0.0295 -2.9556
  351TIP3   OH222611   4.090   2.787   1.178  0.0914  0.2140 -0.1863
  351TIP3    H122612   4.130   2.809   1.262 -0.2299 -0.8732  0.2648
  351TIP3    H222613   4.003   2.827   1.181  0.4502  1.0337 -0.4264
  352TIP3   OH222614   4.922   1.511   1.176  0.2838  0.0764  0.3595
  352TIP3    H122615   4.844   1.464   1.206  0.2053  0.4752  0.7755
  352TIP3    H222616   4.903   1.532   1.084  1.0124 -2.1987 -0.3971
  353TIP3   OH222617   3.072   6.808   3.345  0.4962  0.1774 -0.0820
  353TIP3    H122618   3.042   6.757   3.419 -0.1771 -0.2774 -0.6556
  353TIP3    H222619   3.079   6.745   3.273  0.1811  0.7854 -0.6573
  354TIP3   OH222620   6.704   2.748   0.704 -0.2262  0.6034  0.0019
  354TIP3    H122621   6.673   2.829   0.746  0.2189  0.5593  0.4272
  354TIP3    H222622   6.626   2.693   0.698 -0.8928  1.6756 -1.7844
  355TIP3   OH222623   0.457   6.207   0.158 -0.1944 -0.5094  0.4589
  355TIP3    H122624   0.366   6.217   0.131 -0.0129  2.2503  0.6111
  355TIP3    H222625   0.508   6.221   0.078  0.1532 -1.0002  0.5832
  356TIP3   OH222626   5.485   6.608   0.803  0.0696 -0.4111 -0.1242
  356TIP3    H122627   5.499   6.525   0.848  0.4361 -0.9450 -1.1822
  356TIP3    H222628   5.527   6.674   0.858 -0.9685 -0.7895  1.1616
  357TIP3   OH222629   3.175   3.654   7.835 -0.1354 -0.4224 -0.4563
  357TIP3    H122630   3.237   3.668   7.907  0.5205 -0.7079 -0.9594
  357TIP3    H222631   3.142   3.565   7.849 -0.0349 -0.4653 -0.4925
  358TIP3   OH222632   2.218   4.195   0.933 -0.0367  0.1413 -0.5979
  358TIP3    H122633   2.299   4.145   0.946 -1.1630 -1.0548  3.1093
  358TIP3    H222634   2.150   4.129   0.922 -0.7191  1.1126 -2.5572
  359TIP3   OH222635   2.419   1.875   0.094 -0.4774 -0.0031 -0.3628
  359TIP3    H122636   2.393   1.791   0.132  0.7659 -0.2616 -0.0418
  359TIP3    H222637   2.495   1.854   0.040 -0.1725  0.9174 -0.3033
  360TIP3   OH222638   5.755   6.180   2.450 -0.2352 -0.5000 -0.1643
  360TIP3    H122639   5.832   6.157   2.399 -0.9929  1.2758 -2.2409
  360TIP3    H222640   5.783   6.254   2.504 -0.5282  0.3569 -1.1575
  361TIP3   OH222641   0.576   0.137   1.835  0.1589 -0.5530 -0.3941
  361TIP3    H122642   0.501   0.188   1.808  0.7337  0.0500 -0.8843
  361TIP3    H222643   0.648   0.168   1.779  0.9852 -0.4538  0.6813
  362TIP3   OH222644   3.999   3.295   0.863 -0.3587 -0.3205 -0.4501
  362TIP3    H122645   3.957   3.336   0.939 -0.5532  0.9713 -1.2432
  362TIP3    H222646   3.996   3.201   0.883  1.2951  0.0687  2.0061
  363TIP3   OH222647   4.755   1.020   8.623 -0.6939 -0.2104  0.3583
  363TIP3    H122648   4.714   0.977   8.547  0.6215 -2.1752  0.6754
  363TIP3    H222649   4.814   0.954   8.658  0.0442  1.2820  2.0651
  364TIP3   OH222650   2.255   0.943   1.680  0.0912  0.8011 -0.1478
  364TIP3    H122651   2.334   0.984   1.645  0.6704  0.6550  0.9464
  364TIP3    H222652   2.241   0.986   1.764 -0.8813  0.6722 -0.2316
  365TIP3   OH222653   0.965   2.366   0.201  0.4246  0.1319 -0.3558
  365TIP3    H122654   0.895   2.414   0.244  2.0094  2.1452  0.1099
  365TIP3    H222655   0.928   2.338   0.117 -1.1898  0.3362  0.2654
  366TIP3   OH222656   3.255   6.622   1.917  0.0162 -0.7827  0.8414
  366TIP3    H122657   3.192   6.663   1.858  1.0436  0.3709  0.4946
  366TIP3    H222658   3.233   6.529   1.914  0.3636 -0.8814 -1.8681
  367TIP3   OH222659   4.073   6.460   1.192 -0.0788  0.1574 -0.5727
  367TIP3    H122660   4.037   6.428   1.109 -0.6131  0.9220 -0.6456
  367TIP3    H222661   4.049   6.553   1.194 -0.5086  0.0266  0.6775
  368TIP3   OH222662   2.731   0.024   2.192  0.2701  0.2639  0.3699
  368TIP3    H122663   2.672   0.049   2.263  0.1582  1.4247 -0.1018
  368TIP3    H222664   2.681  -0.041   2.142  1.0834 -2.0447  2.3849
  369TIP3   OH222665   0.505   1.504   7.665  0.5473  0.0633 -0.2738
  369TIP3    H122666   0.588   1.548   7.647  0.0083  1.4742  0.5488
  369TIP3    H222667   0.462   1.498   7.580  0.7908  0.8055 -0.4507
  370TIP3   OH222668   1.696   4.464   0.590  0.4626 -0.3850  0.5876
  370TIP3    H122669   1.684   4.552   0.554  0.9195 -0.1982  0.8938
  370TIP3    H222670   1.729   4.412   0.516 -1.5601 -0.7718 -0.1271
  371TIP3   OH222671   4.185   1.986   8.714 -0.2478  0.1006 -0.1380
  371TIP3    H122672   4.177   1.971   8.620 -0.1991 -2.6184  0.1837
  371TIP3    H222673   4.250   1.921   8.743  1.7477  2.6209  1.4251
  372TIP3   OH222674   1.055   4.336   1.374  0.2562 -0.7257 -0.6435
  372TIP3    H122675   1.140   4.318   1.334  1.3675 -1.6466  1.8697
  372TIP3    H222676   1.037   4.258   1.427 -0.9121  0.4914  0.8630
  373TIP3   OH222677   3.507   0.282   2.240 -0.3452  0.2191  0.0137
  373TIP3    H122678   3.535   0.373   2.250 -2.8796  1.0908 -0.1316
  373TIP3    H222679   3.480   0.256   2.328 -0.5017 -0.0751 -0.1215
  374TIP3   OH222680   5.201   5.903   1.506 -0.3158  0.4452 -0.4777
  374TIP3    H122681   5.264   5.958   1.554  1.0059  0.1302 -1.7910
  374TIP3    H222682   5.117   5.923   1.547  0.8641 -0.8301  2.9387
  375TIP3   OH222683   3.397   4.193   1.316 -0.3471 -0.4041  0.8348
  375TIP3    H122684   3.390   4.261   1.250 -2.8688 -0.6313  0.7725
  375TIP3    H222685   3.356   4.116   1.277 -1.1454 -0.7817  2.3149
  376TIP3   OH222686   5.852   0.837   0.330 -0.1856 -0.2113 -0.6742
  376TIP3    H122687   5.791   0.834   0.404 -0.7727  1.7298 -1.0349
  376TIP3    H222688   5.796   0.839   0.253  0.2595  1.8685 -1.0081
  377TIP3   OH222689   6.508   5.108   2.214  0.3534 -0.3951 -0.1258
  377TIP3    H122690   6.575   5.079   2.153  1.4256  0.8097  0.4195
  377TIP3    H222691   6.496   5.034   2.274 -0.1534 -1.2907 -1.3088
  378TIP3   OH222692   3.043   3.271   2.281  0.1972  0.2594 -0.1473
  378TIP3    H122693   3.045   3.327   2.359 -1.8848 -0.2127  0.3123
  378TIP3    H222694   3.047   3.331   2.207 -1.9933  1.0684  0.3360
  379TIP3   OH222695   5.794   4.970   2.281  0.0843  0.8256  0.0432
  379TIP3    H122696   5.823   4.957   2.190 -1.9841 -2.0516 -0.3196
  379TIP3    H222697   5.851   4.913   2.332 -0.7050  0.1228  0.1488
  380TIP3   OH222698   6.419   4.815   1.970 -0.0206  0.4910  0.0281
  380TIP3    H122699   6.327   4.817   1.993  0.0286  0.9392  0.2020
  380TIP3    H222700   6.448   4.727   1.993  0.3031  1.2492  2.7937
  381TIP3   OH222701   2.064   5.670   2.459  0.2414 -0.1130 -0.4307
  381TIP3    H122702   2.085   5.740   2.398  0.0375 -0.5164 -0.9694
  381TIP3    H222703   1.968   5.666   2.459  0.2127  0.3247  0.4241
  382TIP3   OH222704   4.720   0.582   1.250  0.3445 -0.5107  0.1080
  382TIP3    H122705   4.812   0.599   1.228 -0.0293  1.8290  0.1209
  382TIP3    H222706   4.683   0.544   1.171  0.8938  0.3142 -0.5672
  383TIP3   OH222707   4.207   5.762   8.475 -0.6449  0.2798 -0.5859
  383TIP3    H122708   4.288   5.800   8.510 -1.5291  0.5991  1.2493
  383TIP3    H222709   4.179   5.700   8.542 -1.7079 -0.1216 -1.3759
  384TIP3   OH222710   1.615   3.963   2.165  0.0969  0.0888 -0.0218
  384TIP3    H122711   1.645   3.894   2.225 -1.8225  0.6496  1.6649
  384TIP3    H222712   1.687   4.026   2.164 -0.0448  0.3484  2.1707
  385TIP3   OH222713   5.344   1.868   3.350  0.3607 -0.1131  0.1238
  385TIP3    H122714   5.270   1.884   3.410  0.5160  1.9279 -0.1563
  385TIP3    H222715   5.308   1.885   3.263  0.5277 -1.6312 -0.2780
  386TIP3   OH222716   5.072   2.526   1.455  0.1305 -0.1397 -0.3626
  386TIP3    H122717   5.019   2.446   1.463 -1.4358  0.8493 -0.4134
  386TIP3    H222718   5.082   2.538   1.360 -0.5682  0.2914 -0.3901
  387TIP3   OH222719   1.694   3.024   1.879  0.0468 -0.0639 -0.1472
  387TIP3    H122720   1.785   3.052   1.871  0.1592  0.2060  1.5251
  387TIP3    H222721   1.645   3.105   1.895 -0.0543 -0.4311  1.7112
  388TIP3   OH222722   2.427   1.494   2.684 -0.1398 -0.3125  0.1345
  388TIP3    H122723   2.463   1.549   2.614 -0.4888  0.1656  0.3247
  388TIP3    H222724   2.499   1.435   2.708  0.1780 -0.0662 -0.2067
  389TIP3   OH222725   4.186   5.058   7.757 -0.2110 -0.6699 -0.2859
  389TIP3    H122726   4.186   5.129   7.693 -1.7033 -0.7328 -0.3832
  389TIP3    H222727   4.215   5.099   7.838  0.3449 -0.2777 -0.6772
  390TIP3   OH222728   1.793   2.634   0.032  0.2533 -0.0558 -0.0634
  390TIP3    H122729   1.704   2.636   0.066 -0.1079  0.2254 -0.9847
  390TIP3    H222730   1.842   2.695   0.087 -0.4120  0.6971 -0.2816
  391TIP3   OH222731   5.827   5.720   3.467 -0.2735  0.1274 -0.2337
  391TIP3    H122732   5.852   5.706   3.558  0.0564 -3.4618 -0.7457
  391TIP3    H222733   5.903   5.765   3.428  0.0574  0.6566  0.9862
  392TIP3   OH222734   5.224   0.702   1.054 -0.3492  0.3690 -0.1138
  392TIP3    H122735   5.319   0.695   1.060 -0.3609 -0.2678 -0.5519
  392TIP3    H222736   5.208   0.740   0.967 -0.5159 -0.3129 -0.3889
  393TIP3   OH222737   6.215   4.302   8.508 -0.1877  0.0884 -0.7062
  393TIP3    H122738   6.246   4.346   8.428 -0.6249 -1.0137 -1.5056
  393TIP3    H222739   6.282   4.237   8.527 -0.4844 -0.1953 -0.6342
  394TIP3   OH222740   3.814   2.832   7.912 -0.1957  0.2144  0.3014
  394TIP3    H122741   3.726   2.845   7.945 -0.4605 -1.5258  0.3687
  394TIP3    H222742   3.868   2.821   7.990 -0.2533 -0.5992  0.2326
  395TIP3   OH222743   2.304   2.716   1.453 -0.0445  0.0965 -0.9791
  395TIP3    H122744   2.236   2.783   1.445 -0.2951 -0.0524 -0.1180
  395TIP3    H222745   2.367   2.753   1.514  0.3373 -0.0303 -1.2926
  396TIP3   OH222746   4.828   3.053   1.695 -0.1300  0.1732  0.4861
  396TIP3    H122747   4.769   3.073   1.623  1.4225  1.3716 -0.5362
  396TIP3    H222748   4.793   3.101   1.769 -0.0170  1.5503 -0.3186
  397TIP3   OH222749   0.319   2.653   2.792  0.7332 -0.0793  0.4877
  397TIP3    H122750   0.413   2.654   2.775  0.6639 -0.0335  0.0968
  397TIP3    H222751   0.291   2.743   2.779  0.9888  0.3715  2.7053
  398TIP3   OH222752   5.128   1.410   0.798 -0.2797  0.2822 -0.8180
  398TIP3    H122753   5.132   1.343   0.730 -2.8540 -0.2350 -0.5564
  398TIP3    H222754   5.083   1.367   0.871  1.2107  1.2389  0.7512
  399TIP3   OH222755   5.541   5.941   8.273 -0.0686 -0.3103 -0.9552
  399TIP3    H122756   5.453   5.955   8.237  0.5265 -0.2078 -2.4743
  399TIP3    H222757   5.528   5.933   8.367 -1.6548  0.1345 -1.1076
  400TIP3   OH222758   4.079   3.304   8.635 -0.6632 -0.2791  0.9275
  400TIP3    H122759   4.145   3.249   8.678 -0.7053  0.2994  1.7602
  400TIP3    H222760   4.128   3.380   8.604 -0.6872 -0.5528  0.1933
  401TIP3   OH222761   4.785   1.091   3.111 -0.2721  0.1108 -0.3129
  401TIP3    H122762   4.829   1.135   3.183 -0.3686 -0.2062 -0.0571
  401TIP3    H222763   4.814   1.000   3.117 -0.5668  0.0057 -0.4446
  402TIP3   OH222764   1.056   1.026   1.554  0.0528  0.3144  0.2943
  402TIP3    H122765   1.066   1.009   1.647 -0.3442 -0.9151  0.1207
  402TIP3    H222766   1.089   0.947   1.510 -3.9470 -1.1753 -0.4672
  403TIP3   OH222767   0.614   4.067   7.760  0.0786 -0.0986  0.3802
  403TIP3    H122768   0.612   3.971   7.769 -0.8255 -0.2874 -1.4802
  403TIP3    H222769   0.693   4.084   7.708 -0.5745  0.0292 -0.5792
  404TIP3   OH222770   0.402   3.212   7.522 -0.0261 -0.1867  0.0429
  404TIP3    H122771   0.465   3.186   7.454 -0.9667 -0.6906 -0.6540
  404TIP3    H222772   0.446   3.284   7.568  1.7766 -1.6197  0.6945
  405TIP3   OH222773   3.515   2.323   2.164  0.0181  0.2855  0.6194
  405TIP3    H122774   3.470   2.342   2.247  0.5974  1.5266  0.6864
  405TIP3    H222775   3.471   2.378   2.100  0.7149  0.6935  0.4744
  406TIP3   OH222776   1.924   2.678   2.526  0.0394 -0.1820  0.0334
  406TIP3    H122777   1.966   2.721   2.600  0.0747 -2.0261  1.1464
  406TIP3    H222778   1.970   2.594   2.518 -0.0097 -0.0619 -2.0503
  407TIP3   OH222779   1.481   4.909   8.015  0.1225  0.0973 -0.1910
  407TIP3    H122780   1.509   4.822   7.987 -0.3564 -0.1525  0.0849
  407TIP3    H222781   1.510   4.968   7.946  1.4798 -0.1211  0.1686
  408TIP3   OH222782   2.549   5.603   0.708  0.5063  0.1595  0.0080
  408TIP3    H122783   2.554   5.645   0.794 -0.6600 -1.0284  0.6995
  408TIP3    H222784   2.490   5.658   0.657 -3.0948 -1.7240  1.7059
  409TIP3   OH222785   1.896   2.985   1.074 -0.3871 -0.0628 -0.0484
  409TIP3    H122786   1.960   2.915   1.074  0.2475  0.4979  0.6003
  409TIP3    H222787   1.887   3.010   1.166 -0.1596  1.0773 -0.3086
  410TIP3   OH222788   4.346   6.331   2.753  0.4916 -0.4122  0.8243
  410TIP3    H122789   4.253   6.320   2.770  0.1656  0.1542 -0.4750
  410TIP3    H222790   4.384   6.244   2.766 -0.6855 -1.3101 -1.3461
  411TIP3   OH222791   1.839   2.360   1.836 -0.1784  0.2691  0.2024
  411TIP3    H122792   1.780   2.285   1.845 -2.2063  1.4885 -1.8147
  411TIP3    H222793   1.907   2.345   1.901  0.1243 -3.8402 -0.7968
  412TIP3   OH222794   4.352   1.246   1.099  0.0376 -0.6312 -0.3685
  412TIP3    H122795   4.388   1.239   1.011  0.3079 -0.1745 -0.2987
  412TIP3    H222796   4.337   1.155   1.126  0.2583 -0.7862 -0.7573
  413TIP3   OH222797   4.963   3.974   7.551 -0.2358 -0.4283  0.4775
  413TIP3    H122798   5.029   4.030   7.509 -0.2002 -0.1299  0.9210
  413TIP3    H222799   5.010   3.894   7.573 -0.0700 -0.2901  0.6233
  414TIP3   OH222800   0.048   3.752   1.012 -0.2483 -0.0542 -0.1951
  414TIP3    H122801  -0.027   3.706   1.049  0.9366 -1.4383  0.5836
  414TIP3    H222802   0.112   3.683   0.992  0.5435  1.0025 -1.5344
  415TIP3   OH222803   5.254   6.121   0.920 -0.0586  0.2391 -0.1731
  415TIP3    H122804   5.260   6.082   1.007  3.1048 -0.3036 -0.5098
  415TIP3    H222805   5.219   6.209   0.935  2.2067  0.9102  1.9965
  416TIP3   OH222806   5.700   2.196   0.374  0.4008  0.2324  0.1631
  416TIP3    H122807   5.659   2.247   0.304 -0.4506  1.9118  1.8249
  416TIP3    H222808   5.640   2.122   0.387  0.9223 -0.4897 -1.3014
  417TIP3   OH222809   3.313   3.643   7.551 -0.4230  0.2518  0.2094
  417TIP3    H122810   3.376   3.587   7.507  1.2355  1.3251  1.1107
  417TIP3    H222811   3.241   3.584   7.576  0.0847 -0.9464 -1.0519
  418TIP3   OH222812   0.949   0.464   1.585 -0.0040  0.3250 -0.1480
  418TIP3    H122813   1.008   0.458   1.660 -0.6025  0.1886  0.3251
  418TIP3    H222814   0.962   0.552   1.550 -0.2117  0.6282  0.5312
  419TIP3   OH222815   5.389   6.279   3.447 -0.0707 -0.2806 -0.5691
  419TIP3    H122816   5.431   6.327   3.375 -0.3362  0.6704 -0.1059
  419TIP3    H222817   5.461   6.233   3.491  0.5876  1.6324  0.4469
  420TIP3   OH222818   1.443   4.569   1.952  0.4120 -0.3341 -0.2224
  420TIP3    H122819   1.413   4.479   1.968  1.2525 -0.3240  1.7097
  420TIP3    H222820   1.416   4.617   2.029  1.4727  0.6862 -0.4658
  421TIP3   OH222821   1.001   5.251   2.657 -0.2539 -0.2774  0.0484
  421TIP3    H122822   1.020   5.344   2.649 -0.6933 -0.2942 -1.6120
  421TIP3    H222823   1.081   5.207   2.630 -0.2366 -0.3842  0.2695
  422TIP3   OH222824   3.866   5.055   8.291  0.0999  0.4282  0.3996
  422TIP3    H122825   3.834   5.128   8.344 -1.6638 -0.1829  0.2527
  422TIP3    H222826   3.789   5.027   8.240  0.8303 -1.2680  0.1541
  423TIP3   OH222827   6.015   4.990   0.618  0.2605  0.0030  0.2394
  423TIP3    H122828   6.046   4.969   0.529 -0.6785  0.7993 -0.2976
  423TIP3    H222829   6.063   5.069   0.642  0.1811  0.0487  0.2506
  424TIP3   OH222830   4.157   3.089   1.827  0.0994 -0.6643 -0.8019
  424TIP3    H122831   4.164   3.107   1.733  0.1335 -1.2499 -0.9113
  424TIP3    H222832   4.242   3.114   1.863 -1.0312  3.1937 -0.2901
  425TIP3   OH222833   1.806   3.149   0.593 -0.3331  0.2486  0.5868
  425TIP3    H122834   1.747   3.223   0.576 -0.2801  1.1085  3.5396
  425TIP3    H222835   1.771   3.109   0.673  3.0970  0.9328  2.6419
  426TIP3   OH222836   2.092   0.060   2.523 -0.5946 -0.0347 -0.4157
  426TIP3    H122837   2.008   0.076   2.479 -0.9556 -1.1238 -0.1598
  426TIP3    H222838   2.070   0.051   2.616 -0.1215  0.1580 -0.2791
  427TIP3   OH222839   1.302   3.138   1.617  0.7200  0.4872  0.3651
  427TIP3    H122840   1.245   3.157   1.691  1.1823  1.4872  0.4938
  427TIP3    H222841   1.293   3.044   1.602 -1.3713  0.6955  0.0250
  428TIP3   OH222842   0.883   6.047   0.048 -1.1432  0.1524  0.0819
  428TIP3    H122843   0.889   6.023   0.140  0.8937 -0.6912 -0.2089
  428TIP3    H222844   0.874   6.142   0.048  2.5768  0.6793  1.1895
  429TIP3   OH222845   0.055   0.700   0.188 -0.4087 -0.2850  0.3280
  429TIP3    H122846  -0.038   0.709   0.169 -0.2710  0.4974  0.0125
  429TIP3    H222847   0.072   0.606   0.179 -1.6087 -0.7756  2.4465
  430TIP3   OH222848   6.703   0.216   8.413 -0.4085  0.4601 -0.1793
  430TIP3    H122849   6.707   0.129   8.373  0.2343  1.4176 -2.4233
  430TIP3    H222850   6.610   0.236   8.418 -0.5264  0.3441 -1.4259
  431TIP3   OH222851   5.476   0.453   1.523  0.3017  0.4361  0.1313
  431TIP3    H122852   5.529   0.464   1.602  0.4804 -0.0915  0.0936
  431TIP3    H222853   5.423   0.375   1.542 -1.0529  1.4098  0.4918
  432TIP3   OH222854   5.147   0.869   7.561  0.5245 -0.3024  0.8116
  432TIP3    H122855   5.166   0.812   7.487  0.7994  1.3609 -0.4539
  432TIP3    H222856   5.233   0.898   7.592  0.3569  0.4453  0.5988
  433TIP3   OH222857   2.870   1.033   0.668  0.6296  0.2131 -0.0646
  433TIP3    H122858   2.788   1.038   0.717 -0.4517 -0.6039 -1.7038
  433TIP3    H222859   2.900   0.943   0.680  0.7601  0.2268 -0.2676
  434TIP3   OH222860   2.471   5.535   7.263  0.1782  0.0945 -0.4467
  434TIP3    H122861   2.379   5.513   7.249  0.1725  0.1210 -0.4515
  434TIP3    H222862   2.477   5.557   7.356  0.3600 -0.7882 -0.2399
  435TIP3   OH222863   4.814   4.701   2.565  0.1969  0.4741 -0.2817
  435TIP3    H122864   4.785   4.789   2.542 -0.3832  0.9818  2.1807
  435TIP3    H222865   4.907   4.700   2.545  0.4576  2.0434  0.7512
  436TIP3   OH222866   0.322   0.503   8.735  0.8181 -0.0700  0.6970
  436TIP3    H122867   0.229   0.520   8.746  1.0221  1.4680  0.3237
  436TIP3    H222868   0.347   0.452   8.812 -0.0329  0.7690  1.5472
  437TIP3   OH222869   0.285   0.205   8.584 -0.7172  0.0193  0.2802
  437TIP3    H122870   0.241   0.139   8.637  0.7820  0.1341  1.7412
  437TIP3    H222871   0.375   0.172   8.574 -0.4157  0.9965 -0.4514
  438TIP3   OH222872   2.288   1.939   1.383  0.3424  0.1774 -0.7534
  438TIP3    H122873   2.341   1.859   1.385  0.1965  0.0778  0.7523
  438TIP3    H222874   2.252   1.945   1.472 -2.1938  0.2394 -1.7234
  439TIP3   OH222875   0.553   4.825   2.447  0.5667 -0.5997 -0.0924
  439TIP3    H122876   0.504   4.842   2.527  1.3935 -0.1691  0.3316
  439TIP3    H222877   0.551   4.908   2.399 -1.2131 -1.2558 -1.2645
  440TIP3   OH222878   4.829   1.434   1.895 -0.0302  0.5315 -0.0743
  440TIP3    H122879   4.867   1.497   1.833 -0.5574  1.1360  0.2004
  440TIP3    H222880   4.794   1.364   1.840 -0.4781  1.0536 -0.4639
  441TIP3   OH222881   1.081   2.609   2.524  0.3839  0.0066  0.0091
  441TIP3    H122882   1.020   2.576   2.458 -0.6782  1.0775  0.4159
  441TIP3    H222883   1.088   2.537   2.588 -0.6906 -0.0371  0.0989
  442TIP3   OH222884   5.480   4.483   0.106 -0.1465  0.4530 -0.1736
  442TIP3    H122885   5.475   4.400   0.154  0.8536  1.2527  1.3894
  442TIP3    H222886   5.557   4.474   0.050  0.7437  0.7977  0.9714
  443TIP3   OH222887   5.053   0.403   1.362  0.1082 -0.2472  0.7994
  443TIP3    H122888   5.064   0.367   1.274  0.0052 -0.4227  0.8558
  443TIP3    H222889   5.012   0.489   1.348  1.3068  0.3101  0.6086
  444TIP3   OH222890   2.995   4.737   0.120  0.4638 -0.3314 -0.4945
  444TIP3    H122891   2.928   4.786   0.167  1.5899 -1.4568  2.4947
  444TIP3    H222892   2.946   4.673   0.069 -0.8053 -1.1665  1.6626
  445TIP3   OH222893   5.056   3.113   0.944 -0.2673  0.4151  0.2655
  445TIP3    H122894   5.094   3.059   0.874  1.2729  0.9792  0.6159
  445TIP3    H222895   4.970   3.138   0.911  0.3674  0.5588 -1.3920
  446TIP3   OH222896   1.400   5.853   1.622 -0.5834  0.2446 -0.0166
  446TIP3    H122897   1.310   5.859   1.654 -0.6953  0.8389 -0.4217
  446TIP3    H222898   1.429   5.766   1.648 -0.2948  1.0442  2.6697
  447TIP3   OH222899   1.418   2.564   0.130 -0.5615  0.2790  0.4319
  447TIP3    H122900   1.490   2.517   0.172  0.9125  1.4686 -0.6526
  447TIP3    H222901   1.340   2.538   0.179  0.2997 -2.5230  0.4776
  448TIP3   OH222902   0.152   2.145   2.622  0.2687  0.4593 -0.2949
  448TIP3    H122903   0.183   2.229   2.657  0.8548  0.1734 -0.1091
  448TIP3    H222904   0.067   2.165   2.583 -0.7613  0.6923  1.8827
  449TIP3   OH222905   3.519   2.436   6.720 -0.6190  0.4806  0.3231
  449TIP3    H122906   3.528   2.511   6.779  0.7547 -0.5671  1.5332
  449TIP3    H222907   3.434   2.398   6.743 -0.8566  1.0529  0.4297
  450TIP3   OH222908   2.421   2.361   7.393  0.2388 -0.7239 -0.1389
  450TIP3    H122909   2.385   2.334   7.308 -1.3615 -1.7121  0.8102
  450TIP3    H222910   2.355   2.421   7.429  0.4340 -1.0739  0.8219
  451TIP3   OH222911   0.661   3.046   7.701  0.5029  0.5108  0.2127
  451TIP3    H122912   0.705   3.127   7.675  0.5974 -0.1378 -1.7911
  451TIP3    H222913   0.633   3.006   7.619  0.3889 -1.4597  1.1468
  452TIP3   OH222914   1.251   1.021   6.970  0.1399  0.0880 -0.0204
  452TIP3    H122915   1.194   0.944   6.980  1.0381 -0.7995 -1.3755
  452TIP3    H222916   1.226   1.079   7.042  0.0700 -1.8692  1.6073
  453TIP3   OH222917   4.310   5.059   2.139 -0.1767 -0.0258  0.2839
  453TIP3    H122918   4.258   5.085   2.063  2.6966  0.4162 -1.6983
  453TIP3    H222919   4.320   4.965   2.130  1.2690  0.1940 -0.7235
  454TIP3   OH222920   4.943   6.737   1.811  0.0851  0.2497  0.1034
  454TIP3    H122921   4.947   6.733   1.907 -1.1048 -0.0238  0.1626
  454TIP3    H222922   5.001   6.809   1.787  1.0505 -0.2159  0.9659
  455TIP3   OH222923   5.016   5.132   8.547  0.1351 -0.1010  0.1555
  455TIP3    H122924   5.058   5.059   8.593 -1.7069 -1.2705  0.1070
  455TIP3    H222925   5.022   5.206   8.607  0.9220 -0.6299  0.7468
  456TIP3   OH222926   5.028   5.531   1.551  0.3983 -0.4538  0.2026
  456TIP3    H122927   5.033   5.585   1.472  0.0545  0.9952  1.1325
  456TIP3    H222928   5.119   5.504   1.567  0.5927 -0.0816 -0.2329
  457TIP3   OH222929   0.496   2.833   8.510  0.1632 -0.2786  0.9528
  457TIP3    H122930   0.401   2.822   8.501  0.1312 -0.0171  0.9683
  457TIP3    H222931   0.507   2.892   8.584  0.2566  1.2705 -0.2424
  458TIP3   OH222932   0.628   4.553   7.993  0.0622  0.4815  0.4149
  458TIP3    H122933   0.622   4.600   7.910  0.7675 -0.5039 -0.2179
  458TIP3    H222934   0.669   4.469   7.971 -0.1639  0.0030  1.6836
  459TIP3   OH222935   2.085   3.930   1.755 -0.9366  0.4415 -0.5014
  459TIP3    H122936   2.059   3.849   1.800 -0.0244  0.5854  0.3363
  459TIP3    H222937   2.180   3.928   1.757 -0.9036  1.7853 -0.0065
  460TIP3   OH222938   1.479   6.015   3.098 -0.1330  0.6146 -0.4823
  460TIP3    H122939   1.518   5.989   3.014  0.2201  1.1795 -0.4988
  460TIP3    H222940   1.456   6.107   3.085  0.4583  0.8672  0.2401
  461TIP3   OH222941   1.835   2.774   8.317 -0.1826 -0.1866 -0.6399
  461TIP3    H122942   1.840   2.727   8.233  0.2574 -2.6483  0.6593
  461TIP3    H222943   1.924   2.770   8.352 -0.8372 -1.6024  1.0751
  462TIP3   OH222944   2.848   5.945   3.129  0.0400  0.6136 -0.1302
  462TIP3    H122945   2.778   5.933   3.193  1.1254 -0.4951  0.9131
  462TIP3    H222946   2.878   6.035   3.143  0.2370  0.3998  0.9246
  463TIP3   OH222947   1.451   6.543   8.549  0.2865 -0.3662  0.5701
  463TIP3    H122948   1.407   6.599   8.613 -0.7876 -1.4733  0.8618
  463TIP3    H222949   1.472   6.463   8.598 -1.1351 -1.4976 -0.5688
  464TIP3   OH222950   2.673   4.276   1.594 -0.0701 -0.0183 -0.6373
  464TIP3    H122951   2.753   4.247   1.639  0.9643  1.6419 -1.3237
  464TIP3    H222952   2.665   4.217   1.519 -0.5453 -1.3554  0.4193
  465TIP3   OH222953   3.131   0.601   2.603 -0.4525  0.7078 -0.7864
  465TIP3    H122954   3.197   0.615   2.671  0.4723 -3.2691 -0.5994
  465TIP3    H222955   3.048   0.622   2.646  0.2192 -0.3653  1.1560
  466TIP3   OH222956   6.686   6.401   0.195  0.4488  0.0738 -0.7295
  466TIP3    H122957   6.638   6.481   0.171 -0.9466 -0.7389 -0.7509
  466TIP3    H222958   6.666   6.339   0.125  2.5562  0.0668 -1.3849
  467TIP3   OH222959   6.339   3.080   1.465 -0.1387  0.2172  0.2394
  467TIP3    H122960   6.302   3.125   1.541 -0.9935  2.8498 -1.5810
  467TIP3    H222961   6.274   3.013   1.443 -0.8939  0.7841  0.6628
  468TIP3   OH222962   3.766   1.494   1.090 -0.6474  0.0623 -0.4644
  468TIP3    H122963   3.688   1.439   1.079  0.1225 -0.7172 -2.5492
  468TIP3    H222964   3.780   1.533   1.004  1.8851 -0.6930 -0.4644
  469TIP3   OH222965   2.484   2.942   0.706 -0.6060 -0.4195 -0.3410
  469TIP3    H122966   2.484   3.037   0.711 -0.8827 -0.4518  0.5092
  469TIP3    H222967   2.412   2.921   0.647  0.3598 -0.0702 -1.6725
  470TIP3   OH222968   6.190   0.720   1.945 -0.2689  0.2510  0.3913
  470TIP3    H122969   6.145   0.638   1.925 -0.7050  0.3688  0.8740
  470TIP3    H222970   6.128   0.788   1.920 -0.1920  0.4231  0.6701
  471TIP3   OH222971   1.399   2.123   7.666 -0.2058 -0.9293  0.4061
  471TIP3    H122972   1.380   2.038   7.625 -0.0480 -0.4384 -0.7000
  471TIP3    H222973   1.486   2.146   7.635 -1.1731  0.7489 -1.2505
  472TIP3   OH222974   2.379   3.357   2.595 -0.4643 -0.1717  0.1308
  472TIP3    H122975   2.424   3.439   2.613 -0.5312  0.3397 -1.8584
  472TIP3    H222976   2.327   3.340   2.674  1.5162  0.3198  1.6225
  473TIP3   OH222977   3.636   4.971   7.848 -0.3994 -0.0104 -0.0339
  473TIP3    H122978   3.616   5.063   7.833  0.1088 -0.0623 -1.0980
  473TIP3    H222979   3.729   4.962   7.825 -0.3793 -0.7335  0.2909
  474TIP3   OH222980   5.229   2.641   1.939 -0.6741  0.4987  0.4118
  474TIP3    H122981   5.157   2.584   1.911  0.1294 -0.0642 -0.5769
  474TIP3    H222982   5.302   2.581   1.955 -0.3569  1.0807  1.2281
  475TIP3   OH222983   6.690   4.042   3.596 -0.3249 -0.5077  0.4104
  475TIP3    H122984   6.623   4.049   3.528 -0.8549 -1.6671  0.7971
  475TIP3    H222985   6.706   3.949   3.605  0.3156 -0.3211  1.3265
  476TIP3   OH222986   5.058   4.187   2.368  0.4484 -0.1217 -0.2948
  476TIP3    H122987   5.065   4.273   2.409  1.6550 -0.1599 -0.3826
  476TIP3    H222988   5.045   4.127   2.441  2.0214 -0.1214  0.0220
  477TIP3   OH222989   2.563   3.855   0.471 -0.3381  0.3620 -0.3350
  477TIP3    H122990   2.517   3.846   0.554 -2.0316  2.1461 -1.0149
  477TIP3    H222991   2.540   3.777   0.421  1.1979 -1.0377  1.0398
  478TIP3   OH222992   2.616   3.488   2.357 -0.4694  0.8128  0.5290
  478TIP3    H122993   2.581   3.541   2.428  0.1867  1.1001  0.6496
  478TIP3    H222994   2.639   3.405   2.398 -0.3994  0.8593  0.5836
  479TIP3   OH222995   2.082   2.436   8.280 -0.3909 -0.0248  0.0631
  479TIP3    H122996   2.034   2.416   8.361 -1.0253 -0.5705 -0.4387
  479TIP3    H222997   2.173   2.445   8.309 -0.6782  0.3107  0.9196
  480TIP3   OH222998   4.862   3.229   0.335 -0.5255  0.4405  0.1040
  480TIP3    H122999   4.821   3.314   0.318 -1.9359 -0.4032 -0.9712
  480TIP3    H223000   4.863   3.186   0.249 -2.6400 -1.8038  1.0937
  481TIP3   OH223001   3.276   5.686   1.312 -0.8045  0.1170  0.6501
  481TIP3    H123002   3.304   5.621   1.248 -0.9693 -0.4145  1.1084
  481TIP3    H223003   3.344   5.686   1.379  0.4347  2.1732 -0.5272
  482TIP3   OH223004   1.657   5.148   2.293  0.5897  0.0504  0.0568
  482TIP3    H123005   1.713   5.223   2.315 -2.8139  3.1730 -0.8066
  482TIP3    H223006   1.658   5.145   2.197 -0.9414  0.4951 -0.0043
  483TIP3   OH223007   0.442   6.589   2.504 -0.7368 -0.2819  0.0338
  483TIP3    H123008   0.438   6.627   2.416  0.0714  1.0233  0.5272
  483TIP3    H223009   0.536   6.585   2.523 -0.9200 -0.1910  0.9731
  484TIP3   OH223010   6.344   3.887   0.944 -0.1022  0.2035  0.0716
  484TIP3    H123011   6.345   3.791   0.940 -2.2520  0.1546 -0.8307
  484TIP3    H223012   6.255   3.909   0.972  0.7281  1.9441  1.5112
  485TIP3   OH223013   1.212   0.028   2.851  0.3686  0.1134 -0.0837
  485TIP3    H123014   1.268  -0.001   2.778  2.0823  0.9455  0.8540
  485TIP3    H223015   1.200  -0.051   2.904  0.7899 -0.0400 -0.2097
  486TIP3   OH223016   5.222   4.739   0.398  1.0632 -0.2787 -0.1473
  486TIP3    H123017   5.204   4.651   0.367  0.0149 -0.7141  1.5926
  486TIP3    H223018   5.209   4.735   0.493  1.0337  1.7280 -0.0183
  487TIP3   OH223019   4.824   2.668   7.392 -0.2914 -0.2889 -0.5393
  487TIP3    H123020   4.908   2.714   7.388  0.6382 -1.9431 -1.3790
  487TIP3    H223021   4.807   2.642   7.301  0.0606 -2.9093  0.0548
  488TIP3   OH223022   5.824   5.459   1.534  0.4388 -1.0346  0.0607
  488TIP3    H123023   5.908   5.469   1.580  0.2444 -0.2880  0.2765
  488TIP3    H223024   5.759   5.486   1.599  0.2242  1.1534 -0.9803
  489TIP3   OH223025   3.679   3.788   0.957  0.0314 -0.5189 -0.1405
  489TIP3    H123026   3.770   3.813   0.975 -0.3390  0.1509  0.8835
  489TIP3    H223027   3.629   3.868   0.972 -0.8292 -1.1049  0.1807
  490TIP3   OH223028   6.728   2.911   8.210 -0.2716  0.3357 -0.2910
  490TIP3    H123029   6.752   2.909   8.118  0.8882  1.0892 -0.0132
  490TIP3    H223030   6.680   2.993   8.221 -0.6102  0.1371 -0.2646
  491TIP3   OH223031   1.741   5.506   1.144 -0.5437  0.4109  0.2190
  491TIP3    H123032   1.664   5.558   1.121 -1.2451  0.6921  2.8895
  491TIP3    H223033   1.782   5.555   1.216  2.1062  0.1945 -1.0305
  492TIP3   OH223034   6.809   0.517   2.867 -0.2843  0.3368 -0.7163
  492TIP3    H123035   6.854   0.490   2.947 -0.2010 -0.5264 -1.0388
  492TIP3    H223036   6.718   0.529   2.894 -0.2668 -0.0014 -0.5020
  493TIP3   OH223037   3.686   4.702   0.299 -0.2996 -0.5207  0.3276
  493TIP3    H123038   3.771   4.723   0.339 -1.3016  0.9091  1.7976
  493TIP3    H223039   3.702   4.619   0.252  1.9060 -0.2682  0.5069
  494TIP3   OH223040   6.136   1.612   1.981  0.6921  0.0271 -0.0353
  494TIP3    H123041   6.051   1.568   1.987  0.8684 -0.7359 -2.0718
  494TIP3    H223042   6.200   1.541   1.989  1.0445  0.2053 -1.1304
  495TIP3   OH223043   0.835   5.370   2.368 -0.1356  0.5610 -0.0649
  495TIP3    H123044   0.855   5.292   2.421  0.6408  1.2339  0.6567
  495TIP3    H223045   0.913   5.383   2.314  0.9291  2.4163  1.7925
  496TIP3   OH223046   0.854   4.626   3.140  0.0934  1.1799 -0.1375
  496TIP3    H123047   0.898   4.548   3.173 -1.1561 -0.3467 -1.8713
  496TIP3    H223048   0.925   4.679   3.102  0.8709  0.5465  0.3916
  497TIP3   OH223049   6.459   0.869   8.708  0.0576 -0.2073  0.0568
  497TIP3    H123050   6.382   0.821   8.679 -0.2658 -0.4061  1.2103
  497TIP3    H223051   6.440   0.961   8.687  0.0863 -0.4043 -0.8737
  498TIP3   OH223052   3.381   6.348   8.277  0.3605 -0.6832 -0.5549
  498TIP3    H123053   3.296   6.315   8.249 -0.1276  1.6565 -2.1534
  498TIP3    H223054   3.360   6.413   8.345  0.7711  0.3161 -1.3550
  499TIP3   OH223055   1.969   4.365   7.966 -0.4775  0.0765 -0.0393
  499TIP3    H123056   2.060   4.373   7.941 -0.4575  0.2836  0.0927
  499TIP3    H223057   1.969   4.378   8.061 -0.9077  2.4175 -0.3015
  500TIP3   OH223058   3.841   6.538   7.621  0.2550  0.3401 -0.5192
  500TIP3    H123059   3.812   6.551   7.531  0.4327 -0.7923 -0.7560
  500TIP3    H223060   3.816   6.448   7.642 -1.2601  1.0907  1.1310
  501TIP3   OH223061   5.679   2.139   2.790  0.1563  0.7513  0.0125
  501TIP3    H123062   5.647   2.159   2.878  0.1341 -1.1426  0.4807
  501TIP3    H223063   5.774   2.134   2.800  0.1560  0.5699 -0.0624
  502TIP3   OH223064   3.121   0.917   8.728 -0.3073 -0.1767 -0.0036
  502TIP3    H123065   3.068   0.913   8.649 -1.3487  0.8837  0.5976
  502TIP3    H223066   3.206   0.882   8.702 -0.9795 -0.9418 -1.2701
  503TIP3   OH223067   6.248   1.206   0.476 -0.1331 -0.5004  0.1135
  503TIP3    H123068   6.189   1.136   0.449 -1.0887  0.0212  0.8158
  503TIP3    H223069   6.211   1.285   0.438  0.2021 -0.1816  0.4464
  504TIP3   OH223070   5.046   0.394   3.377 -0.0286  0.3885  0.5711
  504TIP3    H123071   5.112   0.347   3.429  0.1171 -0.1517 -0.0976
  504TIP3    H223072   4.974   0.333   3.368  0.3660  0.0973 -0.7254
  505TIP3   OH223073   5.386   0.518   2.079 -0.9568 -0.2857 -0.1240
  505TIP3    H123074   5.478   0.508   2.057 -0.9724 -1.2900  0.2534
  505TIP3    H223075   5.350   0.571   2.008  0.2026  1.3729  0.4526
  506TIP3   OH223076   1.446   1.878   0.236 -0.4090 -0.5614 -0.1434
  506TIP3    H123077   1.541   1.872   0.229 -0.6150 -3.2198 -1.8463
  506TIP3    H223078   1.415   1.890   0.147 -1.7463 -1.2079  0.2087
  507TIP3   OH223079   4.470   0.308   1.760  0.1010 -0.0908  0.4586
  507TIP3    H123080   4.484   0.242   1.828 -2.5338 -0.6141  0.5935
  507TIP3    H223081   4.441   0.258   1.683  1.8764  0.6096 -0.7567
  508TIP3   OH223082   3.593   1.235   1.837  0.2144 -0.1124  0.1909
  508TIP3    H123083   3.586   1.148   1.878 -1.5322 -0.2510 -0.3553
  508TIP3    H223084   3.685   1.260   1.852  0.6018 -1.7777  0.8851
  509TIP3   OH223085   5.996   3.096   8.197 -0.1989 -0.4703 -0.3974
  509TIP3    H123086   6.011   3.188   8.176 -1.4474 -0.1321  0.0819
  509TIP3    H223087   6.016   3.049   8.116 -1.5789  0.4484 -1.3207
  510TIP3   OH223088   5.397   6.418   0.416  0.2701  0.2197  0.0868
  510TIP3    H123089   5.451   6.389   0.342 -1.5644 -1.8534 -0.5545
  510TIP3    H223090   5.435   6.373   0.491  1.7335  1.8179  0.3756
  511TIP3   OH223091   1.478   2.901   1.669  0.4011 -0.1701 -0.1239
  511TIP3    H123092   1.474   2.905   1.764 -0.6221  0.5537 -0.1861
  511TIP3    H223093   1.571   2.894   1.649  0.5482 -2.2987  0.9799
  512TIP3   OH223094   4.823   1.233   0.015 -0.3007 -0.0221 -0.0387
  512TIP3    H123095   4.825   1.168  -0.055  0.6787 -0.7696  0.6616
  512TIP3    H223096   4.851   1.186   0.093  0.7137  1.3000  0.4384
  513TIP3   OH223097   0.214   1.780   0.316  0.4078 -0.0386 -0.5170
  513TIP3    H123098   0.267   1.727   0.375 -0.3322 -0.8830 -0.5837
  513TIP3    H223099   0.259   1.864   0.311  0.5543  0.0114  1.1527
  514TIP3   OH223100   3.278   0.919   3.228 -0.0910  0.0491  0.6884
  514TIP3    H123101   3.288   1.012   3.249 -1.1222  0.3959 -0.3116
  514TIP3    H223102   3.308   0.874   3.307 -2.3468  1.2766  2.3667
  515TIP3   OH223103   6.025   2.213   1.516 -0.3602 -0.2638  0.2628
  515TIP3    H123104   6.071   2.162   1.583  0.1487  0.2492  0.3152
  515TIP3    H223105   6.010   2.298   1.557 -0.6285 -0.1606 -0.0467
  516TIP3   OH223106   1.515   4.030   8.594 -0.0243  0.2871 -0.3215
  516TIP3    H123107   1.604   4.060   8.575 -0.0707  0.6518  0.0337
  516TIP3    H223108   1.493   3.972   8.521  0.6256 -0.0605 -0.2469
  517TIP3   OH223109   5.416   2.489   1.438 -0.8319  0.2507 -0.6742
  517TIP3    H123110   5.467   2.525   1.366 -1.1933 -1.1792 -1.7036
  517TIP3    H223111   5.331   2.468   1.399 -1.7620  1.3428  0.6782
  518TIP3   OH223112   4.498   6.558   2.116  0.1115  0.6665  0.6042
  518TIP3    H123113   4.555   6.530   2.045 -1.6914 -1.3520 -0.1492
  518TIP3    H223114   4.430   6.611   2.074 -1.6119 -1.4651  0.5153
  519TIP3   OH223115   3.529   2.571   8.797  0.4002 -0.3675 -0.8202
  519TIP3    H123116   3.481   2.602   8.874 -1.3445 -0.4175 -1.8288
  519TIP3    H223117   3.494   2.623   8.725  1.8881 -0.4354 -1.6217
  520TIP3   OH223118   4.286   4.855   0.470 -0.4078  0.2832  0.3554
  520TIP3    H123119   4.327   4.927   0.424 -1.6039  1.2800  0.8007
  520TIP3    H223120   4.214   4.828   0.413  0.4901 -1.1155 -0.1821
  521TIP3   OH223121   1.063   0.942   8.265  0.3296 -0.1358  0.3415
  521TIP3    H123122   1.031   1.018   8.217 -0.1549  0.1772  1.1452
  521TIP3    H223123   1.004   0.871   8.242  1.2135 -0.4853 -0.9901
  522TIP3   OH223124   5.823   2.362   7.458 -0.0249 -0.2360  0.7806
  522TIP3    H123125   5.909   2.321   7.462 -0.1705 -0.7046 -0.4516
  522TIP3    H223126   5.824   2.414   7.378 -0.4395  0.8215  1.4447
  523TIP3   OH223127   4.980   2.212   3.298 -0.1435 -0.4784  0.6756
  523TIP3    H123128   5.011   2.287   3.247  0.0308 -1.4205 -0.6627
  523TIP3    H223129   5.018   2.224   3.385 -1.1891  1.6591  0.8893
  524TIP3   OH223130   0.058   1.323   8.480 -0.0294 -0.0268  0.0335
  524TIP3    H123131   0.037   1.394   8.541 -1.1967  1.7710 -2.2894
  524TIP3    H223132  -0.025   1.304   8.437  0.2373 -2.9655  0.6510
  525TIP3   OH223133   6.690   5.103   2.779  0.1144  0.3865 -0.6119
  525TIP3    H123134   6.753   5.096   2.850 -1.0861  3.2439  0.8791
  525TIP3    H223135   6.743   5.093   2.699  1.8691 -0.5164  0.6039
  526TIP3   OH223136   3.428   5.205   8.425  0.1619  0.6991 -0.1844
  526TIP3    H123137   3.375   5.206   8.505 -0.4472 -0.3540 -0.5408
  526TIP3    H223138   3.477   5.287   8.427  0.2480  0.6389  1.3214
  527TIP3   OH223139   1.651   1.411   1.774 -0.3477  0.0948 -0.2507
  527TIP3    H123140   1.665   1.355   1.850 -0.1247 -0.2749 -0.5631
  527TIP3    H223141   1.696   1.367   1.702 -0.4161  0.5243 -0.5648
  528TIP3   OH223142   0.429   1.211   7.295 -0.1938 -0.2060 -0.0928
  528TIP3    H123143   0.438   1.176   7.206 -0.2170 -0.2753 -0.0683
  528TIP3    H223144   0.488   1.158   7.348  0.5376  0.4542 -0.2328
  529TIP3   OH223145   5.211   3.384   2.281 -0.0442  0.0106 -0.1296
  529TIP3    H123146   5.194   3.290   2.275  0.0438  0.0386 -0.9622
  529TIP3    H223147   5.296   3.390   2.326 -0.2522 -0.2867  0.3088
  530TIP3   OH223148   4.895   1.268   3.275  0.1634 -0.4015  0.3394
  530TIP3    H123149   4.826   1.330   3.252 -0.3459 -1.1601 -0.2427
  530TIP3    H223150   4.969   1.323   3.301 -0.4147  0.4360  0.2670
  531TIP3   OH223151   1.122   1.706   1.521 -0.7767  0.1867  1.0021
  531TIP3    H123152   1.108   1.675   1.432  0.1031  0.0584  0.8949
  531TIP3    H223153   1.092   1.633   1.577  0.0748 -0.3554  0.7741
  532TIP3   OH223154   3.757   4.425   2.074 -0.2039 -0.0216  0.1241
  532TIP3    H123155   3.797   4.390   1.994  0.6917 -0.1774  0.6215
  532TIP3    H223156   3.737   4.348   2.127  0.8312  0.1424  0.7864
  533TIP3   OH223157   2.699   3.738   0.784 -0.0183  0.3179  0.1622
  533TIP3    H123158   2.699   3.694   0.699 -0.9045  1.1221 -0.2653
  533TIP3    H223159   2.609   3.767   0.796 -0.0851 -0.4420  1.7326
  534TIP3   OH223160   3.230   5.356   8.610  0.0652  0.7435 -0.5954
  534TIP3    H123161   3.137   5.359   8.589  0.2475 -0.6346 -1.8493
  534TIP3    H223162   3.248   5.438   8.655 -1.6988  1.1399 -0.5500
  535TIP3   OH223163   2.723   1.800   1.508 -0.3072 -0.7270  0.6841
  535TIP3    H123164   2.818   1.803   1.495 -0.3881 -1.6032 -0.2290
  535TIP3    H223165   2.713   1.777   1.601  0.3561 -0.0808  0.9255
  536TIP3   OH223166   5.719   1.315   0.248 -0.3001  0.3361  0.1741
  536TIP3    H123167   5.682   1.248   0.190 -1.2745 -0.2542  1.4540
  536TIP3    H223168   5.812   1.290   0.256 -0.0863  0.5602 -1.2827
  537TIP3   OH223169   5.898   3.528   8.169  0.1715 -0.1083  0.0648
  537TIP3    H123170   5.809   3.554   8.194 -0.9607 -2.6259 -1.0091
  537TIP3    H223171   5.948   3.610   8.170 -1.7956  1.1808  2.0450
  538TIP3   OH223172   6.663   5.235   8.357 -0.4271 -0.1557 -0.1816
  538TIP3    H123173   6.572   5.214   8.339 -0.4764  0.8047 -1.1983
  538TIP3    H223174   6.713   5.177   8.298 -0.3735 -0.6731  0.3661
  539TIP3   OH223175   0.512   6.445   1.483  0.1654  0.1298 -0.0958
  539TIP3    H123176   0.546   6.424   1.570 -1.3967 -2.2156  0.0500
  539TIP3    H223177   0.419   6.463   1.497 -0.4207 -1.5838 -1.3602
  540TIP3   OH223178   1.232   0.248   3.222 -0.4201  0.7215 -0.3257
  540TIP3    H123179   1.230   0.263   3.127  0.1007  0.3882 -0.3963
  540TIP3    H223180   1.275   0.326   3.257  1.9931 -0.3733 -0.6594
  541TIP3   OH223181   1.856   5.097   3.339  0.2876 -0.4633  0.7345
  541TIP3    H123182   1.815   5.010   3.343 -2.3069  0.5079 -1.6109
  541TIP3    H223183   1.835   5.130   3.252  0.8739  2.7002  1.6517
  542TIP3   OH223184   4.058   4.418   0.072 -0.3833 -0.2987  0.0476
  542TIP3    H123185   4.064   4.343   0.012  0.5535 -1.6109  1.6878
  542TIP3    H223186   4.010   4.385   0.147 -0.2363  0.8472  0.6658
  543TIP3   OH223187   6.541   2.211   2.087  0.1462  0.4459  0.1035
  543TIP3    H123188   6.479   2.247   2.150 -0.3564 -0.7932  0.3581
  543TIP3    H223189   6.486   2.171   2.020  0.5712 -2.1919  1.2081
  544TIP3   OH223190   5.723   2.641   1.008  0.0190 -0.1567 -0.2399
  544TIP3    H123191   5.731   2.654   0.914  1.7951 -2.3716 -0.4900
  544TIP3    H223192   5.813   2.628   1.038 -0.6492 -1.1563  1.4717
  545TIP3   OH223193   3.721   0.279   2.050  0.3363  0.3733  0.3040
  545TIP3    H123194   3.656   0.257   2.118 -0.6429 -2.4805 -1.3666
  545TIP3    H223195   3.798   0.308   2.099 -0.7389 -0.3542  2.5886
  546TIP3   OH223196   4.003   1.894   8.419  0.5996  0.1633  0.3971
  546TIP3    H123197   4.000   1.803   8.448 -0.7102 -0.3244 -1.1249
  546TIP3    H223198   4.096   1.917   8.422  0.8902 -1.0332  1.3134
  547TIP3   OH223199   1.865   4.445   7.468 -0.0529 -0.4958 -0.9314
  547TIP3    H123200   1.899   4.370   7.420  0.3572 -0.8616 -0.0968
  547TIP3    H223201   1.861   4.416   7.559 -0.2893  0.3549 -0.6536
  548TIP3   OH223202   6.703   6.356   2.861  0.2004  0.3974  0.5065
  548TIP3    H123203   6.657   6.410   2.926 -2.4588 -0.9688 -0.1008
  548TIP3    H223204   6.682   6.266   2.886  2.3020 -0.2972 -0.0633
  549TIP3   OH223205   1.991   6.649   0.595 -0.1849  0.3079  0.0849
  549TIP3    H123206   1.981   6.583   0.664 -0.8052  0.1799 -0.1198
  549TIP3    H223207   1.902   6.664   0.564 -0.0842  1.4235  0.2900
  550TIP3   OH223208   5.736   1.931   3.063 -0.2053  0.1389 -0.2221
  550TIP3    H123209   5.710   2.023   3.062 -0.0929  0.1702 -0.4183
  550TIP3    H223210   5.701   1.897   3.145 -0.4662  0.2931 -0.2683
  551TIP3   OH223211   4.926   2.351   1.083  0.0005  0.0550  0.6067
  551TIP3    H123212   4.942   2.315   1.170 -0.1965  0.3090  0.7490
  551TIP3    H223213   5.013   2.362   1.045  0.0443 -0.9591  0.4021
  552TIP3   OH223214   2.261   6.188   2.985 -0.0923 -0.0169 -0.1608
  552TIP3    H123215   2.291   6.232   3.065 -1.8714  1.0162 -0.0220
  552TIP3    H223216   2.261   6.257   2.919  0.7078 -0.7134 -0.9299
  553TIP3   OH223217   0.966   2.745   2.049  0.9008 -0.2564 -0.1600
  553TIP3    H123218   1.051   2.713   2.018  0.5333 -0.3823 -1.0478
  553TIP3    H223219   0.984   2.780   2.137  1.6281 -1.4173  0.1695
  554TIP3   OH223220   2.009   0.862   8.208 -0.5503 -0.1241  0.2139
  554TIP3    H123221   2.096   0.821   8.201 -1.9041 -3.1666 -0.3702
  554TIP3    H223222   2.004   0.917   8.130  0.2293 -1.3038 -0.7250
  555TIP3   OH223223   0.485   1.392   8.774  0.1874 -0.1936  0.6658
  555TIP3    H123224   0.495   1.425   8.863  0.1194 -2.3931  1.5494
  555TIP3    H223225   0.404   1.340   8.776 -0.1070  0.1540 -0.8286
  556TIP3   OH223226   0.666   4.773   1.268  0.0648  0.5710 -0.4453
  556TIP3    H123227   0.702   4.754   1.181  0.8126 -0.3385  0.0406
  556TIP3    H223228   0.573   4.753   1.259  0.4551 -1.4901 -0.5384
  557TIP3   OH223229   1.468   4.729   0.244  0.0196  0.0329 -0.9099
  557TIP3    H123230   1.392   4.675   0.264 -0.5401  1.0027 -0.3340
  557TIP3    H223231   1.441   4.818   0.266  1.7995  0.2406  0.7492
  558TIP3   OH223232   2.286   4.099   7.506 -0.9156  1.1340 -0.3111
  558TIP3    H123233   2.305   4.161   7.436  0.6644 -0.9466 -1.8553
  558TIP3    H223234   2.213   4.138   7.554  0.1895  4.2953 -0.9758
  559TIP3   OH223235   0.213   5.237   3.469 -0.0691 -0.0095  0.9290
  559TIP3    H123236   0.287   5.259   3.412  0.3895 -0.1523  1.4558
  559TIP3    H223237   0.190   5.147   3.445  0.9694 -0.5371  1.8527
  560TIP3   OH223238   6.492   5.237   8.717  0.4546 -0.0713  0.6739
  560TIP3    H123239   6.412   5.278   8.749 -0.8695  0.1315 -2.5169
  560TIP3    H223240   6.536   5.307   8.668  0.5853 -1.1614 -0.8212
  561TIP3   OH223241   2.856   4.557   8.784  0.5148  0.0044 -0.7154
  561TIP3    H123242   2.921   4.487   8.776  1.1820  0.4150  0.7889
  561TIP3    H223243   2.780   4.525   8.735  1.0361 -1.4959 -0.5951
  562TIP3   OH223244   5.964   0.141   8.428 -0.3995  0.5456 -0.0589
  562TIP3    H123245   6.022   0.165   8.356  0.2616  0.5434  0.4684
  562TIP3    H223246   5.907   0.073   8.391 -1.3674  1.8933 -1.1531
  563TIP3   OH223247   6.557   6.094   0.803 -0.1566 -0.3164  0.0122
  563TIP3    H123248   6.592   6.136   0.881 -1.4131 -1.1102  1.0407
  563TIP3    H223249   6.625   6.031   0.777  0.6192  0.5240 -0.0430
  564TIP3   OH223250   2.475   2.815   1.955  0.4940 -0.0843 -0.3029
  564TIP3    H123251   2.495   2.891   2.011 -0.2171  1.2923 -1.8430
  564TIP3    H223252   2.551   2.757   1.966  2.0740  1.8021 -0.6717
  565TIP3   OH223253   2.047   0.867   3.584  0.0957  0.2002  0.4249
  565TIP3    H123254   2.130   0.845   3.542 -1.1168 -1.4260 -1.3539
  565TIP3    H223255   2.027   0.956   3.555 -0.5136 -0.7349 -2.3226
  566TIP3   OH223256   5.066   4.262   2.650 -0.0647  0.1692 -0.6987
  566TIP3    H123257   5.134   4.203   2.681  0.6907  0.2539 -2.1022
  566TIP3    H223258   5.077   4.342   2.700 -0.1924 -0.3832  0.2232
  567TIP3   OH223259   2.494   5.097   7.742  0.7362 -0.0940  0.4434
  567TIP3    H123260   2.439   5.169   7.774  0.1613 -0.2824 -0.1016
  567TIP3    H223261   2.531   5.129   7.660 -2.2502 -1.5700 -1.6897
  568TIP3   OH223262   1.611   2.724   1.461 -0.3689  1.1421  0.1428
  568TIP3    H123263   1.626   2.639   1.503 -0.7861 -0.1929 -2.2074
  568TIP3    H223264   1.674   2.783   1.502  1.6302 -0.8957  0.1940
  569TIP3   OH223265   4.671   3.509   0.146 -0.6273 -0.0313  0.3132
  569TIP3    H123266   4.694   3.561   0.223  1.5624 -0.5833  0.1242
  569TIP3    H223267   4.625   3.433   0.181  0.1430 -0.1585  1.0987
  570TIP3   OH223268   3.369   1.583   0.090 -0.1340 -0.3437  0.0325
  570TIP3    H123269   3.321   1.608   0.169 -0.0928 -0.4429  0.0897
  570TIP3    H223270   3.458   1.613   0.106  0.0084 -0.8804  0.2721
  571TIP3   OH223271   5.908   3.285   0.830  0.3865 -0.0157 -0.2710
  571TIP3    H123272   5.932   3.377   0.842  1.3023 -0.0903 -1.3203
  571TIP3    H223273   5.879   3.280   0.739  0.8470 -0.8641 -0.3795
  572TIP3   OH223274   3.119   5.838   1.696  0.0085 -0.2614 -0.2788
  572TIP3    H123275   3.109   5.784   1.775 -2.4052  1.7700  0.9488
  572TIP3    H223276   3.031   5.870   1.677  1.3369  4.0390 -0.2343
  573TIP3   OH223277   5.062   6.330   8.743 -0.3529 -0.4371  0.2118
  573TIP3    H123278   4.982   6.286   8.714 -1.1575  0.5883  0.8190
  573TIP3    H223279   5.039   6.369   8.827  1.7873 -2.9594  2.1458
  574TIP3   OH223280   6.369   0.167   0.502  0.3710  0.6039 -0.5389
  574TIP3    H123281   6.448   0.207   0.467  0.5151  0.7340 -0.0804
  574TIP3    H223282   6.382   0.073   0.490  0.6068  0.6241 -0.4502
  575TIP3   OH223283   3.233   1.596   0.691 -0.0883 -0.7657  0.2244
  575TIP3    H123284   3.247   1.596   0.786  0.3994 -0.7480  0.1565
  575TIP3    H223285   3.315   1.563   0.655 -0.1313 -0.4120 -0.2115
  576TIP3   OH223286   5.266   5.387   1.580 -0.1612 -0.0812  0.2836
  576TIP3    H123287   5.229   5.316   1.528 -1.2332  0.0979  0.7561
  576TIP3    H223288   5.361   5.379   1.570 -0.3362 -0.3567 -1.2584
  577TIP3   OH223289   5.024   6.182   3.286  0.4654 -0.7553 -0.6335
  577TIP3    H123290   5.093   6.187   3.352 -1.9822  1.1475  2.0422
  577TIP3    H223291   4.982   6.098   3.302  0.9634 -1.0752 -0.9820
  578TIP3   OH223292   4.070   0.308   8.741 -0.9421 -0.0357  0.1798
  578TIP3    H123293   4.054   0.251   8.816 -0.0326  0.3120  0.6445
  578TIP3    H223294   3.989   0.303   8.690 -1.0051 -1.4840  0.3766
  579TIP3   OH223295   1.861   4.956   0.209  0.0901  0.3061 -0.2010
  579TIP3    H123296   1.949   4.944   0.173  0.5721  1.3492  0.5703
  579TIP3    H223297   1.871   5.027   0.272 -1.2461  0.2058  0.1455
  580TIP3   OH223298   2.164   3.472   1.230 -0.1885 -0.2924 -0.6143
  580TIP3    H123299   2.200   3.553   1.265  1.2038 -0.5581 -1.3314
  580TIP3    H223300   2.095   3.499   1.170  1.1991  0.4850 -1.9358
  581TIP3   OH223301   4.595   5.157   1.295 -0.6742 -0.3725 -0.5667
  581TIP3    H123302   4.529   5.195   1.237 -1.7475  1.0737  1.4715
  581TIP3    H223303   4.671   5.215   1.285 -0.7372 -0.3187 -0.7540
  582TIP3   OH223304   5.975   6.530   2.436 -0.5268  0.1105 -0.2328
  582TIP3    H123305   6.028   6.581   2.497 -0.9902 -2.9196  3.0041
  582TIP3    H223306   6.029   6.525   2.356  3.1712 -0.8763  2.0673
  583TIP3   OH223307   2.761   6.040   1.124  0.3611  0.2570  0.1219
  583TIP3    H123308   2.845   6.002   1.099 -0.1198 -0.3829 -0.5740
  583TIP3    H223309   2.713   5.967   1.165 -0.3180  0.2745 -0.6193
  584TIP3   OH223310   0.263   3.033   8.071  0.0127 -0.1426 -0.0526
  584TIP3    H123311   0.345   3.003   8.031 -0.4163  0.6177 -1.5521
  584TIP3    H223312   0.228   3.097   8.010 -1.2489  0.2445  1.0282
  585TIP3   OH223313   1.854   5.664   1.335  0.7350 -0.2789 -0.3794
  585TIP3    H123314   1.791   5.710   1.391 -1.3019 -2.5819 -0.6059
  585TIP3    H223315   1.925   5.641   1.394 -1.2690 -2.4844  1.3916
  586TIP3   OH223316   0.967   1.887   1.791 -0.3000 -0.0312  0.2788
  586TIP3    H123317   0.942   1.836   1.714  2.4143 -0.8854 -0.1288
  586TIP3    H223318   0.928   1.973   1.776 -0.9092 -0.5587 -1.4132
  587TIP3   OH223319   6.598   1.054   2.448  0.0210  0.0766 -0.0847
  587TIP3    H123320   6.572   0.973   2.493  0.3673 -0.7196 -1.2754
  587TIP3    H223321   6.516   1.099   2.430 -0.2286 -0.3551 -0.0362
  588TIP3   OH223322   2.659   5.014   8.120  0.0481  0.0685 -0.0267
  588TIP3    H123323   2.577   4.967   8.110  0.9540 -1.2919 -1.8415
  588TIP3    H223324   2.658   5.080   8.050  0.1703  0.5679  0.4358
  589TIP3   OH223325   1.721   1.365   8.725 -0.0588 -0.5474 -0.3834
  589TIP3    H123326   1.808   1.329   8.740  0.5863  0.4376 -1.6238
  589TIP3    H223327   1.661   1.299   8.761  1.1459 -1.8207 -0.6457
  590TIP3   OH223328   4.532   4.612   7.835  0.1009 -0.1102 -0.5026
  590TIP3    H123329   4.572   4.529   7.864 -1.8212 -0.8788  0.0842
  590TIP3    H223330   4.442   4.589   7.814  0.1879  1.3495 -2.8595
  591TIP3   OH223331   0.261   1.435   8.345  0.1653 -0.2313  0.1173
  591TIP3    H123332   0.289   1.383   8.270 -0.1418  2.3172 -1.9034
  591TIP3    H223333   0.194   1.382   8.388  0.7585 -2.0085 -1.0609
  592TIP3   OH223334   1.396   0.481   3.043  0.0986 -0.1144 -0.2872
  592TIP3    H123335   1.391   0.496   3.137  1.7919  0.5553 -0.2689
  592TIP3    H223336   1.434   0.561   3.008 -0.4014 -0.4004 -1.5398
  593TIP3   OH223337   0.078   3.130   8.331 -0.3606  0.1152 -0.2898
  593TIP3    H123338   0.119   3.091   8.408 -0.2467  0.5679 -0.1201
  593TIP3    H223339   0.063   3.056   8.272 -1.1670 -0.3594  0.4757
  594TIP3   OH223340   6.344   3.847   8.337 -0.0159  0.4349  0.2564
  594TIP3    H123341   6.392   3.901   8.274  1.4821  0.4132  1.3312
  594TIP3    H223342   6.251   3.863   8.317  0.4223  1.0121 -1.4305
  595TIP3   OH223343   0.609   4.122   1.961  0.1195  0.1913  0.4182
  595TIP3    H123344   0.514   4.130   1.965  0.0847 -0.0181  0.0346
  595TIP3    H223345   0.628   4.107   1.868  0.7010  2.6055  0.0756
  596TIP3   OH223346   1.545   6.738   2.383  0.0404 -0.1008 -0.2641
  596TIP3    H123347   1.538   6.730   2.288 -0.3727  1.6791 -0.4322
  596TIP3    H223348   1.600   6.665   2.410 -0.0193 -0.7667 -1.8374
  597TIP3   OH223349   5.510   1.674   2.201 -0.2839  0.3239 -0.2945
  597TIP3    H123350   5.436   1.616   2.217  0.3312 -0.5197 -0.4669
  597TIP3    H223351   5.473   1.746   2.149 -0.9281 -0.2132 -0.5956
  598TIP3   OH223352   1.948   3.009   2.443  0.0960 -0.0056 -0.0912
  598TIP3    H123353   1.925   2.945   2.511 -1.2770  1.6797  1.1283
  598TIP3    H223354   1.882   2.997   2.375  0.0698 -0.1509 -0.0398
  599TIP3   OH223355   3.591   1.365   0.121  0.9539 -0.5908 -0.3911
  599TIP3    H123356   3.660   1.399   0.064  1.0661 -0.5147 -0.2138
  599TIP3    H223357   3.526   1.327   0.062  0.4436  0.6360 -0.6512
  600TIP3   OH223358   2.771   2.466   1.928 -0.0043  0.4199 -0.2068
  600TIP3    H123359   2.748   2.546   1.975  0.1311 -0.5411  1.5810
  600TIP3    H223360   2.702   2.456   1.863  0.8119  2.8024 -1.5991
  601TIP3   OH223361   4.272   1.565   3.095 -0.3007 -0.1976  0.5243
  601TIP3    H123362   4.356   1.611   3.091 -0.7103  0.4891 -1.4438
  601TIP3    H223363   4.228   1.601   3.172  0.6471  0.4554  0.7754
  602TIP3   OH223364   5.959   3.840   1.325 -0.8757 -0.1521  0.0910
  602TIP3    H123365   6.014   3.864   1.250 -1.7464  0.4547 -0.3671
  602TIP3    H223366   5.964   3.744   1.328  1.6681 -0.0628  1.2076
  603TIP3   OH223367   2.252   2.741   2.957 -0.0910 -0.7139 -0.4260
  603TIP3    H123368   2.197   2.808   2.916  0.0192 -0.4724 -0.1841
  603TIP3    H223369   2.193   2.696   3.017 -0.1705 -0.8489 -0.6043
  604TIP3   OH223370   5.085   0.359   8.412  0.5981 -0.3918 -0.0362
  604TIP3    H123371   5.148   0.370   8.482  0.0394  0.3630  0.3600
  604TIP3    H223372   5.001   0.388   8.449  0.4534  0.9334 -1.2788
  605TIP3   OH223373   5.776   2.201   2.282  0.9022 -0.3207  0.1741
  605TIP3    H123374   5.696   2.168   2.321  1.3274  0.4576  1.7640
  605TIP3    H223375   5.831   2.227   2.356  2.1157  0.3370 -0.9056
  606TIP3   OH223376   5.779   2.795   2.249 -0.2132  0.4517  0.7554
  606TIP3    H123377   5.690   2.826   2.263 -0.1974  0.0859  1.7534
  606TIP3    H223378   5.772   2.731   2.179 -0.4529  1.6918 -0.3832
  607TIP3   OH223379   1.739   0.389   1.980  0.0335 -0.2318  0.2040
  607TIP3    H123380   1.718   0.368   2.071 -2.1025  0.7155 -0.0006
  607TIP3    H223381   1.784   0.473   1.985 -1.0573  0.3657  0.3589
  608TIP3   OH223382   2.907   3.865   8.173  0.1419  0.4041  0.4533
  608TIP3    H123383   2.836   3.881   8.111  0.1755  1.8423  0.7598
  608TIP3    H223384   2.888   3.923   8.246  0.1196 -1.2432  1.8163
  609TIP3   OH223385   1.539   2.771   8.238 -0.2500 -0.2567 -0.0092
  609TIP3    H123386   1.520   2.707   8.307 -0.8322  0.1074  0.1759
  609TIP3    H223387   1.523   2.856   8.279  2.7395  0.1863  0.4804
  610TIP3   OH223388   2.386   0.710   2.295  0.4134 -0.6478 -0.3134
  610TIP3    H123389   2.337   0.647   2.348  1.8320 -0.8551  0.8158
  610TIP3    H223390   2.476   0.676   2.295  0.6565 -0.0819 -1.9940
  611TIP3   OH223391   5.140   1.176   8.618  0.4926  0.5488  0.4501
  611TIP3    H123392   5.114   1.263   8.588 -0.7469  0.5238  1.4041
  611TIP3    H223393   5.158   1.128   8.537  1.5871  1.7872 -0.0808
  612TIP3   OH223394   5.687   1.396   7.746 -0.1582  0.2769 -0.3170
  612TIP3    H123395   5.669   1.320   7.801  1.1166 -0.9492 -1.5046
  612TIP3    H223396   5.695   1.360   7.658 -0.8848  1.9999 -1.1293
  613TIP3   OH223397   6.413   4.908   0.059 -0.1967  0.1850  0.0384
  613TIP3    H123398   6.476   4.907   0.130 -0.4292  0.8006  0.2556
  613TIP3    H223399   6.466   4.914  -0.021  0.0750 -0.8017  0.1381
  614TIP3   OH223400   5.971   1.612   8.478 -0.4857 -0.0250 -0.3951
  614TIP3    H123401   5.927   1.579   8.556 -0.8133  0.5873 -0.3128
  614TIP3    H223402   6.027   1.682   8.509 -1.4829  1.0064 -0.8345
  615TIP3   OH223403   6.122   1.137   3.208  0.2382  0.2516  0.5577
  615TIP3    H123404   6.187   1.067   3.207 -0.1813 -0.1421 -0.5884
  615TIP3    H223405   6.171   1.216   3.187  0.4101  0.0128  0.0491
  616TIP3   OH223406   2.907   3.635   7.672  0.1664 -0.2971  0.0934
  616TIP3    H123407   2.945   3.600   7.591  2.4864  2.9123 -0.3882
  616TIP3    H223408   2.983   3.669   7.720 -1.6748  2.9456  0.9629
  617TIP3   OH223409   3.892   0.064   2.845  0.0257 -0.1461  0.1180
  617TIP3    H123410   3.907  -0.030   2.846 -0.1060 -0.1675  0.0052
  617TIP3    H223411   3.817   0.077   2.904 -1.2620 -0.3317 -1.4098
  618TIP3   OH223412   2.186   4.599   0.863  0.1679 -0.1682  0.1393
  618TIP3    H123413   2.245   4.558   0.926  0.3351  0.1263  0.1765
  618TIP3    H223414   2.126   4.529   0.837  1.7683 -1.0611 -1.4308
  619TIP3   OH223415   1.986   5.197   1.835  0.2202  0.1310  0.3459
  619TIP3    H123416   1.921   5.215   1.767 -0.3954 -0.8749  0.6524
  619TIP3    H223417   2.066   5.173   1.787  0.0615  0.3404 -0.0239
  620TIP3   OH223418   4.499   0.433   0.156 -0.2247 -0.1100 -0.0685
  620TIP3    H123419   4.418   0.431   0.208 -0.1691  1.3753  0.1069
  620TIP3    H223420   4.531   0.523   0.164  1.0810 -0.4906 -0.7149
  621TIP3   OH223421   4.307   5.122   0.863 -0.1800 -0.1811  0.0555
  621TIP3    H123422   4.288   5.212   0.891 -2.2919 -0.8341  0.9132
  621TIP3    H223423   4.223   5.076   0.872  1.2133 -2.6529  1.2292
  622TIP3   OH223424   1.267   3.949   2.046  0.2099  0.0864 -0.8431
  622TIP3    H123425   1.213   4.018   2.085 -0.1573 -0.3637 -0.5512
  622TIP3    H223426   1.306   3.990   1.968  1.0650  1.0346  0.0598
  623TIP3   OH223427   4.621   0.523   3.144 -0.6561 -0.3389  0.3231
  623TIP3    H123428   4.574   0.461   3.088 -2.3627  0.5108  0.7506
  623TIP3    H223429   4.563   0.537   3.218  0.4778  0.4418  1.0971
  624TIP3   OH223430   6.305   5.194   8.397  0.1177 -0.6846 -0.2436
  624TIP3    H123431   6.318   5.116   8.451 -0.6344 -0.8419 -0.2837
  624TIP3    H223432   6.270   5.259   8.458  0.7874 -0.3569 -0.1995
  625TIP3   OH223433   2.447   6.431   2.998 -0.1363 -0.2571  0.3187
  625TIP3    H123434   2.376   6.493   3.017 -1.6248 -1.5245 -0.7963
  625TIP3    H223435   2.460   6.383   3.079 -1.1205 -0.5305  0.3254
  626TIP3   OH223436   2.629   1.931   0.828  0.3559  0.1842 -0.0174
  626TIP3    H123437   2.591   1.967   0.748 -0.5385 -3.1975 -1.3027
  626TIP3    H223438   2.578   1.970   0.899 -1.9218 -0.1297 -1.4018
  627TIP3   OH223439   3.983   0.557   3.009  0.4260  0.7167  0.8507
  627TIP3    H123440   4.067   0.536   2.968 -1.8663 -2.7596 -2.8031
  627TIP3    H223441   3.968   0.649   2.988  2.3606  0.8191 -0.2971
  628TIP3   OH223442   1.265   0.115   1.375 -0.0003  0.6239  0.0541
  628TIP3    H123443   1.228   0.031   1.402 -1.3989  1.2568  0.1647
  628TIP3    H223444   1.204   0.149   1.310  0.5261  1.5758  0.0278
  629TIP3   OH223445   4.462   2.753   8.061 -0.0349  0.1428  0.5336
  629TIP3    H123446   4.504   2.800   7.989  0.0089 -3.2653 -1.9037
  629TIP3    H223447   4.368   2.765   8.045 -0.0335  0.5390  0.7936
  630TIP3   OH223448   0.667   3.304   0.348  0.2484 -1.1854 -0.2808
  630TIP3    H123449   0.680   3.235   0.413 -1.4619 -1.3748 -0.0923
  630TIP3    H223450   0.614   3.263   0.280 -1.0746  0.0137 -0.0087
  631TIP3   OH223451   0.572   6.303   3.238 -0.3335  1.3844 -0.1148
  631TIP3    H123452   0.569   6.248   3.317  0.0549  1.3139 -0.1514
  631TIP3    H223453   0.588   6.242   3.167 -0.9023  1.4206 -0.2795
  632TIP3   OH223454   6.584   4.543   2.363 -0.4188  0.3192  0.2875
  632TIP3    H123455   6.490   4.526   2.370 -0.7824  2.6629  3.5582
  632TIP3    H223456   6.619   4.520   2.449  2.0083 -0.2309 -0.7636
  633TIP3   OH223457   4.195   0.960   8.291  0.0676  0.2665 -0.1659
  633TIP3    H123458   4.223   0.878   8.330 -1.5701 -0.9889 -1.4958
  633TIP3    H223459   4.234   0.959   8.203  1.8264  1.9851  0.5043
  634TIP3   OH223460   0.169   3.225   7.912  0.3380 -0.6666 -0.1008
  634TIP3    H123461   0.099   3.287   7.931  0.6433 -0.7555  1.3938
  634TIP3    H223462   0.188   3.239   7.819  0.1017  1.1594  0.0867
  635TIP3   OH223463   5.032   1.623   7.426 -0.4031  0.0684  0.4973
  635TIP3    H123464   5.036   1.693   7.361 -2.6041 -0.3895 -0.2138
  635TIP3    H223465   5.115   1.577   7.417  0.5319  1.7786  0.0553
  636TIP3   OH223466   4.738   5.362   2.075 -0.0400 -0.2874 -0.0554
  636TIP3    H123467   4.831   5.342   2.062 -0.7196 -2.3345 -2.7071
  636TIP3    H223468   4.699   5.352   1.988 -2.9021 -0.4253  1.1402
  637TIP3   OH223469   2.548   4.304   2.046 -0.2116  0.4551 -0.1429
  637TIP3    H123470   2.510   4.270   1.965  0.0153  1.3189 -0.6291
  637TIP3    H223471   2.489   4.374   2.073  0.1709  0.7450 -0.0372
  638TIP3   OH223472   6.234   5.258   1.587  0.0101  0.1384  0.3287
  638TIP3    H123473   6.227   5.178   1.639 -0.6054  0.0798  0.1695
  638TIP3    H223474   6.327   5.267   1.569 -0.0731 -1.5736 -1.2213
  639TIP3   OH223475   5.311   5.557   1.184 -0.1536  0.5142 -0.2023
  639TIP3    H123476   5.222   5.548   1.151 -0.0052  0.3116 -0.5535
  639TIP3    H223477   5.333   5.472   1.220 -0.2400  0.6760  0.2416
  640TIP3   OH223478   4.980   1.693   7.684 -0.0522 -0.0528  0.4351
  640TIP3    H123479   5.002   1.666   7.595 -0.0501  0.5974  0.2307
  640TIP3    H223480   5.035   1.770   7.700  0.6564 -0.7183  1.3499
  641TIP3   OH223481   3.031   0.690   1.162 -0.1260  0.1234  0.2083
  641TIP3    H123482   3.047   0.683   1.257 -1.3103 -1.1060  0.3587
  641TIP3    H223483   3.057   0.604   1.128  0.9944  0.8060 -0.7235
  642TIP3   OH223484   6.606   0.280   1.872 -0.3322 -0.3617 -0.0347
  642TIP3    H123485   6.657   0.297   1.952 -0.2136 -0.0902 -0.1657
  642TIP3    H223486   6.617   0.360   1.820  1.2883 -1.3005 -1.2495
  643TIP3   OH223487   5.162   0.930   2.742  0.4514 -0.6431  0.5578
  643TIP3    H123488   5.210   0.848   2.753  0.7909 -0.5060  0.1100
  643TIP3    H223489   5.181   0.979   2.822 -0.6283 -1.4335  1.3239
  644TIP3   OH223490   0.129   2.207   1.847  0.0508  0.2032  0.2910
  644TIP3    H123491   0.167   2.227   1.761  0.6840  0.6472  0.6723
  644TIP3    H223492   0.139   2.112   1.856  0.6383  0.2529  0.1818
  645TIP3   OH223493   6.069   4.409   1.978  0.5423 -0.2675 -0.1306
  645TIP3    H123494   6.030   4.469   1.914  0.0668 -1.0024 -0.5439
  645TIP3    H223495   6.056   4.454   2.062 -5.0264 -2.0904  0.4204
  646TIP3   OH223496   5.749   6.222   8.490 -0.1047 -0.2292  0.0817
  646TIP3    H123497   5.835   6.263   8.495  0.2985 -1.1050  0.6421
  646TIP3    H223498   5.768   6.129   8.475 -0.9842 -0.2853 -0.7977
  647TIP3   OH223499   5.985   4.459   0.353 -0.1289 -0.1960  0.1667
  647TIP3    H123500   5.989   4.365   0.374  1.3760 -0.6174 -1.7559
  647TIP3    H223501   5.896   4.485   0.377 -1.1088 -2.4933 -0.7314
  648TIP3   OH223502   4.474   0.402   8.466  0.5966  0.3585  0.2775
  648TIP3    H123503   4.399   0.417   8.407  0.4139  0.2371  0.4805
  648TIP3    H223504   4.443   0.432   8.552  1.0508  1.0648  0.2090
  649TIP3   OH223505   0.203   3.268   0.842 -0.1537 -0.7227  0.3110
  649TIP3    H123506   0.122   3.306   0.808  0.5294  0.3017 -0.2156
  649TIP3    H223507   0.252   3.342   0.878  0.3664 -1.3912  1.0247
  650TIP3   OH223508   0.706   5.186   0.218  0.3592 -0.4279 -0.0564
  650TIP3    H123509   0.625   5.236   0.226  1.9433  2.4706 -0.6098
  650TIP3    H223510   0.732   5.197   0.127  0.5720 -2.7890 -0.3564
  651TIP3   OH223511   3.710   6.456   1.299 -0.0802 -0.6280 -0.1050
  651TIP3    H123512   3.753   6.497   1.224 -0.1111  0.1686  0.3011
  651TIP3    H223513   3.732   6.514   1.373  1.3096 -2.2360  0.8165
  652TIP3   OH223514   6.149   5.476   8.188 -0.3499  0.5226 -0.6530
  652TIP3    H123515   6.056   5.473   8.168 -0.3572  1.9035 -0.9638
  652TIP3    H223516   6.193   5.454   8.106 -0.3755 -1.7622 -0.1033
  653TIP3   OH223517   0.896   5.822   3.442  0.4453 -0.0591  0.6096
  653TIP3    H123518   0.807   5.793   3.421  1.4453 -1.2433 -2.4673
  653TIP3    H223519   0.886   5.870   3.524 -2.6361 -2.1776  1.6884
  654TIP3   OH223520   3.114   3.112   0.451 -0.0518  0.3305  0.1559
  654TIP3    H123521   3.120   3.033   0.504 -0.4278 -0.1407 -0.5030
  654TIP3    H223522   3.203   3.123   0.416 -0.5723 -1.2374 -1.7949
  655TIP3   OH223523   4.279   2.296   1.970 -0.2133 -0.1652 -0.5814
  655TIP3    H123524   4.276   2.245   2.051  1.0016 -2.3452 -1.8258
  655TIP3    H223525   4.190   2.291   1.935 -0.4473 -0.2348  0.0171
  656TIP3   OH223526   6.446   6.393   2.162 -0.0772  0.1955  0.0489
  656TIP3    H123527   6.496   6.422   2.086 -0.1357  1.6272  0.5299
  656TIP3    H223528   6.496   6.320   2.198  1.7989  1.6612  0.5915
  657TIP3   OH223529   6.549   4.566   8.575 -0.8025  0.3347 -0.4288
  657TIP3    H123530   6.464   4.583   8.534 -2.1562 -2.0556  1.1474
  657TIP3    H223531   6.534   4.490   8.631  1.5955  1.7683  2.4310
  658TIP3   OH223532   6.066   6.792   2.149 -0.2693 -0.4743  0.2502
  658TIP3    H123533   6.104   6.715   2.109 -0.2586 -0.2476 -0.1770
  658TIP3    H223534   5.974   6.790   2.123 -0.2429 -0.2784  0.1405
  659TIP3   OH223535   4.499   5.545   1.393  0.2114 -0.7508  0.2458
  659TIP3    H123536   4.468   5.488   1.464  1.3913  0.6422  2.0016
  659TIP3    H223537   4.495   5.633   1.431 -0.6546  0.2586 -2.0422
  660TIP3   OH223538   6.034   0.874   1.792  0.7165 -0.0243 -0.0645
  660TIP3    H123539   5.979   0.943   1.830 -0.0813 -0.4250 -0.4840
  660TIP3    H223540   6.031   0.891   1.697 -0.9620 -1.6862 -0.3539
  661TIP3   OH223541   5.557   2.030   0.822 -0.6246  0.3050 -0.8679
  661TIP3    H123542   5.520   2.117   0.811 -2.3279  0.1467  2.4517
  661TIP3    H223543   5.482   1.972   0.829  0.4434 -1.1448 -0.8768
  662TIP3   OH223544   2.321   4.931   8.670  0.2784 -0.6136 -0.6294
  662TIP3    H123545   2.327   4.836   8.660  3.1258 -0.5391 -0.4065
  662TIP3    H223546   2.363   4.965   8.591 -0.1671  0.4745 -0.4050
  663TIP3   OH223547   5.939   1.676   0.433  0.1260 -0.1954 -0.3246
  663TIP3    H123548   5.992   1.713   0.503 -0.5178  0.1288  0.0104
  663TIP3    H223549   5.849   1.679   0.468 -0.3446  0.8879 -1.5222
  664TIP3   OH223550   1.898   4.783   7.048 -0.4115  0.2249  0.6273
  664TIP3    H123551   1.949   4.713   7.087 -3.7395 -3.2526 -0.6614
  664TIP3    H223552   1.832   4.805   7.115 -3.0913 -2.3383 -0.9342
  665TIP3   OH223553   0.568   6.411   7.636  0.5798 -0.0161 -0.0739
  665TIP3    H123554   0.633   6.432   7.703  0.7818 -2.6742  0.6803
  665TIP3    H223555   0.514   6.342   7.675 -1.4759  0.7344 -1.4197
  666TIP3   OH223556   0.141   5.803   2.006 -0.3353  0.2579  0.4032
  666TIP3    H123557   0.047   5.788   2.016 -0.5786  0.3395 -1.3615
  666TIP3    H223558   0.156   5.798   1.911  0.7962  3.7493  0.2347
  667TIP3   OH223559   1.178   1.589   0.159 -0.2569 -0.3728  0.0217
  667TIP3    H123560   1.121   1.651   0.112 -0.4290 -1.9347 -2.0017
  667TIP3    H223561   1.119   1.520   0.189  0.2506 -0.9057 -0.1668
  668TIP3   OH223562   4.719   5.536   8.454  0.0474  0.7569  0.3842
  668TIP3    H123563   4.661   5.476   8.406 -1.4118  1.3195  1.4006
  668TIP3    H223564   4.729   5.611   8.395 -2.0362  1.6097  1.0349
  669TIP3   OH223565   5.673   5.745   0.515  0.7576  0.6260 -0.5423
  669TIP3    H123566   5.686   5.777   0.604  0.2672 -0.5062 -0.0542
  669TIP3    H223567   5.655   5.824   0.464 -1.3111  1.0912  0.7865
  670TIP3   OH223568   2.213   6.697   1.075  0.1680 -0.3642  0.7285
  670TIP3    H123569   2.257   6.665   0.996  1.0692  0.4143  0.8987
  670TIP3    H223570   2.121   6.672   1.063  0.0357  0.8040 -1.1518
  671TIP3   OH223571   3.726   4.641   2.230 -0.2090 -0.4639 -0.3567
  671TIP3    H123572   3.745   4.559   2.185 -2.0323 -1.1152 -0.0517
  671TIP3    H223573   3.810   4.686   2.236  0.5382 -1.5526 -2.0009
  672TIP3   OH223574   5.151   4.411   8.026 -0.4761 -0.0987  0.1189
  672TIP3    H123575   5.198   4.458   7.956 -0.3414  0.5154  0.6200
  672TIP3    H223576   5.172   4.319   8.010 -0.5586  0.0205 -0.7360
  673TIP3   OH223577   3.118   1.805   8.374  0.5705 -0.0566  0.7455
  673TIP3    H123578   3.070   1.742   8.320  0.2754  0.4588  0.3926
  673TIP3    H223579   3.050   1.846   8.428  0.6478  0.4899  0.4315
  674TIP3   OH223580   6.212   3.834   8.004 -0.8479  0.2816  0.1154
  674TIP3    H123581   6.153   3.890   8.055 -1.1019  0.4977 -0.4035
  674TIP3    H223582   6.154   3.773   7.959 -0.5169 -0.9656  1.3286
  675TIP3   OH223583   5.435   1.777   0.892 -0.5614 -0.5266 -0.4257
  675TIP3    H123584   5.343   1.773   0.865 -1.6575  2.4611  2.1946
  675TIP3    H223585   5.432   1.778   0.988  2.2791 -0.8582 -0.2514
  676TIP3   OH223586   4.490   4.050   1.081 -0.4841 -0.0500  0.6139
  676TIP3    H123587   4.528   4.137   1.074 -2.8940  1.0227 -0.2118
  676TIP3    H223588   4.458   4.044   1.171  0.4884 -0.4672  0.9418
  677TIP3   OH223589   2.598   6.462   2.523  0.2212  0.8000  0.3526
  677TIP3    H123590   2.638   6.545   2.497 -1.2845  0.7946 -2.4540
  677TIP3    H223591   2.565   6.425   2.441 -1.5552 -1.2812  1.8755
  678TIP3   OH223592   2.555   5.608   1.724 -0.2944 -0.5845  0.3249
  678TIP3    H123593   2.635   5.565   1.753 -0.0167 -0.8997 -0.8456
  678TIP3    H223594   2.486   5.571   1.778 -0.0090 -2.2449 -0.4005
  679TIP3   OH223595   0.718   2.350   2.140 -0.1868 -0.2268  0.4768
  679TIP3    H123596   0.680   2.386   2.219 -0.6452  1.5889 -0.5162
  679TIP3    H223597   0.643   2.319   2.089 -0.2092  1.4661 -0.5778
  680TIP3   OH223598   3.074   1.902   0.205 -0.3289  0.5584  0.2570
  680TIP3    H123599   3.089   1.936   0.117  0.1447  2.2110  0.9178
  680TIP3    H223600   3.140   1.946   0.259 -1.7585  1.0460  1.7315
  681TIP3   OH223601   1.392   6.740   2.623 -0.2504 -1.4087 -0.2825
  681TIP3    H123602   1.388   6.749   2.528  0.3007  0.6076 -0.1655
  681TIP3    H223603   1.442   6.816   2.652 -0.7932 -1.7417  1.6663
  682TIP3   OH223604   3.674   2.554   3.362 -0.2522  0.3321  0.3559
  682TIP3    H123605   3.681   2.484   3.298  1.5066  0.4441  0.3807
  682TIP3    H223606   3.697   2.634   3.314 -0.3882  0.6327  0.7785
  683TIP3   OH223607   2.757   6.519   8.615  0.4030  0.1350  0.1345
  683TIP3    H123608   2.712   6.574   8.550  0.3518  0.7434  0.6791
  683TIP3    H223609   2.826   6.574   8.650  1.0004 -0.4941 -0.0301
  684TIP3   OH223610   5.184   2.914   0.114  0.3301 -0.3660  0.0413
  684TIP3    H123611   5.215   3.003   0.099 -0.7136 -0.2930 -2.0552
  684TIP3    H223612   5.150   2.915   0.203 -1.4687  1.9482 -0.5551
  685TIP3   OH223613   6.572   6.460   1.932  0.0955  0.4236  0.0282
  685TIP3    H123614   6.619   6.383   1.900  0.1785  0.9400 -1.1127
  685TIP3    H223615   6.531   6.498   1.855  0.7916  2.0472  0.4090
  686TIP3   OH223616   6.762   5.770   2.342  0.1148 -0.3510 -0.1276
  686TIP3    H123617   6.824   5.843   2.338 -1.4399  1.0798  0.4691
  686TIP3    H223618   6.716   5.782   2.425 -1.4046 -0.9700 -0.8446
  687TIP3   OH223619   6.319   5.872   2.344  0.0821 -0.5870  0.2675
  687TIP3    H123620   6.370   5.795   2.368  1.8832  0.7937  1.0988
  687TIP3    H223621   6.231   5.838   2.327  1.0228 -2.9302 -0.3148
  688TIP3   OH223622   3.469   2.274   0.576  0.5979  0.1981 -0.4006
  688TIP3    H123623   3.435   2.248   0.662 -0.6131 -2.6036 -1.5931
  688TIP3    H223624   3.395   2.319   0.534  0.5498 -0.1235 -0.6585
  689TIP3   OH223625   0.470   6.792   8.035 -0.0691  0.6173  0.0167
  689TIP3    H123626   0.484   6.770   7.943  0.5165  0.1927  0.1983
  689TIP3    H223627   0.503   6.715   8.082 -2.3841 -0.1355  0.5115
  690TIP3   OH223628   5.962   4.825   2.434  0.0748  0.0320 -0.1099
  690TIP3    H123629   5.924   4.774   2.505 -1.1194  2.0562  0.7960
  690TIP3    H223630   6.014   4.893   2.478 -1.0805  1.6230 -1.0907
  691TIP3   OH223631   0.335   0.609   8.367  0.1039 -0.6380 -0.1971
  691TIP3    H123632   0.302   0.570   8.286 -2.1011  1.1435 -0.2664
  691TIP3    H223633   0.402   0.671   8.338 -0.5990 -0.0885 -0.6580
  692TIP3   OH223634   1.579   5.272   1.081 -0.0883 -0.0311 -0.1776
  692TIP3    H123635   1.606   5.193   1.127 -2.6841  0.1426  1.8743
  692TIP3    H223636   1.645   5.337   1.103 -0.0814 -0.5735  1.5269
  693TIP3   OH223637   2.364   0.737   8.456 -0.4856 -0.2299  0.3008
  693TIP3    H123638   2.430   0.668   8.465  1.1742  1.1855 -0.4550
  693TIP3    H223639   2.338   0.734   8.364  0.2028  0.6438  0.0626
  694TIP3   OH223640   1.494   1.707   8.397  0.7439 -0.0462  0.0394
  694TIP3    H123641   1.407   1.711   8.357  1.1366  0.0648 -0.8315
  694TIP3    H223642   1.478   1.690   8.490 -0.2137  0.2140 -0.0722
  695TIP3   OH223643   5.374   0.517   7.706  0.0247  0.0000 -0.0904
  695TIP3    H123644   5.352   0.424   7.718  0.5970  0.1201  2.2072
  695TIP3    H223645   5.302   0.551   7.651 -0.2319 -1.7457 -0.9177
  696TIP3   OH223646   4.043   6.483   8.329 -0.3980 -0.0655 -0.0303
  696TIP3    H123647   4.038   6.389   8.347 -0.6954  0.2913  2.1126
  696TIP3    H223648   4.136   6.500   8.317 -0.4768 -0.8531 -2.0700
  697TIP3   OH223649   3.882   6.012   1.708  0.1739  0.4441  0.0845
  697TIP3    H123650   3.933   6.044   1.634  0.2981 -0.8837 -0.4220
  697TIP3    H223651   3.923   5.929   1.731 -1.3590 -0.3309  0.0980
  698TIP3   OH223652   1.223   3.284   8.800 -0.2089  0.2904 -0.8448
  698TIP3    H123653   1.144   3.336   8.787  0.5227  1.3300 -1.2401
  698TIP3    H223654   1.247   3.253   8.713  0.7200  1.3674 -1.0100
  699TIP3   OH223655   6.504   0.340   0.794 -0.3716  0.0671  1.1452
  699TIP3    H123656   6.525   0.247   0.786 -1.6740 -0.2936  1.6259
  699TIP3    H223657   6.467   0.364   0.709  0.3003  0.2391  0.9010
  700TIP3   OH223658   0.574   1.971   1.923  0.4887  0.1906 -0.5102
  700TIP3    H123659   0.557   1.898   1.864  4.0873  0.1524 -1.7264
  700TIP3    H223660   0.627   1.933   1.993  0.9489  1.2970 -0.2382
  701TIP3   OH223661   2.148   0.777   2.529  0.0103 -0.5154 -0.2563
  701TIP3    H123662   2.237   0.799   2.558  0.1251  0.0268 -0.9927
  701TIP3    H223663   2.092   0.836   2.579 -0.0187 -1.4115  0.8120
  702TIP3   OH223664   1.798   2.741   0.689 -0.3764  0.2752  0.1815
  702TIP3    H123665   1.844   2.702   0.763  0.8524  0.3984 -0.4868
  702TIP3    H223666   1.794   2.834   0.711 -2.8508 -0.0757  1.5349
  703TIP3   OH223667   3.476   1.463   1.205 -0.1949  0.0775 -0.0852
  703TIP3    H123668   3.468   1.552   1.240  0.7362  0.3236 -0.4453
  703TIP3    H223669   3.401   1.453   1.147 -0.6362  0.4072  0.4217
  704TIP3   OH223670   6.339   0.907   1.444  0.0114 -0.2300 -0.7250
  704TIP3    H123671   6.251   0.900   1.480  0.0333 -1.9557 -0.9329
  704TIP3    H223672   6.332   0.870   1.356  0.8372  0.0977 -0.9359
  705TIP3   OH223673   3.018   2.394   0.568 -0.1207  0.2229  0.5672
  705TIP3    H123674   2.938   2.362   0.609 -0.2177  0.1542  0.3233
  705TIP3    H223675   2.994   2.478   0.530 -0.7612 -0.8960 -1.6794
  706TIP3   OH223676   4.553   2.348   0.509  0.2685 -0.0087 -0.2823
  706TIP3    H123677   4.626   2.343   0.448  0.8903  1.9542  0.2261
  706TIP3    H223678   4.590   2.324   0.594 -0.1512 -0.8667 -0.3257
  707TIP3   OH223679   1.650   6.257   8.170 -0.3741  0.8259 -0.4369
  707TIP3    H123680   1.602   6.328   8.212 -1.1435 -0.0604  0.2169
  707TIP3    H223681   1.711   6.227   8.236  0.0434  0.9548 -0.7578
  708TIP3   OH223682   6.468   1.787   1.054 -0.4625 -0.4886 -0.2677
  708TIP3    H123683   6.485   1.777   1.147 -1.1524  2.2659  0.2385
  708TIP3    H223684   6.380   1.753   1.041  0.5804 -3.3380 -0.5144
  709TIP3   OH223685   2.426   5.664   1.143  0.4139  0.0883 -0.2981
  709TIP3    H123686   2.498   5.631   1.090  0.0339  1.5288 -1.8342
  709TIP3    H223687   2.381   5.727   1.085 -2.2246 -0.9302  0.4973
  710TIP3   OH223688   1.293   0.933   8.114 -0.1395  0.3287  0.2570
  710TIP3    H123689   1.280   1.013   8.062 -0.2125 -0.1748 -0.5159
  710TIP3    H223690   1.207   0.913   8.149 -0.6684 -0.6933 -1.4728
  711TIP3   OH223691   2.560   3.351   8.700 -0.1741  0.2155  0.5397
  711TIP3    H123692   2.523   3.426   8.653 -0.0807 -0.1531 -0.1304
  711TIP3    H223693   2.554   3.278   8.637  0.6647 -0.1054  0.8262
  712TIP3   OH223694   0.088   5.679   0.040  0.1204  0.3116 -0.3391
  712TIP3    H123695   0.059   5.693  -0.050  0.5398 -0.1542 -0.5562
  712TIP3    H223696   0.142   5.600   0.036 -1.0946 -0.6056  0.5988
  713TIP3   OH223697   3.753   0.760   2.166 -0.6968  0.1797 -0.5226
  713TIP3    H123698   3.704   0.678   2.161  1.2799 -1.0972  0.2162
  713TIP3    H223699   3.815   0.756   2.094 -0.2255  0.7856 -0.1544
  714TIP3   OH223700   6.229   0.850   2.226 -0.0361  0.6046 -0.2300
  714TIP3    H123701   6.223   0.794   2.149  0.6399 -0.1013  0.2245
  714TIP3    H223702   6.158   0.914   2.215 -0.4141  0.0494 -1.0608
  715TIP3   OH223703   5.472   2.480   2.427  0.0594  0.0761 -0.9886
  715TIP3    H123704   5.449   2.569   2.401  0.3123  0.4220 -0.0690
  715TIP3    H223705   5.408   2.425   2.382 -1.1745  0.8438 -0.2199
  716TIP3   OH223706   3.031   5.638   7.758  0.2334 -0.6717 -0.5733
  716TIP3    H123707   3.056   5.625   7.667  1.5700  0.0811 -0.3335
  716TIP3    H223708   2.940   5.667   7.754 -0.4372 -2.6840 -1.5229
  717TIP3   OH223709   6.147   6.634   0.708  0.0036 -0.1905 -0.1188
  717TIP3    H123710   6.153   6.722   0.671  0.1100  0.5415  1.5482
  717TIP3    H223711   6.219   6.585   0.668  1.2702  1.1044  0.5006
  718TIP3   OH223712   6.436   0.308   1.205  0.5031 -0.4852 -0.4531
  718TIP3    H123713   6.410   0.385   1.155 -0.6905  0.0158  0.8605
  718TIP3    H223714   6.509   0.338   1.259 -0.9561  0.2559  1.2244
  719TIP3   OH223715   0.890   2.646   2.816  0.5202 -0.4472  0.2911
  719TIP3    H123716   0.881   2.708   2.744  0.1377 -0.1957  0.5477
  719TIP3    H223717   0.926   2.567   2.776  3.1652  0.6533  0.3238
  720TIP3   OH223718   3.403   3.553   0.690 -0.0085  0.0874 -0.0436
  720TIP3    H123719   3.344   3.556   0.766  1.9373 -0.0903  1.5429
  720TIP3    H223720   3.406   3.461   0.666 -1.6874  0.3008 -1.2802
  721TIP3   OH223721   4.806   3.565   0.815 -0.2934  0.5056  1.2027
  721TIP3    H123722   4.855   3.604   0.887  0.7193  1.8823 -0.1565
  721TIP3    H223723   4.737   3.628   0.796 -1.1190 -0.2769  1.5246
  722TIP3   OH223724   6.733   2.342   1.959 -0.5444  0.0199  0.0403
  722TIP3    H123725   6.668   2.280   1.992  0.4886 -0.5036  1.1679
  722TIP3    H223726   6.800   2.287   1.919 -0.5305  0.5335 -0.6775
  723TIP3   OH223727   1.000   4.666   7.311 -0.6413  0.7014 -0.4817
  723TIP3    H123728   0.936   4.604   7.345  0.0895 -0.5020 -1.2378
  723TIP3    H223729   0.965   4.692   7.226  0.7050 -1.4195 -1.7834
  724TIP3   OH223730   2.014   0.080   0.726 -0.7454  0.0701  0.0079
  724TIP3    H123731   1.986  -0.004   0.691 -0.4164 -0.0764  0.1003
  724TIP3    H223732   2.000   0.073   0.820 -0.3690 -0.0139  0.0578
  725TIP3   OH223733   5.782   4.164   1.190  0.4380 -0.5205 -0.2046
  725TIP3    H123734   5.817   4.110   1.119  1.8801  0.5425 -0.3526
  725TIP3    H223735   5.764   4.249   1.149  0.4684 -0.1575  0.5210
  726TIP3   OH223736   1.182   4.731   0.294  0.6884  0.1391 -0.1116
  726TIP3    H123737   1.107   4.778   0.256  2.1346  1.8642 -0.9830
  726TIP3    H223738   1.219   4.792   0.358  2.3136  0.0076 -0.8827
  727TIP3   OH223739   3.557   5.232   1.876 -0.1205  0.5079 -0.6784
  727TIP3    H123740   3.502   5.189   1.812  1.9702 -2.3462 -0.7730
  727TIP3    H223741   3.602   5.301   1.828  1.3412 -1.5169 -2.4028
  728TIP3   OH223742   1.976   4.779   3.075  0.0066  0.7043 -0.1388
  728TIP3    H123743   2.070   4.774   3.059 -0.0421 -1.3821 -0.0900
  728TIP3    H223744   1.963   4.732   3.158 -1.2424 -0.6170 -1.0258
  729TIP3   OH223745   3.983   4.079   0.500  0.4404  0.0761 -0.5498
  729TIP3    H123746   4.065   4.075   0.451  0.5246 -0.4771 -0.3690
  729TIP3    H223747   3.915   4.080   0.433  0.5475 -0.8670 -0.6845
  730TIP3   OH223748   3.821   0.893   0.049  0.3722  0.4702 -0.3556
  730TIP3    H123749   3.843   0.800   0.047  2.0813  0.8385 -0.6176
  730TIP3    H223750   3.846   0.921   0.137 -1.9194  0.3249  0.3926
  731TIP3   OH223751   4.730   1.387   0.365 -0.5712  0.5428  0.2056
  731TIP3    H123752   4.812   1.352   0.329 -0.7336 -0.8275  1.1066
  731TIP3    H223753   4.676   1.405   0.288  0.0921  0.2316 -0.3450
  732TIP3   OH223754   6.433   5.298   3.306  0.0944 -0.0648  0.1299
  732TIP3    H123755   6.509   5.288   3.364 -0.1147 -0.0932  0.3993
  732TIP3    H223756   6.456   5.247   3.228  0.1929 -0.3889  0.3674
  733TIP3   OH223757   0.620   3.258   3.237  0.0415 -0.0930  0.0840
  733TIP3    H123758   0.704   3.217   3.213  0.7145  0.9000  0.6643
  733TIP3    H223759   0.555   3.189   3.223  0.7607 -0.4732 -1.7369
  734TIP3   OH223760   0.120   4.506   2.434 -0.1728 -0.1791  0.0695
  734TIP3    H123761   0.081   4.447   2.369 -3.4207 -0.9366  2.4642
  734TIP3    H223762   0.149   4.448   2.504  0.8189  0.8061  0.5046
  735TIP3   OH223763   5.322   6.079   0.635  0.2079  0.2155  0.1752
  735TIP3    H123764   5.378   6.155   0.619 -0.3096  0.5643 -0.0146
  735TIP3    H223765   5.292   6.089   0.725 -2.4434  2.0144 -0.7718
  736TIP3   OH223766   4.408   4.582   2.008 -0.0342 -0.0839  0.0310
  736TIP3    H123767   4.492   4.569   1.964  0.0908 -0.8243  0.4726
  736TIP3    H223768   4.401   4.508   2.069 -0.7002  0.3318  0.4724
  737TIP3   OH223769   3.904   3.807   0.427 -0.3828  0.2635  0.1004
  737TIP3    H123770   3.998   3.806   0.446 -0.6568  0.2551  1.5455
  737TIP3    H223771   3.889   3.728   0.375  0.6022  0.8911 -1.1837
  738TIP3   OH223772   1.740   3.009   0.823 -0.4084 -0.4736  0.1463
  738TIP3    H123773   1.657   3.020   0.869  0.5416  1.9571  1.4336
  738TIP3    H223774   1.798   2.970   0.889 -0.0865 -0.6671 -0.2499
  739TIP3   OH223775   2.291   3.367   8.029 -0.0776 -0.0634 -0.8314
  739TIP3    H123776   2.310   3.299   7.964 -0.6911 -0.9045 -0.1639
  739TIP3    H223777   2.212   3.336   8.073  0.3184  0.4858  0.3077
  740TIP3   OH223778   6.570   2.659   1.334  0.1537  0.0128  0.3196
  740TIP3    H123779   6.641   2.703   1.288  0.3386 -0.9253 -0.3355
  740TIP3    H223780   6.515   2.622   1.264 -0.4698 -0.0466  0.8290
  741TIP3   OH223781   6.118   1.181   1.672 -0.2433 -0.5409 -0.7285
  741TIP3    H123782   6.162   1.247   1.619  0.2441  0.1160  0.4393
  741TIP3    H223783   6.025   1.188   1.649  0.1493 -1.6811 -2.9485
  742TIP3   OH223784   4.322   0.729   1.219 -0.1522 -0.1383 -0.0101
  742TIP3    H123785   4.356   0.649   1.259  0.3603 -1.0342 -2.0738
  742TIP3    H223786   4.367   0.800   1.264  2.2221 -1.1755 -0.5677
  743TIP3   OH223787   4.835   1.795   2.578  0.3314  0.1236  0.1638
  743TIP3    H123788   4.757   1.789   2.633 -1.0739  0.6785 -1.6715
  743TIP3    H223789   4.828   1.719   2.520  1.7845 -0.4560  0.7093
  744TIP3   OH223790   3.109   5.112   1.702  0.1187 -0.5661 -0.4527
  744TIP3    H123791   3.049   5.055   1.653  0.3202  0.3254 -1.7883
  744TIP3    H223792   3.131   5.182   1.641  1.4468 -0.1214  0.4841
  745TIP3   OH223793   4.398   2.075   0.756 -0.3095 -0.2405 -0.3543
  745TIP3    H123794   4.405   1.988   0.796 -3.3610 -1.4488 -2.0597
  745TIP3    H223795   4.376   2.133   0.828 -0.3391 -1.3050  0.5192
  746TIP3   OH223796   0.009   1.577   1.316 -0.5896 -0.3907 -0.0712
  746TIP3    H123797  -0.045   1.514   1.267  2.0255 -0.3938 -3.3210
  746TIP3    H223798   0.073   1.522   1.362  0.5832 -0.2687 -1.4814
  747TIP3   OH223799   1.588   1.052   0.319 -0.7896  0.4948  0.5944
  747TIP3    H123800   1.536   0.973   0.336 -0.0880 -0.1161 -0.0511
  747TIP3    H223801   1.677   1.027   0.344 -0.8749  1.7324  2.3054
  748TIP3   OH223802   5.583   5.165   0.762  0.8106 -0.0578  0.1012
  748TIP3    H123803   5.522   5.112   0.710  0.3126  1.0178 -0.4500
  748TIP3    H223804   5.668   5.150   0.722  0.9822 -1.7803  1.0390
  749TIP3   OH223805   3.412   4.040   0.068 -0.0104 -0.5285  0.0091
  749TIP3    H123806   3.367   4.028  -0.015 -0.5178  0.3948  0.1439
  749TIP3    H223807   3.501   4.064   0.045  0.0818 -1.1252 -0.2616
  750TIP3   OH223808   3.529   3.189   7.902 -0.5070 -0.1552  0.3065
  750TIP3    H123809   3.564   3.187   7.812  1.5497 -1.1520  1.0533
  750TIP3    H223810   3.475   3.267   7.905  0.1381  0.4285 -1.5438
  751TIP3   OH223811   0.436   5.720   2.510 -0.0363  0.7012 -0.6305
  751TIP3    H123812   0.410   5.649   2.452  1.9195  0.1327 -0.8631
  751TIP3    H223813   0.478   5.784   2.452 -1.4435  1.9175 -0.3698
  752TIP3   OH223814   0.406   4.632   2.651 -0.5679  0.1090 -0.6265
  752TIP3    H123815   0.468   4.669   2.714 -0.8654 -1.0550  0.3990
  752TIP3    H223816   0.330   4.607   2.704 -1.3211  0.1765 -1.6381
  753TIP3   OH223817   4.019   0.741   7.333  0.1981 -0.0868  0.0625
  753TIP3    H123818   4.106   0.705   7.349  0.2200 -0.6928 -1.2582
  753TIP3    H223819   4.034   0.833   7.311  0.8031 -0.6806 -2.3596
  754TIP3   OH223820   0.609   5.687   0.106 -0.1906 -0.0381  0.2608
  754TIP3    H123821   0.648   5.648   0.184  0.3781  0.8831  0.4616
  754TIP3    H223822   0.523   5.717   0.135 -0.4821 -0.7927  0.1997
  755TIP3   OH223823   4.166   4.104   0.722  0.2494  0.4667 -0.4015
  755TIP3    H123824   4.156   4.015   0.754  0.2700  0.8069  0.5887
  755TIP3    H223825   4.104   4.110   0.649  0.2001 -0.3306 -0.4329
  756TIP3   OH223826   5.599   5.139   0.126 -0.0833 -0.4964 -0.0219
  756TIP3    H123827   5.573   5.107   0.212 -1.0031  0.1158 -0.0622
  756TIP3    H223828   5.520   5.134   0.073 -1.3286  4.6885  0.7912
  757TIP3   OH223829   1.994   5.735   0.198  0.0893  0.0840 -0.6276
  757TIP3    H123830   2.083   5.743   0.232 -0.0218  0.1729 -0.3528
  757TIP3    H223831   1.973   5.642   0.207 -0.1811  0.2123  0.1747
  758TIP3   OH223832   4.785   2.944   8.561 -0.0150  0.1218  0.0659
  758TIP3    H123833   4.769   2.853   8.533  1.7057 -0.3638  0.5577
  758TIP3    H223834   4.831   2.935   8.645  2.7367  1.3486 -1.1916
  759TIP3   OH223835   0.728   5.950   7.711  0.3046  0.4921 -0.1962
  759TIP3    H123836   0.813   5.932   7.672  0.1173 -3.6123  0.8757
  759TIP3    H223837   0.665   5.922   7.645 -0.1610  0.5662  0.2074
  760TIP3   OH223838   4.856   5.518   0.919  0.0372 -0.1395 -0.3788
  760TIP3    H123839   4.771   5.516   0.875 -0.4625  0.1401  0.5360
  760TIP3    H223840   4.917   5.479   0.856 -0.3366  1.6282 -1.9322
  761TIP3   OH223841   5.665   6.146   8.117  0.0047  0.1187 -0.1817
  761TIP3    H123842   5.751   6.105   8.110 -0.1716 -0.1673 -0.7202
  761TIP3    H223843   5.630   6.115   8.200 -0.0791 -0.7452 -0.5268
  762TIP3   OH223844   2.463   5.423   0.393  0.0838  0.1618  0.3074
  762TIP3    H123845   2.438   5.365   0.321 -0.1792  1.7257 -0.9310
  762TIP3    H223846   2.387   5.424   0.451 -0.7407  0.8678 -0.7501
  763TIP3   OH223847   5.687   2.954   2.566  0.4586  0.0846 -0.5639
  763TIP3    H123848   5.626   2.882   2.584  0.9847 -0.0766  0.6659
  763TIP3    H223849   5.630   3.031   2.557  0.0135 -0.1832 -0.1372
  764TIP3   OH223850   2.845   5.838   7.783  0.5275  0.4327  0.3611
  764TIP3    H123851   2.815   5.917   7.828  2.3929  1.2782  0.2488
  764TIP3    H223852   2.859   5.866   7.693 -1.4112 -0.7748 -0.3535
  765TIP3   OH223853   1.580   3.914   1.891 -0.1899 -0.4000  0.1161
  765TIP3    H123854   1.554   3.930   1.981  0.3328 -3.6877  0.9868
  765TIP3    H223855   1.517   3.963   1.838 -0.8772  1.1160  2.2276
  766TIP3   OH223856   0.498   2.777   1.668 -0.1930 -0.0473  0.5554
  766TIP3    H123857   0.544   2.822   1.597 -0.4309 -0.2707  0.2537
  766TIP3    H223858   0.513   2.684   1.650 -1.7840 -0.1822 -0.2702
  767TIP3   OH223859   1.275   1.234   1.720 -0.0193  0.2565  0.0333
  767TIP3    H123860   1.354   1.180   1.719  0.0473  0.3538  0.0051
  767TIP3    H223861   1.225   1.205   1.644  0.0483  0.2814 -0.0209
  768TIP3   OH223862   1.536   1.638   7.050  0.8864 -0.1787  0.0874
  768TIP3    H123863   1.447   1.652   7.081  0.8550  1.1132 -0.5628
  768TIP3    H223864   1.533   1.553   7.006 -0.0638 -0.0616 -0.0841
  769TIP3   OH223865   2.927   6.781   1.506  0.3194 -0.1890  0.5653
  769TIP3    H123866   2.863   6.828   1.560  2.3600  0.7395  2.3473
  769TIP3    H223867   2.890   6.694   1.495 -2.5071  1.0559 -0.8458
  770TIP3   OH223868   0.889   1.106   8.123 -0.3329 -0.4880  0.2134
  770TIP3    H123869   0.864   1.197   8.109 -0.4727 -0.5658 -0.0383
  770TIP3    H223870   0.895   1.068   8.036 -0.0476 -0.6604  0.3069
  771TIP3   OH223871   1.935   3.541   1.133 -0.0398 -0.2751  0.1212
  771TIP3    H123872   1.930   3.447   1.114  0.2519 -0.2632 -0.0111
  771TIP3    H223873   1.854   3.560   1.180  0.2822 -0.7668  0.8954
  772TIP3   OH223874   6.801   3.375   8.553  0.5810 -0.0290 -0.0025
  772TIP3    H123875   6.749   3.335   8.484 -1.1064  3.1408 -0.7956
  772TIP3    H223876   6.881   3.404   8.509  0.0729  0.8395 -0.3956
  773TIP3   OH223877   4.147   3.529   8.511 -0.5091 -0.2220  0.3445
  773TIP3    H123878   4.125   3.609   8.464  0.4165 -1.8033 -3.1399
  773TIP3    H223879   4.242   3.530   8.518 -0.4263 -1.2627 -0.3421
  774TIP3   OH223880   1.045   6.784   8.266 -0.1590 -0.2695  0.2414
  774TIP3    H123881   0.989   6.746   8.333 -1.2034  0.1275 -0.3725
  774TIP3    H223882   1.020   6.738   8.185 -0.8949  1.1308 -0.3667
  775TIP3   OH223883   6.712   4.706   2.187  0.1552 -0.1260  0.2823
  775TIP3    H123884   6.710   4.649   2.265  1.9456  0.4223  0.7778
  775TIP3    H223885   6.698   4.646   2.114  1.7499 -1.2139  0.8115
  776TIP3   OH223886   5.438   3.580   0.644  0.5279 -0.3527  0.1651
  776TIP3    H123887   5.415   3.557   0.554  2.7972  0.2041 -0.6339
  776TIP3    H223888   5.363   3.630   0.677 -1.1489 -2.1669 -0.7158
  777TIP3   OH223889   6.345   4.896   0.734 -0.0984 -0.2426 -0.1606
  777TIP3    H123890   6.276   4.838   0.766 -2.8262  2.9343  0.1977
  777TIP3    H223891   6.341   4.888   0.638 -1.6422  0.5538 -0.1885
  778TIP3   OH223892   2.315   3.240   0.909 -0.2238  0.9016  0.0950
  778TIP3    H123893   2.302   3.335   0.903 -0.3472  0.9626  1.2160
  778TIP3    H223894   2.269   3.214   0.989 -2.6294 -0.5459 -1.6000
  779TIP3   OH223895   1.731   0.137   1.837 -0.3710 -0.3110 -0.2762
  779TIP3    H123896   1.716   0.230   1.854 -1.6419 -0.9692  2.8525
  779TIP3    H223897   1.797   0.111   1.901  2.3365 -1.0364 -3.1275
  780TIP3   OH223898   3.990   3.298   0.075 -0.5010 -0.4749  0.1766
  780TIP3    H123899   4.024   3.302  -0.014  0.1036  0.0745  0.4138
  780TIP3    H223900   3.939   3.217   0.079 -0.5527 -0.4891 -0.6679
  781TIP3   OH223901   5.999   0.953   2.491  0.2750 -0.7215 -0.8039
  781TIP3    H123902   5.952   0.952   2.575  0.5543  1.4271 -0.5663
  781TIP3    H223903   6.091   0.965   2.516  0.5760 -1.7355 -1.3818
  782TIP3   OH223904   5.532   5.726   3.477 -0.3338 -0.4340 -0.1613
  782TIP3    H123905   5.480   5.650   3.501 -2.3000  1.3266  1.5595
  782TIP3    H223906   5.620   5.707   3.511 -0.9953 -1.5724  0.9983
  783TIP3   OH223907   3.463   1.600   0.934  0.1404  0.7753 -0.9929
  783TIP3    H123908   3.460   1.505   0.940  1.8325  0.7189 -0.5936
  783TIP3    H223909   3.379   1.629   0.970 -1.3034 -0.5883 -3.0177
  784TIP3   OH223910   2.286   6.457   2.124  0.1278 -0.1313  0.0791
  784TIP3    H123911   2.224   6.528   2.105  0.8349  0.5681  0.3276
  784TIP3    H223912   2.263   6.387   2.063 -0.1225  0.5895 -0.6588
  785TIP3   OH223913   4.581   2.938   0.462  0.2004 -0.3161 -0.1584
  785TIP3    H123914   4.505   2.992   0.442 -0.0508 -0.2955  0.8230
  785TIP3    H223915   4.546   2.850   0.475  0.0645  0.0021  2.0267
  786TIP3   OH223916   5.912   2.793   2.574 -0.8750  0.1798  0.5034
  786TIP3    H123917   5.837   2.853   2.573 -0.4335  0.7738 -1.2870
  786TIP3    H223918   5.937   2.785   2.482  2.2107  1.2353  1.1434
  787TIP3   OH223919   0.476   6.222   0.672  0.8190  0.0647  0.4671
  787TIP3    H123920   0.430   6.140   0.653 -0.5634  0.8752  0.1403
  787TIP3    H223921   0.462   6.275   0.593  2.2782  0.3764  0.3993
  788TIP3   OH223922   4.054   5.361   8.679  0.4377  0.1452  0.3561
  788TIP3    H123923   4.102   5.415   8.741  0.8468 -0.1522  0.3042
  788TIP3    H223924   3.990   5.420   8.640  0.7870  0.5566  0.4000
  789TIP3   OH223925   0.479   6.174   7.737 -0.1188 -0.4552 -0.4285
  789TIP3    H123926   0.510   6.134   7.655  1.1238 -2.2720  0.8528
  789TIP3    H223927   0.390   6.141   7.749  0.6373 -2.3551  0.2436
  790TIP3   OH223928   0.126   1.764   3.209 -0.3779 -0.2257  0.2560
  790TIP3    H123929   0.100   1.693   3.268 -0.2983 -1.7428 -1.4339
  790TIP3    H223930   0.189   1.816   3.259  0.8018 -2.2842  1.0310
  791TIP3   OH223931   5.281   2.737   1.505  0.1441  0.0346 -0.1224
  791TIP3    H123932   5.270   2.645   1.480 -1.9058  0.0598  0.4609
  791TIP3    H223933   5.298   2.782   1.422 -0.4631 -0.6707 -0.6493
  792TIP3   OH223934   3.671   0.015   2.310  0.1487  0.0819  0.0135
  792TIP3    H123935   3.694   0.062   2.391  0.2002  0.0449  0.0208
  792TIP3    H223936   3.575   0.014   2.309  0.1476  0.0107  0.1173
  793TIP3   OH223937   6.378   4.075   8.509 -0.1770 -0.0684  0.2466
  793TIP3    H123938   6.345   4.003   8.454 -0.0853 -0.0935  0.2239
  793TIP3    H223939   6.471   4.053   8.523 -0.0229  0.2972 -0.1704
  794TIP3   OH223940   5.244   4.577   0.184  0.3404 -0.3403  0.6461
  794TIP3    H123941   5.197   4.522   0.121 -0.8912  1.3258  0.0374
  794TIP3    H223942   5.332   4.541   0.185  0.0512 -1.2352 -1.0588
  795TIP3   OH223943   6.492   5.282   1.545 -0.1970  0.0839 -0.4353
  795TIP3    H123944   6.504   5.320   1.458 -0.6354  2.9540  0.6352
  795TIP3    H223945   6.554   5.210   1.549  0.1437  0.1561 -2.9425
  796TIP3   OH223946   3.894   4.282   0.244 -0.4806  0.1833 -0.3508
  796TIP3    H123947   3.893   4.324   0.330  0.5829  0.4814 -0.4642
  796TIP3    H223948   3.920   4.192   0.261  0.1173  0.3421 -0.3824
  797TIP3   OH223949   0.896   5.979   1.493  0.2797 -0.1942 -0.1632
  797TIP3    H123950   0.808   5.945   1.482  0.4518 -0.8560  0.4281
  797TIP3    H223951   0.890   6.037   1.569 -0.0811  1.3910 -1.3460
  798TIP3   OH223952   3.964   3.018   7.507  0.1006  0.6738 -0.1340
  798TIP3    H123953   3.993   3.109   7.520 -0.6076  0.8499  0.2894
  798TIP3    H223954   4.001   2.971   7.581  0.1541  0.6941 -0.1478
  799TIP3   OH223955   2.776   1.709   0.824  0.8352 -0.1104 -0.1067
  799TIP3    H123956   2.724   1.784   0.798 -0.1199 -1.5263 -2.6928
  799TIP3    H223957   2.852   1.711   0.765  0.6586 -1.2785 -0.4059
  800TIP3   OH223958   1.024   1.183   2.316 -0.4295  0.7810 -0.3106
  800TIP3    H123959   1.039   1.131   2.395  0.7629  1.8561  0.1948
  800TIP3    H223960   1.066   1.134   2.246 -0.8310  0.2035 -0.1520
  801TIP3   OH223961   1.464   0.398   0.141  0.3813 -0.6572 -1.6536
  801TIP3    H123962   1.429   0.430   0.058  2.2790  1.5428 -1.7202
  801TIP3    H223963   1.502   0.312   0.121  1.0239 -0.0496 -3.1546
  802TIP3   OH223964   0.883   1.160   8.412 -0.6846  0.7103 -0.0679
  802TIP3    H123965   0.972   1.167   8.446 -0.4831 -1.5595  0.0486
  802TIP3    H223966   0.893   1.159   8.317 -0.4126 -0.8281 -0.0473
  803TIP3   OH223967   2.690   5.050   0.814 -0.2718  0.4808  0.7062
  803TIP3    H123968   2.636   4.987   0.861 -0.4482  0.1741  0.1070
  803TIP3    H223969   2.764   4.998   0.782 -0.9570  0.3306 -0.7076
  804TIP3   OH223970   5.996   6.680   2.824  0.0628  0.1215 -0.4866
  804TIP3    H123971   5.984   6.642   2.911  1.4027 -0.8276 -0.6753
  804TIP3    H223972   5.909   6.710   2.799 -0.7837 -1.4962  0.3234
  805TIP3   OH223973   0.994   3.268   2.335  0.6153  0.1044 -0.0707
  805TIP3    H123974   0.937   3.221   2.274 -0.3425  1.4780 -0.2894
  805TIP3    H223975   0.975   3.229   2.420 -0.1568  0.0895 -0.2409
  806TIP3   OH223976   4.772   1.483   0.605 -0.0616  0.2521  0.4256
  806TIP3    H123977   4.822   1.419   0.655  1.9571  1.0505 -0.4346
  806TIP3    H223978   4.748   1.438   0.525  0.5624  0.2891  0.2150
  807TIP3   OH223979   2.130   0.459   0.202 -0.3795  0.1597  0.1694
  807TIP3    H123980   2.225   0.471   0.197 -0.1399 -0.6546  1.9368
  807TIP3    H223981   2.095   0.548   0.207  0.3589  0.4502  0.3180
  808TIP3   OH223982   5.110   2.107   0.392  0.0519 -0.5554  0.1488
  808TIP3    H123983   5.165   2.092   0.469  3.8800 -1.2388 -2.4165
  808TIP3    H223984   5.128   2.032   0.335 -0.5830  1.1193 -2.4315
  809TIP3   OH223985   0.666   1.321   0.496  0.2488  0.0815 -0.2824
  809TIP3    H123986   0.627   1.268   0.564 -1.0382  0.8830 -0.3596
  809TIP3    H223987   0.655   1.411   0.526  3.6091  0.3481  0.5138
  810TIP3   OH223988   1.860   0.682   0.720 -0.1448 -0.2463  0.1413
  810TIP3    H123989   1.862   0.737   0.641  0.2585 -0.4284  0.0225
  810TIP3    H223990   1.771   0.692   0.754 -0.3118 -0.1378 -0.3180
  811TIP3   OH223991   0.632   3.610   0.922 -0.4343  0.0073 -0.0648
  811TIP3    H123992   0.556   3.559   0.950  0.8305 -1.4765  0.8316
  811TIP3    H223993   0.672   3.558   0.852  1.0214 -0.4451  1.0431
  812TIP3   OH223994   2.791   2.281   0.693 -0.2274  0.3329 -0.2606
  812TIP3    H123995   2.727   2.256   0.760  0.2097 -1.2868 -0.3965
  812TIP3    H223996   2.741   2.284   0.612 -0.5271  1.1261 -0.0498
  813TIP3   OH223997   2.488   6.048   1.531 -0.6721 -0.2383 -0.0257
  813TIP3    H123998   2.553   6.114   1.556 -1.4542  0.3352  0.5265
  813TIP3    H223999   2.446   6.083   1.453  1.0501 -1.5533 -1.6483
  814TIP3   OH224000   2.756   5.090   1.138 -0.2858  0.0467  0.4493
  814TIP3    H124001   2.667   5.071   1.109  0.5237 -0.5734 -1.9182
  814TIP3    H224002   2.749   5.174   1.184 -2.3112 -0.8071  1.8099
  815TIP3   OH224003   4.076   3.941   8.315  0.4676  0.1296 -0.2044
  815TIP3    H124004   4.150   3.881   8.321  0.8993  0.2540 -3.0803
  815TIP3    H224005   4.049   3.955   8.406 -0.0357 -4.8113  0.6453
  816TIP3   OH224006   1.646   1.648   2.016  0.7744 -0.7822  0.1466
  816TIP3    H124007   1.697   1.705   1.958  1.8360 -1.1783  0.6740
  816TIP3    H224008   1.577   1.613   1.959  0.0685  1.0088 -0.2016
  817TIP3   OH224009   2.491   4.418   2.463  0.1267 -0.2058 -1.0024
  817TIP3    H124010   2.542   4.499   2.468  0.3265 -0.2752 -1.7823
  817TIP3    H224011   2.504   4.377   2.548  1.4468 -0.2476 -1.1930
  818TIP3   OH224012   1.071   0.341   0.385  0.0215 -0.5592  0.7259
  818TIP3    H124013   0.976   0.356   0.388 -0.0963 -1.3820  1.5170
  818TIP3    H224014   1.098   0.377   0.301 -1.1343 -1.0718  0.1174
  819TIP3   OH224015   3.813   5.946   2.041 -0.3091  0.0817  0.0614
  819TIP3    H124016   3.805   6.006   1.967 -2.1694 -0.9806 -0.6613
  819TIP3    H224017   3.836   6.003   2.115 -1.9341  1.6905 -0.5985
  820TIP3   OH224018   3.038   1.906   2.188  0.0809 -0.1833 -0.3648
  820TIP3    H124019   3.063   1.991   2.151  0.6528  0.2334  0.9272
  820TIP3    H224020   3.023   1.851   2.112 -0.8702  1.2270 -1.2461
  821TIP3   OH224021   1.540   3.165   2.309  0.0205 -0.3169  0.3402
  821TIP3    H124022   1.461   3.203   2.348 -0.7602 -0.4415 -1.0537
  821TIP3    H224023   1.576   3.235   2.255 -0.6595 -1.0545 -1.1465
  822TIP3   OH224024   2.853   5.080   8.525  0.1180 -0.1842 -0.6897
  822TIP3    H124025   2.793   5.005   8.523 -1.7444  1.2405 -2.9617
  822TIP3    H224026   2.842   5.122   8.440  0.7827  2.8945  0.6164
  823TIP3   OH224027   0.710   2.771   7.388  0.0660 -0.0946 -0.6388
  823TIP3    H124028   0.727   2.716   7.312 -2.7684  0.7509 -1.9977
  823TIP3    H224029   0.783   2.832   7.391  1.8558 -2.1176 -0.7125
  824TIP3   OH224030   2.946   5.559   1.587 -0.0002  0.8005  0.2002
  824TIP3    H124031   2.952   5.606   1.670  2.1744  1.6632 -0.3695
  824TIP3    H224032   2.915   5.624   1.524  0.0056  0.6247  0.0126
  825TIP3   OH224033   0.724   2.763   8.380 -0.5113  0.3244  0.1915
  825TIP3    H124034   0.798   2.794   8.433  0.7403  0.4853 -1.5415
  825TIP3    H224035   0.648   2.807   8.417  0.4847  1.3838  1.0783
  826TIP3   OH224036   4.074   2.249   1.392 -0.5010 -0.3963  0.3993
  826TIP3    H124037   4.118   2.164   1.399 -1.6400 -1.1146 -0.6477
  826TIP3    H224038   3.996   2.231   1.340 -1.2801  1.1128  0.9838
  827TIP3   OH224039   4.723   1.294   8.289 -0.3239 -0.4656  0.0448
  827TIP3    H124040   4.705   1.250   8.206 -1.7328  0.7551 -0.3638
  827TIP3    H224041   4.654   1.263   8.348  0.0425 -0.5381  0.4390
  828TIP3   OH224042   6.239   5.543   2.248  0.2858 -0.3076 -0.5738
  828TIP3    H124043   6.155   5.572   2.212  0.1604 -0.0777 -0.1029
  828TIP3    H224044   6.227   5.548   2.343  0.7967 -0.3801 -0.5050
  829TIP3   OH224045   3.339   1.554   2.315 -0.0450  0.5350 -0.5000
  829TIP3    H124046   3.287   1.482   2.279  0.1442  0.9637 -1.6832
  829TIP3    H224047   3.426   1.541   2.279  0.0735  1.1527 -0.4426
  830TIP3   OH224048   5.269   2.389   7.626 -0.0327 -0.2333 -0.2850
  830TIP3    H124049   5.343   2.331   7.638 -0.0890 -0.6214 -1.6894
  830TIP3    H224050   5.306   2.469   7.588 -0.1704  0.0668  0.1939
  831TIP3   OH224051   3.126   2.892   0.604 -0.1599 -0.6503 -0.2278
  831TIP3    H124052   3.102   2.811   0.560  2.3404 -1.7215  0.2326
  831TIP3    H224053   3.176   2.864   0.681  0.5103  1.2992  0.1065
  832TIP3   OH224054   4.911   6.639   8.054 -0.2492  1.3270 -0.2106
  832TIP3    H124055   4.979   6.577   8.026 -0.4771  0.9610  0.0307
  832TIP3    H224056   4.948   6.725   8.036  0.5708  1.1502  0.5523
  833TIP3   OH224057   6.642   4.088   8.643 -0.1193 -0.4574 -0.2841
  833TIP3    H124058   6.732   4.119   8.639 -0.5917  1.2966  1.0941
  833TIP3    H224059   6.643   4.020   8.711 -0.0719  0.6226  0.8303
  834TIP3   OH224060   4.413   4.248   1.307  0.7716 -0.5051  0.2612
  834TIP3    H124061   4.382   4.164   1.341  1.0450 -1.6412 -2.0713
  834TIP3    H224062   4.343   4.276   1.247  0.8516  0.7594  0.7403
  835TIP3   OH224063   6.124   3.059   6.856 -0.5300 -0.2291  0.0816
  835TIP3    H124064   6.215   3.039   6.877 -0.6027 -0.5427  0.0926
  835TIP3    H224065   6.111   3.148   6.891 -0.1340 -0.0501 -0.2224
  836TIP3   OH224066   0.083   6.783   0.371  0.2376  0.0947  0.1654
  836TIP3    H124067   0.113   6.711   0.426  0.2165  0.1931  0.3079
  836TIP3    H224068   0.130   6.859   0.404 -1.8775  0.7305  2.0003
  837TIP3   OH224069   2.260   0.275   7.528  0.3231 -0.6319 -0.3038
  837TIP3    H124070   2.190   0.335   7.554  0.0664 -0.9680 -0.2083
  837TIP3    H224071   2.328   0.289   7.593  0.4025 -0.2080 -0.4718
  838TIP3   OH224072   1.778   1.248   1.574  0.0651 -0.1261  0.5854
  838TIP3    H124073   1.870   1.243   1.597  0.0547  1.3160  1.0724
  838TIP3    H224074   1.765   1.179   1.509  1.7587  0.3881 -0.3433
  839TIP3   OH224075   3.338   4.387   2.661 -0.0862  0.1698  0.1381
  839TIP3    H124076   3.338   4.480   2.684 -0.5020  0.0051  0.8161
  839TIP3    H224077   3.289   4.345   2.731 -0.3154 -0.5039 -0.4168
  840TIP3   OH224078   3.848   3.820   2.158 -0.1396 -0.3253 -0.2161
  840TIP3    H124079   3.847   3.916   2.164 -0.0187 -0.4020  1.2501
  840TIP3    H224080   3.842   3.790   2.248  0.9117 -1.7061 -0.5674
  841TIP3   OH224081   5.110   4.867   1.566 -0.0387  0.5664  0.2048
  841TIP3    H124082   5.186   4.834   1.614  0.0552 -2.0704 -1.5561
  841TIP3    H224083   5.038   4.863   1.630  0.7593  0.5054  1.1189
  842TIP3   OH224084   5.293   6.631   0.587 -0.2983 -0.0474 -0.0088
  842TIP3    H124085   5.313   6.578   0.510 -0.1706  0.8273 -0.5927
  842TIP3    H224086   5.372   6.626   0.641  0.5571  1.2772 -1.0802
  843TIP3   OH224087   1.630   3.797   0.056 -0.1665  0.0347  0.4399
  843TIP3    H124088   1.689   3.847  -0.000 -1.0642  1.5178  0.7564
  843TIP3    H224089   1.666   3.708   0.057  1.6536  0.7398  0.0859
  844TIP3   OH224090   4.330   0.202   0.191  0.1258 -0.4348  0.6025
  844TIP3    H124091   4.264   0.161   0.135  0.1336 -1.1971  1.1396
  844TIP3    H224092   4.411   0.155   0.170  0.3509  0.0138  0.4636
  845TIP3   OH224093   1.493   4.815   8.439  0.2630  0.5257 -0.1312
  845TIP3    H124094   1.534   4.831   8.524 -1.8094 -1.1260  1.3028
  845TIP3    H224095   1.507   4.722   8.423 -0.2797  0.5968 -1.0947
  846TIP3   OH224096   0.706   0.430   1.274 -0.4281  0.5033 -0.2496
  846TIP3    H124097   0.733   0.481   1.197  0.5522 -0.4576 -0.5787
  846TIP3    H224098   0.734   0.341   1.253 -0.5966  0.1422  1.0202
  847TIP3   OH224099   6.468   6.648   1.402  0.3181  0.0456 -0.0056
  847TIP3    H124100   6.556   6.618   1.381  0.4385  0.0232  0.5152
  847TIP3    H224101   6.411   6.593   1.349  0.5595 -0.7429  0.5314
  848TIP3   OH224102   3.198   5.831   7.899  0.5212 -0.5130 -0.2087
  848TIP3    H124103   3.244   5.748   7.886 -0.1913 -0.7820 -1.1035
  848TIP3    H224104   3.117   5.822   7.848 -0.2124  0.2090  0.7852
  849TIP3   OH224105   2.561   5.312   6.904 -0.1759 -0.5807  0.2487
  849TIP3    H124106   2.596   5.358   6.981  0.2358 -1.2350  0.4663
  849TIP3    H224107   2.559   5.378   6.835  0.9882 -0.3758  0.3838
  850TIP3   OH224108   2.607   5.165   2.431  0.0140  0.1376  0.3314
  850TIP3    H124109   2.534   5.202   2.481 -1.7962 -0.6174 -1.6221
  850TIP3    H224110   2.651   5.241   2.393 -1.0638  0.5196 -0.1837
  851TIP3   OH224111   6.657   4.672   7.991 -0.3204  0.1089 -0.3710
  851TIP3    H124112   6.648   4.766   8.006 -0.1442  0.8462 -3.8451
  851TIP3    H224113   6.580   4.648   7.939  0.8537 -1.0486 -1.6785
  852TIP3   OH224114   5.608   3.940   0.529  0.3264  0.0772  0.2986
  852TIP3    H124115   5.688   3.950   0.476  0.4253  0.9512  0.5866
  852TIP3    H224116   5.554   3.879   0.479 -0.4041  2.3108 -1.8544
  853TIP3   OH224117   6.681   1.791   0.443 -0.3914 -0.3869 -0.6037
  853TIP3    H124118   6.772   1.789   0.412  0.7471  1.5281  2.2702
  853TIP3    H224119   6.676   1.720   0.506  0.3005  1.6481  1.9063
  854TIP3   OH224120   5.822   1.729   2.166 -0.0152  0.1194 -0.1418
  854TIP3    H124121   5.815   1.734   2.070 -0.1566 -0.3776 -0.1612
  854TIP3    H224122   5.734   1.752   2.197  0.0596  0.3850 -0.1272
  855TIP3   OH224123   1.335   3.502   0.859 -0.2726 -0.4214 -0.4071
  855TIP3    H124124   1.271   3.511   0.929  0.2478  2.8061 -0.1835
  855TIP3    H224125   1.297   3.551   0.786  1.1962  0.1283 -0.8343
  856TIP3   OH224126   2.764   3.187   7.654  0.0416  0.0433  0.0519
  856TIP3    H124127   2.706   3.183   7.578 -1.7845 -0.4922  1.3939
  856TIP3    H224128   2.849   3.156   7.621 -0.4178  0.7711 -1.9627
  857TIP3   OH224129   3.534   3.291   8.666  0.2503 -0.6893 -0.6986
  857TIP3    H124130   3.598   3.222   8.649  0.9176 -0.2611  0.0273
  857TIP3    H224131   3.558   3.326   8.752 -0.0960  0.4331 -1.0431
  858TIP3   OH224132   1.349   5.029   7.658  0.1067  0.2415  0.1184
  858TIP3    H124133   1.416   5.040   7.725  2.0825 -2.2028 -1.2307
  858TIP3    H224134   1.282   4.974   7.699 -0.1967  1.2129  0.9469
  859TIP3   OH224135   6.665   1.104   2.023  0.0320  0.2635 -0.1895
  859TIP3    H124136   6.665   1.190   2.065 -0.1091 -0.2179  0.8277
  859TIP3    H224137   6.620   1.118   1.940  0.2944  1.2344 -0.1849
  860TIP3   OH224138   6.749   1.577   1.651 -0.3090 -0.6707 -0.0443
  860TIP3    H124139   6.713   1.654   1.608 -0.7722 -0.1544  1.2161
  860TIP3    H224140   6.840   1.574   1.622 -0.3248  0.2698 -0.2331
  861TIP3   OH224141   4.732   2.592   0.120 -0.1099  0.2769  0.2223
  861TIP3    H124142   4.712   2.673   0.167  0.3591  0.1895  0.5862
  861TIP3    H224143   4.657   2.535   0.136 -0.0159  0.2971  0.7715
  862TIP3   OH224144   3.201   6.324   7.170 -0.4349 -0.6566 -0.6060
  862TIP3    H124145   3.161   6.374   7.098  0.3204  0.9889  0.0615
  862TIP3    H224146   3.251   6.389   7.219  2.4369 -2.4388 -0.9263
  863TIP3   OH224147   6.673   2.002   2.963  0.2896  0.0856 -0.3449
  863TIP3    H124148   6.586   2.018   2.926 -0.4589 -2.0593  0.3240
  863TIP3    H224149   6.717   2.087   2.959 -1.6271  1.1016 -1.2124
  864TIP3   OH224150   3.603   4.709   8.430  0.0811  0.2369  0.4005
  864TIP3    H124151   3.560   4.794   8.418  2.4079  1.4665  0.2060
  864TIP3    H224152   3.679   4.712   8.372 -0.0156 -2.2040  0.0544
  865TIP3   OH224153   2.188   1.368   8.539 -0.4811  0.4218 -0.2453
  865TIP3    H124154   2.130   1.394   8.467  0.2693 -1.3624 -1.5873
  865TIP3    H224155   2.197   1.447   8.592 -3.3878  1.0246 -0.4543
  866TIP3   OH224156   6.349   5.150   0.543  0.0331  0.4707 -0.0713
  866TIP3    H124157   6.330   5.061   0.512 -0.8082  0.2880  0.9100
  866TIP3    H224158   6.271   5.176   0.591 -0.0427  2.0492 -0.9702
  867TIP3   OH224159   0.007   1.383   1.869  0.1053  0.5834  0.4435
  867TIP3    H124160   0.020   1.448   1.799  1.0844  0.2147  0.2593
  867TIP3    H224161  -0.057   1.321   1.833 -0.3353  1.0834  0.3642
  868TIP3   OH224162   5.228   5.213   8.353 -0.5854 -0.5093  0.2510
  868TIP3    H124163   5.258   5.152   8.286 -3.2089 -0.5761 -0.9823
  868TIP3    H224164   5.136   5.191   8.367 -0.5025  0.4434  2.8867
  869TIP3   OH224165   3.813   1.336   0.825 -0.2076 -0.6158  0.5453
  869TIP3    H124166   3.816   1.242   0.804 -1.2754 -0.3654 -0.8748
  869TIP3    H224167   3.905   1.361   0.835  0.0400 -2.2674  3.2967
  870TIP3   OH224168   0.961   4.573   1.705  0.2230 -0.1834  0.1808
  870TIP3    H124169   1.012   4.492   1.706  0.2333 -0.1882  1.3911
  870TIP3    H224170   0.944   4.590   1.613 -0.0288 -1.7213 -0.0885
  871TIP3   OH224171   0.540   0.725   0.926  0.3082 -0.0118  0.1679
  871TIP3    H124172   0.524   0.793   0.991 -1.2045  0.3128 -0.4921
  871TIP3    H224173   0.621   0.752   0.883 -0.3787  1.5264 -0.2259
  872TIP3   OH224174   6.181   5.897   1.067  0.3908 -0.1319  0.5389
  872TIP3    H124175   6.201   5.857   1.152  0.3627  0.3468  0.7794
  872TIP3    H224176   6.187   5.991   1.084  1.2193 -0.0384 -0.1905
  873TIP3   OH224177   5.483   3.150   2.548  0.3442 -0.2243  0.0863
  873TIP3    H124178   5.515   3.193   2.469  0.3556  0.0020  0.2126
  873TIP3    H224179   5.438   3.219   2.596 -0.9144 -0.6841 -0.4004
  874TIP3   OH224180   1.287   6.398   1.260 -0.1568  0.0959 -0.4671
  874TIP3    H124181   1.246   6.410   1.345  0.9153 -0.9054  0.2244
  874TIP3    H224182   1.274   6.306   1.240  1.7399 -0.2791 -0.1908
  875TIP3   OH224183   2.995   4.550   1.564 -0.3211  0.5209  0.2267
  875TIP3    H124184   3.085   4.579   1.546 -0.7464  1.4836 -0.4172
  875TIP3    H224185   2.961   4.524   1.478 -0.6784  0.2096  0.4612
  876TIP3   OH224186   4.917   0.989   7.752 -0.0769  0.5657  0.8623
  876TIP3    H124187   4.855   1.049   7.711 -0.7153 -1.0475 -0.6536
  876TIP3    H224188   5.003   1.028   7.737 -0.3751  0.5014 -1.2223
  877TIP3   OH224189   5.616   3.862   1.680 -0.0735  0.0995  0.2232
  877TIP3    H124190   5.617   3.897   1.769  0.5897  0.1562  0.1938
  877TIP3    H224191   5.569   3.928   1.629  0.2797  0.4608  0.3645
  878TIP3   OH224192   4.798   3.750   1.162  0.0584  0.2413 -0.0925
  878TIP3    H124193   4.824   3.836   1.196  1.5610  0.3697 -1.4014
  878TIP3    H224194   4.880   3.711   1.132 -0.3689 -2.2827  1.7344
  879TIP3   OH224195   2.662   1.230   1.225  0.2169  0.1353  0.1728
  879TIP3    H124196   2.690   1.314   1.189 -0.2818  0.0567 -0.4229
  879TIP3    H224197   2.573   1.219   1.193 -0.0427 -0.2112  0.9798
  880TIP3   OH224198   0.572   2.593   2.766 -0.1523  0.0099  0.1703
  880TIP3    H124199   0.570   2.499   2.749  0.4799 -0.3882  2.0645
  880TIP3    H224200   0.649   2.625   2.720 -0.9579 -0.1846 -1.3587
  881TIP3   OH224201   1.682   2.358   2.249 -0.0800  0.4671  0.3145
  881TIP3    H124202   1.706   2.445   2.217 -1.5598  0.6961 -0.2375
  881TIP3    H224203   1.706   2.360   2.342  0.4314  1.2495  0.1795
  882TIP3   OH224204   2.780   1.226   1.547  0.2342  0.0878  0.0037
  882TIP3    H124205   2.802   1.317   1.564 -1.8024  0.2061  2.6942
  882TIP3    H224206   2.706   1.229   1.487 -0.9706  0.3540  1.4529
  883TIP3   OH224207   1.457   4.994   0.282 -0.0178 -0.4591 -0.1760
  883TIP3    H124208   1.478   5.080   0.245  1.3927 -0.9192 -0.5334
  883TIP3    H224209   1.412   5.013   0.364  2.3891  0.6928  0.9859
  884TIP3   OH224210   0.700   6.442   1.684  0.0254  0.0933 -0.6101
  884TIP3    H124211   0.746   6.505   1.740 -0.1350 -1.8832  1.9626
  884TIP3    H224212   0.766   6.410   1.623  1.6925 -1.2127  1.7066
  885TIP3   OH224213   0.304   4.210   0.942 -0.1520  0.1441  0.8133
  885TIP3    H124214   0.241   4.157   0.990  1.1666 -1.1463  1.1671
  885TIP3    H224215   0.266   4.220   0.855 -0.9719 -0.3621  1.1076
  886TIP3   OH224216   1.455   4.312   0.630 -0.2918 -0.5025 -0.2204
  886TIP3    H124217   1.421   4.323   0.541 -0.1585 -1.9880 -0.4869
  886TIP3    H224218   1.527   4.374   0.636 -2.4675  2.2281  0.1123
  887TIP3   OH224219   0.214   0.614   7.215  0.0659  1.1075  0.3411
  887TIP3    H124220   0.228   0.695   7.165  0.9006  0.9336  0.2813
  887TIP3    H224221   0.302   0.588   7.243 -0.2445  0.4360  0.6986
  888TIP3   OH224222   5.648   0.595   1.761 -0.1229 -0.0950 -0.0786
  888TIP3    H124223   5.744   0.584   1.761  0.0957  1.5020  0.9463
  888TIP3    H224224   5.633   0.669   1.820 -1.8897  0.6262 -1.3551
  889TIP3   OH224225   5.089   4.817   0.996  0.3480 -0.6249 -0.5250
  889TIP3    H124226   5.008   4.767   1.005  1.4221 -2.6531 -1.4216
  889TIP3    H224227   5.063   4.895   0.945 -0.8447 -1.8226 -1.8606
  890TIP3   OH224228   1.165   1.232   1.206  0.6733 -0.1147 -0.6129
  890TIP3    H124229   1.250   1.196   1.179  0.7052  0.6954 -1.6571
  890TIP3    H224230   1.124   1.262   1.124 -0.5471 -0.3267 -0.1058
  891TIP3   OH224231   6.045   2.555   0.724  0.1379 -0.1063  0.4204
  891TIP3    H124232   6.082   2.588   0.642  2.3415 -0.9512  1.0092
  891TIP3    H224233   6.075   2.618   0.790  0.7891 -0.9436  0.9450
  892TIP3   OH224234   5.018   1.523   1.545  0.2706  0.2035  1.0242
  892TIP3    H124235   5.102   1.506   1.588 -0.9923 -0.5320  3.3359
  892TIP3    H224236   5.014   1.458   1.475  1.4690  0.0099  1.1166
  893TIP3   OH224237   4.496   2.020   0.212  0.4606  0.2486 -0.3696
  893TIP3    H124238   4.527   2.110   0.224 -3.7894  1.8032  1.1753
  893TIP3    H224239   4.514   1.977   0.296  0.7882  0.2786 -0.4248
  894TIP3   OH224240   2.041   1.765   2.908 -0.0884 -0.3714 -0.3358
  894TIP3    H124241   2.071   1.684   2.867 -3.5228 -2.7080  1.3103
  894TIP3    H224242   1.950   1.775   2.878 -0.2983  1.9668  0.8414
  895TIP3   OH224243   2.312   3.900   2.939 -0.0238 -0.0533 -0.2985
  895TIP3    H124244   2.322   3.805   2.939  0.0838 -0.0417 -0.2823
  895TIP3    H224245   2.252   3.918   3.011  1.3890  0.0490  0.8862
  896TIP3   OH224246   1.826   1.320   2.652  0.0544  0.3526  0.3777
  896TIP3    H124247   1.882   1.371   2.594 -1.8927  1.9571 -0.2238
  896TIP3    H224248   1.741   1.365   2.649 -1.2260 -1.8260  1.3880
  897TIP3   OH224249   4.708   4.480   8.489  0.2649 -0.2553  0.5388
  897TIP3    H124250   4.661   4.545   8.540 -0.1403 -0.1585  0.0464
  897TIP3    H224251   4.656   4.400   8.497 -0.5048  0.0837 -0.7528
  898TIP3   OH224252   6.436   5.901   8.196 -0.1193 -0.4789 -0.2853
  898TIP3    H124253   6.470   5.824   8.242  1.2798  0.2062 -0.0803
  898TIP3    H224254   6.503   5.920   8.130 -0.4431  0.5299 -0.3378
  899TIP3   OH224255   3.524   1.993   2.207  0.4678 -0.1496  0.4730
  899TIP3    H124256   3.471   1.914   2.215  0.3803 -0.2031 -0.5397
  899TIP3    H224257   3.478   2.046   2.142 -0.3308  1.4483  2.2245
  900TIP3   OH224258   0.396   1.733   0.696 -0.0674 -0.1906 -0.0704
  900TIP3    H124259   0.468   1.795   0.705  0.4372 -0.6223 -1.0345
  900TIP3    H224260   0.399   1.681   0.777  0.2341  0.2734  0.2174
  901TIP3   OH224261   5.469   4.132   7.286 -0.1087 -0.1339  0.2915
  901TIP3    H124262   5.527   4.067   7.246 -1.1986 -0.1729 -1.3237
  901TIP3    H224263   5.436   4.183   7.212  0.5345  2.1480  1.5099
  902TIP3   OH224264   6.721   0.318   0.541 -0.6496 -0.1236  0.5119
  902TIP3    H124265   6.704   0.252   0.475 -0.9631  0.1750  0.2909
  902TIP3    H224266   6.727   0.269   0.623 -0.8806 -0.4240  0.3518
  903TIP3   OH224267   6.039   4.138   0.971 -0.0566  0.2933 -0.0914
  903TIP3    H124268   6.114   4.191   0.946  0.2175  0.8442  1.7909
  903TIP3    H224269   5.965   4.200   0.971  0.2458  0.7139  2.0091
  904TIP3   OH224270   6.718   4.556   8.376  0.1061  0.2789 -0.2613
  904TIP3    H124271   6.669   4.542   8.458 -0.3556  1.4246 -0.3276
  904TIP3    H224272   6.755   4.470   8.356 -1.6561 -0.5767 -0.0512
  905TIP3   OH224273   2.708   4.258   7.733  0.0898  0.1856  0.2346
  905TIP3    H124274   2.639   4.314   7.769  0.6106  0.3936  0.9283
  905TIP3    H224275   2.679   4.239   7.643 -0.6879  0.5608  0.3963
  906TIP3   OH224276   0.361   6.494   1.728  0.5927  0.0799  0.1211
  906TIP3    H124277   0.354   6.398   1.727 -0.1531  0.1106  0.8714
  906TIP3    H224278   0.423   6.512   1.799  1.5719  0.1367 -0.7144
  907TIP3   OH224279   5.477   0.898   0.989 -0.3072 -0.1964  0.0393
  907TIP3    H124280   5.498   0.939   1.073 -0.8579 -1.4339  0.8032
  907TIP3    H224281   5.384   0.915   0.977 -0.7740 -1.9981  0.8408
  908TIP3   OH224282   3.016   4.204   0.641 -0.3069 -0.5782  0.1678
  908TIP3    H124283   2.923   4.221   0.654 -0.3566 -1.3728  0.9229
  908TIP3    H224284   3.024   4.176   0.550 -0.6957  0.1811 -0.1073
  909TIP3   OH224285   4.225   2.029   7.901  0.2285  0.2130 -0.3371
  909TIP3    H124286   4.206   2.025   7.807  0.7473  0.1368 -0.4432
  909TIP3    H224287   4.320   2.040   7.905  0.0587  1.8235  0.1470
  910TIP3   OH224288   4.674   6.806   8.270  0.2336  0.4350  0.3728
  910TIP3    H124289   4.610   6.841   8.332  0.5121 -0.8282  1.4017
  910TIP3    H224290   4.758   6.833   8.306  0.3412  1.9161 -0.8704
  911TIP3   OH224291   1.022   3.323   7.453 -0.7788 -0.3990  0.4461
  911TIP3    H124292   1.059   3.235   7.452 -2.2912 -1.0610  0.1319
  911TIP3    H224293   0.942   3.315   7.505 -1.0527  0.7386  0.2260
  912TIP3   OH224294   3.336   3.003   1.123  0.1699  0.0247  0.4316
  912TIP3    H124295   3.382   3.085   1.108  1.0228 -0.9739 -3.4807
  912TIP3    H224296   3.247   3.019   1.092 -0.1865 -0.0472  1.3834
  913TIP3   OH224297   4.909   1.620   2.368  0.1025 -0.5037  0.2122
  913TIP3    H124298   4.931   1.674   2.292  0.0909 -0.9668 -0.1231
  913TIP3    H224299   4.893   1.533   2.332  1.8520 -1.1666  0.9546
  914TIP3   OH224300   0.217   2.781   8.546 -0.2212 -0.1965 -0.0977
  914TIP3    H124301   0.124   2.785   8.526  0.0148  0.9418 -1.0881
  914TIP3    H224302   0.228   2.836   8.624 -0.5740 -1.5539  0.9507
  915TIP3   OH224303   1.172   6.518   3.265 -0.2750  0.5023 -0.2430
  915TIP3    H124304   1.217   6.475   3.337  0.1802  1.9549  0.3816
  915TIP3    H224305   1.084   6.481   3.265 -0.2897  0.4921  1.0851
  916TIP3   OH224306   1.101   3.847   0.487 -0.4847 -0.6590  0.0763
  916TIP3    H124307   1.048   3.836   0.407  0.3973 -1.8494 -0.3716
  916TIP3    H224308   1.176   3.899   0.458 -0.9411  0.2721  0.5146
  917TIP3   OH224309   5.919   2.111   0.817 -0.0494  0.1065  0.3221
  917TIP3    H124310   5.865   2.179   0.777 -0.4162 -0.4679 -0.1813
  917TIP3    H224311   5.890   2.030   0.776 -0.0520 -0.4421  1.3635
  918TIP3   OH224312   5.203   1.855   8.045  0.4455  0.0948 -0.3647
  918TIP3    H124313   5.274   1.899   7.999  0.6253 -1.4592 -1.6936
  918TIP3    H224314   5.123   1.886   8.003  0.5284 -0.3459 -0.8491
  919TIP3   OH224315   5.200   4.138   7.473 -0.3865 -0.0837  0.4695
  919TIP3    H124316   5.228   4.122   7.383  0.7307  1.0397  0.5909
  919TIP3    H224317   5.192   4.233   7.478  0.4389 -0.0679  1.7990
  920TIP3   OH224318   0.080   6.225   1.880 -0.3408 -0.0819  0.1120
  920TIP3    H124319   0.111   6.255   1.794  0.3499  1.6152  0.9180
  920TIP3    H224320   0.146   6.161   1.907 -1.7957 -2.5060 -1.5877
  921TIP3   OH224321   3.267   5.569   8.389  0.2163  0.2031  0.1037
  921TIP3    H124322   3.233   5.479   8.388  1.3970 -0.2696 -0.9761
  921TIP3    H224323   3.291   5.586   8.298  0.8624  1.2749  0.4630
  922TIP3   OH224324   5.553   5.801   8.039  0.1877 -0.0682  0.1076
  922TIP3    H124325   5.532   5.708   8.042  0.3174 -0.0940  0.2840
  922TIP3    H224326   5.586   5.821   8.127  2.2600 -0.3601 -0.5501
  923TIP3   OH224327   2.008   1.372   8.796  0.2561 -0.3738 -0.1868
  923TIP3    H124328   2.079   1.435   8.781  0.5322 -0.3359  1.1744
  923TIP3    H224329   2.051   1.293   8.828 -0.3474 -0.0682  1.4888
  924TIP3   OH224330   0.239   3.479   8.472  0.3446 -0.4597  0.3136
  924TIP3    H124331   0.333   3.465   8.463  0.3840 -0.4411  0.6940
  924TIP3    H224332   0.211   3.510   8.385  0.8470  0.4389  0.4549
  925TIP3   OH224333   2.393   0.170   0.021  0.3289 -0.2427 -0.0646
  925TIP3    H124334   2.428   0.197  -0.064  0.6254 -0.8908 -0.1536
  925TIP3    H224335   2.404   0.247   0.076  0.5165  0.0488 -0.5004
  926TIP3   OH224336   2.532   4.509   7.665  0.3630  0.1423 -0.5379
  926TIP3    H124337   2.546   4.499   7.570 -0.6482  0.0288 -0.6812
  926TIP3    H224338   2.531   4.604   7.679  2.9046  0.2117 -0.2453
  927TIP3   OH224339   1.980   3.369   0.399  0.3790 -0.3425  0.2406
  927TIP3    H124340   1.922   3.444   0.410  0.3430 -0.1222 -1.2352
  927TIP3    H224341   2.067   3.408   0.390  0.0726 -0.1104 -3.5461
  928TIP3   OH224342   6.267   3.869   2.305  0.1867 -0.3052 -0.0326
  928TIP3    H124343   6.263   3.879   2.400 -2.6550 -1.6347  0.1045
  928TIP3    H224344   6.193   3.921   2.273 -0.3741 -1.7739 -1.2620
  929TIP3   OH224345   3.047   4.614   2.920 -0.1348 -0.0117  0.1890
  929TIP3    H124346   2.978   4.641   2.859  0.4505  0.7207 -0.1617
  929TIP3    H224347   3.117   4.678   2.907  0.0179  0.1330  1.6128
  930TIP3   OH224348   1.919   6.279   2.187 -0.1277  0.2521 -0.0418
  930TIP3    H124349   1.949   6.295   2.276 -0.5902 -0.6055  0.2760
  930TIP3    H224350   1.823   6.278   2.194 -0.2159  1.3686 -0.7636
  931TIP3   OH224351   0.865   6.356   1.490 -0.1787  0.6751 -0.5098
  931TIP3    H124352   0.839   6.292   1.424 -0.2904 -0.4102  0.5397
  931TIP3    H224353   0.958   6.339   1.504 -0.1680  0.8599 -0.3475
  932TIP3   OH224354   3.877   6.751   0.274  0.8520 -0.3439 -0.6944
  932TIP3    H124355   3.914   6.666   0.250 -0.0550 -0.5229 -1.5267
  932TIP3    H224356   3.811   6.768   0.206  0.3034  0.5409  0.0418
  933TIP3   OH224357   5.075   5.305   8.747 -0.5335 -0.1420 -0.6618
  933TIP3    H124358   5.062   5.265   8.833 -0.0543  2.5978  0.7845
  933TIP3    H224359   5.106   5.393   8.766  0.7740  0.1593 -3.7033
  934TIP3   OH224360   1.613   3.323   7.812  0.6623 -0.0764 -0.3423
  934TIP3    H124361   1.592   3.230   7.818 -0.1536  0.1389  0.2624
  934TIP3    H224362   1.707   3.328   7.832  0.8927 -0.8393 -1.1458
  935TIP3   OH224363   4.993   2.647   1.186  1.0508  0.2991 -0.4758
  935TIP3    H124364   4.911   2.639   1.234  1.6143  1.3766  0.7402
  935TIP3    H224365   4.970   2.696   1.106  0.0124 -1.9539 -1.6504
  936TIP3   OH224366   0.254   5.176   7.839 -0.1765 -0.1895 -0.2343
  936TIP3    H124367   0.299   5.123   7.773 -0.4374  0.4568 -0.9469
  936TIP3    H224368   0.172   5.130   7.856 -0.2600 -0.1860 -0.6171
  937TIP3   OH224369   6.384   0.178   8.719 -0.3008 -0.3036  0.1704
  937TIP3    H124370   6.428   0.235   8.656  0.7490 -0.6709  0.5513
  937TIP3    H224371   6.291   0.186   8.698 -0.2113  1.7341  0.3485
  938TIP3   OH224372   4.970   6.518   0.100 -0.3048 -0.0481 -0.0065
  938TIP3    H124373   5.043   6.538   0.159 -0.0894  0.6615 -0.5098
  938TIP3    H224374   4.933   6.604   0.078 -0.8178 -0.3563 -0.3545
  939TIP3   OH224375   1.857   2.420   0.730 -0.4436  0.7496  0.4595
  939TIP3    H124376   1.935   2.461   0.693 -0.6630  1.5586  0.8842
  939TIP3    H224377   1.882   2.395   0.819 -1.1756  2.5907  1.2217
  940TIP3   OH224378   6.493   0.651   2.247  0.0219  0.3812  0.1394
  940TIP3    H124379   6.528   0.707   2.178  0.6855  1.8927  1.6161
  940TIP3    H224380   6.538   0.680   2.326  1.5149 -3.2358  0.8239
  941TIP3   OH224381   0.701   3.245   0.686 -0.2919 -0.3685  0.1648
  941TIP3    H124382   0.655   3.233   0.769  1.1675 -1.7206  0.8144
  941TIP3    H224383   0.684   3.165   0.637  0.0450 -0.1850 -0.2591
  942TIP3   OH224384   2.988   0.322   0.646  0.1534 -0.2318  0.1576
  942TIP3    H124385   2.919   0.319   0.712  0.4829 -1.4315  0.4764
  942TIP3    H224386   3.058   0.375   0.686 -0.4480  0.7446 -0.0541
  943TIP3   OH224387   0.226   5.215   1.796  0.4948  0.1585  0.4573
  943TIP3    H124388   0.271   5.134   1.772  0.9786  0.2197  1.1318
  943TIP3    H224389   0.282   5.284   1.762 -0.2389  0.2155 -0.6775
  944TIP3   OH224390   3.305   6.739   8.359  0.1917 -0.0577  0.5915
  944TIP3    H124391   3.323   6.831   8.339 -1.0731 -0.0019 -0.4348
  944TIP3    H224392   3.277   6.701   8.275 -0.5033 -1.0777  1.2589
  945TIP3   OH224393   0.309   2.014   0.410 -0.1863  0.3070 -0.1608
  945TIP3    H124394   0.348   2.084   0.462  2.6234 -0.7044 -0.7391
  945TIP3    H224395   0.252   1.968   0.472  0.7065  0.9509  1.2098
  946TIP3   OH224396   2.356   4.815   0.833  0.1202  0.8184  0.6688
  946TIP3    H124397   2.303   4.888   0.801 -0.0157  0.7823  0.8102
  946TIP3    H224398   2.294   4.743   0.843  0.4419  0.3396 -0.5516
  947TIP3   OH224399   2.734   4.618   2.101  0.3679  0.0647  0.1220
  947TIP3    H124400   2.690   4.554   2.157 -0.5177  0.9036  0.3989
  947TIP3    H224401   2.663   4.665   2.057  1.0062 -1.0513 -2.3033
  948TIP3   OH224402   4.472   0.126   8.441  0.3292 -0.2372  0.2627
  948TIP3    H124403   4.377   0.137   8.442  0.1683 -1.3405 -0.6937
  948TIP3    H224404   4.507   0.215   8.450 -0.7987  0.2568 -0.0902
  949TIP3   OH224405   0.343   5.500   2.363  0.2935 -0.1006 -0.3299
  949TIP3    H124406   0.300   5.418   2.337  1.0137 -1.3747  2.1582
  949TIP3    H224407   0.435   5.475   2.376  0.2443  0.6496  1.9593
  950TIP3   OH224408   0.291   3.923   1.121  0.2699 -0.3440  0.0151
  950TIP3    H124409   0.286   3.980   1.198 -1.8792  1.7397 -1.5226
  950TIP3    H224410   0.208   3.875   1.121  0.1939 -0.2451 -1.0306
  951TIP3   OH224411   4.807   3.302   1.515  0.0198  0.3526  0.3373
  951TIP3    H124412   4.738   3.359   1.481 -0.5822 -0.7839 -0.3685
  951TIP3    H224413   4.778   3.213   1.495  2.4155 -0.1262 -1.4458
  952TIP3   OH224414   6.157   2.351   7.726 -0.0660  0.2959 -0.8446
  952TIP3    H124415   6.158   2.339   7.821 -0.8220  0.4085 -0.8193
  952TIP3    H224416   6.211   2.280   7.693 -1.1699 -0.7587 -0.4349
  953TIP3   OH224417   4.722   2.672   7.916  0.0329 -0.2873 -0.3767
  953TIP3    H124418   4.745   2.581   7.934  1.5936  0.0252 -0.6556
  953TIP3    H224419   4.702   2.673   7.822 -0.1777 -0.3727 -0.3340
  954TIP3   OH224420   4.549   2.847   8.344 -0.1682  0.0854  0.4293
  954TIP3    H124421   4.499   2.779   8.299  0.6671 -0.3857  0.2041
  954TIP3    H224422   4.626   2.802   8.379  0.8635  1.0700 -0.4906
  955TIP3   OH224423   3.731   6.093   8.756 -0.3455 -0.3757  0.6051
  955TIP3    H124424   3.641   6.059   8.757  0.3034 -2.1697  0.7516
  955TIP3    H224425   3.764   6.076   8.844  0.4527 -0.5896  0.2703
  956TIP3   OH224426   4.973   5.845   2.640 -0.3538 -0.2705  0.2631
  956TIP3    H124427   5.034   5.908   2.679 -0.3641 -0.2159  0.1932
  956TIP3    H224428   4.962   5.876   2.550  1.4857 -1.7355 -0.5108
  957TIP3   OH224429   0.966   0.297   0.921 -0.3124 -0.0791  0.1989
  957TIP3    H124430   1.010   0.295   0.836  0.3708 -0.5981  0.5485
  957TIP3    H224431   1.000   0.376   0.963  0.8312 -0.8094  0.7221
  958TIP3   OH224432   3.945   0.096   1.928 -0.4245  0.3069  0.1066
  958TIP3    H124433   4.035   0.093   1.962 -0.2609 -0.6892 -0.3951
  958TIP3    H224434   3.891   0.107   2.007 -0.1700 -3.4995  0.9881
  959TIP3   OH224435   1.701   1.504   2.250  0.3149 -0.2243  0.1264
  959TIP3    H124436   1.657   1.533   2.170  0.2638  0.4179  0.3789
  959TIP3    H224437   1.678   1.412   2.259  1.2630 -0.6124 -1.2135
  960TIP3   OH224438   2.783   5.261   7.703  0.1678 -0.1204  0.0823
  960TIP3    H124439   2.745   5.277   7.616 -1.5007 -1.5102  0.5045
  960TIP3    H224440   2.826   5.176   7.694 -0.3003 -0.4222  0.7176
  961TIP3   OH224441   2.682   3.129   0.982 -0.0067  0.0751 -0.5346
  961TIP3    H124442   2.633   3.143   0.901 -2.4315 -0.7557  0.6854
  961TIP3    H224443   2.710   3.037   0.978 -1.0783 -0.2879  0.0172
  962TIP3   OH224444   4.173   3.676   2.168 -0.3064  0.2328 -0.6493
  962TIP3    H124445   4.133   3.678   2.255  0.8311 -0.8622 -0.0682
  962TIP3    H224446   4.119   3.616   2.117 -1.8845  2.0209 -1.2254
  963TIP3   OH224447   1.694   5.560   2.427  0.5940  0.2800 -0.4767
  963TIP3    H124448   1.764   5.505   2.392  0.9445  1.6925 -2.1878
  963TIP3    H224449   1.616   5.506   2.422  1.1443 -0.4950 -0.9055
  964TIP3   OH224450   1.486   0.687   7.718  0.3013 -0.2845  0.3621
  964TIP3    H124451   1.557   0.627   7.696  1.0994  0.2654  1.3519
  964TIP3    H224452   1.453   0.717   7.634  1.3007 -0.4926 -0.1200
  965TIP3   OH224453   2.899   3.105   2.106 -0.0737 -0.3328  0.1145
  965TIP3    H124454   2.963   3.135   2.171 -0.0896 -1.4574  0.6646
  965TIP3    H224455   2.826   3.073   2.158 -0.9540  0.5932 -0.5049
  966TIP3   OH224456   4.510   4.081   0.471 -0.4870  0.0481 -0.4666
  966TIP3    H124457   4.495   4.118   0.558 -0.2138  1.6738 -1.0767
  966TIP3    H224458   4.586   4.129   0.438  0.2318 -1.4655 -1.1065
  967TIP3   OH224459   0.679   2.514   7.512  0.0614 -0.1855 -0.3206
  967TIP3    H124460   0.642   2.602   7.506  0.6018  0.2679  1.9529
  967TIP3    H224461   0.770   2.524   7.485  0.1317 -0.0359 -0.0302
  968TIP3   OH224462   1.661   4.515   1.318  0.3957 -0.3717  0.3785
  968TIP3    H124463   1.725   4.461   1.271 -0.4727 -0.6409 -0.5367
  968TIP3    H224464   1.627   4.574   1.251  0.5490  0.5964  1.1318
  969TIP3   OH224465   2.711   5.657   8.076  0.3881 -0.7992  0.1816
  969TIP3    H124466   2.617   5.639   8.080  0.5207 -1.4376  0.5420
  969TIP3    H224467   2.742   5.645   8.165  0.7189 -0.0195  0.1786
  970TIP3   OH224468   2.012   3.736   1.977  0.1846  0.3613  0.1174
  970TIP3    H124469   2.004   3.811   2.036  0.2927  0.0637  0.5068
  970TIP3    H224470   2.051   3.667   2.030  0.4790  0.1582 -0.3533
  971TIP3   OH224471   2.790   3.638   2.183 -0.4332  0.6872  1.0460
  971TIP3    H124472   2.854   3.669   2.249  0.0116 -1.2977  1.6125
  971TIP3    H224473   2.726   3.589   2.234 -1.0927  0.6347  0.1753
  972TIP3   OH224474   1.764   1.009   0.064  0.1880  0.1650 -0.1202
  972TIP3    H124475   1.787   0.974   0.149  0.4389  1.4931  0.3930
  972TIP3    H224476   1.680   1.054   0.079  0.2590  0.4509 -0.5503
  973TIP3   OH224477   0.936   2.877   8.514  0.1758  0.2966 -0.3103
  973TIP3    H124478   1.023   2.887   8.551  0.2200  2.4360 -0.8457
  973TIP3    H224479   0.877   2.905   8.584 -0.1304 -1.1337  0.0486
  974TIP3   OH224480   1.800   2.639   1.002 -0.0629 -0.2484  0.0931
  974TIP3    H124481   1.721   2.592   1.030 -0.0724 -0.0743  0.3625
  974TIP3    H224482   1.868   2.571   1.000 -0.6710 -0.8750 -2.2743
  975TIP3   OH224483   6.335   4.873   0.458 -0.4210 -0.3030 -0.5441
  975TIP3    H124484   6.295   4.802   0.406  1.9264 -1.4366 -0.9532
  975TIP3    H224485   6.428   4.870   0.434 -0.3312  3.6655 -1.3914
  976TIP3   OH224486   5.848   3.614   1.150 -0.0375  0.2507  0.5487
  976TIP3    H124487   5.869   3.590   1.240  1.0971  0.0514  0.2481
  976TIP3    H224488   5.783   3.549   1.122 -0.9233  0.7397  1.4377
  977TIP3   OH224489   2.550   1.108   1.444 -0.6048  0.2354 -0.3194
  977TIP3    H124490   2.474   1.063   1.408  0.7145 -1.6381 -0.9267
  977TIP3    H224491   2.615   1.105   1.374  1.1031 -1.0775  1.2279
  978TIP3   OH224492   5.633   5.723   1.283 -0.6867  0.2564  0.5177
  978TIP3    H124493   5.556   5.778   1.268 -0.5876  0.2530 -0.0118
  978TIP3    H224494   5.657   5.740   1.375 -2.6255 -1.3912  1.4069
  979TIP3   OH224495   5.790   5.478   8.720  0.0384 -0.3012 -0.3131
  979TIP3    H124496   5.787   5.465   8.815  1.0467  2.8976  0.2733
  979TIP3    H224497   5.873   5.524   8.705 -0.4355 -0.1060 -2.6638
  980TIP3   OH224498   4.021   6.207   8.341  0.2812 -0.1912 -0.3469
  980TIP3    H124499   4.014   6.152   8.419 -1.0997  1.4806  0.7710
  980TIP3    H224500   4.091   6.166   8.290  1.1557 -1.4215  1.6930
  981TIP3   OH224501   3.065   1.658   7.769 -0.0891  0.6271  0.5762
  981TIP3    H124502   3.024   1.742   7.750  0.2991  0.6582 -0.1496
  981TIP3    H224503   3.158   1.673   7.756 -0.1071 -0.1909 -0.6322
  982TIP3   OH224504   0.272   4.841   0.587 -0.5921 -0.1649  0.1512
  982TIP3    H124505   0.262   4.837   0.492  0.9659  0.8298 -0.0854
  982TIP3    H224506   0.280   4.750   0.614 -1.4562 -0.4809 -0.6077
  983TIP3   OH224507   0.899   5.200   0.663 -0.7311 -0.0644 -0.5000
  983TIP3    H124508   0.829   5.155   0.708 -1.8094  1.3200 -0.7305
  983TIP3    H224509   0.903   5.159   0.576 -1.2707 -0.1454 -0.4857
  984TIP3   OH224510   2.522   2.293   1.958 -0.9556  0.4403 -0.2899
  984TIP3    H124511   2.522   2.234   1.883 -2.1299  0.9278 -0.6870
  984TIP3    H224512   2.576   2.248   2.023  1.0230  0.5097 -1.7736
  985TIP3   OH224513   0.049   0.296   8.127  0.2745 -0.3782  0.3268
  985TIP3    H124514   0.129   0.251   8.098  0.5947  0.3887  0.0084
  985TIP3    H224515   0.008   0.234   8.187  1.8178 -0.2157  1.6049
  986TIP3   OH224516   5.763   2.167   8.770  0.1236 -0.2027  0.0817
  986TIP3    H124517   5.699   2.221   8.818  2.6553  2.2227  1.0437
  986TIP3    H224518   5.760   2.082   8.814 -3.9274 -1.0444 -1.3920
  987TIP3   OH224519   0.483   5.016   1.112  0.1122 -0.0823 -0.2194
  987TIP3    H124520   0.518   4.928   1.095  0.4896  0.1209 -0.5082
  987TIP3    H224521   0.389   5.008   1.097  0.2640 -0.2282 -1.1082
  988TIP3   OH224522   2.490   2.523   0.614  0.3544  0.4885 -0.4642
  988TIP3    H124523   2.538   2.606   0.612  1.0676  0.0910 -0.5026
  988TIP3    H224524   2.398   2.548   0.623  0.6839  1.2426  1.2668
  989TIP3   OH224525   3.469   3.416   7.302  0.1505 -0.8389 -0.4046
  989TIP3    H124526   3.519   3.475   7.358  0.5719 -0.2099 -1.4221
  989TIP3    H224527   3.525   3.338   7.293  0.1045 -0.9185  0.0021
  990TIP3   OH224528   5.574   3.034   7.555  0.4200 -0.1094  0.0097
  990TIP3    H124529   5.509   2.989   7.502  0.7191  0.7161 -1.1102
  990TIP3    H224530   5.648   2.973   7.558  0.3731 -0.1991 -0.4793
  991TIP3   OH224531   2.435   4.789   2.553 -0.4747 -0.1164 -0.1567
  991TIP3    H124532   2.513   4.733   2.552 -2.3271 -2.9102 -1.4596
  991TIP3    H224533   2.377   4.750   2.618 -1.7998  0.3456 -1.0116
  992TIP3   OH224534   6.719   5.170   3.451  0.4597 -0.2834  0.8944
  992TIP3    H124535   6.739   5.090   3.499 -0.4514 -0.4131  1.0806
  992TIP3    H224536   6.731   5.146   3.359 -1.4243 -1.1659  0.8195
  993TIP3   OH224537   5.089   3.679   1.166  0.1213 -0.1369  0.2191
  993TIP3    H124538   5.105   3.740   1.238  1.7475  0.6533 -0.7546
  993TIP3    H224539   5.175   3.643   1.145 -0.2678 -0.1956 -1.4399
  994TIP3   OH224540   0.805   0.855   1.450 -0.2422  0.5332  0.2451
  994TIP3    H124541   0.826   0.828   1.361  1.8074  0.2590  0.7693
  994TIP3    H224542   0.881   0.905   1.479 -0.7895  0.4710  1.9037
  995TIP3   OH224543   0.069   3.053   0.501 -0.0346  0.5432  0.0419
  995TIP3    H124544   0.073   2.994   0.426  0.3983  0.6886 -0.0591
  995TIP3    H224545   0.140   3.024   0.558 -1.1417 -0.3346  0.9875
  996TIP3   OH224546   2.713   4.651   1.490  0.1528  0.1687 -0.5552
  996TIP3    H124547   2.753   4.653   1.403 -0.1783 -0.0503 -0.7153
  996TIP3    H224548   2.782   4.619   1.548  0.7111  1.3655 -0.5493
  997TIP3   OH224549   1.903   0.063   1.185  0.4980  0.2374  0.1580
  997TIP3    H124550   1.992   0.082   1.213  0.9438 -0.7643 -0.5103
  997TIP3    H224551   1.854   0.053   1.267  1.3541 -0.7352  0.5730
  998TIP3   OH224552   6.466   3.203   0.041  0.4061 -0.8048 -0.3573
  998TIP3    H124553   6.441   3.260   0.113  1.8567 -0.2519 -0.2680
  998TIP3    H224554   6.441   3.252  -0.038  1.6533  0.0155 -0.2831
  999TIP3   OH224555   5.953   2.285   0.294  0.5162 -0.2187  0.7640
  999TIP3    H124556   5.869   2.242   0.310  0.2920 -0.4663 -0.8899
  999TIP3    H224557   5.940   2.375   0.322 -0.5880 -0.0406 -0.2578
 1000TIP3   OH224558   6.333   2.890   8.760 -0.3481  0.2303  0.1430
 1000TIP3    H124559   6.259   2.848   8.717 -0.3139  1.0462 -0.7358
 1000TIP3    H224560   6.295   2.941   8.832 -0.5186 -0.2057  0.3649
 1001TIP3   OH224561   0.254   0.381   2.298  0.3465 -0.2486 -0.0537
 1001TIP3    H124562   0.173   0.342   2.331 -0.6847  1.3544 -0.5452
 1001TIP3    H224563   0.316   0.373   2.370 -0.9365  0.4715  1.1919
 1002TIP3   OH224564   5.938   4.347   8.485 -0.1832  0.1885 -0.3506
 1002TIP3    H124565   5.910   4.342   8.576 -0.2549 -1.9651 -0.4545
 1002TIP3    H224566   6.034   4.347   8.489 -0.1830 -0.4307 -0.2788
 1003TIP3   OH224567   6.212   0.894   0.107 -0.2438 -0.3927  0.4902
 1003TIP3    H124568   6.222   0.828   0.039 -0.3952 -0.3726  0.4461
 1003TIP3    H224569   6.189   0.845   0.186 -1.7575 -0.3071  0.1423
 1004TIP3   OH224570   5.765   3.875   3.249 -0.0766  0.2520 -0.1269
 1004TIP3    H124571   5.802   3.797   3.291 -1.8196  0.5027  2.0342
 1004TIP3    H224572   5.813   3.948   3.288 -0.9960  0.4275  0.7246
 1005TIP3   OH224573   1.526   0.010   3.778 -0.4690  0.6662  0.7385
 1005TIP3    H124574   1.560   0.058   3.702  0.1986 -0.1104  0.5374
 1005TIP3    H224575   1.481  -0.066   3.740  0.1443  0.1039  1.1314
 1006TIP3   OH224576   2.302   4.303   7.328 -0.2935  0.3713  0.3967
 1006TIP3    H124577   2.394   4.327   7.317  0.5792 -2.0300  1.6830
 1006TIP3    H224578   2.262   4.323   7.243  1.7907 -0.0536 -0.7672
 1007TIP3   OH224579   2.641   3.392   8.051  0.2422  0.5904 -0.5498
 1007TIP3    H124580   2.704   3.446   8.003  0.7486  0.8168  0.3373
 1007TIP3    H224581   2.694   3.329   8.099 -0.2979 -0.1229 -0.8618
 1008TIP3   OH224582   6.485   3.210   2.392  0.1176  0.2505 -0.0267
 1008TIP3    H124583   6.509   3.135   2.337 -1.2429 -0.5294  0.3877
 1008TIP3    H224584   6.528   3.193   2.476  2.0743  1.3666 -0.7427
 1009TIP3   OH224585   1.304   5.370   1.204 -1.1283  0.1725 -0.1280
 1009TIP3    H124586   1.398   5.357   1.194 -1.6201 -2.2929 -2.9212
 1009TIP3    H224587   1.274   5.397   1.117 -3.3991 -2.6393 -0.3498
 1010TIP3   OH224588   1.387   1.788   0.863 -0.0637  0.0096 -0.6519
 1010TIP3    H124589   1.434   1.860   0.822  1.2680 -1.1602 -1.2715
 1010TIP3    H224590   1.455   1.733   0.902 -1.1295 -0.2842  0.8973
 1011TIP3   OH224591   2.212   1.987   2.328 -0.0809  0.2659 -0.0217
 1011TIP3    H124592   2.241   2.065   2.375 -0.4137  0.0223  0.6058
 1011TIP3    H224593   2.130   1.962   2.371  0.3687 -0.8164  0.2548
 1012TIP3   OH224594   5.901   3.303   1.224 -0.3138  0.4022  0.1782
 1012TIP3    H124595   5.819   3.339   1.191  0.0813  1.0278 -0.1357
 1012TIP3    H224596   5.966   3.371   1.206 -0.0391  0.6996  2.0884
 1013TIP3   OH224597   5.879   4.932   0.844 -0.0194 -0.2908  0.0026
 1013TIP3    H124598   5.905   5.014   0.885 -0.0972  0.0227 -0.5721
 1013TIP3    H224599   5.913   4.937   0.755  1.4837 -1.6270  0.4605
 1014TIP3   OH224600   4.638   2.090   1.763  0.3667 -0.1122 -0.0653
 1014TIP3    H124601   4.610   2.179   1.789 -1.4264 -0.3618 -0.9466
 1014TIP3    H224602   4.659   2.098   1.670 -0.4385 -0.7168 -0.3145
 1015TIP3   OH224603   4.987   2.500   0.048  0.1555  0.0094 -0.1536
 1015TIP3    H124604   4.984   2.486  -0.046  0.4431  0.0186 -0.1647
 1015TIP3    H224605   4.905   2.545   0.068 -1.2482 -2.4894  0.0304
 1016TIP3   OH224606   0.199   3.285   1.361 -0.6943 -0.8282 -0.3174
 1016TIP3    H124607   0.151   3.352   1.312  0.8826  1.2327  0.7998
 1016TIP3    H224608   0.278   3.269   1.309 -0.6349 -1.1368 -0.1336
 1017TIP3   OH224609   4.215   6.082   3.419  0.0007 -0.1102  0.0100
 1017TIP3    H124610   4.213   5.994   3.383 -0.2489 -0.1829  0.2045
 1017TIP3    H224611   4.140   6.126   3.380 -1.8310 -0.9481  2.3744
 1018TIP3   OH224612   0.445   1.578   2.332  0.3153 -0.2216  0.4056
 1018TIP3    H124613   0.470   1.560   2.422 -0.0088 -0.0344  0.5317
 1018TIP3    H224614   0.404   1.664   2.334 -0.4441 -0.5746  0.2163
 1019TIP3   OH224615   5.979   1.524   3.090  0.0337 -0.5086 -0.0651
 1019TIP3    H124616   5.967   1.598   3.150  0.7993 -0.0448 -0.4681
 1019TIP3    H224617   6.060   1.483   3.117 -0.8809 -1.8370  0.7840
 1020TIP3   OH224618   3.184   0.135   0.028  0.3958  0.1190  0.4323
 1020TIP3    H124619   3.119   0.181   0.081  0.2797  1.1216 -0.5314
 1020TIP3    H224620   3.156   0.151  -0.063  0.7516 -1.2860  0.0453
 1021TIP3   OH224621   3.928   1.993   8.751 -0.2763 -0.2414  0.0294
 1021TIP3    H124622   3.885   2.076   8.729 -0.7735 -0.4892  0.0464
 1021TIP3    H224623   4.021   2.012   8.746 -0.3723 -0.0581 -1.4145
 1022TIP3   OH224624   4.723   0.530   2.239 -0.1925  0.5709 -0.4446
 1022TIP3    H124625   4.638   0.498   2.268  0.1118  0.0889 -0.0681
 1022TIP3    H224626   4.786   0.481   2.292  0.2935  1.6000 -0.0400
 1023TIP3   OH224627   4.938   5.299   2.320 -0.5070 -0.4938 -0.0158
 1023TIP3    H124628   4.965   5.293   2.228 -0.9158  0.1060 -0.1846
 1023TIP3    H224629   4.921   5.393   2.334 -0.7433 -0.6206  0.5844
 1024TIP3   OH224630   2.404   6.604   0.874 -0.4561  0.0366 -0.0271
 1024TIP3    H124631   2.492   6.569   0.862 -0.6023 -0.6071  0.6695
 1024TIP3    H224632   2.347   6.543   0.827 -0.3480  1.8526 -2.7031
 1025TIP3   OH224633   5.007   5.888   0.762  0.3053  0.4917 -0.2331
 1025TIP3    H124634   5.033   5.796   0.767 -1.2118 -0.0801 -1.7716
 1025TIP3    H224635   5.038   5.917   0.677 -3.1201 -0.0083 -1.8128
 1026TIP3   OH224636   4.827   1.713   7.898 -0.3333 -0.1920  0.4036
 1026TIP3    H124637   4.878   1.676   7.826  0.3250 -1.9183  1.6738
 1026TIP3    H224638   4.882   1.699   7.975 -1.5383  0.4902  1.4156
 1027TIP3   OH224639   2.431   6.601   0.160  0.1547 -0.3951 -0.1400
 1027TIP3    H124640   2.514   6.555   0.169  0.3132  0.0514  0.7175
 1027TIP3    H224641   2.365   6.533   0.177  0.3532 -0.6222 -0.2712
 1028TIP3   OH224642   6.423   0.677   0.775  0.1912 -0.3744 -0.3208
 1028TIP3    H124643   6.459   0.750   0.725  2.2797 -0.9628  0.2285
 1028TIP3    H224644   6.421   0.604   0.712  0.6230 -0.5108 -0.1825
 1029TIP3   OH224645   2.093   4.617   0.141  0.1171  0.0382  0.0566
 1029TIP3    H124646   2.135   4.554   0.199 -0.6158 -0.3241  0.2088
 1029TIP3    H224647   2.155   4.628   0.069  0.6946 -0.0916  0.5298
 1030TIP3   OH224648   6.154   3.372   0.684 -0.1950 -0.3229 -0.0118
 1030TIP3    H124649   6.174   3.317   0.760 -1.5272 -0.0801  0.5344
 1030TIP3    H224650   6.128   3.310   0.616  0.7574 -0.5218 -0.2174
 1031TIP3   OH224651   6.141   4.276   1.654 -0.5537  0.0180 -0.0633
 1031TIP3    H124652   6.048   4.299   1.655 -1.3410 -2.7248  0.3596
 1031TIP3    H224653   6.145   4.201   1.594  1.2121 -0.4694  0.6197
 1032TIP3   OH224654   2.453   4.769   1.991  0.3334  0.8089 -0.8387
 1032TIP3    H124655   2.375   4.776   1.936  0.5103  1.7544 -0.9922
 1032TIP3    H224656   2.483   4.860   2.002  0.4072  0.6247  0.6671
 1033TIP3   OH224657   6.019   1.749   7.853  0.3199 -0.3014 -0.1048
 1033TIP3    H124658   6.054   1.835   7.828 -2.6526  1.3717  0.9621
 1033TIP3    H224659   5.970   1.720   7.777  0.1769 -0.3840  0.0185
 1034TIP3   OH224660   1.096   3.854   1.112  0.1673  0.0040 -0.3391
 1034TIP3    H124661   1.187   3.866   1.084  0.3338 -1.3962 -0.4690
 1034TIP3    H224662   1.095   3.879   1.204  0.5186  0.6949 -0.5150
 1035TIP3   OH224663   4.381   2.586   1.537 -0.2375  0.2234  0.4897
 1035TIP3    H124664   4.456   2.616   1.486 -0.8525 -0.0789 -0.6082
 1035TIP3    H224665   4.328   2.665   1.551 -1.8242 -0.2328 -2.3455
 1036TIP3   OH224666   1.539   2.791   0.081 -0.8705  0.1131  0.1013
 1036TIP3    H124667   1.490   2.709   0.081  0.6346 -0.8408  1.0706
 1036TIP3    H224668   1.501   2.842   0.153 -0.3919 -0.6716  0.9369
 1037TIP3   OH224669   4.423   4.188   0.714 -0.4076  0.1224  0.2509
 1037TIP3    H124670   4.449   4.209   0.804 -0.1070 -0.9829  0.4317
 1037TIP3    H224671   4.327   4.182   0.718 -0.3503 -0.5490  0.6356
 1038TIP3   OH224672   4.781   3.667   8.485 -0.4627 -0.0216 -0.4750
 1038TIP3    H124673   4.834   3.600   8.529  0.1161 -0.4981 -1.8181
 1038TIP3    H224674   4.799   3.747   8.533 -0.7094 -0.7155  0.8082
 1039TIP3   OH224675   5.355   3.177   0.476  0.3662 -0.0962  1.0273
 1039TIP3    H124676   5.426   3.113   0.465  0.6053  0.2348  0.5637
 1039TIP3    H224677   5.288   3.149   0.414  0.1515 -0.3320  1.3687
 1040TIP3   OH224678   6.066   3.890   0.543 -0.4222 -0.1309  0.0479
 1040TIP3    H124679   6.045   3.797   0.537  0.8749 -0.4050 -0.5466
 1040TIP3    H224680   6.150   3.899   0.497  1.3365  0.7003  3.1421
 1041TIP3   OH224681   3.284   4.224   2.037  0.2219  0.1395 -0.2335
 1041TIP3    H124682   3.307   4.202   2.127 -0.2783  2.2599  0.4643
 1041TIP3    H224683   3.189   4.214   2.033  0.4737 -3.0824 -1.5218
 1042TIP3   OH224684   4.761   0.740   2.397  0.9256 -0.0522 -0.8309
 1042TIP3    H124685   4.757   0.683   2.321  1.9926  0.1649 -1.0565
 1042TIP3    H224686   4.846   0.723   2.436  0.6185  0.2501  0.0003
 1043TIP3   OH224687   2.589   6.652   2.056  0.2088  0.0550 -0.6057
 1043TIP3    H124688   2.601   6.647   1.961  0.6195  1.8626 -0.6958
 1043TIP3    H224689   2.494   6.648   2.068  0.1480 -0.1091 -1.1071
 1044TIP3   OH224690   2.073   2.520   2.039 -0.5932  0.1209  0.3778
 1044TIP3    H124691   2.004   2.576   2.074  0.0307  1.2726 -0.1773
 1044TIP3    H224692   2.102   2.565   1.960 -0.0328 -0.9754 -0.0624
 1045TIP3   OH224693   1.188   3.452   2.304  0.6435 -0.3736 -0.4814
 1045TIP3    H124694   1.239   3.449   2.384 -1.1837  1.3873  0.8689
 1045TIP3    H224695   1.121   3.384   2.315  0.2385  0.0343 -0.3790
 1046TIP3   OH224696   3.732   4.522   8.610  0.2934  0.3707 -0.0613
 1046TIP3    H124697   3.675   4.585   8.566 -0.2064 -0.5537 -0.7669
 1046TIP3    H224698   3.674   4.474   8.669  0.7173  0.7186  0.6541
 1047TIP3   OH224699   2.638   4.477   0.582 -0.3144 -0.0716  0.9390
 1047TIP3    H124700   2.549   4.481   0.547 -0.1157 -2.9018 -0.1515
 1047TIP3    H224701   2.641   4.547   0.648 -3.1252  0.5014  0.5913
 1048TIP3   OH224702   3.018   1.119   0.107 -0.1809  0.4415  0.4015
 1048TIP3    H124703   3.091   1.176   0.131 -0.0191 -0.1570  1.4035
 1048TIP3    H224704   3.049   1.068   0.033  1.0237 -0.9126  1.7575
 1049TIP3   OH224705   6.137   3.555   1.966 -0.1532 -0.0834  0.2322
 1049TIP3    H124706   6.222   3.585   1.998  0.3131 -1.5729  0.4558
 1049TIP3    H224707   6.073   3.600   2.021  0.5662 -0.6133  1.5326
 1050TIP3   OH224708   6.696   5.861   0.762 -0.0162 -0.1843 -0.5442
 1050TIP3    H124709   6.684   5.772   0.729  2.1854 -1.5439  1.9358
 1050TIP3    H224710   6.754   5.903   0.698  0.7490 -1.2993 -0.5939
 1051TIP3   OH224711   2.570   5.685   7.455  0.6360  0.0758  0.2819
 1051TIP3    H124712   2.645   5.671   7.513  1.3689  2.5877  0.0805
 1051TIP3    H224713   2.609   5.714   7.372 -0.5214  1.3692  0.1472
 1052TIP3   OH224714   6.287   5.967   0.716 -0.0784  0.6845  0.2667
 1052TIP3    H124715   6.253   5.897   0.660 -0.3227 -0.3145  1.6149
 1052TIP3    H224716   6.382   5.961   0.707 -0.0673 -0.2843  0.8750
 1053TIP3   OH224717   0.020   4.461   7.971  0.3365  0.0462 -0.5473
 1053TIP3    H124718   0.075   4.534   8.002  0.3131 -1.4447  3.6613
 1053TIP3    H224719  -0.070   4.492   7.980  0.3523  0.2074 -0.9131
 1054TIP3   OH224720   1.178   1.170   7.195 -0.5032 -0.3295  0.1125
 1054TIP3    H124721   1.217   1.251   7.228 -0.7960  0.1975 -0.8060
 1054TIP3    H224722   1.083   1.183   7.205 -0.5109 -1.2597  1.5486
 1055TIP3   OH224723   2.423   6.666   2.393  0.1412  0.8833 -0.1423
 1055TIP3    H124724   2.447   6.591   2.338  1.0933  0.2561  1.0694
 1055TIP3    H224725   2.346   6.637   2.441  1.3938  0.0220  1.4730
 1056TIP3   OH224726   5.828   6.357   1.336 -0.1179  0.9351 -0.0887
 1056TIP3    H124727   5.784   6.442   1.342 -1.5449  0.2879 -0.9892
 1056TIP3    H224728   5.796   6.319   1.255 -0.4730 -0.9910  0.9045
 1057TIP3   OH224729   1.850   6.060   0.743 -0.2518  0.3276 -0.1100
 1057TIP3    H124730   1.878   6.095   0.658 -0.7031 -0.1443 -0.4633
 1057TIP3    H224731   1.931   6.028   0.783 -0.4541 -3.8243 -2.4022
 1058TIP3   OH224732   4.205   4.298   2.098 -0.6633  0.0927 -0.4682
 1058TIP3    H124733   4.274   4.302   2.032  1.4173 -1.6291  1.4365
 1058TIP3    H224734   4.157   4.218   2.078 -0.5291 -0.0158 -0.3583
 1059TIP3   OH224735   5.916   4.072   8.598  0.2793 -0.2562  0.1396
 1059TIP3    H124736   5.849   4.075   8.530 -0.9734 -0.0320  1.3459
 1059TIP3    H224737   5.976   4.143   8.576 -1.2173  1.1317  0.3479
 1060TIP3   OH224738   4.404   3.955   0.193  0.2983  0.6290  0.0125
 1060TIP3    H124739   4.366   4.022   0.249  0.6566  1.0736 -0.2781
 1060TIP3    H224740   4.425   4.000   0.111 -2.2495 -0.4493 -1.3636
 1061TIP3   OH224741   6.492   2.387   8.199 -0.1033 -0.4591 -0.0178
 1061TIP3    H124742   6.483   2.479   8.225 -1.0022 -0.6474  0.3765
 1061TIP3    H224743   6.455   2.383   8.111 -2.4557 -0.8873  0.9130
 1062TIP3   OH224744   0.938   3.124   1.562  0.2484  0.1466  0.3382
 1062TIP3    H124745   0.856   3.097   1.605  1.8245 -1.0478  2.8728
 1062TIP3    H224746   0.938   3.077   1.479 -0.7328 -1.4808  1.2027
 1063TIP3   OH224747   3.042   3.576   1.627 -0.4405 -0.0689  0.3104
 1063TIP3    H124748   3.037   3.555   1.534 -0.5775  0.0987  0.2800
 1063TIP3    H224749   3.073   3.667   1.629  0.2307 -0.2919  0.4430
 1064TIP3   OH224750   5.736   3.807   8.503  0.1238 -0.3472 -0.0818
 1064TIP3    H124751   5.729   3.892   8.460  0.8254 -0.3816 -0.2774
 1064TIP3    H224752   5.678   3.813   8.579 -2.4046 -0.8008 -1.8126
 1065TIP3   OH224753   0.913   5.063   0.961 -0.1701  0.3156  0.1712
 1065TIP3    H124754   0.856   5.019   0.898  2.1105 -2.9021  0.1208
 1065TIP3    H224755   0.864   5.060   1.044 -1.1954  0.1586 -0.4197
 1066TIP3   OH224756   5.325   5.567   0.387  0.1386  0.2685  0.2254
 1066TIP3    H124757   5.367   5.619   0.456  1.0408  0.1785 -0.2402
 1066TIP3    H224758   5.390   5.500   0.365 -1.3513 -1.6855  1.4700
 1067TIP3   OH224759   6.721   1.586   8.616 -0.4412 -0.0495  0.5794
 1067TIP3    H124760   6.808   1.615   8.644 -0.2591 -0.2637  0.2467
 1067TIP3    H224761   6.697   1.648   8.547  0.2527 -1.0830 -0.6335
 1068TIP3   OH224762   0.452   0.752   0.505 -0.5857 -0.3172 -0.2747
 1068TIP3    H124763   0.546   0.744   0.522 -0.3772  0.1789 -1.1450
 1068TIP3    H224764   0.413   0.677   0.550  0.2342 -0.5664  0.0376
 1069TIP3   OH224765   1.935   5.508   1.687  0.5262  0.0687 -0.2870
 1069TIP3    H124766   1.938   5.506   1.783 -3.2992  1.2809  0.0241
 1069TIP3    H224767   1.924   5.600   1.665 -3.2987 -0.4756 -1.4219
 1070TIP3   OH224768   4.305   0.444   8.276  0.0462  0.4587 -0.1781
 1070TIP3    H124769   4.237   0.511   8.272  0.3143  1.1167  3.3497
 1070TIP3    H224770   4.260   0.366   8.309  0.7596  0.5225  0.9636
 1071TIP3   OH224771   1.958   5.562   7.550  0.2973 -0.1130  0.3059
 1071TIP3    H124772   1.990   5.485   7.597 -0.7094  0.0100  1.2280
 1071TIP3    H224773   1.908   5.527   7.477  0.8955 -0.3214 -0.0038
 1072TIP3   OH224774   4.003   2.481   0.310  0.4859  0.2246  0.2783
 1072TIP3    H124775   4.095   2.506   0.317  0.2522  1.5345 -0.8979
 1072TIP3    H224776   4.004   2.403   0.254  0.9487 -0.4216  1.1624
 1073TIP3   OH224777   2.264   4.099   2.740  0.2214  0.2910 -0.5334
 1073TIP3    H124778   2.256   4.039   2.814  1.4214  0.7843  0.0293
 1073TIP3    H224779   2.240   4.046   2.664 -1.3866 -0.1239  0.2247
 1074TIP3   OH224780   5.316   0.575   0.137 -0.1445  0.5393  0.0926
 1074TIP3    H124781   5.251   0.552   0.204 -2.1465  1.5605 -1.3769
 1074TIP3    H224782   5.400   0.570   0.182 -1.0361 -2.4834  1.6737
 1075TIP3   OH224783   5.028   0.254   3.101 -0.5719 -0.3499  0.7569
 1075TIP3    H124784   5.097   0.237   3.165  1.0149  2.9967  0.1302
 1075TIP3    H224785   5.052   0.200   3.026  1.0935  0.3410  0.7496
 1076TIP3   OH224786   5.654   6.605   1.452  0.3465 -0.3709  1.1149
 1076TIP3    H124787   5.697   6.691   1.451  0.0783 -0.1905 -1.7332
 1076TIP3    H224788   5.603   6.605   1.533  1.8783  1.3332  2.1719
 1077TIP3   OH224789   3.759   4.637   8.215  0.4623 -0.4300 -0.6673
 1077TIP3    H124790   3.830   4.576   8.196  1.8317  0.8473  0.2366
 1077TIP3    H224791   3.771   4.709   8.153  1.8761  1.2803  1.4535
 1078TIP3   OH224792   1.952   3.338   1.716 -0.3610  0.5908 -0.1662
 1078TIP3    H124793   2.004   3.415   1.692 -0.7016  0.8425 -0.0987
 1078TIP3    H224794   1.896   3.368   1.787 -1.3434  0.6045 -0.9336
 1079TIP3   OH224795   5.571   0.268   1.302  0.2445  0.4664  0.1687
 1079TIP3    H124796   5.573   0.360   1.329 -0.2978  0.1883  1.2453
 1079TIP3    H224797   5.574   0.220   1.385 -1.8812 -0.4412 -0.2092
 1080TIP3   OH224798   3.097   0.121   0.986  0.0670  0.4300  0.0677
 1080TIP3    H124799   3.123   0.211   0.965 -1.7382  1.1359  0.6014
 1080TIP3    H224800   3.047   0.130   1.067  3.4052 -1.6582  2.5832
 1081TIP3   OH224801   1.742   3.894   1.175 -0.4347 -0.1719  0.1497
 1081TIP3    H124802   1.699   3.972   1.209 -2.3572 -0.2891 -1.7353
 1081TIP3    H224803   1.737   3.903   1.080  2.1189 -1.1481 -0.1681
 1082TIP3   OH224804   3.943   0.017   0.871  0.0392  0.0176 -0.7602
 1082TIP3    H124805   3.928   0.100   0.915 -3.2415  0.4212 -2.3190
 1082TIP3    H224806   3.900   0.026   0.786 -0.7870 -3.3666 -0.8549
 1083TIP3   OH224807   0.850   6.068   2.029  0.5451  0.0251  0.2421
 1083TIP3    H124808   0.791   6.008   2.074  0.6176  0.4961  0.9733
 1083TIP3    H224809   0.794   6.112   1.965  0.7070 -1.5592 -1.0546
 1084TIP3   OH224810   5.257   2.621   0.120  0.0335  0.0397 -0.0084
 1084TIP3    H124811   5.283   2.648   0.032 -0.9385  0.1892 -0.2614
 1084TIP3    H224812   5.173   2.664   0.134 -1.1205 -2.0651 -0.0526
 1085TIP3   OH224813   2.157   5.956   8.613 -0.7559  0.1441 -0.0539
 1085TIP3    H124814   2.162   6.051   8.619  0.1526  0.0068  2.3992
 1085TIP3    H224815   2.086   5.939   8.551 -0.2826  2.3895 -1.2864
 1086TIP3   OH224816   0.006   1.899   2.739 -0.3358 -0.0804 -0.7881
 1086TIP3    H124817   0.033   1.991   2.730  0.0562 -0.2175 -1.0313
 1086TIP3    H224818  -0.057   1.900   2.811  0.2317  0.2616 -0.2907
 1087TIP3   OH224819   2.801   3.588   8.574 -0.6750  0.2647  0.0693
 1087TIP3    H124820   2.708   3.566   8.563 -0.3032 -0.7810 -1.2526
 1087TIP3    H224821   2.801   3.665   8.631 -2.4857  1.5577 -1.5153
 1088TIP3   OH224822   5.169   2.692   8.566 -0.1224  0.1662  1.0255
 1088TIP3    H124823   5.258   2.679   8.598  0.1961 -0.6738 -0.1300
 1088TIP3    H224824   5.176   2.682   8.471 -0.9745  2.7943  0.5848
 1089TIP3   OH224825   1.814   3.888   0.622  0.1097 -0.0505  0.5739
 1089TIP3    H124826   1.750   3.946   0.663  1.1326  1.4802  0.0906
 1089TIP3    H224827   1.820   3.919   0.532  1.6213 -0.0620  0.6434
 1090TIP3   OH224828   5.181   3.642   3.003 -0.0438 -0.3788 -0.7693
 1090TIP3    H124829   5.111   3.704   2.982 -0.4410 -0.0663  1.2493
 1090TIP3    H224830   5.158   3.609   3.090  2.6864  0.2900  0.3158
 1091TIP3   OH224831   4.810   0.913   1.611 -0.1607  0.3620 -0.0598
 1091TIP3    H124832   4.729   0.913   1.661 -0.2662  2.0091 -0.1653
 1091TIP3    H224833   4.862   0.983   1.651  1.2205 -0.6593  0.0037
 1092TIP3   OH224834   2.709   1.215   1.928  0.2299  0.3013  0.0891
 1092TIP3    H124835   2.707   1.201   2.022  2.1690 -1.1859 -0.0226
 1092TIP3    H224836   2.722   1.309   1.918  0.5813  0.3977  1.3123
 1093TIP3   OH224837   1.702   1.760   8.037  0.8233 -0.1964  0.1954
 1093TIP3    H124838   1.676   1.813   7.962 -0.8125  0.2131  0.9903
 1093TIP3    H224839   1.705   1.671   8.003 -1.4732 -0.2479 -0.0794
 1094TIP3   OH224840   5.885   1.884   2.582 -0.6650 -0.0420 -0.0499
 1094TIP3    H124841   5.875   1.878   2.677  1.5210  1.8680  0.4008
 1094TIP3    H224842   5.956   1.823   2.561  0.4039  1.1505 -0.0559
 1095TIP3   OH224843   3.392   1.341   0.953 -0.5374 -0.1597  0.0335
 1095TIP3    H124844   3.308   1.296   0.957  0.3438 -1.7750  2.1383
 1095TIP3    H224845   3.444   1.290   0.891 -0.9813  0.7118 -1.0986
 1096TIP3   OH224846   5.256   2.824   1.744 -0.4163 -0.8445  0.0982
 1096TIP3    H124847   5.265   2.765   1.669 -2.7956  0.6146 -1.4986
 1096TIP3    H224848   5.265   2.767   1.821  1.3877 -2.5153 -1.2590
 1097TIP3   OH224849   4.756   3.164   1.922 -0.7635 -0.2914 -0.5001
 1097TIP3    H124850   4.752   3.241   1.979  0.6018 -0.6577  0.1426
 1097TIP3    H224851   4.771   3.091   1.982  0.4971 -0.7141 -1.2800
 1098TIP3   OH224852   0.589   3.284   8.733 -0.1395 -0.1609  0.2812
 1098TIP3    H124853   0.563   3.345   8.802 -0.2282 -1.2230  1.2105
 1098TIP3    H224854   0.671   3.245   8.765 -0.5042 -1.1131  0.0936
 1099TIP3   OH224855   5.117   0.911   0.549 -0.4893 -0.1738  0.3295
 1099TIP3    H124856   5.205   0.937   0.521 -1.2828  1.1943 -1.0829
 1099TIP3    H224857   5.081   0.865   0.473 -0.5452 -2.0296  1.3999
 1100TIP3   OH224858   2.459   5.341   0.669  0.1417  0.3992  0.0250
 1100TIP3    H124859   2.478   5.434   0.655  0.0929  0.1459 -2.1803
 1100TIP3    H224860   2.429   5.335   0.760  4.0894  1.8618  1.6382
 1101TIP3   OH224861   5.040   2.487   2.258  0.1482  0.0238 -0.1849
 1101TIP3    H124862   4.962   2.456   2.210  1.5628  0.3425 -2.9216
 1101TIP3    H224863   5.046   2.580   2.236  0.0201  0.5845  1.9742
 1102TIP3   OH224864   0.021   0.522   7.580  0.4090 -0.1101 -0.6458
 1102TIP3    H124865   0.088   0.454   7.588 -0.8547 -1.3311 -0.1757
 1102TIP3    H224866  -0.021   0.503   7.496  0.6857  0.7088 -0.9812
 1103TIP3   OH224867   6.431   2.115   2.506 -0.2135 -0.4628  0.2329
 1103TIP3    H124868   6.404   2.151   2.421 -1.2488  0.2709  0.8430
 1103TIP3    H224869   6.392   2.175   2.570 -0.2112 -1.5246  1.2485
 1104TIP3   OH224870   5.375   5.839   0.527  0.3256 -0.1974 -0.1821
 1104TIP3    H124871   5.418   5.779   0.588 -2.2317 -1.6171  0.3509
 1104TIP3    H224872   5.357   5.917   0.580  2.0978  0.4266 -0.4136
 1105TIP3   OH224873   4.747   5.778   0.159  0.4528 -0.4593 -0.0860
 1105TIP3    H124874   4.753   5.687   0.131 -0.2164 -0.5304 -0.0226
 1105TIP3    H224875   4.658   5.786   0.192  0.9784 -0.1775  1.3168
 1106TIP3   OH224876   4.523   1.586   0.762 -0.1758  0.3358 -0.1121
 1106TIP3    H124877   4.519   1.624   0.850 -0.7846  0.5778 -0.2370
 1106TIP3    H224878   4.606   1.538   0.760  0.5177  1.4936  0.1149
 1107TIP3   OH224879   5.135   1.887   8.338 -0.3356 -0.0424 -0.1071
 1107TIP3    H124880   5.166   1.843   8.259  0.9034  1.0521 -0.2658
 1107TIP3    H224881   5.141   1.980   8.317 -1.3011  0.2414  0.8013
 1108TIP3   OH224882   2.799   2.681   1.435  0.5906  0.4170 -0.2040
 1108TIP3    H124883   2.816   2.680   1.529 -0.7729  1.1045  0.0648
 1108TIP3    H224884   2.726   2.742   1.424  0.4845  0.0596 -1.6685
 1109TIP3   OH224885   0.782   2.963   3.061 -0.1219 -0.0074 -0.3213
 1109TIP3    H124886   0.731   2.883   3.077 -1.1529  1.2433  3.9581
 1109TIP3    H224887   0.721   3.022   3.018 -0.6423 -0.2092  0.1310
 1110TIP3   OH224888   4.357   5.282   1.887  0.2143 -0.4882  0.0418
 1110TIP3    H124889   4.309   5.211   1.931 -0.5070  0.7605  1.3807
 1110TIP3    H224890   4.438   5.290   1.938 -0.6186  0.9557  1.2397
 1111TIP3   OH224891   3.066   6.755   1.739  0.2221 -0.0421  0.2573
 1111TIP3    H124892   3.015   6.776   1.660  1.1614  0.9904 -0.1075
 1111TIP3    H224893   3.017   6.797   1.810  0.6249  1.0835 -0.1094
 1112TIP3   OH224894   6.087   3.067   1.024  0.6928  0.5213 -0.1694
 1112TIP3    H124895   6.154   3.034   0.964  2.2053  1.5804  0.8816
 1112TIP3    H224896   6.134   3.084   1.106 -0.9331  0.9685  0.7161
 1113TIP3   OH224897   1.365   1.276   2.845  0.3415 -0.3660 -0.3093
 1113TIP3    H124898   1.271   1.274   2.823  0.4373  0.5307 -0.8436
 1113TIP3    H224899   1.367   1.287   2.940 -0.0858 -2.1092 -0.0635
 1114TIP3   OH224900   3.430   4.810   8.123  0.3464  0.3393 -0.4025
 1114TIP3    H124901   3.438   4.762   8.205  1.1416  0.6582 -0.2812
 1114TIP3    H224902   3.464   4.898   8.143  1.4328  0.1441 -1.2962
 1115TIP3   OH224903   6.224   4.914   1.557  0.0416 -0.2276  0.3208
 1115TIP3    H124904   6.245   4.912   1.464 -3.0881 -1.0956 -0.4895
 1115TIP3    H224905   6.287   4.855   1.597  1.1220 -0.2509 -1.3189
 1116TIP3   OH224906   3.527   5.276   0.272  0.4100  0.2535  0.1663
 1116TIP3    H124907   3.589   5.232   0.331  0.3846 -1.0928 -0.7731
 1116TIP3    H224908   3.505   5.210   0.207 -0.3341  1.4032 -0.7865
 1117TIP3   OH224909   5.438   6.515   1.303  0.0369  0.4376 -0.3445
 1117TIP3    H124910   5.406   6.605   1.294 -1.4379  0.0526  0.6524
 1117TIP3    H224911   5.501   6.519   1.375 -0.7233  0.5310  0.3312
 1118TIP3   OH224912   3.217   0.552   3.187  0.3135 -0.0106  0.0343
 1118TIP3    H124913   3.179   0.628   3.142  1.0915 -1.0564 -2.5951
 1118TIP3    H224914   3.177   0.476   3.144  2.3148 -1.0875 -0.0426
 1119TIP3   OH224915   3.312   3.409   0.096 -0.0245  0.2966  0.0219
 1119TIP3    H124916   3.288   3.491   0.140  1.5900  1.5070 -1.2442
 1119TIP3    H224917   3.404   3.395   0.119  0.0538 -0.5339 -0.7415
 1120TIP3   OH224918   1.899   4.242   2.413 -0.2593  0.2199  0.5408
 1120TIP3    H124919   1.847   4.303   2.466 -0.0731  1.5508 -0.7247
 1120TIP3    H224920   1.853   4.159   2.421 -0.7139  0.5818  2.0760
 1121TIP3   OH224921   5.624   6.350   0.263 -0.1399 -0.0545 -0.0537
 1121TIP3    H124922   5.705   6.387   0.297  0.5881 -1.0645 -0.6439
 1121TIP3    H224923   5.649   6.308   0.181 -1.7967  2.1917 -1.8622
 1122TIP3   OH224924   3.501   6.150   8.511 -0.2444 -0.1164 -0.6283
 1122TIP3    H124925   3.457   6.208   8.572 -2.1618 -2.0098 -0.0859
 1122TIP3    H224926   3.522   6.072   8.563 -1.3375 -1.5175 -2.1759
 1123TIP3   OH224927   2.980   5.839   7.343  0.3154  0.1022 -0.4435
 1123TIP3    H124928   3.067   5.872   7.321  0.8563 -1.6710 -1.0969
 1123TIP3    H224929   2.940   5.910   7.395  1.9125  1.1738 -0.6090
 1124TIP3   OH224930   5.036   1.615   8.357  0.7184  0.1194  0.1331
 1124TIP3    H124931   4.994   1.564   8.288  0.3622  1.2595 -0.5211
 1124TIP3    H224932   4.966   1.671   8.390  1.1510  0.3364  0.6947
 1125TIP3   OH224933   3.580   2.253   0.297  0.0228  0.3295  0.2129
 1125TIP3    H124934   3.517   2.245   0.369  1.4021  1.9167  1.6744
 1125TIP3    H224935   3.652   2.304   0.334  2.4941 -1.8974 -1.1803
 1126TIP3   OH224936   3.016   2.841   2.232  0.2259 -0.0037 -0.0611
 1126TIP3    H124937   3.086   2.892   2.190  0.6841 -2.0030 -1.8591
 1126TIP3    H224938   3.040   2.750   2.218 -2.7075 -0.7846 -0.6756
 1127TIP3   OH224939   0.207   2.826   1.662  0.2209  0.2558 -0.3258
 1127TIP3    H124940   0.299   2.821   1.688 -0.0667 -0.4872  0.6114
 1127TIP3    H224941   0.207   2.879   1.583  1.3192  1.3259  0.3616
 1128TIP3   OH224942   4.717   2.872   0.227  0.1063  0.3962 -0.5229
 1128TIP3    H124943   4.665   2.894   0.305  1.3025  0.2428  0.3505
 1128TIP3    H224944   4.724   2.955   0.180  0.9962  0.9716  0.5570
 1129TIP3   OH224945   4.683   3.194   8.444  0.1852  0.3183 -1.2934
 1129TIP3    H124946   4.687   3.222   8.535 -3.3439 -0.8519 -0.6280
 1129TIP3    H224947   4.722   3.106   8.443  0.6620  0.5267 -1.0214
 1130TIP3   OH224948   0.701   5.973   2.499  0.4214 -0.4590  0.1796
 1130TIP3    H124949   0.748   5.978   2.416  1.0107  0.1455  0.5441
 1130TIP3    H224950   0.696   6.063   2.529 -0.1759 -0.6255  0.5966
 1131TIP3   OH224951   3.282   4.525   2.013 -0.3644 -0.6525  0.0772
 1131TIP3    H124952   3.300   4.550   1.922  0.6115 -1.6220 -0.0221
 1131TIP3    H224953   3.343   4.578   2.065  1.4704 -2.4573 -0.1101
 1132TIP3   OH224954   6.552   1.392   1.524 -0.2216 -0.3359  0.5607
 1132TIP3    H124955   6.521   1.313   1.479 -0.5611 -1.0600  2.0066
 1132TIP3    H224956   6.593   1.360   1.604  0.0741  0.9324  0.9408
 1133TIP3   OH224957   4.735   0.319   0.009  0.1264 -0.4054 -0.2409
 1133TIP3    H124958   4.758   0.256   0.078 -1.3659 -0.6379  0.0843
 1133TIP3    H224959   4.656   0.362   0.042 -0.4310 -0.2988 -1.6625
 1134TIP3   OH224960   0.958   6.754   2.407 -0.1451 -0.0487 -0.0108
 1134TIP3    H124961   0.944   6.826   2.468 -0.7224 -0.1062 -0.0771
 1134TIP3    H224962   1.053   6.751   2.396 -0.1778  1.5584 -1.0363
 1135TIP3   OH224963   5.151   5.927   2.265  0.4264  0.2900  0.7495
 1135TIP3    H124964   5.099   5.991   2.315 -0.0575  0.5723 -0.1038
 1135TIP3    H224965   5.208   5.980   2.210 -0.9542  0.0338 -0.9968
 1136TIP3   OH224966   4.469   5.772   0.848 -0.0309 -0.0647  0.4490
 1136TIP3    H124967   4.419   5.842   0.889  0.1837 -0.1129  0.7877
 1136TIP3    H224968   4.548   5.814   0.815 -0.9074  0.3031 -1.3433
 1137TIP3   OH224969   2.571   3.429   0.979 -0.1183  0.7084 -0.0454
 1137TIP3    H124970   2.490   3.435   0.929  0.5749  0.8961 -1.1819
 1137TIP3    H224971   2.575   3.338   1.008 -0.9159  0.7912  0.3452
 1138TIP3   OH224972   5.075   3.260   2.574 -0.1297  0.4069 -0.3127
 1138TIP3    H124973   5.145   3.224   2.519  0.8434 -0.6484  1.5097
 1138TIP3    H224974   5.032   3.183   2.611 -0.2062  1.0946  1.0548
 1139TIP3   OH224975   5.496   4.917   2.254  0.2941  0.2947 -0.8720
 1139TIP3    H124976   5.584   4.900   2.288  0.2267 -1.6940 -1.5242
 1139TIP3    H224977   5.502   5.003   2.212  1.9324  0.1962 -0.9004
 1140TIP3   OH224978   4.716   4.892   0.929  0.0651 -0.1681  0.5335
 1140TIP3    H124979   4.699   4.907   0.836  1.6532 -1.4523 -0.0057
 1140TIP3    H224980   4.668   4.811   0.948 -0.0894 -0.0166  0.7932
 1141TIP3   OH224981   4.665   4.935   0.273 -0.0928  0.0868  0.7137
 1141TIP3    H124982   4.740   4.975   0.315  0.3302 -0.9666  0.9914
 1141TIP3    H224983   4.681   4.945   0.179 -0.0290  0.6125  0.7789
 1142TIP3   OH224984   2.020   0.392   1.819 -0.3199 -0.7485 -0.1049
 1142TIP3    H124985   2.090   0.446   1.856 -0.5516 -1.0245  0.7621
 1142TIP3    H224986   1.999   0.330   1.889 -1.3478 -0.7471 -0.4051
 1143TIP3   OH224987   0.848   1.541   1.441 -0.6877  0.3089 -0.3016
 1143TIP3    H124988   0.895   1.566   1.362 -1.3076  0.8342 -0.5136
 1143TIP3    H224989   0.900   1.577   1.513 -0.1831 -0.0717 -0.4703
 1144TIP3   OH224990   1.502   6.203   8.477  0.5720  0.2662  0.1586
 1144TIP3    H124991   1.436   6.234   8.538  0.0024  1.2953 -0.9305
 1144TIP3    H224992   1.491   6.259   8.399  1.9515 -0.3029 -0.4853
 1145TIP3   OH224993   6.467   0.380   0.339 -0.5328  0.5342  0.0365
 1145TIP3    H124994   6.407   0.346   0.274  0.1458 -0.9311  0.1454
 1145TIP3    H224995   6.554   0.367   0.301 -0.0386 -1.3364  1.6043
 1146TIP3   OH224996   0.168   4.512   2.760 -0.0084 -0.0220 -0.1221
 1146TIP3    H124997   0.077   4.516   2.729  0.4901  0.2499 -1.6494
 1146TIP3    H224998   0.185   4.418   2.769 -0.4237 -0.0774  0.1274
 1147TIP3   OH224999   6.478   3.044   1.200 -0.0438  1.2489  0.5039
 1147TIP3    H125000   6.477   3.085   1.287  0.8967  0.5658  0.8543
 1147TIP3    H225001   6.560   3.074   1.161  2.0006 -2.1890  1.7623
 1148TIP3   OH225002   1.032   0.453   8.096  0.3483 -0.2493  0.3771
 1148TIP3    H125003   0.985   0.372   8.077  1.0406 -1.0507  1.9118
 1148TIP3    H225004   1.100   0.458   8.030 -0.9450  0.1760 -0.9828
 1149TIP3   OH225005   5.544   6.088   0.873  0.1452  0.5511 -0.4834
 1149TIP3    H125006   5.460   6.078   0.918 -0.0742  1.1217 -0.7540
 1149TIP3    H225007   5.598   6.137   0.934  0.2683  0.2217 -0.3268
 1150TIP3   OH225008   6.243   1.029   7.694  0.2989 -0.6152 -0.0802
 1150TIP3    H125009   6.328   0.998   7.663  1.1991  1.2987  0.3174
 1150TIP3    H225010   6.226   1.107   7.641 -0.2144  0.1929  1.2451
 1151TIP3   OH225011   1.696   4.436   2.215 -0.0630 -0.4799  0.2259
 1151TIP3    H125012   1.663   4.347   2.227 -1.2013  0.0793  1.5757
 1151TIP3    H225013   1.682   4.479   2.300  0.2888  1.0340 -0.4359
 1152TIP3   OH225014   3.570   1.711   8.586 -0.5230 -0.2565 -0.2044
 1152TIP3    H125015   3.662   1.732   8.604 -0.4737  0.1680 -0.9118
 1152TIP3    H225016   3.562   1.618   8.607  0.5311 -0.7630 -1.8810
 1153TIP3   OH225017   4.136   4.037   1.084 -0.0442  0.0576  0.2463
 1153TIP3    H125018   4.217   4.088   1.081 -0.9167  1.6748  2.0939
 1153TIP3    H225019   4.076   4.084   1.027  0.6567 -1.9420 -2.2852
 1154TIP3   OH225020   2.163   5.605   1.345 -0.5418 -0.2128 -0.2442
 1154TIP3    H125021   2.207   5.690   1.334  0.2949 -0.5868  0.0921
 1154TIP3    H225022   2.153   5.572   1.256 -0.9699  0.2873 -0.3845
 1155TIP3   OH225023   5.661   4.603   1.218  0.1635  0.9668 -0.2556
 1155TIP3    H125024   5.581   4.566   1.180 -0.4872  1.5722  0.4673
 1155TIP3    H225025   5.674   4.685   1.170  0.0166  1.1489  0.0111
 1156TIP3   OH225026   3.135   4.784   1.224  0.0881  0.0868  0.3766
 1156TIP3    H125027   3.087   4.857   1.263  2.4730  1.4094  0.9895
 1156TIP3    H225028   3.172   4.737   1.299  1.7177  0.5378 -0.1002
 1157TIP3   OH225029   3.611   5.977   8.295 -0.2690 -0.4384  0.5014
 1157TIP3    H125030   3.558   6.028   8.355 -0.2821 -1.5495  1.4823
 1157TIP3    H225031   3.568   5.986   8.210 -0.2466  1.1622  0.6383
 1158TIP3   OH225032   6.168   2.397   2.012 -0.1786  0.1306 -0.2454
 1158TIP3    H125033   6.092   2.417   2.066 -0.2344  2.0759 -0.9702
 1158TIP3    H225034   6.216   2.480   2.006  2.8744 -1.3437  1.4715
 1159TIP3   OH225035   3.659   5.145   1.509 -0.1746  0.7541 -0.2551
 1159TIP3    H125036   3.685   5.075   1.449 -0.0215  1.2457 -0.7775
 1159TIP3    H225037   3.588   5.108   1.561  0.8520 -0.2546  0.4516
 1160TIP3   OH225038   6.285   5.143   0.201 -0.2312 -0.5723 -0.0378
 1160TIP3    H125039   6.237   5.108   0.276 -2.1908  1.0258 -0.4700
 1160TIP3    H225040   6.231   5.121   0.125 -1.1735  2.5693 -0.4084
 1161TIP3   OH225041   1.229   1.460   0.971 -0.3888  0.7326  0.1824
 1161TIP3    H125042   1.182   1.537   0.939 -1.8740 -0.5713 -0.9053
 1161TIP3    H225043   1.292   1.440   0.902 -0.7576  0.3367 -0.0412
 1162TIP3   OH225044   1.999   4.753   8.195  0.6665  0.0405  0.1150
 1162TIP3    H125045   1.933   4.774   8.129 -0.7839 -2.9746  0.4226
 1162TIP3    H225046   2.079   4.738   8.145 -0.3941 -2.1365 -1.0853
 1163TIP3   OH225047   0.584   2.673   2.450  0.0226 -0.0539  0.0872
 1163TIP3    H125048   0.496   2.670   2.488  1.0094  1.2646  2.7878
 1163TIP3    H225049   0.602   2.583   2.423 -2.1424 -0.3441 -0.5888
 1164TIP3   OH225050   3.884   3.875   1.823  0.5694 -0.1717  0.8126
 1164TIP3    H125051   3.898   3.862   1.729 -1.7789  0.5415  0.3059
 1164TIP3    H225052   3.925   3.798   1.864 -0.1519 -1.5789 -0.9652
 1165TIP3   OH225053   5.867   1.421   3.456 -0.0272  0.0244  0.1843
 1165TIP3    H125054   5.854   1.507   3.416 -1.2802  0.9579  2.3772
 1165TIP3    H225055   5.937   1.435   3.520  2.3884 -1.5758 -1.9414
 1166TIP3   OH225056   5.468   4.878   0.624 -0.2107  0.2092 -0.0027
 1166TIP3    H125057   5.461   4.822   0.547  0.0354  0.5733 -0.2972
 1166TIP3    H225058   5.543   4.844   0.672  0.3693  0.7005 -0.5378
 1167TIP3   OH225059   2.064   5.947   7.980  0.3162  0.0860  0.2437
 1167TIP3    H125060   1.984   5.903   8.010  0.2486  0.3703  0.4963
 1167TIP3    H225061   2.050   6.039   8.005  0.6930  0.1480  0.2270
 1168TIP3   OH225062   6.041   4.744   8.408 -0.4010  0.0957  0.6898
 1168TIP3    H125063   6.043   4.839   8.400 -1.4420  0.2266  1.7467
 1168TIP3    H225064   6.000   4.713   8.327 -0.1450  0.5430  0.3876
 1169TIP3   OH225065   4.461   3.151   2.644 -0.3453 -0.5703  0.3146
 1169TIP3    H125066   4.366   3.156   2.654 -0.2550 -0.0123  0.9364
 1169TIP3    H225067   4.474   3.086   2.574 -1.2907  1.8253 -2.2735
 1170TIP3   OH225068   3.910   4.413   7.035 -0.1540 -0.3122 -0.5845
 1170TIP3    H125069   3.841   4.438   6.973  0.2270  0.0833 -0.8563
 1170TIP3    H225070   3.882   4.329   7.070 -0.0340 -0.8775 -1.8174
 1171TIP3   OH225071   4.583   4.812   1.421  0.1302  0.1241 -0.0529
 1171TIP3    H125072   4.671   4.839   1.448  0.6050 -1.2475 -0.1582
 1171TIP3    H225073   4.555   4.750   1.489 -0.5498  0.1653 -0.2890
 1172TIP3   OH225074   3.027   0.798   2.065  0.0229  0.1945  0.4944
 1172TIP3    H125075   3.053   0.761   2.149  0.2866  0.4602  0.5289
 1172TIP3    H225076   3.096   0.774   2.004  0.7153  1.4632  0.7309
 1173TIP3   OH225077   1.339   2.346   2.477  0.0368  0.2832  0.4789
 1173TIP3    H125078   1.427   2.310   2.490 -0.4234 -1.1319 -0.0850
 1173TIP3    H225079   1.308   2.305   2.396 -0.9649  1.1338  0.4110
 1174TIP3   OH225080   6.290   6.192   1.216 -0.0134  0.8243 -0.4946
 1174TIP3    H125081   6.203   6.210   1.252 -0.4520 -1.8947 -0.0266
 1174TIP3    H225082   6.274   6.175   1.123  0.1269  1.0481 -0.5599
 1175TIP3   OH225083   6.310   4.095   7.429 -0.5965 -0.4551  0.1215
 1175TIP3    H125084   6.402   4.085   7.404 -0.2816 -1.1665  1.4737
 1175TIP3    H225085   6.261   4.049   7.361  0.0385 -0.0103 -0.6453
 1176TIP3   OH225086   5.528   2.078   3.445 -0.5502  0.4610  0.0416
 1176TIP3    H125087   5.445   2.034   3.465 -0.9306 -0.4121 -2.9912
 1176TIP3    H225088   5.504   2.146   3.382  0.6393  2.4136  1.5853
 1177TIP3   OH225089   2.764   3.066   7.908  0.1191  0.5918 -0.0609
 1177TIP3    H125090   2.856   3.073   7.934  0.2578 -2.4970  0.6840
 1177TIP3    H225091   2.759   3.112   7.825  2.3886  0.6886 -0.2067
 1178TIP3   OH225092   6.336   2.583   7.714 -0.1403 -0.0604 -0.5292
 1178TIP3    H125093   6.272   2.526   7.672  0.7121 -0.6854 -1.0214
 1178TIP3    H225094   6.304   2.672   7.697 -1.3999 -0.3801  0.1135
 1179TIP3   OH225095   5.506   2.892   0.766 -0.1186  0.0959 -0.5813
 1179TIP3    H125096   5.477   2.819   0.711 -0.4385  0.2677 -0.6429
 1179TIP3    H225097   5.455   2.884   0.846  1.0269 -0.7203  0.1022
 1180TIP3   OH225098   0.850   0.197   8.239 -0.7167  0.2218 -0.0919
 1180TIP3    H125099   0.914   0.126   8.243 -0.0970  0.7974  1.1137
 1180TIP3    H225100   0.768   0.156   8.214 -0.6645 -1.1418  1.8181
 1181TIP3   OH225101   1.241   0.059   8.082 -0.5368  0.0847  0.2985
 1181TIP3    H125102   1.184   0.003   8.135  0.7378 -1.3730  0.1624
 1181TIP3    H225103   1.255   0.137   8.137 -0.8137 -0.5396  1.2798
 1182TIP3   OH225104   0.828   1.878   8.097 -0.1577  0.2145 -0.4704
 1182TIP3    H125105   0.753   1.929   8.128  0.1334  0.2058  0.2750
 1182TIP3    H225106   0.790   1.818   8.033 -0.9391 -0.2861  0.4148
 1183TIP3   OH225107   6.656   1.356   0.149 -0.1659  0.7697 -0.1579
 1183TIP3    H125108   6.616   1.314   0.073  0.6426 -0.4080  0.0203
 1183TIP3    H225109   6.584   1.372   0.210 -0.3336 -2.3903  0.6662
 1184TIP3   OH225110   0.957   6.779   8.559  0.2907  0.3068  0.1234
 1184TIP3    H125111   0.984   6.871   8.559 -1.9265  1.0163 -0.1962
 1184TIP3    H225112   0.936   6.760   8.650  0.7098  0.1232  0.1828
 1185TIP3   OH225113   6.664   3.889   2.045  0.2828  0.5390 -0.4553
 1185TIP3    H125114   6.704   3.802   2.035 -0.5542 -0.0095  0.7228
 1185TIP3    H225115   6.644   3.917   1.955  2.3508  0.3982 -1.0070
 1186TIP3   OH225116   6.544   4.777   7.576 -0.1996 -0.4272 -0.2879
 1186TIP3    H125117   6.605   4.848   7.557  0.0375 -0.0736  1.6203
 1186TIP3    H225118   6.581   4.700   7.532  0.5590  0.2093 -0.7784
 1187TIP3   OH225119   2.625   2.316   0.465 -0.1457  0.1334  0.2021
 1187TIP3    H125120   2.688   2.350   0.402 -0.0107  0.2854  0.4166
 1187TIP3    H225121   2.595   2.394   0.513  0.0900 -0.0332  0.6302
 1188TIP3   OH225122   1.685   0.524   7.079 -0.0809  0.2192  0.2758
 1188TIP3    H125123   1.602   0.540   7.124  0.0982 -1.8235  1.4681
 1188TIP3    H225124   1.664   0.464   7.008  0.3694 -0.4831  0.7144
 1189TIP3   OH225125   0.785   4.333   8.588 -0.3021  0.3211  0.5893
 1189TIP3    H125126   0.721   4.316   8.658 -1.2837  0.7412 -0.1787
 1189TIP3    H225127   0.797   4.428   8.591 -1.6535  0.5938 -0.8660
 1190TIP3   OH225128   0.401   2.719   7.780  0.2851 -0.1707 -0.5763
 1190TIP3    H125129   0.426   2.735   7.689 -0.5380  0.8849 -0.6405
 1190TIP3    H225130   0.310   2.748   7.785  0.3455 -0.1508  0.6076
 1191TIP3   OH225131   4.656   5.447   7.987 -0.1522 -0.3197 -0.3334
 1191TIP3    H125132   4.606   5.375   7.946  0.9947 -1.1641 -0.2974
 1191TIP3    H225133   4.598   5.480   8.055 -0.9117 -0.8713 -0.6900
 1192TIP3   OH225134   3.714   4.333   7.420  0.4628  0.3407 -0.6086
 1192TIP3    H125135   3.797   4.285   7.428  0.9982  1.4399  1.0200
 1192TIP3    H225136   3.729   4.415   7.467 -1.8040  0.2053  0.5095
 1193TIP3   OH225137   1.016   2.895   2.317 -0.2861  0.1745  0.0841
 1193TIP3    H125138   1.089   2.854   2.363  1.1299 -0.7537 -2.7593
 1193TIP3    H225139   0.941   2.883   2.376  1.3044 -1.1719  1.9593
 1194TIP3   OH225140   1.083   3.303   1.687 -0.2887 -0.2099  0.0788
 1194TIP3    H125141   1.032   3.231   1.650 -0.8464  0.3591 -0.2843
 1194TIP3    H225142   1.054   3.381   1.639  0.2975  0.2620  0.4636
 1195TIP3   OH225143   0.708   3.088   2.483 -0.5172  0.0557 -0.0723
 1195TIP3    H125144   0.699   3.084   2.578 -0.6855 -1.7332 -0.1374
 1195TIP3    H225145   0.686   3.179   2.461 -1.5613  0.2272  1.4883
 1196TIP3   OH225146   4.633   6.048   1.455 -0.5268 -0.1022 -0.1061
 1196TIP3    H125147   4.711   5.994   1.464 -0.8418 -0.5299  0.1277
 1196TIP3    H225148   4.612   6.047   1.362  0.9900  1.8087 -0.5302
 1197TIP3   OH225149   1.828   1.154   2.864 -0.7420 -0.2668 -0.1407
 1197TIP3    H125150   1.736   1.173   2.847 -0.4809  0.5080 -0.7792
 1197TIP3    H225151   1.872   1.177   2.782  0.0273 -0.5677  0.1800
 1198TIP3   OH225152   2.556   0.528   7.844  0.5199 -0.0072 -0.0096
 1198TIP3    H125153   2.620   0.553   7.777  1.4796  2.2701  1.6561
 1198TIP3    H225154   2.567   0.433   7.853  0.6770 -0.3154 -2.6794
 1199TIP3   OH225155   4.333   3.164   2.348  0.3929 -0.1035 -0.5686
 1199TIP3    H125156   4.299   3.218   2.277  3.5500  0.3285 -1.8807
 1199TIP3    H225157   4.293   3.078   2.333 -1.6719  0.8191 -0.7344
 1200TIP3   OH225158   3.117   2.481   1.572 -0.3027 -0.5175 -0.0573
 1200TIP3    H125159   3.176   2.410   1.597  1.0007 -0.1556 -1.8924
 1200TIP3    H225160   3.061   2.442   1.505 -1.3336 -0.4967  0.7661
 1201TIP3   OH225161   3.361   0.646   2.749 -0.3822  0.2672  0.1067
 1201TIP3    H125162   3.398   0.732   2.769  1.0739  0.0941 -1.5588
 1201TIP3    H225163   3.398   0.588   2.816  0.6458  0.5093 -0.2363
 1202TIP3   OH225164   2.888   0.137   1.867  0.3020 -0.1208  0.1943
 1202TIP3    H125165   2.805   0.179   1.888 -1.1910 -2.4627 -0.6835
 1202TIP3    H225166   2.913   0.092   1.947 -0.1512 -0.7363  0.0018
 1203TIP3   OH225167   3.188   2.656   0.468  0.2939 -0.5064  0.4180
 1203TIP3    H125168   3.206   2.575   0.516 -1.2577 -0.0125  1.9494
 1203TIP3    H225169   3.129   2.628   0.397 -0.7166 -0.6567  1.2960
 1204TIP3   OH225170   5.685   4.795   0.074  0.1176  0.6082 -0.5063
 1204TIP3    H125171   5.630   4.803  -0.004  0.5308 -0.6138 -0.9418
 1204TIP3    H225172   5.760   4.743   0.046 -0.3021 -0.9048  0.9619
 1205TIP3   OH225173   0.107   6.395   8.735 -0.0921 -0.2995 -0.2946
 1205TIP3    H125174   0.030   6.340   8.725 -0.0330 -0.3342 -0.5740
 1205TIP3    H225175   0.120   6.435   8.648  0.4727 -0.6604 -0.3840
 1206TIP3   OH225176   5.276   2.376   1.233 -0.0196 -0.1977  0.4899
 1206TIP3    H125177   5.357   2.356   1.188  0.1613 -0.1950  0.8098
 1206TIP3    H225178   5.233   2.292   1.246  1.2125 -0.5801  2.7363
 1207TIP3   OH225179   2.270   5.853   1.360 -0.1620  0.6260  0.5474
 1207TIP3    H125180   2.330   5.798   1.410  1.1640  1.8269  0.3599
 1207TIP3    H225181   2.302   5.942   1.375  0.0607  1.0713 -2.0861
 1208TIP3   OH225182   0.526   2.331   1.782  0.0163 -0.1658  0.3535
 1208TIP3    H125183   0.586   2.402   1.759 -0.6706 -0.1460 -1.5065
 1208TIP3    H225184   0.484   2.308   1.700 -3.8344  0.9893  1.7788
 1209TIP3   OH225185   0.309   4.402   0.482 -0.0589  0.4533  0.2954
 1209TIP3    H125186   0.388   4.385   0.533 -0.6497  0.2479  1.1664
 1209TIP3    H225187   0.267   4.476   0.526 -0.2634  0.6713 -0.2607
 1210TIP3   OH225188   4.114   2.031   7.638 -0.0201  0.1745 -0.3141
 1210TIP3    H125189   4.041   2.060   7.583 -0.2263 -0.1598 -0.2151
 1210TIP3    H225190   4.169   1.978   7.579 -0.4169 -0.4647 -0.1154
 1211TIP3   OH225191   1.829   3.468   3.263 -0.5202  0.3699  0.8010
 1211TIP3    H125192   1.795   3.436   3.346 -1.3099  2.4320  1.3241
 1211TIP3    H225193   1.765   3.533   3.234  0.7200  1.0973 -0.4623
 1212TIP3   OH225194   0.100   0.008   7.183  0.2772  0.4719 -0.4665
 1212TIP3    H125195   0.193   0.013   7.163  0.1887 -1.2072 -1.5162
 1212TIP3    H225196   0.093  -0.067   7.243 -0.4803  0.0746 -1.0362
 1213TIP3   OH225197   1.918   6.388   0.747  0.7731  0.3805  0.0767
 1213TIP3    H125198   1.832   6.357   0.776  0.3139  0.5157 -1.1144
 1213TIP3    H225199   1.939   6.334   0.671  1.8401  0.2220  0.4619
 1214TIP3   OH225200   2.223   1.560   8.733  0.2868 -0.0326  0.2110
 1214TIP3    H125201   2.277   1.594   8.804  0.5945 -1.4437  0.7005
 1214TIP3    H225202   2.170   1.634   8.704  0.7086  0.7552  1.4029
 1215TIP3   OH225203   0.493   3.011   8.754 -0.0102  0.5123 -0.2473
 1215TIP3    H125204   0.499   3.106   8.761  1.1353  0.3384  1.8262
 1215TIP3    H225205   0.581   2.982   8.732 -0.3442 -0.0952 -0.8362
 1216TIP3   OH225206   3.938   3.597   8.355  0.4619  0.1965 -0.5222
 1216TIP3    H125207   3.998   3.525   8.373  0.2473 -0.0601 -0.8268
 1216TIP3    H225208   3.884   3.604   8.434 -0.3953 -0.8394 -0.9907
 1217TIP3   OH225209   0.633   3.857   0.115 -0.8802 -0.4928 -0.1259
 1217TIP3    H125210   0.729   3.854   0.122 -0.9953 -0.3694  1.7833
 1217TIP3    H225211   0.617   3.927   0.051  0.2947 -1.0953 -1.1337
 1218TIP3   OH225212   0.130   4.489   3.434 -0.3037 -0.2892 -0.2160
 1218TIP3    H125213   0.200   4.464   3.374  0.8053  1.3490  0.3222
 1218TIP3    H225214   0.079   4.408   3.447  0.2892 -1.0276 -2.1628
 1219TIP3   OH225215   6.589   4.951   7.869 -0.6369  0.1856 -0.2789
 1219TIP3    H125216   6.660   4.939   7.805 -1.1983 -1.1677 -0.6926
 1219TIP3    H225217   6.622   5.016   7.930 -0.0023  1.3897 -1.8358
 1220TIP3   OH225218   2.626   5.645   0.449 -0.7853  0.3345  0.5268
 1220TIP3    H125219   2.571   5.593   0.390 -0.4007 -0.2830  0.7019
 1220TIP3    H225220   2.600   5.617   0.537 -0.4866  0.3431  0.6183
 1221TIP3   OH225221   6.226   4.820   2.282  0.1422 -0.2747 -0.6473
 1221TIP3    H125222   6.319   4.836   2.297  0.6034 -1.6155 -1.7611
 1221TIP3    H225223   6.181   4.886   2.334  1.6814 -0.5058  1.0947
 1222TIP3   OH225224   3.825   4.319   8.445 -0.4505  0.6279  0.0942
 1222TIP3    H125225   3.774   4.382   8.497  0.4269  0.3443  1.3627
 1222TIP3    H225226   3.761   4.256   8.413 -1.0681  1.0172  0.5329
 1223TIP3   OH225227   6.664   0.962   7.834  0.0600  0.0537 -0.2462
 1223TIP3    H125228   6.585   0.908   7.826 -0.4903  0.7696  0.1279
 1223TIP3    H225229   6.630   1.049   7.854  0.7603  1.1582 -3.3311
 1224TIP3   OH225230   5.375   0.700   1.437  0.3230 -0.4839 -0.0641
 1224TIP3    H125231   5.435   0.734   1.371  1.3134  0.2723  1.1846
 1224TIP3    H225232   5.420   0.625   1.474 -0.2306 -0.9081 -0.2461
 1225TIP3   OH225233   1.601   1.591   0.779  0.2063  0.1232  0.1288
 1225TIP3    H125234   1.636   1.668   0.824 -0.0037 -0.6804  1.7788
 1225TIP3    H225235   1.562   1.625   0.699  2.1132  1.4265 -0.3093
 1226TIP3   OH225236   1.501   1.058   1.668  0.4408 -0.1598  0.2756
 1226TIP3    H125237   1.507   0.974   1.622 -0.1001 -0.6632  1.1040
 1226TIP3    H225238   1.569   1.112   1.628  1.3683 -1.2679  0.3081
 1227TIP3   OH225239   2.983   4.961   1.351  0.1717 -0.1546  0.7118
 1227TIP3    H125240   2.897   4.977   1.311 -0.6291 -1.9851  1.5965
 1227TIP3    H225241   2.964   4.937   1.441  1.7144  0.4965  1.2382
 1228TIP3   OH225242   4.554   0.912   0.024  0.2779 -0.1625  0.0413
 1228TIP3    H125243   4.498   0.948  -0.045 -1.0076 -0.2501  1.0121
 1228TIP3    H225244   4.554   0.979   0.092 -2.3090 -1.9366  1.9669
 1229TIP3   OH225245   0.146   5.679   2.850  0.6048  0.6933 -0.4715
 1229TIP3    H125246   0.082   5.748   2.868  1.3788  1.4622 -0.5861
 1229TIP3    H225247   0.203   5.717   2.783  0.7013 -0.2801 -0.9569
 1230TIP3   OH225248   6.159   1.974   7.639 -0.0268  0.2820  0.2196
 1230TIP3    H125249   6.193   1.954   7.552  0.2796 -2.3205  0.8560
 1230TIP3    H225250   6.234   1.964   7.698 -0.3977  1.2855  0.9039
 1231TIP3   OH225251   0.226   5.287   1.302  0.4307 -0.2173 -1.1314
 1231TIP3    H125252   0.249   5.373   1.338  1.6360 -0.7686 -0.5220
 1231TIP3    H225253   0.302   5.263   1.248  0.9929 -1.7446  0.2770
 1232TIP3   OH225254   2.457   3.258   7.815  0.4792 -0.5632 -0.3157
 1232TIP3    H125255   2.418   3.278   7.730 -0.2719 -1.1558 -0.1168
 1232TIP3    H225256   2.511   3.335   7.836 -0.5427  0.2484 -0.6156
 1233TIP3   OH225257   3.882   6.598   2.789 -0.0039  0.0729  0.4004
 1233TIP3    H125258   3.848   6.525   2.842 -1.5394  1.7316  1.8685
 1233TIP3    H225259   3.851   6.580   2.701  0.9859 -1.8071  0.3829
 1234TIP3   OH225260   2.077   3.448   2.535 -0.1417  0.0184  0.1038
 1234TIP3    H125261   2.127   3.380   2.582  1.6324  0.1207 -1.5417
 1234TIP3    H225262   2.139   3.519   2.521 -1.2655  0.9272 -0.4604
 1235TIP3   OH225263   0.963   4.894   0.238 -0.3064  0.2467 -0.1445
 1235TIP3    H125264   0.875   4.880   0.272 -0.3525 -1.9814 -0.9898
 1235TIP3    H225265   0.955   4.877   0.144  1.1822 -0.9565 -0.0955
 1236TIP3   OH225266   5.198   2.132   0.641  0.1352  0.0506  0.5154
 1236TIP3    H125267   5.234   2.112   0.727  0.6442 -0.9023  0.1061
 1236TIP3    H225268   5.103   2.138   0.655 -0.1963 -3.4007  0.6378
 1237TIP3   OH225269   6.464   2.615   2.307 -0.5052 -0.1393 -0.2969
 1237TIP3    H125270   6.473   2.664   2.389 -0.2584 -0.9788  0.1844
 1237TIP3    H225271   6.372   2.587   2.307 -0.3144 -0.7810  0.0678
 1238TIP3   OH225272   5.067   4.697   8.117  0.6095 -0.1063  0.7638
 1238TIP3    H125273   5.160   4.692   8.095  0.3625  0.8745 -0.6090
 1238TIP3    H225274   5.052   4.622   8.175  2.0394 -0.8427  0.2227
 1239TIP3   OH225275   3.183   3.611   0.861 -0.3857  0.7274 -0.4469
 1239TIP3    H125276   3.097   3.621   0.902 -0.3392 -0.1983 -0.1054
 1239TIP3    H225277   3.217   3.700   0.854  0.3686  0.8931  3.1907
 1240TIP3   OH225278   1.413   2.488   1.622 -0.3387  0.2178  0.1550
 1240TIP3    H125279   1.507   2.497   1.611 -0.5336  0.0634 -2.0558
 1240TIP3    H225280   1.400   2.485   1.717  1.8605  0.2249  0.5024
 1241TIP3   OH225281   0.169   0.683   2.678  0.1018 -0.2488 -0.0991
 1241TIP3    H125282   0.106   0.628   2.723 -0.9166  0.0685 -1.0927
 1241TIP3    H225283   0.170   0.765   2.727  0.3811 -0.5484  0.4047
 1242TIP3   OH225284   5.398   0.907   7.877 -0.7228  0.5910  0.2351
 1242TIP3    H125285   5.491   0.905   7.901 -0.7871  0.0728  0.4628
 1242TIP3    H225286   5.393   0.972   7.807 -0.4457  1.7814  1.2729
 1243TIP3   OH225287   2.540   3.498   7.306  0.0406  0.2296  0.0542
 1243TIP3    H125288   2.463   3.466   7.354  1.0154 -0.4265  1.2581
 1243TIP3    H225289   2.510   3.506   7.216 -1.4696  0.1053  0.5070
 1244TIP3   OH225290   6.585   2.420   1.739  0.1170  0.5408  0.5313
 1244TIP3    H125291   6.646   2.432   1.812  0.0918  1.3677  0.4267
 1244TIP3    H225292   6.515   2.365   1.775  0.8484 -0.3260  0.6846
 1245TIP3   OH225293   5.706   4.482   1.814  0.2417 -0.1743 -0.4282
 1245TIP3    H125294   5.726   4.404   1.761 -0.1132  0.3268 -1.3301
 1245TIP3    H225295   5.754   4.553   1.771  1.3304 -0.0472  0.9504
 1246TIP3   OH225296   2.342   1.256   1.600 -0.3792  0.1367 -0.0656
 1246TIP3    H125297   2.310   1.292   1.518  1.4941  2.4987  0.1574
 1246TIP3    H225298   2.408   1.191   1.575 -1.2367 -0.6412 -0.3956
 1247TIP3   OH225299   3.639   6.690   1.859 -1.0450 -0.6219 -0.3075
 1247TIP3    H125300   3.699   6.634   1.811  0.0452 -0.4470  0.7914
 1247TIP3    H225301   3.596   6.631   1.922 -1.2126 -0.5504 -0.3555
 1248TIP3   OH225302   2.987   1.941   8.068 -0.7521 -0.8634 -0.2005
 1248TIP3    H125303   2.968   1.853   8.034  0.1316 -0.5883 -1.5195
 1248TIP3    H225304   2.923   1.998   8.024 -2.0359 -0.9546  1.4770
 1249TIP3   OH225305   3.560   3.657   1.897  0.4255 -0.2539  0.1808
 1249TIP3    H125306   3.572   3.614   1.812  1.5649 -0.4571  0.4345
 1249TIP3    H225307   3.485   3.715   1.883  0.1563 -0.7941 -0.7582
 1250TIP3   OH225308   6.020   0.193   7.671  0.3037 -0.6884  0.3177
 1250TIP3    H125309   5.929   0.221   7.669  0.2179 -0.8660  1.2549
 1250TIP3    H225310   6.031   0.140   7.593 -0.4982 -0.9793  0.3950
 1251TIP3   OH225311   3.993   3.840   1.555 -0.3793 -0.1899 -0.0154
 1251TIP3    H125312   4.071   3.791   1.527 -0.4319  0.1769 -0.8532
 1251TIP3    H225313   4.024   3.930   1.565 -0.1856 -0.4254  1.9389
 1252TIP3   OH225314   3.794   0.909   1.239 -0.6699  0.4319 -0.0421
 1252TIP3    H125315   3.779   0.828   1.288  1.6602 -0.6408 -0.9934
 1252TIP3    H225316   3.765   0.978   1.300 -0.3516 -0.9732  1.8113
 1253TIP3   OH225317   0.700   4.850   1.864 -0.0333 -0.0124  0.0370
 1253TIP3    H125318   0.778   4.869   1.812 -0.0792  0.0305 -0.0167
 1253TIP3    H225319   0.670   4.936   1.893 -0.6480  0.0721 -0.7948
 1254TIP3   OH225320   2.905   3.392   0.286 -0.0901 -0.3430  0.4859
 1254TIP3    H125321   2.884   3.299   0.299 -0.1023 -0.5087 -0.6787
 1254TIP3    H225322   2.958   3.415   0.362 -1.4631 -0.8595  1.6544
 1255TIP3   OH225323   5.014   3.950   2.522  0.0499 -0.2688 -0.7820
 1255TIP3    H125324   5.053   3.947   2.609  1.7827  1.1974 -1.4760
 1255TIP3    H225325   4.922   3.926   2.537  0.0503  0.9186  1.5938
 1256TIP3   OH225326   5.849   0.937   2.249 -0.4488 -0.0840 -0.1163
 1256TIP3    H125327   5.920   0.963   2.308 -1.2878  0.9179  0.4984
 1256TIP3    H225328   5.771   0.938   2.304 -1.2365  0.7225 -1.1972
 1257TIP3   OH225329   3.022   6.439   0.361 -0.3803 -0.0705  0.2262
 1257TIP3    H125330   3.110   6.441   0.397 -0.9354  0.0438  1.6205
 1257TIP3    H225331   2.973   6.502   0.413 -0.9792  0.8830 -1.4137
 1258TIP3   OH225332   2.475   2.951   6.759 -0.0814  0.4215  0.5053
 1258TIP3    H125333   2.556   3.002   6.763  0.0477  0.2373  0.2874
 1258TIP3    H225334   2.421   2.996   6.693 -0.4073  0.8992  1.0953
 1259TIP3   OH225335   0.461   1.562   8.194 -0.2571 -0.7027 -0.3444
 1259TIP3    H125336   0.548   1.539   8.227  0.1316  0.2286 -0.6712
 1259TIP3    H225337   0.400   1.518   8.253  0.4353 -1.0895  0.0948
 1260TIP3   OH225338   6.721   4.341   3.197  0.4190  0.9588 -0.0072
 1260TIP3    H125339   6.740   4.308   3.284  0.0216  0.4749 -0.1042
 1260TIP3    H225340   6.807   4.360   3.159  1.1987 -4.2536 -1.6627
 1261TIP3   OH225341   1.021   2.835   1.108 -0.5632  0.0493 -0.5012
 1261TIP3    H125342   1.036   2.756   1.159  0.8290  1.3228  1.2329
 1261TIP3    H225343   1.039   2.810   1.018  0.6022 -1.4300  0.1009
 1262TIP3   OH225344   6.148   1.422   8.362  0.0720  0.6270 -0.3743
 1262TIP3    H125345   6.069   1.395   8.408  0.3527 -0.2361 -0.3865
 1262TIP3    H225346   6.121   1.500   8.312 -0.5255  0.8736  0.3232
 1263TIP3   OH225347   3.836   3.671   8.091  0.4082 -0.3926 -0.1589
 1263TIP3    H125348   3.898   3.727   8.042 -0.7221  0.1656 -0.9931
 1263TIP3    H225349   3.869   3.672   8.181  0.6873  1.2388 -0.2534
 1264TIP3   OH225350   3.275   4.487   1.381  0.3047 -0.2165 -0.0316
 1264TIP3    H125351   3.299   4.488   1.289 -0.7322  1.0868 -0.3249
 1264TIP3    H225352   3.335   4.425   1.421  0.6278 -0.9666 -1.6147
 1265TIP3   OH225353   0.235   3.355   1.613  0.0771  1.3107  0.2376
 1265TIP3    H125354   0.233   3.264   1.645 -0.6839  1.3353  0.2736
 1265TIP3    H225355   0.235   3.346   1.518 -0.4330  1.2745  0.2382
 1266TIP3   OH225356   6.183   1.157   1.344 -0.0456  0.1302  0.3153
 1266TIP3    H125357   6.235   1.212   1.286  0.4885 -0.6111  0.0799
 1266TIP3    H225358   6.172   1.210   1.423  0.1602  0.7078 -0.0329
 1267TIP3   OH225359   2.619   2.085   1.796 -0.3472  0.0356 -0.0885
 1267TIP3    H125360   2.596   2.126   1.713  2.7294 -2.0418 -2.1601
 1267TIP3    H225361   2.704   2.122   1.819  0.2689 -1.5971  0.4546
 1268TIP3   OH225362   2.309   1.325   7.962 -0.2869  0.2564 -0.2008
 1268TIP3    H125363   2.364   1.256   8.000 -0.4497  0.6408  0.7753
 1268TIP3    H225364   2.296   1.298   7.871  0.5353 -0.4471 -0.1289
 1269TIP3   OH225365   5.570   3.279   1.989  0.1829  0.2195 -0.1207
 1269TIP3    H125366   5.479   3.305   2.001 -0.0978 -0.4998 -0.5685
 1269TIP3    H225367   5.618   3.327   2.055 -0.6899 -0.2983  0.9322
 1270TIP3   OH225368   3.053   6.722   7.471  0.0490 -0.0614  0.1375
 1270TIP3    H125369   2.981   6.784   7.456  1.0006  1.4077  1.3310
 1270TIP3    H225370   3.074   6.687   7.385  0.1905  2.1099 -0.7583
 1271TIP3   OH225371   2.971   0.009   3.029  0.5556 -0.1275 -0.6116
 1271TIP3    H125372   2.889   0.011   3.080 -0.0873 -1.0789 -1.5671
 1271TIP3    H225373   3.037  -0.018   3.093 -0.0676 -0.3998 -0.0589
 1272TIP3   OH225374   5.932   3.785   0.785  0.1666  0.3202  0.2417
 1272TIP3    H125375   5.990   3.818   0.716 -1.1715  2.8373  0.2155
 1272TIP3    H225376   5.850   3.765   0.740 -0.1711  0.3143  0.8463
 1273TIP3   OH225377   1.712   3.677   2.223  0.1994  0.0538 -0.2001
 1273TIP3    H125378   1.629   3.633   2.244 -0.5736 -0.0191 -2.9066
 1273TIP3    H225379   1.779   3.612   2.244 -0.1610  0.6812  3.5736
 1274TIP3   OH225380   3.267   3.261   2.066  0.5551  0.6171  0.0964
 1274TIP3    H125381   3.258   3.288   1.975  1.2203 -0.0725 -0.1865
 1274TIP3    H225382   3.294   3.341   2.112  0.5714  0.8829 -0.3685
 1275TIP3   OH225383   2.098   4.350   6.852  0.0369 -0.5694 -0.1931
 1275TIP3    H125384   2.064   4.269   6.890  0.8727 -0.6593  0.3911
 1275TIP3    H225385   2.167   4.322   6.791  2.9451 -0.2485  2.6684
 1276TIP3   OH225386   4.821   1.847   6.996 -0.4911 -0.2371  0.0670
 1276TIP3    H125387   4.910   1.840   6.961 -0.8956 -1.6290 -0.7709
 1276TIP3    H225388   4.833   1.878   7.086  0.9277 -1.4373  0.3371
 1277TIP3   OH225389   4.061   5.009   8.097 -0.2705 -0.0652 -0.3462
 1277TIP3    H125390   4.118   5.083   8.116 -1.8745  1.2876 -0.5884
 1277TIP3    H225391   3.983   5.025   8.150  0.1811 -2.7773  1.3703
 1278TIP3   OH225392   2.618   5.070   0.113  0.2475  0.0957 -0.4403
 1278TIP3    H125393   2.703   5.082   0.071 -0.0441  1.5566 -0.6495
 1278TIP3    H225394   2.606   4.975   0.115  2.4208 -0.2121  0.7047
 1279TIP3   OH225395   3.559   5.971   1.149  0.5015 -0.4357 -0.0997
 1279TIP3    H125396   3.468   5.991   1.174  0.1995 -0.8971 -0.7743
 1279TIP3    H225397   3.601   5.945   1.231  0.0872  0.0231  0.2619
 1280TIP3   OH225398   2.724   2.484   3.274 -0.3851 -0.1392 -0.3868
 1280TIP3    H125399   2.796   2.434   3.311 -0.6464 -1.0675 -1.0907
 1280TIP3    H225400   2.766   2.549   3.217 -0.0413  0.5406  0.6255
 1281TIP3   OH225401   2.048   4.343   0.237  0.5038  0.0392 -0.6578
 1281TIP3    H125402   2.099   4.395   0.300  0.6586 -0.8817 -0.0026
 1281TIP3    H225403   2.087   4.256   0.241 -0.1294 -0.2813 -1.3047
 1282TIP3   OH225404   4.265   6.657   0.328 -0.2025  0.6066 -0.0841
 1282TIP3    H125405   4.338   6.703   0.368 -0.5823  0.7472  0.4589
 1282TIP3    H225406   4.187   6.702   0.361 -0.6045 -0.6578  0.7746
 1283TIP3   OH225407   2.414   6.267   7.949 -0.5512  0.3355 -0.1335
 1283TIP3    H125408   2.455   6.223   7.875 -0.9103 -1.2566  0.5740
 1283TIP3    H225409   2.478   6.333   7.976  0.3435 -0.2500 -0.7699
 1284TIP3   OH225410   5.379   2.642   7.522 -0.8560 -0.5823 -0.2878
 1284TIP3    H125411   5.470   2.611   7.519 -0.8540 -0.6719  0.4927
 1284TIP3    H225412   5.367   2.689   7.439  0.6892  1.6223  0.6394
 1285TIP3   OH225413   4.937   6.758   0.515  0.3060 -1.0465  0.3887
 1285TIP3    H125414   4.973   6.836   0.472  0.4243 -1.2234  0.1635
 1285TIP3    H225415   4.923   6.696   0.444 -1.4458 -0.6172  0.3249
 1286TIP3   OH225416   2.179   3.549   8.659 -0.5356 -0.4327  0.3587
 1286TIP3    H125417   2.183   3.614   8.589 -1.3474 -0.1762  0.5491
 1286TIP3    H225418   2.185   3.465   8.613  2.5198 -0.2708  0.2276
 1287TIP3   OH225419   5.765   4.162   3.214 -0.4676  0.2040  0.3068
 1287TIP3    H125420   5.776   4.114   3.131 -2.3045 -2.3443  1.4176
 1287TIP3    H225421   5.851   4.154   3.257 -0.0173  0.0333 -0.5831
 1288TIP3   OH225422   6.205   2.578   8.506  0.0442  0.3053 -0.1095
 1288TIP3    H125423   6.240   2.587   8.418 -0.4866  1.0638 -0.2522
 1288TIP3    H225424   6.172   2.665   8.528 -1.9338 -0.3976 -0.0831
 1289TIP3   OH225425   5.357   4.508   7.208  0.2145  0.0185  0.9396
 1289TIP3    H125426   5.404   4.463   7.279  0.4551  1.3932  1.6834
 1289TIP3    H225427   5.304   4.574   7.253 -1.3725 -0.5494  0.0042
 1290TIP3   OH225428   2.259   3.665   2.579 -0.2974  0.3285 -0.0484
 1290TIP3    H125429   2.227   3.675   2.668  0.9369  0.1849  0.4390
 1290TIP3    H225430   2.296   3.750   2.557  1.2470 -0.1883  0.3775
 1291TIP3   OH225431   5.480   3.302   1.455 -0.0835 -0.2513 -0.6855
 1291TIP3    H125432   5.532   3.225   1.435 -1.3868 -1.5125  0.4733
 1291TIP3    H225433   5.419   3.310   1.381 -0.7822 -1.1424 -0.2341
 1292TIP3   OH225434   3.506   6.328   8.048 -0.5135 -0.2778 -0.2080
 1292TIP3    H125435   3.499   6.359   8.138  0.9486  2.6559 -0.9604
 1292TIP3    H225436   3.591   6.285   8.043 -0.0212  0.6912 -0.4327
 1293TIP3   OH225437   3.363   2.979   8.459 -0.1131  0.0001 -0.1323
 1293TIP3    H125438   3.310   2.966   8.380  0.6431  2.3431 -1.1239
 1293TIP3    H225439   3.316   3.047   8.508  1.2227  1.1557 -0.3788
 1294TIP3   OH225440   2.141   2.793   0.408 -0.1186  0.5996  0.2878
 1294TIP3    H125441   2.075   2.852   0.445  1.2436  2.1332  0.3472
 1294TIP3    H225442   2.222   2.844   0.407  1.5575 -1.7989  1.9576
 1295TIP3   OH225443   6.065   6.624   1.108  0.1798  0.2331 -0.7978
 1295TIP3    H125444   6.041   6.533   1.096  0.5749  0.2005 -1.3614
 1295TIP3    H225445   5.993   6.674   1.069 -0.0386  0.1683 -0.4837
 1296TIP3   OH225446   2.198   1.278   2.651 -0.1358  0.2191  0.3727
 1296TIP3    H125447   2.188   1.291   2.746  2.5944 -0.8235  0.9054
 1296TIP3    H225448   2.269   1.337   2.627  0.5839 -0.9949 -0.5890
 1297TIP3   OH225449   3.001   3.270   7.858  0.3732 -0.1358 -0.6806
 1297TIP3    H125450   2.995   3.239   7.768 -0.4533  1.1879 -1.1106
 1297TIP3    H225451   3.095   3.282   7.873  0.5199 -0.4099 -1.3587
 1298TIP3   OH225452   3.026   0.533   3.375 -0.1788  0.5914 -0.0056
 1298TIP3    H125453   3.114   0.518   3.339 -0.9942  1.4001 -2.5833
 1298TIP3    H225454   2.994   0.446   3.398  0.7378  0.1160 -0.4715
 1299TIP3   OH225455   1.618   5.845   1.922 -0.7730 -0.4660  0.3589
 1299TIP3    H125456   1.703   5.876   1.950 -0.9735 -0.1999  0.6720
 1299TIP3    H225457   1.559   5.919   1.937 -0.9318 -0.4018 -0.5119
 1300TIP3   OH225458   4.044   0.615   8.629  0.1713  0.8063 -0.0695
 1300TIP3    H125459   4.104   0.678   8.670 -0.0137  0.1822  1.2264
 1300TIP3    H225460   4.013   0.561   8.702 -0.9169  0.2437 -0.9197
 1301TIP3   OH225461   1.671   6.317   0.851  0.9183 -0.3566  0.0136
 1301TIP3    H125462   1.618   6.314   0.931  1.1940  2.8813  0.4485
 1301TIP3    H225463   1.630   6.253   0.793 -2.8094  1.0956  0.7502
 1302TIP3   OH225464   0.965   3.691   8.102 -0.0649 -0.1538 -0.4449
 1302TIP3    H125465   1.010   3.749   8.041  0.2055  0.9604  0.7795
 1302TIP3    H225466   0.874   3.720   8.099 -0.0100  0.0518 -0.1596
 1303TIP3   OH225467   2.516   1.968   2.844 -0.2571 -0.2494 -0.3941
 1303TIP3    H125468   2.546   2.035   2.782  0.2059  0.1352  0.2272
 1303TIP3    H225469   2.448   1.920   2.797 -0.3240  0.4113 -0.9938
 1304TIP3   OH225470   3.892   4.376   0.742 -0.2677 -0.2644 -0.2805
 1304TIP3    H125471   3.801   4.400   0.758 -0.5517 -0.3819 -1.5966
 1304TIP3    H225472   3.905   4.298   0.796 -0.5959  0.3846  0.7700
 1305TIP3   OH225473   0.121   6.133   0.507  0.0627  0.5366  0.2927
 1305TIP3    H125474   0.085   6.055   0.464 -1.1321  0.9220  0.5449
 1305TIP3    H225475   0.058   6.203   0.486 -0.7617  0.6777  2.8946
 1306TIP3   OH225476   6.353   5.572   0.756  0.2382 -0.0653 -0.0202
 1306TIP3    H125477   6.320   5.500   0.810  0.8096 -1.3749 -1.3470
 1306TIP3    H225478   6.284   5.638   0.759 -1.0067 -1.3185  0.0059
 1307TIP3   OH225479   1.412   2.237   0.331  0.0024 -0.2829  0.2617
 1307TIP3    H125480   1.387   2.156   0.285  0.9930 -0.4238 -0.0397
 1307TIP3    H225481   1.336   2.294   0.320 -0.5528 -1.0226  0.1343
 1308TIP3   OH225482   2.452   1.877   3.324  0.0268  0.3320 -0.2846
 1308TIP3    H125483   2.471   1.900   3.233  2.4552  1.6364  0.4508
 1308TIP3    H225484   2.528   1.826   3.352 -0.1568  0.8798  1.2943
 1309TIP3   OH225485   3.622   0.755   8.688  0.3156  0.2521  0.6960
 1309TIP3    H125486   3.685   0.801   8.743 -1.1992  1.6516  1.3420
 1309TIP3    H225487   3.608   0.813   8.613  0.4946 -0.4870  0.0818
 1310TIP3   OH225488   1.522   4.233   7.554  0.2483 -0.5625 -0.6905
 1310TIP3    H125489   1.531   4.285   7.474 -0.8702 -0.7239 -0.9332
 1310TIP3    H225490   1.527   4.142   7.524 -1.5049 -0.6624 -0.7917
 1311TIP3   OH225491   4.476   1.326   0.470 -0.4029  0.4439 -0.1828
 1311TIP3    H125492   4.559   1.373   0.458 -0.1340  0.1659  0.5700
 1311TIP3    H225493   4.415   1.393   0.500 -0.5571  0.7278 -1.1010
 1312TIP3   OH225494   1.601   3.818   7.728 -0.6088  0.0284 -0.1124
 1312TIP3    H125495   1.583   3.751   7.794 -0.7207  0.6452  0.4858
 1312TIP3    H225496   1.682   3.789   7.686 -0.7086 -0.5324  0.0741
 1313TIP3   OH225497   4.913   4.552   8.777  0.2631 -0.1795 -0.1402
 1313TIP3    H125498   4.970   4.575   8.703 -1.1956  0.5446 -1.0806
 1313TIP3    H225499   4.872   4.470   8.751  0.8617 -0.7156  0.5525
 1314TIP3   OH225500   0.800   3.710   8.440 -0.1682 -0.3277 -0.4917
 1314TIP3    H125501   0.710   3.706   8.474 -0.5214 -0.4664 -1.4226
 1314TIP3    H225502   0.807   3.798   8.403  1.0135  0.7449  2.0334
 1315TIP3   OH225503   1.541   1.584   7.588 -0.3747  0.2743 -0.4262
 1315TIP3    H125504   1.482   1.625   7.525  0.0941  0.3576 -0.8215
 1315TIP3    H225505   1.573   1.505   7.544 -0.5234 -0.0032 -0.0475
 1316TIP3   OH225506   6.509   2.757   2.546  0.7650 -0.4494 -0.0225
 1316TIP3    H125507   6.418   2.780   2.525  0.3314  0.3612  2.3729
 1316TIP3    H225508   6.539   2.829   2.603  2.4163 -1.4235  0.3981
 1317TIP3   OH225509   2.601   5.281   2.009 -0.0381 -0.2227  0.0556
 1317TIP3    H125510   2.635   5.319   1.928  0.2197 -2.4054 -0.9525
 1317TIP3    H225511   2.677   5.272   2.066 -0.2083  1.2614  0.5419
 1318TIP3   OH225512   0.186   1.709   2.551 -0.2569  0.0099 -0.0627
 1318TIP3    H125513   0.229   1.780   2.503 -0.5166  0.1624 -0.0733
 1318TIP3    H225514   0.225   1.714   2.639 -1.1064  0.9231  0.2835
 1319TIP3   OH225515   1.104   5.868   0.967  0.1076  0.2041 -0.2268
 1319TIP3    H125516   1.198   5.858   0.951 -0.1020 -0.0250 -1.3605
 1319TIP3    H225517   1.068   5.898   0.884 -0.8556  0.1448  0.1533
 1320TIP3   OH225518   4.076   6.571   1.446  0.0255  0.1940 -0.5762
 1320TIP3    H125519   4.027   6.507   1.395 -0.5870  1.1586 -1.2545
 1320TIP3    H225520   4.168   6.547   1.435 -0.2292 -0.9457 -0.2632
 1321TIP3   OH225521   2.056   2.456   8.812 -0.1882 -0.5417 -0.2013
 1321TIP3    H125522   2.023   2.387   8.869  0.6023 -0.4253  0.4235
 1321TIP3    H225523   2.072   2.530   8.871 -1.6969  0.4368 -0.9699
 1322TIP3   OH225524   5.816   3.686   0.246 -0.2164  0.5070 -0.0248
 1322TIP3    H125525   5.803   3.694   0.151 -3.0546  2.5478  0.3826
 1322TIP3    H225526   5.833   3.776   0.275  0.2744 -0.0372  1.4341
 1323TIP3   OH225527   4.960   0.185   2.235  0.4023  0.5178 -0.2761
 1323TIP3    H125528   5.014   0.113   2.268  2.6817  1.7152 -1.1816
 1323TIP3    H225529   4.954   0.169   2.141  1.4589  1.7653 -0.5901
 1324TIP3   OH225530   1.333   0.931   8.544 -0.1418  0.4024 -0.1819
 1324TIP3    H125531   1.354   0.973   8.461 -1.1629  0.6311 -0.3369
 1324TIP3    H225532   1.237   0.928   8.547 -0.1121 -1.0092  0.2856
 1325TIP3   OH225533   2.398   5.088   2.072  0.7703  0.1716  0.5404
 1325TIP3    H125534   2.421   5.050   2.157  0.5578  1.5530  1.2515
 1325TIP3    H225535   2.454   5.165   2.064 -0.1252  0.7893  0.0422
 1326TIP3   OH225536   1.133   0.127   7.779  0.0092  0.3645 -0.3499
 1326TIP3    H125537   1.166   0.125   7.689  1.0227  2.4327 -0.0698
 1326TIP3    H225538   1.195   0.182   7.827  0.2210 -1.6846  1.9673
 1327TIP3   OH225539   1.138   0.234   2.086  0.1450 -0.2441 -0.1438
 1327TIP3    H125540   1.156   0.154   2.037  1.0552 -0.2643  0.1945
 1327TIP3    H225541   1.220   0.284   2.082 -0.9610  1.5901 -1.9811
 1328TIP3   OH225542   4.374   3.314   8.389 -0.1266 -0.0118  0.3734
 1328TIP3    H125543   4.398   3.287   8.300 -1.3450  0.0854 -0.0076
 1328TIP3    H225544   4.420   3.397   8.402  0.4886 -0.2960  0.0418
 1329TIP3   OH225545   0.961   0.582   2.167  0.0822 -0.0688 -0.2249
 1329TIP3    H125546   1.049   0.585   2.206  1.3444 -2.2721 -2.5793
 1329TIP3    H225547   0.911   0.524   2.223  0.3629  0.5333  0.6687
 1330TIP3   OH225548   4.132   2.591   1.805 -0.1049 -0.2908  0.6567
 1330TIP3    H125549   4.038   2.589   1.819 -0.2133 -0.0499 -0.0014
 1330TIP3    H225550   4.157   2.499   1.797 -0.6078 -0.3121 -1.1451
 1331TIP3   OH225551   1.980   2.500   0.384  0.1505 -0.4140 -0.1303
 1331TIP3    H125552   2.023   2.424   0.424 -0.7744 -0.5848  0.5614
 1331TIP3    H225553   2.050   2.543   0.335  1.3390 -0.2153  1.6298
 1332TIP3   OH225554   6.082   2.139   0.090  0.1974 -0.3841 -0.1908
 1332TIP3    H125555   6.048   2.049   0.090 -0.1858 -0.2813 -1.9844
 1332TIP3    H225556   6.019   2.188   0.144  0.0261 -1.0481  0.2304
 1333TIP3   OH225557   3.720   1.219   3.074 -0.7133  0.1879 -0.0189
 1333TIP3    H125558   3.792   1.240   3.132 -0.0109 -0.7696 -0.5268
 1333TIP3    H225559   3.758   1.162   3.007 -1.6307  0.7577 -1.0643
 1334TIP3   OH225560   2.709   5.433   2.377 -0.4444  0.2034 -0.0125
 1334TIP3    H125561   2.643   5.445   2.445  0.9170 -0.5060  1.5048
 1334TIP3    H225562   2.784   5.395   2.423  0.3815 -0.7041 -1.9951
 1335TIP3   OH225563   2.027   6.274   7.653 -0.4604  0.3350  0.0561
 1335TIP3    H125564   2.008   6.241   7.565 -1.6518  0.6051  0.1966
 1335TIP3    H225565   2.116   6.308   7.647  0.1460 -1.2292 -0.5781
 1336TIP3   OH225566   1.362   4.265   8.634  0.2383 -0.0372  0.2648
 1336TIP3    H125567   1.431   4.204   8.609  0.9074  1.1684 -0.9751
 1336TIP3    H225568   1.399   4.352   8.617 -1.2789  0.6711  0.3956
 1337TIP3   OH225569   5.246   1.051   0.011  0.3343  0.4353 -0.3498
 1337TIP3    H125570   5.205   1.116  -0.047  2.5427  0.7179 -1.6923
 1337TIP3    H225571   5.285   0.987  -0.048  1.2285 -0.1902  0.8811
 1338TIP3   OH225572   1.832   4.692   8.426  0.9903 -0.5974 -0.0692
 1338TIP3    H125573   1.758   4.634   8.408 -1.1317  2.0112 -0.4847
 1338TIP3    H225574   1.859   4.724   8.340 -1.2145  2.6991  0.2959
 1339TIP3   OH225575   3.786   2.832   7.409  0.5060 -0.7408 -0.8478
 1339TIP3    H125576   3.832   2.906   7.449  2.2974 -2.0644 -0.3206
 1339TIP3    H225577   3.742   2.790   7.482 -0.6156 -0.1408 -1.1674
 1340TIP3   OH225578   0.907   1.739   0.658 -0.0041  0.0007 -0.0340
 1340TIP3    H125579   0.931   1.830   0.638  1.3136 -0.5683 -1.2524
 1340TIP3    H225580   0.987   1.689   0.640 -1.0092 -1.5274 -0.4296
 1341TIP3   OH225581   3.598   5.067   8.097  0.3558  0.3447 -0.0664
 1341TIP3    H125582   3.585   5.054   8.003  0.1168  1.0591 -0.1419
 1341TIP3    H225583   3.575   5.159   8.112 -0.4257  0.0265  0.8347
 1342TIP3   OH225584   3.639   4.898   2.336 -0.6158  0.3606  0.3427
 1342TIP3    H125585   3.594   4.915   2.419 -1.9692 -2.3630  0.2861
 1342TIP3    H225586   3.672   4.808   2.345  1.6513  0.9676 -1.0707
 1343TIP3   OH225587   5.489   4.397   8.353  0.7607  0.0122 -0.8576
 1343TIP3    H125588   5.571   4.441   8.376  0.6001  0.5143 -1.2335
 1343TIP3    H225589   5.510   4.343   8.277  0.5198  0.9215 -1.5921
 1344TIP3   OH225590   0.582   5.100   1.839  0.3185  0.7926 -0.4762
 1344TIP3    H125591   0.588   5.128   1.747 -0.4604  1.9292 -0.1910
 1344TIP3    H225592   0.509   5.038   1.840  0.8483  0.1545 -0.7649
 1345TIP3   OH225593   1.924   6.013   2.106  0.1254 -0.3040 -0.4450
 1345TIP3    H125594   1.950   6.100   2.138  1.3845 -0.4531 -1.0139
 1345TIP3    H225595   1.890   5.969   2.184 -0.6090  0.7108 -0.1611
 1346TIP3   OH225596   2.304   5.194   7.504  0.3788 -0.1923 -0.0083
 1346TIP3    H125597   2.228   5.144   7.474 -0.0347  0.5514 -0.2443
 1346TIP3    H225598   2.347   5.223   7.424  0.1748  0.4628  0.1087
 1347TIP3   OH225599   5.982   4.505   0.759 -0.1127  0.3595  0.1841
 1347TIP3    H125600   5.950   4.554   0.835 -0.6952  0.1385  0.0790
 1347TIP3    H225601   5.921   4.527   0.689 -0.5687 -0.7578  0.2089
 1348TIP3   OH225602   3.763   2.061   8.474  0.0869 -0.0302  0.0189
 1348TIP3    H125603   3.796   2.129   8.416  1.4056 -0.9344 -0.3330
 1348TIP3    H225604   3.840   2.010   8.498 -0.6984 -0.7307  1.1779
 1349TIP3   OH225605   1.166   2.457   8.689 -0.3120 -0.5128  0.1520
 1349TIP3    H125606   1.247   2.507   8.685  0.7975 -2.2151  0.2449
 1349TIP3    H225607   1.115   2.488   8.615  0.0657  1.1389  0.5422
 1350TIP3   OH225608   6.643   5.000   1.584  0.1296  0.2145  0.3733
 1350TIP3    H125609   6.671   4.940   1.653 -0.4721 -0.3455  0.1393
 1350TIP3    H225610   6.552   4.977   1.568 -0.7554  2.4609  1.6322
 1351TIP3   OH225611   4.229   2.446   8.080  0.0300 -0.1212  0.2485
 1351TIP3    H125612   4.198   2.379   8.019  1.4649 -1.6817  1.1240
 1351TIP3    H225613   4.315   2.415   8.107  0.1472  1.3835  1.7772
 1352TIP3   OH225614   2.709   2.848   7.488  0.0862 -0.3052 -0.6178
 1352TIP3    H125615   2.674   2.881   7.405  1.0770  0.2596 -0.8177
 1352TIP3    H225616   2.678   2.757   7.491 -0.8710 -0.0160 -1.0745
 1353TIP3   OH225617   3.682   3.072   1.309 -0.7421 -0.3845 -0.2552
 1353TIP3    H125618   3.599   3.059   1.355 -1.1557 -0.2988 -0.9636
 1353TIP3    H225619   3.659   3.066   1.216 -0.1172  0.5534 -0.4818
 1354TIP3   OH225620   1.727   0.780   7.443 -0.0440  0.0367 -0.3318
 1354TIP3    H125621   1.804   0.810   7.492  0.6562  0.2513 -1.5188
 1354TIP3    H225622   1.742   0.811   7.353  0.7749 -3.8035 -1.7008
 1355TIP3   OH225623   3.514   0.540   2.565  0.0958  0.0931  0.5225
 1355TIP3    H125624   3.538   0.465   2.620 -1.5452 -2.9683 -2.4824
 1355TIP3    H225625   3.425   0.563   2.594 -1.7336 -3.0254 -1.9159
 1356TIP3   OH225626   4.793   3.942   1.792 -0.7538 -0.4033  0.3974
 1356TIP3    H125627   4.829   3.926   1.704 -1.5573  1.0848 -0.2455
 1356TIP3    H225628   4.708   3.900   1.791 -1.1074  0.3022  0.1616
 1357TIP3   OH225629   0.453   2.556   8.004 -0.2083  0.2984 -0.7380
 1357TIP3    H125630   0.539   2.569   8.043 -0.6326  0.5130  0.1678
 1357TIP3    H225631   0.438   2.633   7.951 -1.7756  2.7321  2.8308
 1358TIP3   OH225632   2.614   0.737   1.369  0.3655 -0.5807  0.0850
 1358TIP3    H125633   2.612   0.822   1.326 -2.2465  0.2551  1.6298
 1358TIP3    H225634   2.537   0.691   1.334  1.2229 -1.9864 -0.0414
 1359TIP3   OH225635   5.384   3.370   1.704  0.0922  0.2514 -0.2328
 1359TIP3    H125636   5.438   3.335   1.633  1.0091  1.9233 -0.4320
 1359TIP3    H225637   5.405   3.464   1.706 -0.5213  0.4060  1.7119
 1360TIP3   OH225638   3.419   5.112   0.551 -0.3078 -0.0018  0.2655
 1360TIP3    H125639   3.484   5.054   0.591 -1.0093 -1.4130 -0.5732
 1360TIP3    H225640   3.435   5.197   0.592 -1.1645 -1.3615  3.8707
 1361TIP3   OH225641   4.064   0.679   8.137  0.8126 -0.0288  0.0957
 1361TIP3    H125642   4.065   0.628   8.218 -0.3125  0.9325  0.7391
 1361TIP3    H225643   4.047   0.614   8.069  2.5935 -0.9725  0.5046
 1362TIP3   OH225644   4.336   5.707   8.240  0.5203 -0.5925  0.4700
 1362TIP3    H125645   4.427   5.723   8.216  0.4679 -1.6724 -0.5355
 1362TIP3    H225646   4.328   5.745   8.328  1.6247  0.5054  0.1305
 1363TIP3   OH225647   4.793   4.818   8.629  0.0979 -0.1526 -0.3318
 1363TIP3    H125648   4.806   4.756   8.701 -1.0994  0.3738  0.3653
 1363TIP3    H225649   4.710   4.791   8.589  0.1008  0.3602 -0.6905
 1364TIP3   OH225650   4.728   5.904   8.704  0.0346  0.5119  0.6471
 1364TIP3    H125651   4.746   5.831   8.644  3.8546  2.4527 -0.9088
 1364TIP3    H225652   4.762   5.874   8.789 -1.9734 -0.8447  1.0384
 1365TIP3   OH225653   5.034   3.717   7.598  0.2087  1.0503 -0.4148
 1365TIP3    H125654   5.124   3.727   7.568  0.0451 -0.6256 -1.6041
 1365TIP3    H225655   4.983   3.712   7.518 -0.8828  1.3722  0.2395
 1366TIP3   OH225656   2.531   2.151   0.199 -0.1950  0.0440 -0.3162
 1366TIP3    H125657   2.593   2.113   0.261  1.0209  0.4399 -1.2255
 1366TIP3    H225658   2.487   2.076   0.160 -0.8639 -0.2112  0.8876
 1367TIP3   OH225659   4.675   0.929   7.895 -0.2923  0.4089  0.0357
 1367TIP3    H125660   4.701   0.838   7.913 -0.2559  0.0814 -1.5724
 1367TIP3    H225661   4.754   0.971   7.862  0.1247  1.5077  2.2241
 1368TIP3   OH225662   0.171   0.187   0.751  0.6472 -0.1224  0.1832
 1368TIP3    H125663   0.092   0.133   0.747  1.5368 -1.5864  1.3848
 1368TIP3    H225664   0.152   0.251   0.819  0.8722 -1.1858  1.2879
 1369TIP3   OH225665   1.939   0.971   2.431 -0.0172  0.0167  0.5692
 1369TIP3    H125666   1.847   0.983   2.454 -0.4815  1.0560 -1.5916
 1369TIP3    H225667   1.940   0.891   2.379  0.2282  0.2306  0.2414
 1370TIP3   OH225668   2.695   0.640   0.115 -0.2942 -0.3245  0.0438
 1370TIP3    H125669   2.690   0.734   0.094  1.4231 -0.1970  0.0737
 1370TIP3    H225670   2.685   0.637   0.210  2.6637  0.2001  0.4751
 1371TIP3   OH225671   2.696   4.474   1.797  0.0006  0.0436 -0.1028
 1371TIP3    H125672   2.735   4.426   1.870 -3.3541 -0.8192  1.3176
 1371TIP3    H225673   2.692   4.411   1.725  1.8240  0.4021 -0.5695
 1372TIP3   OH225674   0.181   1.866   1.312  0.1639 -0.0940 -0.2461
 1372TIP3    H125675   0.144   1.834   1.230 -0.8946  1.5976 -0.4756
 1372TIP3    H225676   0.119   1.839   1.379  0.6450 -0.8172 -0.0779
 1373TIP3   OH225677   6.027   3.935   2.980  0.4074 -0.5185 -0.1878
 1373TIP3    H125678   5.995   3.872   3.044  1.0474 -0.1943  0.4860
 1373TIP3    H225679   6.051   4.012   3.033 -0.2808  0.2573 -0.9736
 1374TIP3   OH225680   1.524   6.610   7.673  0.0080  0.2213  0.7393
 1374TIP3    H125681   1.539   6.655   7.590  0.7151 -0.8822  0.2391
 1374TIP3    H225682   1.452   6.549   7.654  1.3078 -1.2749  0.3986
 1375TIP3   OH225683   5.497   6.436   1.033  0.1432 -0.8192  0.5234
 1375TIP3    H125684   5.557   6.363   1.045 -0.0513 -0.9876  0.4732
 1375TIP3    H225685   5.480   6.468   1.122 -0.6577 -1.5527  0.6502
 1376TIP3   OH225686   2.275   3.866   0.270  0.2509  0.2478  0.5930
 1376TIP3    H125687   2.201   3.818   0.232 -0.3517  0.9725  0.8340
 1376TIP3    H225688   2.347   3.851   0.209  0.3835 -1.7997  1.1724
 1377TIP3   OH225689   6.683   0.421   2.151  0.4614 -0.5323 -0.0606
 1377TIP3    H125690   6.638   0.502   2.171  0.0993 -1.0964  1.5507
 1377TIP3    H225691   6.776   0.442   2.162  0.5352  0.2227 -1.8659
 1378TIP3   OH225692   1.427   6.233   1.604 -0.2517  0.2436  0.0750
 1378TIP3    H125693   1.479   6.311   1.584  0.1780 -0.1157 -0.2258
 1378TIP3    H225694   1.486   6.176   1.652  0.3696 -1.1056 -2.1169
 1379TIP3   OH225695   1.153   5.136   7.149  0.0559  1.0924  0.6716
 1379TIP3    H125696   1.187   5.221   7.123  1.3468  0.2169 -0.6317
 1379TIP3    H225697   1.058   5.149   7.153 -0.1640  1.7243 -3.1844
 1380TIP3   OH225698   2.858   6.577   2.067  0.5925 -0.2609  0.4429
 1380TIP3    H125699   2.918   6.646   2.038 -0.1618 -0.5053 -1.9250
 1380TIP3    H225700   2.771   6.618   2.063  0.3901 -0.4499  2.0869
 1381TIP3   OH225701   2.400   1.847   8.505 -0.0898 -0.3549 -0.0320
 1381TIP3    H125702   2.475   1.862   8.563 -1.8958 -0.1660  2.4641
 1381TIP3    H225703   2.361   1.934   8.495 -0.6101 -0.6245 -0.3572
 1382TIP3   OH225704   3.342   1.727   8.097  0.2841 -0.0249  0.1965
 1382TIP3    H125705   3.381   1.735   8.184 -1.1983 -0.7190  0.9508
 1382TIP3    H225706   3.282   1.801   8.090 -1.1295 -1.1013  0.6063
 1383TIP3   OH225707   5.620   2.967   2.942 -0.1550  0.1285  0.0565
 1383TIP3    H125708   5.574   2.937   3.020 -1.0466 -0.0082 -0.5112
 1383TIP3    H225709   5.589   3.056   2.928  0.4933  0.3880  0.2199
 1384TIP3   OH225710   6.348   3.410   8.117 -0.3416  0.1347 -0.0816
 1384TIP3    H125711   6.407   3.422   8.191  0.0650  0.7527 -0.5019
 1384TIP3    H225712   6.398   3.438   8.041 -1.0519  0.3232 -0.4901
 1385TIP3   OH225713   0.321   3.292   2.246  0.2942  0.7130  0.1688
 1385TIP3    H125714   0.335   3.320   2.155 -0.5182  0.1372 -0.1464
 1385TIP3    H225715   0.393   3.232   2.264 -0.8786 -1.1597 -0.9731
 1386TIP3   OH225716   1.895   4.434   7.725  0.0243  0.4284  0.4634
 1386TIP3    H125717   1.881   4.523   7.695 -0.9333 -0.2275 -1.1808
 1386TIP3    H225718   1.924   4.443   7.816  1.8214  2.4612 -0.2360
 1387TIP3   OH225719   4.978   0.934   8.007 -0.4866  0.2032  0.0758
 1387TIP3    H125720   4.943   0.914   7.920  1.4021 -0.6227 -0.5450
 1387TIP3    H225721   4.976   0.850   8.053  1.1087 -0.0058 -0.1740
 1388TIP3   OH225722   1.587   0.683   2.578  0.0101  0.0375 -0.2288
 1388TIP3    H125723   1.575   0.775   2.555 -2.0047  0.1602  1.0628
 1388TIP3    H225724   1.670   0.681   2.626 -0.2231  1.3015  0.2653
 1389TIP3   OH225725   0.045   0.983   1.129 -0.0620  0.2268 -0.3859
 1389TIP3    H125726   0.083   0.899   1.155  0.5982  0.8144  0.6229
 1389TIP3    H225727   0.090   1.005   1.047  0.8087  0.2697  0.0938
 1390TIP3   OH225728   3.858   3.867   2.706  0.1971 -0.2989  0.1054
 1390TIP3    H125729   3.951   3.857   2.686  0.5383 -0.0188  1.4542
 1390TIP3    H225730   3.854   3.942   2.765 -0.9276 -0.1054 -0.2014
 1391TIP3   OH225731   4.390   0.562   0.864  0.0970 -0.5040  0.1189
 1391TIP3    H125732   4.377   0.657   0.862 -0.0699 -0.5227 -1.9553
 1391TIP3    H225733   4.312   0.528   0.907 -0.8902  0.1815 -1.0783
 1392TIP3   OH225734   3.838   0.451   2.453 -0.2012  0.1063 -0.7042
 1392TIP3    H125735   3.848   0.427   2.545 -0.0334  0.9191 -0.5027
 1392TIP3    H225736   3.872   0.376   2.405 -0.7750 -0.5376 -0.1149
 1393TIP3   OH225737   2.217   3.669   8.394 -0.4602 -0.2786 -0.3195
 1393TIP3    H125738   2.281   3.659   8.323 -0.0121  0.4896 -0.0293
 1393TIP3    H225739   2.156   3.596   8.381 -0.9709  0.4234 -2.1017
 1394TIP3   OH225740   2.138   4.048   0.583 -0.0099 -0.2975 -0.6242
 1394TIP3    H125741   2.087   4.029   0.661  3.1166  1.6657  2.1730
 1394TIP3    H225742   2.209   3.984   0.583  0.8755  0.6438 -0.9564
 1395TIP3   OH225743   4.818   4.443   1.941  0.9736 -0.2418 -0.9066
 1395TIP3    H125744   4.863   4.493   2.009  2.2554  0.8550 -2.4839
 1395TIP3    H225745   4.887   4.392   1.900  0.4176 -0.1230 -2.0155
 1396TIP3   OH225746   5.776   1.133   1.426 -0.1653  0.3765 -0.5214
 1396TIP3    H125747   5.736   1.198   1.368  0.3901  1.2462  0.0460
 1396TIP3    H225748   5.826   1.075   1.368 -2.2342 -0.7712 -1.2559
 1397TIP3   OH225749   6.570   2.196   7.332  0.1922  0.0437 -0.3881
 1397TIP3    H125750   6.656   2.184   7.372  0.6588 -0.8904 -1.5797
 1397TIP3    H225751   6.508   2.165   7.398  0.8391 -0.2345  0.0999
 1398TIP3   OH225752   2.625   3.057   0.268  0.0028 -0.1327  0.3068
 1398TIP3    H125753   2.598   3.140   0.230 -0.0198 -0.3887 -0.2327
 1398TIP3    H225754   2.704   3.079   0.317 -1.7810  0.9156  3.0189
 1399TIP3   OH225755   2.268   1.636   2.357  0.5743 -0.3857  0.4591
 1399TIP3    H125756   2.288   1.647   2.264  2.7106  0.4373  0.9476
 1399TIP3    H225757   2.269   1.541   2.371  1.1944 -0.4817 -0.1914
 1400TIP3   OH225758   2.667   3.688   7.888 -0.1265 -0.1439  0.0028
 1400TIP3    H125759   2.738   3.633   7.919  0.9428  1.1216 -0.1268
 1400TIP3    H225760   2.696   3.720   7.803 -0.8855  0.3268 -0.0910
 1401TIP3   OH225761   6.373   4.005   0.369 -0.2731 -0.0465  0.1257
 1401TIP3    H125762   6.372   4.099   0.385 -0.6136 -0.5506  3.8468
 1401TIP3    H225763   6.462   3.986   0.340  0.6404  1.1309  1.9665
 1402TIP3   OH225764   2.596   2.082   8.064 -0.1855 -0.2567  0.2137
 1402TIP3    H125765   2.540   2.006   8.049  1.1179 -1.4679  1.2893
 1402TIP3    H225766   2.660   2.080   7.994 -0.2052 -0.0796  0.1892
 1403TIP3   OH225767   4.674   1.086   1.287 -0.1125 -0.0980 -0.3120
 1403TIP3    H125768   4.590   1.079   1.333  0.6109 -1.3112  0.9217
 1403TIP3    H225769   4.657   1.047   1.201 -0.7763 -0.5234  0.0011
 1404TIP3   OH225770   6.288   3.442   2.243  0.5605  0.2135 -0.0317
 1404TIP3    H125771   6.286   3.347   2.248 -1.0313  0.1549 -0.9339
 1404TIP3    H225772   6.229   3.471   2.313 -0.2730  0.4459 -0.8096
 1405TIP3   OH225773   1.091   0.094   0.092  0.1210  0.7045 -0.0739
 1405TIP3    H125774   1.074   0.057   0.179 -0.0851  1.6317  0.2969
 1405TIP3    H225775   1.085   0.189   0.105  2.7460  0.9933 -0.5456
 1406TIP3   OH225776   1.175   0.414   2.509 -0.5455 -0.4549 -0.7990
 1406TIP3    H125777   1.083   0.432   2.529 -0.1492  0.4477  0.3423
 1406TIP3    H225778   1.187   0.447   2.420 -0.7246  1.8671 -0.0269
 1407TIP3   OH225779   6.722   4.564   0.320  0.0668  0.4915  0.2383
 1407TIP3    H125780   6.649   4.596   0.266 -0.7965  1.2152  1.7751
 1407TIP3    H225781   6.683   4.494   0.373  0.3922  1.1102  1.3118
 1408TIP3   OH225782   5.197   3.279   0.262  0.8427 -0.1931 -0.4456
 1408TIP3    H125783   5.138   3.345   0.299  0.8885  0.0201 -0.7534
 1408TIP3    H225784   5.170   3.197   0.304  1.2380  0.1265  0.4639
 1409TIP3   OH225785   1.289   5.650   0.133 -0.0917  0.2072  0.4749
 1409TIP3    H125786   1.348   5.575   0.120 -0.2635 -0.2301  2.0092
 1409TIP3    H225787   1.320   5.716   0.071  0.9120 -0.6494  0.0314
 1410TIP3   OH225788   3.396   1.019   8.045  0.1564 -0.4242  0.7042
 1410TIP3    H125789   3.471   1.051   7.995  0.7481  0.3045  2.0047
 1410TIP3    H225790   3.332   1.090   8.039  0.7289  0.2455  1.9951
 1411TIP3   OH225791   5.856   0.214   0.323 -0.4565 -0.4270 -1.0587
 1411TIP3    H125792   5.784   0.154   0.342  0.0253 -1.3927 -2.1210
 1411TIP3    H225793   5.935   0.160   0.333  0.1073  0.5534 -0.1421
 1412TIP3   OH225794   0.328   3.438   7.739  0.0962 -0.3114 -0.0067
 1412TIP3    H125795   0.317   3.497   7.814  1.1267  0.5318 -0.4780
 1412TIP3    H225796   0.422   3.420   7.738  0.0550 -0.4993 -0.9570
 1413TIP3   OH225797   3.556   6.763   7.749 -0.2783  0.1017  0.1679
 1413TIP3    H125798   3.541   6.853   7.777 -0.9972 -0.2317  0.9191
 1413TIP3    H225799   3.627   6.732   7.806 -1.6166 -0.5192  1.5721
 1414TIP3   OH225800   5.927   0.211   1.400  0.7051  0.2371  0.2406
 1414TIP3    H125801   5.836   0.203   1.430  0.7994 -0.6551  0.3254
 1414TIP3    H225802   5.954   0.121   1.382  1.9436  0.3725  1.3034
 1415TIP3   OH225803   1.197   0.588   2.303  0.1182 -0.2791 -0.1979
 1415TIP3    H125804   1.208   0.682   2.321  1.0138 -0.5411  0.7339
 1415TIP3    H225805   1.286   0.556   2.290 -0.2181 -0.9305 -0.9483
 1416TIP3   OH225806   5.876   4.187   2.023 -0.0734  0.2387  0.0119
 1416TIP3    H125807   5.811   4.226   2.082  0.1276 -0.1557  0.5014
 1416TIP3    H225808   5.941   4.256   2.011 -0.9688  0.9194 -1.1166
 1417TIP3   OH225809   3.045   1.957   0.743 -0.1822 -0.1773 -0.0264
 1417TIP3    H125810   3.132   1.923   0.763  0.1397  0.4563 -0.3105
 1417TIP3    H225811   2.997   1.882   0.708  1.0617  0.0035 -2.3072
 1418TIP3   OH225812   2.076   0.613   8.032  0.4410  0.1644  0.3956
 1418TIP3    H125813   2.017   0.686   8.014 -0.2881 -0.9456 -2.1387
 1418TIP3    H225814   2.158   0.638   7.987  0.9225  0.3610  1.3636
 1419TIP3   OH225815   4.507   3.544   8.415 -0.4792  0.3452  0.0061
 1419TIP3    H125816   4.590   3.577   8.448  1.1399 -1.4537 -1.9388
 1419TIP3    H225817   4.492   3.593   8.334 -1.2880  0.5896  0.2930
 1420TIP3   OH225818   5.639   5.139   3.323  0.0042 -0.4541 -0.7034
 1420TIP3    H125819   5.725   5.125   3.285  0.9145  0.3584  0.9494
 1420TIP3    H225820   5.582   5.158   3.248  1.8670  1.8845 -1.6412
 1421TIP3   OH225821   2.111   3.954   3.113  0.0044 -0.0736  0.0017
 1421TIP3    H125822   2.147   4.000   3.189 -0.3288  1.4558 -0.7365
 1421TIP3    H225823   2.048   3.892   3.150 -0.1120  0.6074  0.9899
 1422TIP3   OH225824   2.091   1.938   2.008  0.2478  0.0854  0.6651
 1422TIP3    H125825   2.142   1.895   1.939 -0.8755  1.2630 -0.9684
 1422TIP3    H225826   2.146   2.010   2.037  0.1974  0.3796  0.0498
 1423TIP3   OH225827   6.552   6.513   2.406 -0.0457  0.0306 -0.3756
 1423TIP3    H125828   6.483   6.461   2.366 -0.5808  0.2119  0.2930
 1423TIP3    H225829   6.606   6.542   2.333 -0.1670 -0.8446 -0.8218
 1424TIP3   OH225830   1.651   2.859   8.004 -0.7072 -0.2624 -0.1459
 1424TIP3    H125831   1.745   2.849   7.987 -0.1659  0.5029  2.0059
 1424TIP3    H225832   1.637   2.810   8.086 -1.8961  0.6944  0.2550
 1425TIP3   OH225833   2.800   2.583   7.689 -0.5026 -0.1437 -0.2215
 1425TIP3    H125834   2.772   2.500   7.728  0.0052 -0.3529 -0.2936
 1425TIP3    H225835   2.778   2.649   7.755  0.4918 -0.5069  0.5048
 1426TIP3   OH225836   0.838   0.684   8.504 -0.4636 -0.2390 -0.6117
 1426TIP3    H125837   0.851   0.735   8.585 -1.2946 -0.5710 -0.2526
 1426TIP3    H225838   0.921   0.639   8.490 -0.7605 -1.3452  0.8936
 1427TIP3   OH225839   1.322   2.749   0.471  0.1224  0.1319 -0.0185
 1427TIP3    H125840   1.243   2.710   0.433 -0.4214  2.1304 -1.0875
 1427TIP3    H225841   1.353   2.683   0.533 -1.7316 -1.1965 -0.3922
 1428TIP3   OH225842   0.165   3.982   2.699  0.8975  0.1409  0.1438
 1428TIP3    H125843   0.138   3.917   2.763 -0.0047  0.1308 -0.2260
 1428TIP3    H225844   0.087   3.996   2.645  1.3206  0.9285 -0.2854
 1429TIP3   OH225845   4.641   5.212   2.680 -0.3492 -0.3401  0.2601
 1429TIP3    H125846   4.717   5.263   2.654  0.8216 -1.4698  1.2908
 1429TIP3    H225847   4.574   5.277   2.704  0.0730  0.6637 -1.2124
 1430TIP3   OH225848   1.179   0.187   1.694 -0.1608 -0.3789 -0.2499
 1430TIP3    H125849   1.262   0.234   1.682 -1.2575  2.6555  2.3883
 1430TIP3    H225850   1.122   0.251   1.738 -3.6411 -2.6048 -1.1192
 1431TIP3   OH225851   0.318   0.190   2.109  0.1427 -0.1432 -0.0070
 1431TIP3    H125852   0.340   0.239   2.029 -0.1173 -0.3764 -0.2193
 1431TIP3    H225853   0.324   0.256   2.179  0.6630 -0.0018 -0.1728
 1432TIP3   OH225854   1.662   2.621   8.485  0.5368 -0.0258 -0.2164
 1432TIP3    H125855   1.707   2.536   8.483 -1.5465 -1.2160 -0.0616
 1432TIP3    H225856   1.722   2.681   8.441  2.2672 -1.4723  0.0318
 1433TIP3   OH225857   2.906   3.798   2.718  0.5079 -0.1959 -0.9118
 1433TIP3    H125858   2.831   3.758   2.761  1.2769  0.0253  0.7394
 1433TIP3    H225859   2.869   3.867   2.662 -0.5232 -0.2127 -0.2640
 1434TIP3   OH225860   1.509   1.050   8.727 -0.0361 -0.8028 -0.1177
 1434TIP3    H125861   1.478   1.116   8.789  0.4011 -0.0515 -0.6700
 1434TIP3    H225862   1.430   1.015   8.688 -0.2570  0.4009 -0.8117
 1435TIP3   OH225863   2.302   4.477   0.266 -0.4216  0.9601 -1.3143
 1435TIP3    H125864   2.363   4.550   0.280  0.0165  0.4449 -0.4601
 1435TIP3    H225865   2.331   4.409   0.327 -0.0952 -0.3939 -2.8967
 1436TIP3   OH225866   1.237   6.578   8.748 -0.1877  0.3439 -0.5036
 1436TIP3    H125867   1.224   6.568   8.843  1.3842 -2.3856 -0.4773
 1436TIP3    H225868   1.161   6.535   8.709  0.2933 -0.5774 -0.4454
 1437TIP3   OH225869   6.095   6.718   7.505 -0.5892  0.1704  0.3125
 1437TIP3    H125870   6.126   6.697   7.593 -1.6658  0.4689  0.7825
 1437TIP3    H225871   6.143   6.659   7.448 -0.4019 -0.5316  1.1725
 1438TIP3   OH225872   5.615   6.617   0.132  0.3136  0.1239  0.1171
 1438TIP3    H125873   5.599   6.530   0.169  1.0138 -1.1871 -2.4007
 1438TIP3    H225874   5.528   6.650   0.108  0.1713 -0.6949 -0.5310
 1439TIP3   OH225875   3.887   2.026   2.306 -0.5152 -0.3465 -0.2024
 1439TIP3    H125876   3.890   2.007   2.400 -2.8191 -0.4763 -0.0796
 1439TIP3    H225877   3.973   2.061   2.285 -0.3862  1.0141  2.2593
 1440TIP3   OH225878   5.875   6.729   0.746 -0.1071  0.2266 -0.4217
 1440TIP3    H125879   5.817   6.687   0.682  0.1522 -0.4348 -0.2299
 1440TIP3    H225880   5.943   6.664   0.763 -0.7908 -0.0613  1.3807
 1441TIP3   OH225881   5.501   1.008   1.222  0.5337 -0.2035 -0.2447
 1441TIP3    H125882   5.442   1.026   1.294 -0.4272 -0.4788 -0.9448
 1441TIP3    H225883   5.557   1.085   1.216 -0.2279  0.3711 -0.0249
 1442TIP3   OH225884   1.877   4.831   7.969  0.6355  0.2007  0.2253
 1442TIP3    H125885   1.782   4.825   7.984  0.7604 -0.2692  0.8717
 1442TIP3    H225886   1.889   4.802   7.879  0.4227 -2.3792  0.9518
 1443TIP3   OH225887   0.435   1.106   7.742  0.2740  0.6432 -0.4062
 1443TIP3    H125888   0.505   1.155   7.699 -0.3133  1.8264 -0.0419
 1443TIP3    H225889   0.365   1.170   7.756  0.6823  0.5226  2.9344
 1444TIP3   OH225890   5.853   0.817   0.922  0.4656 -0.0715 -0.0989
 1444TIP3    H125891   5.937   0.805   0.967  0.1287 -3.7421 -0.1341
 1444TIP3    H225892   5.810   0.887   0.970  2.5734  0.3156  1.3984
 1445TIP3   OH225893   4.886   5.477   0.617  0.1654  0.4587 -0.2239
 1445TIP3    H125894   4.800   5.437   0.633  0.2046 -0.2189 -1.5375
 1445TIP3    H225895   4.938   5.406   0.579  0.8304  1.2861 -0.8855
 1446TIP3   OH225896   2.033   3.238   8.088 -0.4404 -0.1811 -0.0134
 1446TIP3    H125897   1.995   3.317   8.128 -0.0861 -0.3340  0.6292
 1446TIP3    H225898   2.013   3.168   8.150 -1.1886 -0.7044 -0.8195
 1447TIP3   OH225899   6.223   5.780   1.323 -0.3595 -0.3125 -0.4372
 1447TIP3    H125900   6.133   5.749   1.324 -0.6904  0.6222  0.0962
 1447TIP3    H225901   6.276   5.701   1.334 -1.2045 -0.5751  2.9513
 1448TIP3   OH225902   5.350   4.848   2.937  0.0966  0.0819  0.0314
 1448TIP3    H125903   5.297   4.863   3.015  0.0784  0.4021 -0.0406
 1448TIP3    H225904   5.304   4.778   2.891 -0.2630  0.3489 -0.0254
 1449TIP3   OH225905   1.902   0.683   8.710  0.0193  0.5062  0.1288
 1449TIP3    H125906   1.905   0.737   8.631  1.0171 -1.2196 -1.0915
 1449TIP3    H225907   1.992   0.678   8.739 -0.0394 -0.5034  0.1835
 1450TIP3   OH225908   4.838   5.850   1.865 -0.0275 -0.2559 -0.6274
 1450TIP3    H125909   4.792   5.785   1.811  0.2829 -1.9314  1.0151
 1450TIP3    H225910   4.917   5.804   1.894  1.2092  1.5651 -0.9843
 1451TIP3   OH225911   1.368   2.007   2.111 -0.1616  0.4382  0.0052
 1451TIP3    H125912   1.354   2.005   2.017  2.3256  0.7631 -0.4449
 1451TIP3    H225913   1.346   1.919   2.141 -0.4380  0.1703 -0.9609
 1452TIP3   OH225914   4.674   4.032   7.433  0.4511 -0.3365 -0.1289
 1452TIP3    H125915   4.749   4.073   7.475 -0.2898  0.3183  0.5985
 1452TIP3    H225916   4.664   4.079   7.350  0.5446 -0.0755  0.0054
 1453TIP3   OH225917   4.384   2.238   0.027 -0.1100 -0.0443 -0.1108
 1453TIP3    H125918   4.356   2.152   0.060 -1.1401  0.3460  0.0804
 1453TIP3    H225919   4.303   2.277  -0.008  0.1147  1.2795  0.7786
 1454TIP3   OH225920   2.686   1.736   2.848 -0.0778  0.1817 -0.4527
 1454TIP3    H125921   2.620   1.804   2.863 -0.0867 -0.4146  2.8130
 1454TIP3    H225922   2.769   1.778   2.868  0.1180 -0.2553 -0.3466
 1455TIP3   OH225923   1.249   3.796   8.209 -0.0171 -0.2868  0.3883
 1455TIP3    H125924   1.243   3.746   8.127  0.1128 -1.0076  0.8131
 1455TIP3    H225925   1.190   3.751   8.269 -2.6523  2.0670 -0.1930
 1456TIP3   OH225926   0.021   1.005   8.437 -0.4338 -0.1014  0.6369
 1456TIP3    H125927   0.010   1.058   8.358  0.7929 -1.2411 -0.3591
 1456TIP3    H225928  -0.004   1.063   8.509 -0.1156  1.4752 -0.4720
 1457TIP3   OH225929   6.542   6.596   3.017  0.0220 -0.1605 -0.4293
 1457TIP3    H125930   6.575   6.637   2.937 -0.3331  0.5103 -0.2375
 1457TIP3    H225931   6.609   6.615   3.083 -0.2533  0.3349 -0.2833
 1458TIP3   OH225932   6.614   2.014   1.803 -0.5227  0.5092  0.0516
 1458TIP3    H125933   6.704   2.032   1.777 -0.5088  1.7245  0.8541
 1458TIP3    H225934   6.618   1.928   1.844  0.1100  0.1797 -0.6728
 1459TIP3   OH225935   3.388   0.817   2.976  0.7298 -0.1202  0.2724
 1459TIP3    H125936   3.484   0.812   2.980  0.7683  0.8026  0.6606
 1459TIP3    H225937   3.360   0.800   3.066  0.6101  1.1131  0.4768
 1460TIP3   OH225938   2.266   0.872   7.216 -0.1202  0.2209 -0.6684
 1460TIP3    H125939   2.305   0.855   7.302  0.9180  0.6764 -1.0284
 1460TIP3    H225940   2.298   0.959   7.192 -1.3944  0.6282 -0.9866
 1461TIP3   OH225941   1.221   6.761   2.392  0.1209  0.7275 -0.2518
 1461TIP3    H125942   1.229   6.841   2.443 -0.5703  1.3823 -1.1274
 1461TIP3    H225943   1.290   6.769   2.325  2.2946 -1.0044  1.6355
 1462TIP3   OH225944   2.457   6.156   1.098 -0.2291  0.1773  0.0054
 1462TIP3    H125945   2.521   6.206   1.149 -0.1929  1.9539 -1.6830
 1462TIP3    H225946   2.464   6.191   1.009 -3.2423  0.1540 -0.3510
 1463TIP3   OH225947   1.879   3.986   2.668  0.2265 -0.0884  0.1013
 1463TIP3    H125948   1.961   3.938   2.660 -0.1613 -0.9668  1.1824
 1463TIP3    H225949   1.896   4.052   2.735  0.6469  1.0881 -1.1239
 1464TIP3   OH225950   2.768   6.636   0.393  0.0826 -0.2357  0.6912
 1464TIP3    H125951   2.726   6.722   0.399 -1.1747 -0.8755  1.3494
 1464TIP3    H225952   2.726   6.584   0.461  0.4575 -1.5245 -0.0323
 1465TIP3   OH225953   6.114   2.937   7.956  0.4613 -0.2063  0.4338
 1465TIP3    H125954   6.130   3.025   7.921  0.0251  0.4104  1.7258
 1465TIP3    H225955   6.199   2.893   7.951  0.6025  0.1399 -0.5634
 1466TIP3   OH225956   3.679   2.864   0.787  0.3800 -0.2264 -0.5024
 1466TIP3    H125957   3.636   2.912   0.716  2.8035  1.4806 -0.9173
 1466TIP3    H225958   3.650   2.773   0.775 -0.4315  0.2664 -2.7613
 1467TIP3   OH225959   3.635   4.534   1.799 -0.2080 -0.4355  0.0581
 1467TIP3    H125960   3.577   4.473   1.844 -0.4447 -0.7452 -0.6447
 1467TIP3    H225961   3.666   4.593   1.867 -1.6270 -0.0497  0.3971
 1468TIP3   OH225962   4.913   0.854   3.239  0.2037  0.4799  0.1210
 1468TIP3    H125963   4.855   0.784   3.268 -1.8823  1.5263 -1.3084
 1468TIP3    H225964   4.967   0.874   3.315  1.2038 -2.9148  0.4799
 1469TIP3   OH225965   6.664   2.147   1.387 -0.4316 -0.0635  0.0740
 1469TIP3    H125966   6.685   2.226   1.436 -0.9095 -0.6553  1.2689
 1469TIP3    H225967   6.569   2.144   1.385 -0.4176 -0.7845  0.3189
 1470TIP3   OH225968   1.047   6.483   2.643 -0.2204  0.4221 -0.5607
 1470TIP3    H125969   1.142   6.485   2.655  0.1147 -1.7001 -2.3102
 1470TIP3    H225970   1.013   6.458   2.729  0.7857  1.0634  0.0481
 1471TIP3   OH225971   4.123   6.650   8.651  0.0101 -0.0179  0.1521
 1471TIP3    H125972   4.055   6.583   8.652  1.8406 -1.9713 -0.5851
 1471TIP3    H225973   4.203   6.604   8.627  1.6210  2.2031  0.8820
 1472TIP3   OH225974   0.544   6.543   0.436  0.0664  0.4140  0.2811
 1472TIP3    H125975   0.574   6.574   0.522 -0.5433  1.2105  0.2104
 1472TIP3    H225976   0.586   6.457   0.427  1.6041  1.0838  0.5817
 1473TIP3   OH225977   6.618   3.184   1.506 -0.2392  0.3019  0.0119
 1473TIP3    H125978   6.530   3.145   1.500 -0.2880  0.0921  1.6828
 1473TIP3    H225979   6.671   3.118   1.551  0.4670  0.9128  0.0951
 1474TIP3   OH225980   4.448   0.549   2.289 -0.1419  0.6465  0.4775
 1474TIP3    H125981   4.373   0.583   2.241  0.2786  0.5134 -0.2749
 1474TIP3    H225982   4.430   0.455   2.299  1.1930  0.0358 -2.1411
 1475TIP3   OH225983   2.227   0.153   0.576  0.6496  0.2953  0.2162
 1475TIP3    H125984   2.229   0.069   0.530 -1.2698 -0.2030  0.9472
 1475TIP3    H225985   2.145   0.152   0.625  1.4691  1.8259  1.7363
 1476TIP3   OH225986   1.753   3.214   6.861  0.3776 -0.5140  0.0225
 1476TIP3    H125987   1.770   3.262   6.942  1.2077  0.1179 -0.4996
 1476TIP3    H225988   1.799   3.265   6.794  0.0881 -1.2798 -0.7710
 1477TIP3   OH225989   4.148   3.699   2.461 -0.3297 -0.0812 -0.4320
 1477TIP3    H125990   4.203   3.622   2.471  0.2304  0.4399  0.7490
 1477TIP3    H225991   4.142   3.736   2.550 -1.7498  0.4360 -0.7215
 1478TIP3   OH225992   6.563   2.097   0.934 -0.6526 -0.1199  0.1869
 1478TIP3    H125993   6.638   2.150   0.962 -1.1039  1.0930 -0.8231
 1478TIP3    H225994   6.490   2.129   0.987 -0.6594 -0.6634  0.5133
 1479TIP3   OH225995   2.802   0.691   2.645  0.0524  0.0333  0.5000
 1479TIP3    H125996   2.759   0.685   2.560  1.8788  2.0611 -0.6779
 1479TIP3    H225997   2.835   0.602   2.661 -2.5805 -1.0515  0.4756
 1480TIP3   OH225998   5.320   2.066   2.774  0.1055 -0.4536 -0.1095
 1480TIP3    H125999   5.400   2.025   2.742  0.5603  1.4497 -1.5972
 1480TIP3    H226000   5.342   2.095   2.863  0.7863 -0.6340 -0.2179
 1481TIP3   OH226001   6.627   4.877   0.970  0.1434 -0.3256  0.0214
 1481TIP3    H126002   6.534   4.890   0.951  0.0625  1.4774  1.3923
 1481TIP3    H226003   6.641   4.919   1.055  2.3550  0.0574 -0.4540
 1482TIP3   OH226004   2.776   4.746   7.259  0.0757  0.0951  0.3058
 1482TIP3    H126005   2.684   4.748   7.234 -0.0109 -0.6692  0.5427
 1482TIP3    H226006   2.807   4.834   7.241 -0.0316 -0.3103 -2.3107
 1483TIP3   OH226007   5.711   4.144   1.461  0.0613  0.9464 -0.0568
 1483TIP3    H126008   5.708   4.149   1.365  1.2270 -0.0009 -0.1604
 1483TIP3    H226009   5.636   4.089   1.484  0.3527  0.3523 -0.5028
 1484TIP3   OH226010   2.308   0.538   2.513  0.0803 -0.2604  0.2596
 1484TIP3    H126011   2.359   0.597   2.568 -0.7653  0.0990  0.6912
 1484TIP3    H226012   2.220   0.577   2.512 -0.4997 -1.5066  0.5767
 1485TIP3   OH226013   0.993   5.893   2.608 -0.1517 -0.3000  0.2846
 1485TIP3    H126014   0.923   5.888   2.543  1.8374 -0.1402 -1.9905
 1485TIP3    H226015   1.036   5.977   2.590  2.5455 -1.7638 -0.5340
 1486TIP3   OH226016   4.510   0.597   7.825  0.6186 -0.1104  0.1961
 1486TIP3    H126017   4.483   0.627   7.912  0.2553  0.5557 -0.1415
 1486TIP3    H226018   4.605   0.585   7.833  0.4458 -1.1014  0.9871
 1487TIP3   OH226019   0.909   0.471   8.786 -0.0645 -0.4833  0.1013
 1487TIP3    H126020   0.827   0.477   8.834 -0.6868  0.1584 -1.0276
 1487TIP3    H226021   0.884   0.460   8.695  1.0989 -1.9444 -0.0972
 1488TIP3   OH226022   3.516   3.678   1.304  0.1061 -0.3734 -0.2127
 1488TIP3    H126023   3.583   3.746   1.304  0.0463 -0.3027  1.0529
 1488TIP3    H226024   3.445   3.715   1.251  0.6401 -0.0380 -0.7085
 1489TIP3   OH226025   1.332   0.026   8.665  0.4398 -0.4438 -0.5965
 1489TIP3    H126026   1.298  -0.055   8.703 -0.3925  0.0965 -0.1390
 1489TIP3    H226027   1.291   0.095   8.717 -0.2387  0.3124 -2.0820
 1490TIP3   OH226028   6.408   2.770   1.550  0.1701 -0.0149  0.5652
 1490TIP3    H126029   6.317   2.801   1.548 -0.1462 -0.8740  1.2141
 1490TIP3    H226030   6.437   2.777   1.459  0.1362  2.1819  0.6658
 1491TIP3   OH226031   0.673   4.833   0.968  0.4306 -0.6986 -0.2100
 1491TIP3    H126032   0.630   4.747   0.977  0.7476 -0.8525 -0.1595
 1491TIP3    H226033   0.679   4.847   0.874 -0.1212 -0.4780 -0.2183
 1492TIP3   OH226034   3.491   6.591   2.052  0.4396  0.3137 -0.4433
 1492TIP3    H126035   3.460   6.623   2.137  0.2342 -2.2050  0.5096
 1492TIP3    H226036   3.415   6.599   1.994  0.1843  0.8441 -0.0467
 1493TIP3   OH226037   5.871   3.218   7.927 -0.0937 -0.0030 -0.1393
 1493TIP3    H126038   5.923   3.181   7.856 -0.2671 -0.9875  0.2324
 1493TIP3    H226039   5.933   3.225   8.000 -0.2223 -0.1932 -0.0114
 1494TIP3   OH226040   5.585   3.755   2.068 -0.2671  0.4959 -0.0038
 1494TIP3    H126041   5.506   3.758   2.123 -0.1589 -1.2712  0.3231
 1494TIP3    H226042   5.643   3.820   2.107 -0.3510 -0.4201  1.7956
 1495TIP3   OH226043   4.872   0.095   7.871 -0.3406  0.2302  0.0635
 1495TIP3    H126044   4.949   0.074   7.819 -1.0092 -0.3540 -0.7199
 1495TIP3    H226045   4.825   0.161   7.819 -0.6306  0.1984  0.2826
 1496TIP3   OH226046   1.435   5.002   8.753 -0.4284 -0.2565 -0.2873
 1496TIP3    H126047   1.475   5.055   8.822 -0.6649  2.1703 -1.8745
 1496TIP3    H226048   1.509   4.954   8.714 -0.2222 -1.2690  1.2697
 1497TIP3   OH226049   3.897   0.488   7.302  0.0562 -0.3202 -0.3781
 1497TIP3    H126050   3.934   0.576   7.311 -0.4995  0.1068 -2.0110
 1497TIP3    H226051   3.808   0.503   7.270  0.0063 -1.4886 -0.8017
 1498TIP3   OH226052   4.355   4.774   2.479 -0.0684 -0.1322  0.2633
 1498TIP3    H126053   4.381   4.865   2.464 -1.6709 -0.1056 -3.1912
 1498TIP3    H226054   4.270   4.781   2.523  1.1956 -0.1307  2.9333
 1499TIP3   OH226055   4.285   2.168   2.230  0.8845 -0.1280  0.0267
 1499TIP3    H126056   4.215   2.139   2.172  0.0352 -0.0839  0.9972
 1499TIP3    H226057   4.239   2.206   2.305  1.9500 -0.3299  0.8007
 1500TIP3   OH226058   0.607   5.498   8.259  0.2088  0.1757  0.8569
 1500TIP3    H126059   0.638   5.577   8.215 -1.2200  0.0128 -0.5869
 1500TIP3    H226060   0.678   5.435   8.249  0.5653  0.6646  0.2101
 1501TIP3   OH226061   3.321   4.944   7.912 -0.0332 -0.9214  0.5095
 1501TIP3    H126062   3.379   5.018   7.896 -0.2151 -0.7060  0.8409
 1501TIP3    H226063   3.375   4.882   7.962  0.0444 -0.9124  0.4373
 1502TIP3   OH226064   2.952   3.762   1.935 -0.7033  0.4125  0.1699
 1502TIP3    H126065   2.906   3.694   1.885 -3.0738  2.3726 -0.5312
 1502TIP3    H226066   2.920   3.752   2.024 -1.4705  0.8684 -0.0372
 1503TIP3   OH226067   4.969   4.146   1.846 -0.6060 -0.4338 -0.2511
 1503TIP3    H126068   4.890   4.093   1.846 -2.7466  2.4434  1.7219
 1503TIP3    H226069   4.976   4.180   1.935  0.6046  2.4721 -1.3272
 1504TIP3   OH226070   6.179   2.010   8.519  0.9287  0.2498  0.4197
 1504TIP3    H126071   6.168   2.101   8.494  0.5404  0.0487 -0.1594
 1504TIP3    H226072   6.211   2.013   8.609  2.8662  1.0081 -0.2350
 1505TIP3   OH226073   2.434   4.155   0.167  0.9403  0.4760 -0.8633
 1505TIP3    H126074   2.429   4.229   0.107 -0.8431  0.6218 -0.5573
 1505TIP3    H226075   2.365   4.095   0.138  1.2314 -0.2879 -0.0427
 1506TIP3   OH226076   4.079   1.143   8.438  0.0625 -0.0868  0.0742
 1506TIP3    H126077   4.129   1.081   8.384 -1.9863 -0.0953 -1.9705
 1506TIP3    H226078   4.145   1.202   8.474  1.9234 -2.3752  0.6918
 1507TIP3   OH226079   5.064   5.572   8.142 -0.2089  0.6694 -0.0476
 1507TIP3    H126080   5.061   5.530   8.228 -1.4118 -0.9259 -0.8179
 1507TIP3    H226081   5.155   5.602   8.134  0.0680  0.3993  1.5490
 1508TIP3   OH226082   5.961   3.163   1.834  0.3389 -0.2905 -0.2672
 1508TIP3    H126083   6.000   3.208   1.910  0.4664 -2.1257  0.8344
 1508TIP3    H226084   5.888   3.218   1.808 -0.5387 -0.2368  2.0621
 1509TIP3   OH226085   4.172   3.099   7.698 -0.6233  0.0269 -0.6486
 1509TIP3    H126086   4.176   3.155   7.620 -0.6180  1.5892  0.4178
 1509TIP3    H226087   4.248   3.041   7.689 -0.9161 -0.1721 -2.0497
 1510TIP3   OH226088   4.750   4.352   0.836  0.1455 -0.0704  0.2267
 1510TIP3    H126089   4.670   4.370   0.885 -0.0466 -0.7673  0.1807
 1510TIP3    H226090   4.772   4.261   0.857  0.8964  0.0930  0.1985
 1511TIP3   OH226091   1.270   5.185   2.622 -0.1233  0.1069 -0.3572
 1511TIP3    H126092   1.362   5.173   2.598 -0.4698 -3.3888 -0.3779
 1511TIP3    H226093   1.269   5.175   2.718 -0.6342 -1.4866 -0.5082
 1512TIP3   OH226094   3.636   6.084   3.500  0.7185 -0.3503 -0.1946
 1512TIP3    H126095   3.616   6.175   3.478  0.1935 -0.2516  0.6780
 1512TIP3    H226096   3.597   6.033   3.429 -1.7359 -0.0969  0.8713
 1513TIP3   OH226097   1.082   4.369   8.544  0.1114  0.0929  0.5548
 1513TIP3    H126098   1.009   4.309   8.554  1.0641 -0.9491  1.5757
 1513TIP3    H226099   1.160   4.316   8.561  1.2260  0.8988 -1.5427
 1514TIP3   OH226100   6.149   5.046   1.895  0.1980  0.2790  0.5390
 1514TIP3    H126101   6.128   4.984   1.965  0.3381 -0.2905  0.0854
 1514TIP3    H226102   6.245   5.051   1.895  0.1982  0.2715  0.3801
 1515TIP3   OH226103   5.458   5.553   8.026  0.0922 -0.3231 -0.4076
 1515TIP3    H126104   5.414   5.564   7.942 -2.5513 -0.9052  0.8235
 1515TIP3    H226105   5.510   5.473   8.016  1.4299  0.6842 -2.0721
 1516TIP3   OH226106   4.595   3.453   1.973  0.0312  0.4131 -0.4143
 1516TIP3    H126107   4.650   3.528   1.997 -1.8161  1.4059  1.0630
 1516TIP3    H226108   4.506   3.483   1.992 -0.9025 -1.6325 -1.3109
 1517TIP3   OH226109   3.879   2.938   0.620  0.1638 -0.6857  0.1344
 1517TIP3    H126110   3.880   2.877   0.546  0.7896 -0.6690  0.1235
 1517TIP3    H226111   3.827   2.894   0.687 -0.1868 -0.8160 -0.2162
 1518TIP3   OH226112   6.796   6.656   8.688 -0.1057 -0.0424 -0.2389
 1518TIP3    H126113   6.715   6.606   8.683  1.1073 -2.1558 -0.0169
 1518TIP3    H226114   6.827   6.642   8.778  1.6441 -1.2776 -0.9780
 1519TIP3   OH226115   6.514   5.448   2.694 -0.8921  1.2270 -0.0178
 1519TIP3    H126116   6.525   5.376   2.756 -1.0670 -0.5810 -1.9721
 1519TIP3    H226117   6.602   5.466   2.662 -0.9945  1.0614 -0.3962
 1520TIP3   OH226118   3.893   0.264   0.185 -0.8893 -0.5322  0.0081
 1520TIP3    H126119   3.878   0.173   0.211  1.5959 -1.5808 -1.8493
 1520TIP3    H226120   3.840   0.276   0.106  0.6298 -1.2397 -1.1749
 1521TIP3   OH226121   1.955   1.520   1.651 -0.3863 -0.2520 -0.0530
 1521TIP3    H126122   1.981   1.429   1.663  0.0876 -0.0718  0.3723
 1521TIP3    H226123   1.936   1.552   1.740 -0.4962  0.0750 -0.1912
 1522TIP3   OH226124   0.430   2.763   0.708 -0.5258 -0.0759 -0.2120
 1522TIP3    H126125   0.470   2.752   0.622 -0.5285 -1.0540 -0.0957
 1522TIP3    H226126   0.499   2.741   0.771  0.2252  2.8990  0.1432
 1523TIP3   OH226127   3.677   6.551   0.471  0.0173  0.2811 -0.3004
 1523TIP3    H126128   3.684   6.589   0.558 -2.2398  2.6391 -0.9930
 1523TIP3    H226129   3.664   6.457   0.486  1.2460  0.3757  1.7566
 1524TIP3   OH226130   3.541   1.245   0.731  0.0726  0.0267  0.2118
 1524TIP3    H126131   3.503   1.159   0.712 -1.8869  0.8104  0.2716
 1524TIP3    H226132   3.635   1.229   0.735 -0.0060 -1.6770 -2.1322
 1525TIP3   OH226133   5.720   3.924   8.018 -0.7453 -0.4181 -0.2542
 1525TIP3    H126134   5.731   3.848   7.962 -2.4381  0.7840 -2.3962
 1525TIP3    H226135   5.634   3.960   7.993 -0.5326  1.5039  1.4990
 1526TIP3   OH226136   1.820   3.252   1.497  0.2485  0.0235 -0.0409
 1526TIP3    H126137   1.867   3.290   1.571 -0.4210  1.6222 -0.3839
 1526TIP3    H226138   1.729   3.246   1.526  0.0937  0.0614 -0.5048
 1527TIP3   OH226139   5.768   1.941   0.668  0.4798  0.0999 -0.5206
 1527TIP3    H126140   5.695   1.969   0.724  1.1476  1.5234 -0.3373
 1527TIP3    H226141   5.729   1.933   0.581  0.4151  2.5444 -0.7815
 1528TIP3   OH226142   3.411   2.914   2.385 -0.4211 -0.1398 -0.2319
 1528TIP3    H126143   3.470   2.945   2.317 -0.1892 -0.3689 -0.1366
 1528TIP3    H226144   3.341   2.980   2.389  0.2368  0.5504  0.2091
 1529TIP3   OH226145   2.044   6.198   1.260  0.5558 -0.3155 -0.3577
 1529TIP3    H126146   1.975   6.132   1.262  0.9289 -0.7066 -0.3303
 1529TIP3    H226147   2.027   6.248   1.180 -0.6408  0.5489  0.4045
 1530TIP3   OH226148   2.959   2.518   2.279  0.3723  0.6304 -0.1635
 1530TIP3    H126149   2.911   2.573   2.340  0.0178  0.5708 -0.3863
 1530TIP3    H226150   2.894   2.455   2.248  1.1753 -1.1445  1.5128
 1531TIP3   OH226151   0.876   6.369   1.986 -0.2171 -0.0686 -0.5240
 1531TIP3    H126152   0.895   6.313   2.061  1.6155  0.8757 -0.2262
 1531TIP3    H226153   0.781   6.383   1.989 -0.5107 -1.9971  0.1809
 1532TIP3   OH226154   2.604   1.529   8.732 -0.4036 -0.4231 -0.5857
 1532TIP3    H126155   2.684   1.503   8.778  0.5833  0.7271 -1.5986
 1532TIP3    H226156   2.549   1.568   8.800  0.3967 -0.1256 -0.0989
 1533TIP3   OH226157   6.237   1.492   0.673  0.2706  0.1186  0.1632
 1533TIP3    H126158   6.148   1.496   0.707  0.6869  2.1940  1.1679
 1533TIP3    H226159   6.273   1.580   0.688  1.6410  0.1224 -2.5655
 1534TIP3   OH226160   1.958   2.092   7.624 -0.4626  0.3764  0.1415
 1534TIP3    H126161   2.050   2.071   7.643 -0.7125  0.0355  1.0214
 1534TIP3    H226162   1.918   2.007   7.604 -0.3030  0.6685 -1.6249
 1535TIP3   OH226163   5.697   1.776   1.908  0.2308 -0.0594  0.3081
 1535TIP3    H126164   5.687   1.711   1.838  0.8275  0.8049 -0.6272
 1535TIP3    H226165   5.758   1.840   1.871 -1.0326  1.5143  0.8350
 1536TIP3   OH226166   2.201   2.876   8.749 -0.0087  0.1656  0.4914
 1536TIP3    H126167   2.279   2.929   8.732 -0.1490  0.8822  1.9579
 1536TIP3    H226168   2.129   2.926   8.708 -0.0771  0.9274  1.4973
 1537TIP3   OH226169   3.355   2.222   8.655  0.5529  0.2773  0.0571
 1537TIP3    H126170   3.386   2.267   8.734 -2.2591 -1.9256  2.6838
 1537TIP3    H226171   3.406   2.141   8.652  2.9481  1.6955 -2.4815
 1538TIP3   OH226172   5.534   5.174   2.647 -0.1665  0.1010  0.1208
 1538TIP3    H126173   5.537   5.123   2.729 -0.4609  1.4768  1.0267
 1538TIP3    H226174   5.550   5.264   2.675 -0.9376  0.6920 -1.2620
 1539TIP3   OH226175   1.217   6.679   1.506  0.3946  0.2198  0.1690
 1539TIP3    H126176   1.287   6.697   1.569  2.3792 -0.4810 -1.7197
 1539TIP3    H226177   1.214   6.583   1.500 -0.8348  0.2274  0.2889
 1540TIP3   OH226178   4.572   6.748   1.679  0.1324 -0.2344  0.0421
 1540TIP3    H126179   4.488   6.768   1.639  0.2740 -0.0590 -0.1722
 1540TIP3    H226180   4.629   6.727   1.605  1.1155  2.6120 -0.1295
 1541TIP3   OH226181   6.302   3.619   1.636  0.1693 -0.4120 -0.0637
 1541TIP3    H126182   6.237   3.688   1.620  0.1355 -0.5176 -0.3816
 1541TIP3    H226183   6.366   3.631   1.567  0.0134 -0.8852 -0.2893
 1542TIP3   OH226184   3.320   6.276   2.377  0.0784 -0.8829  0.1168
 1542TIP3    H126185   3.369   6.202   2.413 -0.0899 -0.8902  0.3309
 1542TIP3    H226186   3.353   6.353   2.423 -0.6601 -0.9802  0.8253
 1543TIP3   OH226187   6.489   5.613   7.265 -0.1365  0.1596  0.6025
 1543TIP3    H126188   6.422   5.601   7.332 -0.0890 -1.0019  0.4622
 1543TIP3    H226189   6.503   5.708   7.262 -0.5231  0.2763  1.8503
 1544TIP3   OH226190   0.648   6.405   7.356 -0.5919  0.5913  0.6519
 1544TIP3    H126191   0.651   6.313   7.329 -2.7736  0.1506  1.6827
 1544TIP3    H226192   0.637   6.402   7.451  0.8135  1.9976  0.9093
 1545TIP3   OH226193   5.062   4.240   1.203  0.2670 -0.4642  0.2671
 1545TIP3    H126194   5.076   4.315   1.145 -0.5747 -0.1826  0.4173
 1545TIP3    H226195   5.009   4.179   1.151 -2.7332  0.8861  1.5433
 1546TIP3   OH226196   3.152   2.662   1.924  0.2291  0.2250  0.4725
 1546TIP3    H126197   3.090   2.735   1.920  1.2845  1.1040 -1.5913
 1546TIP3    H226198   3.215   2.681   1.855  0.7251 -2.5275  0.0628
 1547TIP3   OH226199   4.210   2.447   0.879 -0.0071  0.1071 -0.1878
 1547TIP3    H126200   4.233   2.466   0.970 -0.0432 -0.4065 -0.0675
 1547TIP3    H226201   4.120   2.414   0.883 -1.1719  2.8775 -0.7343
 1548TIP3   OH226202   0.899   2.123   2.264 -0.4216 -0.5548  0.0793
 1548TIP3    H126203   0.896   2.179   2.187 -0.2744 -0.9376 -0.2118
 1548TIP3    H226204   0.837   2.162   2.325 -0.1363  0.0563 -0.0240
 1549TIP3   OH226205   1.354   2.601   2.565 -0.1176  0.0460  0.3767
 1549TIP3    H126206   1.372   2.518   2.520  0.8041  0.7474 -0.6049
 1549TIP3    H226207   1.264   2.621   2.543  0.1183  0.0470 -0.6380
 1550TIP3   OH226208   1.864   3.797   7.963  0.0187 -0.9440  0.7045
 1550TIP3    H126209   1.768   3.798   7.970 -0.1193 -0.7683 -0.8499
 1550TIP3    H226210   1.888   3.888   7.948  0.0907 -1.3465 -2.1670
 1551TIP3   OH226211   2.841   1.656   8.165 -0.9839  0.1578  0.1184
 1551TIP3    H126212   2.916   1.600   8.184 -0.3464  0.6843 -0.7332
 1551TIP3    H226213   2.810   1.626   8.079 -0.2952  1.4397 -0.6050
 1552TIP3   OH226214   6.300   1.328   0.149 -0.2002  0.4445  0.0457
 1552TIP3    H126215   6.277   1.351   0.239 -0.9795  0.4723 -0.1497
 1552TIP3    H226216   6.293   1.410   0.101 -0.3053  0.3276 -0.1395
 1553TIP3   OH226217   3.439   1.562   7.914 -0.1942 -0.2227  0.0486
 1553TIP3    H126218   3.382   1.599   7.847 -0.7238 -0.0335  0.5889
 1553TIP3    H226219   3.428   1.620   7.990 -0.9208 -1.3530  0.8581
 1554TIP3   OH226220   1.685   5.965   7.363 -0.4585 -0.2710 -0.2134
 1554TIP3    H126221   1.720   5.984   7.276 -0.4925 -0.2687 -0.2263
 1554TIP3    H226222   1.609   5.910   7.347 -1.6399  1.3202 -0.3205
 1555TIP3   OH226223   3.860   2.578   1.824 -0.1057  0.5738 -0.0342
 1555TIP3    H126224   3.835   2.650   1.882 -1.0805  1.5054 -1.5157
 1555TIP3    H226225   3.842   2.612   1.736 -0.4821 -1.4590 -0.7860
 1556TIP3   OH226226   5.242   6.747   1.541  0.1343 -0.4703  0.3919
 1556TIP3    H126227   5.200   6.700   1.469 -0.5657  0.1486  0.3899
 1556TIP3    H226228   5.222   6.694   1.619 -0.2918 -0.4095  0.3275
 1557TIP3   OH226229   3.078   2.107   3.309  0.3438  0.1076  0.0568
 1557TIP3    H126230   3.140   2.074   3.374  0.7310 -0.5176 -0.6210
 1557TIP3    H226231   3.031   2.029   3.279  2.2600 -0.1691 -2.6190
 1558TIP3   OH226232   6.613   0.700   0.064 -0.0370 -0.0075  0.5164
 1558TIP3    H126233   6.548   0.757   0.022  0.5473 -0.1528 -0.6499
 1558TIP3    H226234   6.561   0.633   0.109 -0.7134  0.9733  1.2167
 1559TIP3   OH226235   6.807   1.070   1.399 -0.0284  0.0976 -0.2056
 1559TIP3    H126236   6.819   1.009   1.326  0.5021  1.9329 -1.7277
 1559TIP3    H226237   6.712   1.074   1.412 -0.0879 -0.7653 -0.2902
 1560TIP3   OH226238   6.270   2.225   7.961  0.6958 -0.6228  0.7811
 1560TIP3    H126239   6.245   2.284   8.032 -0.4599  0.7794 -0.7149
 1560TIP3    H226240   6.210   2.151   7.968 -0.4694  0.2564  0.3647
 1561TIP3   OH226241   2.098   0.218   2.804 -0.2255  0.2442 -0.2362
 1561TIP3    H126242   2.039   0.160   2.852  1.3474 -1.3618 -0.1547
 1561TIP3    H226243   2.040   0.275   2.754 -1.8400 -0.6172  0.5786
 1562TIP3   OH226244   4.529   2.451   0.829 -0.2811 -0.4522 -0.2343
 1562TIP3    H126245   4.540   2.534   0.874  0.5824  0.4305 -1.9417
 1562TIP3    H226246   4.441   2.422   0.851  0.3616 -0.5174  2.5977
 1563TIP3   OH226247   1.589   0.024   8.318  0.4109 -0.2581  0.6669
 1563TIP3    H126248   1.498   0.034   8.290  0.7562  2.0998  0.1409
 1563TIP3    H226249   1.635  -0.008   8.241 -0.1423 -3.0266  1.3644
 1564TIP3   OH226250   0.211   4.595   0.673  0.2139 -0.2605  0.0133
 1564TIP3    H126251   0.124   4.621   0.705 -0.1361 -1.1207 -0.2085
 1564TIP3    H226252   0.269   4.609   0.748 -0.2869 -0.6000  0.4748
 1565TIP3   OH226253   1.750   1.435   7.989  0.3589  0.7447  0.3061
 1565TIP3    H126254   1.770   1.445   7.896  2.8053 -0.4207  0.6081
 1565TIP3    H226255   1.658   1.457   7.997 -0.6402 -1.6000 -2.8443
 1566TIP3   OH226256   0.884   3.064   2.149  0.2128  0.1983 -0.0105
 1566TIP3    H126257   0.793   3.036   2.147  0.6025 -1.2773  1.0299
 1566TIP3    H226258   0.928   2.999   2.204  1.8115  1.1217 -0.1280
 1567TIP3   OH226259   5.542   4.004   0.210 -0.3138  0.3722  0.9545
 1567TIP3    H126260   5.546   4.091   0.250 -0.7373  1.1082 -0.5109
 1567TIP3    H226261   5.622   3.998   0.157 -0.7485  0.2611  0.3026
 1568TIP3   OH226262   6.265   3.459   7.346 -0.5230  0.5805 -0.1727
 1568TIP3    H126263   6.198   3.490   7.284 -0.9581  1.1829  0.5848
 1568TIP3    H226264   6.283   3.369   7.318 -2.0193  0.2322 -0.0992
 1569TIP3   OH226265   1.304   1.822   8.195  0.0996 -0.0547  0.0871
 1569TIP3    H126266   1.287   1.913   8.221 -0.1634  0.2679 -1.1632
 1569TIP3    H226267   1.370   1.828   8.126  0.6058 -0.8712  0.4813
 1570TIP3   OH226268   1.380   3.396   2.112 -0.6644  0.5276 -0.2429
 1570TIP3    H126269   1.291   3.397   2.075 -0.7927  1.1720  0.0612
 1570TIP3    H226270   1.372   3.443   2.195  0.0944  1.2096 -0.5375
 1571TIP3   OH226271   2.756   0.976   8.349  0.0894 -0.2305 -0.2448
 1571TIP3    H126272   2.707   1.031   8.409  0.0568  0.0737 -0.5501
 1571TIP3    H226273   2.689   0.938   8.292  0.1272 -0.4699 -0.1324
 1572TIP3   OH226274   6.432   3.612   8.454  0.0457 -0.2966 -0.1425
 1572TIP3    H126275   6.411   3.684   8.396 -1.3404  0.4142  1.1692
 1572TIP3    H226276   6.438   3.652   8.541 -1.1508 -1.7875  0.6838
 1573TIP3   OH226277   5.795   3.355   2.133  0.3786 -0.5960 -0.0931
 1573TIP3    H126278   5.884   3.328   2.113  0.3873 -0.8288  0.2552
 1573TIP3    H226279   5.802   3.403   2.215  0.4165  0.8117 -0.8870
 1574TIP3   OH226280   1.225   1.172   0.125  0.5539 -0.2950  0.1676
 1574TIP3    H126281   1.266   1.107   0.068  1.7564 -1.3171  2.1107
 1574TIP3    H226282   1.296   1.233   0.146  0.3669 -0.4676  1.3177
 1575TIP3   OH226283   2.248   3.479   7.343 -0.4533  0.1285 -0.4591
 1575TIP3    H126284   2.253   3.480   7.438  0.9688 -0.7168 -0.4988
 1575TIP3    H226285   2.157   3.454   7.324 -0.6155 -0.1779  0.6706
 1576TIP3   OH226286   2.047   3.790   2.785 -0.0453  0.3856  0.1392
 1576TIP3    H126287   2.014   3.707   2.818  0.5567  0.5768  1.2690
 1576TIP3    H226288   2.088   3.832   2.861 -1.6610  2.4175 -0.0245
 1577TIP3   OH226289   0.364   4.180   8.543  0.2624 -0.0922  0.3425
 1577TIP3    H126290   0.413   4.164   8.463 -2.0498  1.4021 -1.5113
 1577TIP3    H226291   0.373   4.273   8.559  0.6801 -0.3683  1.8521
 1578TIP3   OH226292   2.121   1.937   0.235  0.2866 -0.3154  0.4451
 1578TIP3    H126293   2.062   1.914   0.164 -0.6810 -1.4233  1.5657
 1578TIP3    H226294   2.132   2.032   0.228 -0.4267 -0.3092 -0.6861
 1579TIP3   OH226295   0.599   5.982   1.501 -0.2425  0.1190 -0.1603
 1579TIP3    H126296   0.521   6.031   1.473 -0.4604  0.5756  1.1683
 1579TIP3    H226297   0.588   5.971   1.596  0.4487 -1.3796 -0.2207
 1580TIP3   OH226298   5.533   0.074   2.294 -0.0392  0.5444  0.6692
 1580TIP3    H126299   5.454   0.129   2.286 -1.0772 -1.1167 -2.1395
 1580TIP3    H226300   5.600   0.122   2.245 -0.1782  0.5914  0.5226
 1581TIP3   OH226301   4.280   1.770   0.063 -0.4568 -0.5369  1.0075
 1581TIP3    H126302   4.278   1.828   0.139  1.4286  0.5093  0.3318
 1581TIP3    H226303   4.368   1.731   0.065  0.2221  0.6336 -1.3482
 1582TIP3   OH226304   3.865   1.549   2.131  0.4083 -0.5822 -0.0228
 1582TIP3    H126305   3.813   1.621   2.096  1.9296 -0.4558 -2.1833
 1582TIP3    H226306   3.870   1.566   2.225  1.2445  2.4940 -0.5226
 1583TIP3   OH226307   3.070   5.842   0.786  0.2153  0.2037  0.2573
 1583TIP3    H126308   3.158   5.847   0.747 -0.0222 -0.3583 -0.3857
 1583TIP3    H226309   3.083   5.863   0.878  1.2922 -1.4366  0.5228
 1584TIP3   OH226310   6.739   3.268   1.778 -0.8372 -0.2689 -0.4408
 1584TIP3    H126311   6.738   3.311   1.692 -1.5561  0.6694  0.0132
 1584TIP3    H226312   6.658   3.297   1.820  0.5243  1.1264  1.4268
 1585TIP3   OH226313   5.241   1.911   7.330  0.3092 -0.2120 -0.3187
 1585TIP3    H126314   5.328   1.923   7.292 -0.0089  1.6173 -0.5522
 1585TIP3    H226315   5.243   1.960   7.412 -1.1666  1.8787 -1.4377
 1586TIP3   OH226316   0.507   5.015   2.235  0.3368  0.0718  0.4594
 1586TIP3    H126317   0.600   5.001   2.218  0.4115 -0.9593  1.5341
 1586TIP3    H226318   0.505   5.067   2.315 -0.0120 -0.0538  0.5334
 1587TIP3   OH226319   1.405   1.847   7.888  0.1416  0.0901  0.0342
 1587TIP3    H126320   1.491   1.826   7.852  0.5023  2.7012 -0.8441
 1587TIP3    H226321   1.403   1.943   7.891 -2.0238  0.0600  1.8322
 1588TIP3   OH226322   2.207   0.276   1.505 -0.0817  0.5084 -0.2539
 1588TIP3    H126323   2.274   0.271   1.573  1.7607  1.1446 -1.9315
 1588TIP3    H226324   2.144   0.339   1.538 -0.0949 -0.3791  1.5344
 1589TIP3   OH226325   5.823   1.579   2.693 -0.5064  0.6255 -0.4202
 1589TIP3    H126326   5.740   1.561   2.648 -0.8914  3.1019 -0.8446
 1589TIP3    H226327   5.888   1.582   2.622 -0.0879 -0.8733 -0.1354
 1590TIP3   OH226328   6.299   5.442   7.945  0.2161  0.3670 -0.4788
 1590TIP3    H126329   6.292   5.405   7.857  2.5067  0.4852 -0.7887
 1590TIP3    H226330   6.349   5.376   7.994  0.2101  0.9445  0.3203
 1591TIP3   OH226331   0.560   1.780   7.991 -0.5585 -0.4483  0.5800
 1591TIP3    H126332   0.524   1.715   8.052  1.8126 -1.4769  1.0155
 1591TIP3    H226333   0.509   1.769   7.911 -1.3556 -1.6214  1.2178
 1592TIP3   OH226334   2.832   1.492   0.079 -0.3684  0.0046 -0.7489
 1592TIP3    H126335   2.910   1.438   0.085 -0.8275 -0.7713 -1.5104
 1592TIP3    H226336   2.841   1.555   0.150  1.6750  0.9319 -1.7540
 1593TIP3   OH226337   3.953   2.588   8.634 -0.3871  0.0451  0.0572
 1593TIP3    H126338   3.891   2.616   8.566 -0.3048  1.5170  0.5508
 1593TIP3    H226339   3.899   2.570   8.710 -0.5102 -1.9118 -0.4520
 1594TIP3   OH226340   1.493   1.865   1.281 -0.3820 -0.3583 -0.5565
 1594TIP3    H126341   1.484   1.776   1.249  1.0849 -0.3599 -1.0086
 1594TIP3    H226342   1.587   1.879   1.291 -0.4513  1.6170 -1.9024
 1595TIP3   OH226343   5.921   0.206   2.515  0.1395  0.4643  0.3654
 1595TIP3    H126344   6.011   0.215   2.548  0.1347  1.3038  0.1770
 1595TIP3    H226345   5.871   0.177   2.591  0.8332 -1.5682  0.1020
 1596TIP3   OH226346   4.426   5.375   2.762  0.0018  0.4220 -0.2506
 1596TIP3    H126347   4.387   5.373   2.674  1.6447  3.2049 -1.1780
 1596TIP3    H226348   4.439   5.469   2.779  2.0402 -0.1731  1.9022
 1597TIP3   OH226349   6.688   2.438   1.470  0.1177  0.2279  0.2016
 1597TIP3    H126350   6.663   2.445   1.562 -1.6337 -1.1668 -0.1235
 1597TIP3    H226351   6.642   2.510   1.427  0.2827  0.3770  0.2685
 1598TIP3   OH226352   5.805   1.968   7.848  0.3273  0.1688  0.2941
 1598TIP3    H126353   5.767   2.047   7.809  0.9481  0.2043 -0.2477
 1598TIP3    H226354   5.731   1.909   7.858 -0.2436  0.9946  1.1707
 1599TIP3   OH226355   6.242   1.776   0.331 -0.0018 -0.2056  0.2188
 1599TIP3    H126356   6.221   1.866   0.306 -0.3968 -0.3681 -0.0447
 1599TIP3    H226357   6.187   1.758   0.408 -1.1505 -0.7548 -0.6912
 1600TIP3   OH226358   3.468   2.768   1.010  0.3876 -0.5519 -0.3836
 1600TIP3    H126359   3.516   2.742   1.089  0.5833  2.1365  0.4883
 1600TIP3    H226360   3.396   2.822   1.042 -0.4487 -0.6824 -1.9632
 1601TIP3   OH226361   6.754   2.833   8.487 -0.3728  0.2310  0.2200
 1601TIP3    H126362   6.711   2.913   8.515 -0.0500  0.6981 -0.5847
 1601TIP3    H226363   6.715   2.813   8.402 -0.5943 -0.5821  0.5008
 1602TIP3   OH226364   6.573   4.504   1.635 -0.3118 -1.1854 -0.7587
 1602TIP3    H126365   6.519   4.432   1.667 -2.2040 -0.4483 -2.1420
 1602TIP3    H226366   6.525   4.539   1.560 -0.3832  2.6395  0.8674
 1603TIP3   OH226367   3.310   4.964   8.658 -0.2213 -0.4255  0.2509
 1603TIP3    H126368   3.216   4.969   8.672 -0.0575  4.0650  1.0227
 1603TIP3    H226369   3.348   4.961   8.746  0.3883  0.0076  0.0099
 1604TIP3   OH226370   1.597   2.158   8.255 -0.0375  0.4344  0.1492
 1604TIP3    H126371   1.665   2.209   8.211 -0.3554  0.5036 -0.2611
 1604TIP3    H226372   1.646   2.098   8.313  0.3325  1.2376  0.6895
 1605TIP3   OH226373   4.776   5.523   1.721 -0.4797 -0.3696 -0.6120
 1605TIP3    H126374   4.865   5.511   1.687  0.0305 -1.4684  0.9991
 1605TIP3    H226375   4.742   5.599   1.674  0.4171 -1.3686 -3.0300
 1606TIP3   OH226376   2.339   0.559   1.259 -0.2368  0.4228 -0.3909
 1606TIP3    H126377   2.338   0.506   1.180  1.4781 -0.7494  0.3134
 1606TIP3    H226378   2.275   0.517   1.317  0.1216 -0.0679 -0.3438
 1607TIP3   OH226379   1.632   0.698   1.827 -0.7387  0.8360 -0.6105
 1607TIP3    H126380   1.677   0.644   1.892 -2.5450 -1.7407 -1.3502
 1607TIP3    H226381   1.550   0.723   1.870 -1.2101  0.4994 -1.3027
 1608TIP3   OH226382   6.670   1.244   8.318  0.0463  0.3632  0.3733
 1608TIP3    H126383   6.682   1.199   8.235  2.1747  0.3556  0.6170
 1608TIP3    H226384   6.583   1.283   8.312  0.3437  0.8556 -2.1127
 1609TIP3   OH226385   4.635   5.102   1.577  0.1769 -0.5869 -0.0840
 1609TIP3    H126386   4.729   5.085   1.567  0.6788  1.7399  0.0199
 1609TIP3    H226387   4.605   5.123   1.488 -0.0466 -0.4464  0.0238
 1610TIP3   OH226388   4.369   2.616   2.132  0.3189 -0.0509 -0.4681
 1610TIP3    H126389   4.396   2.707   2.125  1.3458 -0.3241 -0.1870
 1610TIP3    H226390   4.403   2.575   2.053  0.7062 -0.3955 -0.1256
 1611TIP3   OH226391   0.279   1.292   8.133 -0.3340 -0.0636  0.2795
 1611TIP3    H126392   0.195   1.322   8.098  0.4780  2.4175  0.2767
 1611TIP3    H226393   0.342   1.308   8.062  0.5661  0.6759  1.2203
 1612TIP3   OH226394   4.213   4.347   1.091 -0.4976  0.6052 -0.0821
 1612TIP3    H126395   4.188   4.411   1.025 -0.9016 -0.9065 -1.4669
 1612TIP3    H226396   4.149   4.357   1.161 -0.1504  2.1285  0.0402
 1613TIP3   OH226397   4.030   0.904   1.498 -0.2850  0.2951  0.0055
 1613TIP3    H126398   3.937   0.903   1.476 -0.0694 -0.8322 -0.9439
 1613TIP3    H226399   4.047   0.818   1.538  0.4830  0.2349 -0.4238
 1614TIP3   OH226400   4.093   1.607   1.184 -0.4946 -0.5005 -0.3808
 1614TIP3    H126401   4.170   1.551   1.184 -0.9202 -1.1410  1.0808
 1614TIP3    H226402   4.033   1.566   1.121  0.1810 -0.2319 -1.2117
 1615TIP3   OH226403   2.824   2.077   7.897  0.1254  0.0250  0.2010
 1615TIP3    H126404   2.870   2.035   7.824  2.9758  0.6423  1.4989
 1615TIP3    H226405   2.827   2.171   7.877  1.1932  0.2291  1.1515
 1616TIP3   OH226406   5.243   6.045   3.431 -0.0384  0.2687 -0.1588
 1616TIP3    H126407   5.281   6.133   3.438 -1.5484  1.0734 -1.3986
 1616TIP3    H226408   5.209   6.026   3.519  0.3308  0.9037  0.1275
 1617TIP3   OH226409   0.904   3.883   3.035 -0.2169 -0.2107  0.2015
 1617TIP3    H126410   0.858   3.824   2.975  0.2981 -0.3899 -0.0250
 1617TIP3    H226411   0.927   3.828   3.110  0.7740 -0.4508 -0.2667
 1618TIP3   OH226412   1.809   6.227   0.267 -0.7000 -0.6815  0.1328
 1618TIP3    H126413   1.751   6.183   0.205 -1.3013  1.1757 -0.7026
 1618TIP3    H226414   1.866   6.281   0.213  0.8794 -1.3715  1.0408
 1619TIP3   OH226415   6.020   0.667   2.661 -0.3184  0.2942  0.2295
 1619TIP3    H126416   6.090   0.730   2.678 -0.5163  0.0893  1.9440
 1619TIP3    H226417   6.066   0.585   2.644 -0.0620  0.8206 -1.9551
 1620TIP3   OH226418   3.169   6.169   0.762 -0.0003  0.1993  0.1976
 1620TIP3    H126419   3.240   6.115   0.728  0.9588  2.9002 -2.6633
 1620TIP3    H226420   3.102   6.167   0.693 -1.8574 -0.6525  1.9405
 1621TIP3   OH226421   1.821   2.335   7.370  0.6438  0.1037  0.4553
 1621TIP3    H126422   1.815   2.273   7.297  0.4647  0.0391  0.5255
 1621TIP3    H226423   1.915   2.346   7.383  0.6801  0.2460  0.1024
 1622TIP3   OH226424   4.856   0.510   1.959 -0.6021 -0.1928 -0.1668
 1622TIP3    H126425   4.845   0.545   2.047 -0.3880  0.9192 -0.5715
 1622TIP3    H226426   4.785   0.549   1.908 -0.8289 -0.9622 -0.4535
 1623TIP3   OH226427   5.781   2.230   7.747 -0.3421 -0.4342  0.9294
 1623TIP3    H126428   5.685   2.232   7.755 -0.6258 -0.2679 -1.6601
 1623TIP3    H226429   5.807   2.322   7.753 -0.4458 -0.3991  0.8547
 1624TIP3   OH226430   5.849   5.192   1.460  0.1957 -0.3081  0.5792
 1624TIP3    H126431   5.937   5.179   1.495  1.0021 -0.6168 -1.4148
 1624TIP3    H226432   5.830   5.284   1.477  0.5345 -0.4274  1.7475
 1625TIP3   OH226433   5.802   3.462   2.387  0.1724  0.4022  0.1104
 1625TIP3    H126434   5.730   3.483   2.446  0.8323 -0.6201  1.3282
 1625TIP3    H226435   5.874   3.437   2.445  0.7014 -1.1115 -1.1320
 1626TIP3   OH226436   0.493   2.948   1.921 -0.0754 -0.3041 -0.3721
 1626TIP3    H126437   0.504   2.916   1.832 -0.1497  1.8277 -1.2074
 1626TIP3    H226438   0.569   3.004   1.936  0.3249 -1.1944  1.2147
 1627TIP3   OH226439   5.398   2.284   0.521 -0.0320  0.4623  0.1448
 1627TIP3    H126440   5.379   2.358   0.463 -0.2305  0.1367 -0.2095
 1627TIP3    H226441   5.323   2.225   0.511 -0.6955  0.9704  1.6821
 1628TIP3   OH226442   1.321   6.693   0.311 -0.5420  0.2660 -0.2565
 1628TIP3    H126443   1.409   6.725   0.290 -0.6180  0.3102 -0.5117
 1628TIP3    H226444   1.278   6.767   0.354 -0.5683  0.3574 -0.4406
 1629TIP3   OH226445   0.535   0.944   1.389  0.4840  0.0840 -0.1878
 1629TIP3    H126446   0.608   0.895   1.427 -1.6561 -1.6355  2.0224
 1629TIP3    H226447   0.540   1.030   1.432  0.1962 -0.6427  1.3754
 1630TIP3   OH226448   3.181   6.130   1.499  0.3750 -0.7061 -0.0782
 1630TIP3    H126449   3.156   6.218   1.470  1.5976 -0.4478 -0.4337
 1630TIP3    H226450   3.211   6.142   1.589 -2.2249 -1.2955  0.9548
 1631TIP3   OH226451   2.416   5.147   1.274  0.0547  0.1079  0.3748
 1631TIP3    H126452   2.379   5.232   1.251  2.4976  0.7628 -1.5601
 1631TIP3    H226453   2.507   5.166   1.297  0.4389 -1.9120  0.7187
 1632TIP3   OH226454   4.430   1.281   0.833  0.1241  0.2605  0.4927
 1632TIP3    H126455   4.522   1.296   0.852 -0.0634  1.1257  0.7779
 1632TIP3    H226456   4.414   1.331   0.753 -0.9070  3.1375  2.3496
 1633TIP3   OH226457   1.628   0.182   0.036 -0.5780 -0.0020 -0.7218
 1633TIP3    H126458   1.609   0.125  -0.038 -1.3352 -2.5767  1.2831
 1633TIP3    H226459   1.682   0.128   0.095 -0.2449  1.8175  0.7591
 1634TIP3   OH226460   0.587   1.569   1.286  0.0819  0.1816 -0.5109
 1634TIP3    H126461   0.622   1.529   1.366 -0.3012 -1.4944 -1.1333
 1634TIP3    H226462   0.631   1.654   1.281 -0.0591  0.4385  1.5881
 1635TIP3   OH226463   4.557   6.166   1.800  0.1431  0.0350  0.2510
 1635TIP3    H126464   4.642   6.173   1.844  0.2386 -1.2090  0.2950
 1635TIP3    H226465   4.563   6.228   1.727  0.1273  1.8483  1.7111
 1636TIP3   OH226466   3.652   1.608   1.537 -0.2792 -0.1968 -0.4933
 1636TIP3    H126467   3.660   1.512   1.538 -0.5185 -0.2181  0.8329
 1636TIP3    H226468   3.742   1.639   1.535 -0.1502 -0.4625  0.5128
 1637TIP3   OH226469   0.241   2.394   0.202  0.3805  0.0481 -0.3745
 1637TIP3    H126470   0.205   2.469   0.154  2.4167  1.1015 -0.3691
 1637TIP3    H226471   0.170   2.330   0.204 -0.7787  1.2120 -2.0657
 1638TIP3   OH226472   6.575   5.359   7.281  0.0954 -0.1332 -0.3118
 1638TIP3    H126473   6.557   5.452   7.268 -1.3800 -0.3586 -0.0003
 1638TIP3    H226474   6.640   5.338   7.214  0.1016  1.0086 -0.6846
 1639TIP3   OH226475   5.672   2.296   1.375 -0.1852  0.3174 -0.3831
 1639TIP3    H126476   5.641   2.384   1.350 -0.5674  0.5942  0.9565
 1639TIP3    H226477   5.722   2.311   1.455 -1.5317 -0.8429  0.7419
 1640TIP3   OH226478   0.952   6.650   8.052  0.7305  0.0210  0.1501
 1640TIP3    H126479   0.989   6.571   8.012  0.3627 -1.3970  2.4064
 1640TIP3    H226480   0.859   6.647   8.028  1.1087  1.0852 -1.6677
 1641TIP3   OH226481   5.544   6.255   0.635  0.2289  0.4402 -0.4961
 1641TIP3    H126482   5.561   6.218   0.722  1.7149  0.6948 -0.6531
 1641TIP3    H226483   5.603   6.208   0.577  1.3731  2.2681 -0.8784
 1642TIP3   OH226484   0.722   2.549   1.898  0.7415  0.5872 -0.5728
 1642TIP3    H126485   0.685   2.626   1.941  0.4106 -0.2109  0.6315
 1642TIP3    H226486   0.773   2.505   1.967  1.6988  0.2256 -1.4917
 1643TIP3   OH226487   1.671   4.827   8.216 -0.5053  0.2872  0.0330
 1643TIP3    H126488   1.609   4.823   8.289 -0.7197 -1.8694 -0.2050
 1643TIP3    H226489   1.640   4.761   8.154  0.1546  1.4904 -1.6480
 1644TIP3   OH226490   2.887   5.578   7.236  0.5234 -0.2128 -0.0345
 1644TIP3    H126491   2.933   5.649   7.281  1.1953 -1.2475  0.9421
 1644TIP3    H226492   2.954   5.535   7.183  0.0963 -0.0891 -0.6998
 1645TIP3   OH226493   6.240   2.801   2.474  0.4540 -0.5336 -0.2578
 1645TIP3    H126494   6.212   2.879   2.521  1.4451 -0.9651  1.0980
 1645TIP3    H226495   6.185   2.800   2.395 -1.5045  0.0404  1.0243
 1646TIP3   OH226496   2.314   4.907   1.736  0.2518  0.9265 -0.6679
 1646TIP3    H126497   2.242   4.881   1.792  0.6778  0.7925 -0.1817
 1646TIP3    H226498   2.281   4.985   1.690 -0.5896  0.2521 -1.2578
 1647TIP3   OH226499   0.353   4.100   2.003 -0.2497 -0.8383 -0.5390
 1647TIP3    H126500   0.264   4.067   2.013 -0.2478 -1.1188 -1.3753
 1647TIP3    H226501   0.396   4.080   2.086 -1.1524 -0.0800  0.1423
 1648TIP3   OH226502   0.537   1.209   8.413 -0.3092 -0.0777  0.5435
 1648TIP3    H126503   0.482   1.140   8.450 -1.8833  1.1072  0.5312
 1648TIP3    H226504   0.568   1.173   8.330 -1.6409 -0.5485  0.2237
 1649TIP3   OH226505   6.644   0.091   0.344  0.1924 -0.3272 -0.1749
 1649TIP3    H126506   6.732   0.057   0.363  0.6384  0.3795 -0.9234
 1649TIP3    H226507   6.628   0.065   0.253  0.0396  0.4137 -0.3600
 1650TIP3   OH226508   0.433   4.968   2.666  0.1778 -0.6823 -0.3888
 1650TIP3    H126509   0.455   5.055   2.633 -2.3991  0.5549  0.8691
 1650TIP3    H226510   0.421   4.980   2.761  0.6573 -2.6245 -0.0322
 1651TIP3   OH226511   4.216   3.764   8.813 -0.0110  0.6195  0.1564
 1651TIP3    H126512   4.164   3.683   8.806 -0.2543  0.8472 -0.8209
 1651TIP3    H226513   4.286   3.742   8.874  1.3814 -1.1520 -1.9129
 1652TIP3   OH226514   4.582   2.509   8.658 -0.6653  0.4224 -0.1649
 1652TIP3    H126515   4.530   2.487   8.580 -2.6014  1.1065  0.8457
 1652TIP3    H226516   4.597   2.426   8.702 -0.5943  0.1690 -0.6617
 1653TIP3   OH226517   1.325   4.187   2.895  0.1576  0.1401 -0.4064
 1653TIP3    H126518   1.246   4.200   2.949 -0.0762 -0.1463 -0.6755
 1653TIP3    H226519   1.395   4.174   2.958  0.4262  2.6528 -0.0830
 1654TIP3   OH226520   1.893   4.162   7.450 -0.4825  0.1763  0.1700
 1654TIP3    H126521   1.883   4.136   7.358 -0.0619  1.5032 -0.2759
 1654TIP3    H226522   1.827   4.112   7.496  0.2438 -1.6298 -0.6234
 1655TIP3   OH226523   5.265   3.299   8.430 -0.3637  0.2515 -0.1308
 1655TIP3    H126524   5.240   3.278   8.340  0.1187  0.0904 -0.2299
 1655TIP3    H226525   5.287   3.215   8.469  1.2057  0.5048 -0.4181
 1656TIP3   OH226526   3.629   1.476   7.554  0.0545 -0.4711  0.7951
 1656TIP3    H126527   3.575   1.554   7.566 -0.8151 -0.9395  0.0557
 1656TIP3    H226528   3.703   1.507   7.502 -0.6891 -0.2896 -0.1806
 1657TIP3   OH226529   4.361   3.460   1.172 -0.2849 -0.2927  0.6757
 1657TIP3    H126530   4.432   3.498   1.224 -0.2724 -0.8547  1.0822
 1657TIP3    H226531   4.350   3.520   1.099  0.9244 -0.4303  0.3576
 1658TIP3   OH226532   6.179   5.679   3.094  0.5243 -0.2144  0.1297
 1658TIP3    H126533   6.239   5.613   3.060  0.5319 -0.9122  1.4605
 1658TIP3    H226534   6.221   5.762   3.072  2.2124 -0.6887  1.4075
 1659TIP3   OH226535   4.983   6.000   1.668 -0.3066  0.0584  0.5661
 1659TIP3    H126536   5.052   5.975   1.730 -0.1665 -2.4766 -0.4777
 1659TIP3    H226537   4.913   6.034   1.724  0.9417  0.6675  1.8341
 1660TIP3   OH226538   3.209   1.002   2.129  0.5904 -0.2218  0.2785
 1660TIP3    H126539   3.277   0.943   2.160 -0.0181  0.4033  3.1035
 1660TIP3    H226540   3.129   0.970   2.169  0.0339  1.7092  0.8128
 1661TIP3   OH226541   4.505   0.700   0.243  0.0649  0.1690  0.4167
 1661TIP3    H126542   4.461   0.732   0.321 -1.9843  0.5865 -0.8259
 1661TIP3    H226543   4.488   0.766   0.176  2.4209  0.2117 -0.2338
 1662TIP3   OH226544   5.763   2.293   8.078 -0.0352  0.1808 -0.6067
 1662TIP3    H126545   5.759   2.281   7.983 -0.6547 -1.5299 -0.3894
 1662TIP3    H226546   5.707   2.224   8.114 -1.8454  2.2760  0.9331
 1663TIP3   OH226547   4.921   2.333   2.651  0.3272  0.0181  0.1294
 1663TIP3    H126548   4.935   2.426   2.633  1.4793  0.1140  1.3350
 1663TIP3    H226549   4.918   2.328   2.747 -0.3418 -1.1132  0.0642
 1664TIP3   OH226550   2.863   0.079   7.563  0.0537  0.0213 -0.3825
 1664TIP3    H126551   2.892   0.052   7.651 -1.7419  0.7155  0.4717
 1664TIP3    H226552   2.799   0.148   7.579  0.3491  0.8104 -2.3079
 1665TIP3   OH226553   5.257   2.459   0.765  0.1368  0.4903  0.2382
 1665TIP3    H126554   5.174   2.438   0.723  0.4057  0.2503 -0.1877
 1665TIP3    H226555   5.233   2.490   0.853 -0.2944 -1.4081  0.8278
 1666TIP3   OH226556   0.513   4.042   2.648 -0.2013 -0.4554 -0.0385
 1666TIP3    H126557   0.473   4.088   2.722  1.6430  1.1595  0.0458
 1666TIP3    H226558   0.567   4.108   2.605 -0.8966 -1.4624 -2.6418
 1667TIP3   OH226559   5.604   0.936   1.572 -0.3067  0.1219 -0.1700
 1667TIP3    H126560   5.662   1.008   1.548 -1.0187  0.5504 -0.6739
 1667TIP3    H226561   5.643   0.859   1.531  0.3699  0.2411  0.2312
 1668TIP3   OH226562   2.191   4.663   0.543 -0.2877 -0.0953 -0.2364
 1668TIP3    H126563   2.230   4.576   0.529 -0.0169 -0.0186  0.0241
 1668TIP3    H226564   2.248   4.704   0.608 -0.5743  0.1746 -0.1555
 1669TIP3   OH226565   1.060   0.385   1.841  0.1980 -0.7185 -0.1276
 1669TIP3    H126566   1.014   0.460   1.878 -1.3767 -0.9219 -1.5196
 1669TIP3    H226567   1.111   0.349   1.913  0.8823  1.5691  0.6149
 1670TIP3   OH226568   3.438   5.597   7.732 -0.0165  0.5680  0.3876
 1670TIP3    H126569   3.375   5.554   7.790 -0.1897 -2.5349 -1.8439
 1670TIP3    H226570   3.523   5.562   7.760 -0.1157 -1.0612 -1.1945
 1671TIP3   OH226571   5.256   5.175   7.509 -0.0282  0.1827  0.2244
 1671TIP3    H126572   5.186   5.239   7.525  0.6031  0.5255  1.7515
 1671TIP3    H226573   5.256   5.119   7.586 -1.1644 -2.3331 -1.4579
 1672TIP3   OH226574   4.987   6.380   8.171 -0.4575  0.2826  0.0786
 1672TIP3    H126575   4.969   6.288   8.192 -1.7311  0.3229 -0.7308
 1672TIP3    H226576   5.031   6.377   8.086  0.6770  0.3699  0.6426
 1673TIP3   OH226577   5.090   1.590   1.933  0.1594 -0.3195 -0.2551
 1673TIP3    H126578   5.096   1.631   1.846  1.0632  1.6485  0.6781
 1673TIP3    H226579   5.024   1.643   1.979  0.8939 -0.2903  0.7794
 1674TIP3   OH226580   5.790   5.530   0.647 -0.0108  0.3052  0.3133
 1674TIP3    H126581   5.762   5.587   0.575  0.7197  2.6675  1.7854
 1674TIP3    H226582   5.866   5.575   0.684 -0.1943 -0.9912  2.3897
 1675TIP3   OH226583   3.869   0.306   0.500 -0.1684  0.1781 -0.2721
 1675TIP3    H126584   3.873   0.357   0.419  1.7391 -0.6642 -0.7524
 1675TIP3    H226585   3.947   0.331   0.548  1.3619 -2.8673 -0.9373
 1676TIP3   OH226586   6.300   1.676   7.569 -0.9727  0.1378  1.0594
 1676TIP3    H126587   6.381   1.670   7.619  0.5800 -0.3272 -1.3548
 1676TIP3    H226588   6.302   1.764   7.530 -0.8720 -0.3727 -0.1500
 1677TIP3   OH226589   2.054   3.284   6.743  0.5194  0.0056 -0.1694
 1677TIP3    H126590   2.049   3.316   6.834  1.6039  0.7778 -0.3580
 1677TIP3    H226591   1.981   3.327   6.698 -0.8208 -1.3722  0.5951
 1678TIP3   OH226592   3.953   6.770   3.569  0.1734 -0.5606 -0.1773
 1678TIP3    H126593   3.859   6.778   3.586 -0.4043 -2.9911 -1.7785
 1678TIP3    H226594   3.977   6.853   3.528 -1.4148 -0.1454 -0.3368
 1679TIP3   OH226595   2.411   3.307   7.510 -0.2360 -0.5304  0.0372
 1679TIP3    H126596   2.483   3.252   7.480 -0.6340 -0.9598 -0.1321
 1679TIP3    H226597   2.334   3.276   7.462 -0.6182 -0.3354  0.5063
 1680TIP3   OH226598   4.318   3.709   1.011  0.4232  1.0278 -0.4014
 1680TIP3    H126599   4.290   3.659   0.934 -0.3804  0.5207  0.1954
 1680TIP3    H226600   4.384   3.770   0.978  0.2220  0.6972 -1.4523
 1681TIP3   OH226601   6.745   3.680   1.401 -0.2583 -0.2870 -0.6664
 1681TIP3    H126602   6.722   3.752   1.460 -0.8042 -0.3692 -0.7765
 1681TIP3    H226603   6.671   3.620   1.406  0.3715 -1.0431 -0.2708
 1682TIP3   OH226604   5.210   0.747   7.986 -0.1666  0.4551 -0.3863
 1682TIP3    H126605   5.276   0.808   7.954  0.5111  0.2347  0.5465
 1682TIP3    H226606   5.172   0.790   8.062  0.4567 -0.3556  0.3993
 1683TIP3   OH226607   4.856   2.156   1.939 -0.1978  0.1336 -0.6349
 1683TIP3    H126608   4.763   2.156   1.920 -0.2442 -0.6873 -0.4095
 1683TIP3    H226609   4.898   2.155   1.852 -0.3711  1.4888 -0.7656
 1684TIP3   OH226610   0.581   0.275   8.778  0.5191  0.0408  0.3067
 1684TIP3    H126611   0.593   0.200   8.719  1.4969  0.4863 -0.0924
 1684TIP3    H226612   0.536   0.239   8.854  0.6309 -0.8714 -0.0445
 1685TIP3   OH226613   6.257   1.436   1.746  0.3600  0.3330  0.0922
 1685TIP3    H126614   6.165   1.430   1.771  0.4978  1.4424  0.9533
 1685TIP3    H226615   6.305   1.432   1.828  1.2402 -2.2004 -0.4766
 1686TIP3   OH226616   2.102   1.026   2.155 -0.5365 -0.2990 -0.1108
 1686TIP3    H126617   2.129   1.077   2.231  0.1604  0.8735 -1.1068
 1686TIP3    H226618   2.008   1.015   2.165 -0.3830 -0.6144  1.1651
 1687TIP3   OH226619   4.562   5.115   0.740  0.1441 -0.6365 -0.6147
 1687TIP3    H126620   4.585   5.026   0.714 -0.5906 -1.2768  0.8412
 1687TIP3    H226621   4.482   5.105   0.791 -0.0276  0.8812 -0.5533
 1688TIP3   OH226622   3.305   2.670   1.659  0.5430 -0.1066 -0.0450
 1688TIP3    H126623   3.252   2.594   1.634 -0.6834  1.3966 -2.4078
 1688TIP3    H226624   3.372   2.675   1.591  1.8751 -0.1901  1.2176
 1689TIP3   OH226625   6.393   6.709   1.986  0.5711  0.6102  0.0017
 1689TIP3    H126626   6.316   6.667   2.024  1.5909 -2.6830 -1.1378
 1689TIP3    H226627   6.465   6.685   2.045  1.3065  0.0485 -1.0831
 1690TIP3   OH226628   3.324   4.820   7.421 -0.5443  0.4277 -0.1492
 1690TIP3    H126629   3.322   4.914   7.406  0.7577  0.6277  0.8059
 1690TIP3    H226630   3.354   4.783   7.339 -2.9134  0.6346 -1.1972
 1691TIP3   OH226631   4.633   0.222   2.799  0.3749  0.3464  0.7988
 1691TIP3    H126632   4.589   0.257   2.876  0.7400  0.1934  1.0809
 1691TIP3    H226633   4.665   0.136   2.827  0.8791  0.4674  0.6124
 1692TIP3   OH226634   3.281   0.778   1.496 -0.3879  0.6441 -0.0773
 1692TIP3    H126635   3.232   0.707   1.456  0.1065 -0.0837  0.5886
 1692TIP3    H226636   3.346   0.735   1.552  0.1888  1.6023  0.0273
 1693TIP3   OH226637   6.527   3.948   2.320 -0.3839  0.5303  0.6509
 1693TIP3    H126638   6.445   3.904   2.300  0.4027 -1.3085  1.1983
 1693TIP3    H226639   6.586   3.922   2.250  0.1958  0.4484  1.1554
 1694TIP3   OH226640   3.852   5.869   8.623  0.3000 -0.4063 -0.2590
 1694TIP3    H126641   3.801   5.883   8.543  0.8001  0.0914 -0.4987
 1694TIP3    H226642   3.808   5.923   8.689 -0.2765 -1.0330 -0.1212
 1695TIP3   OH226643   5.922   0.677   2.362  0.1190 -0.2347 -0.5649
 1695TIP3    H126644   5.956   0.710   2.446 -1.2001  0.0621 -0.1242
 1695TIP3    H226645   5.910   0.756   2.309  0.7058 -0.4006 -0.9586
 1696TIP3   OH226646   2.796   4.828   2.353  0.6248  0.0194 -0.2971
 1696TIP3    H126647   2.746   4.830   2.435 -1.3997  0.8403 -1.4727
 1696TIP3    H226648   2.803   4.920   2.327 -0.7717 -0.3518 -2.1617
 1697TIP3   OH226649   4.457   5.859   8.545 -0.5807 -0.1633 -0.6145
 1697TIP3    H126650   4.488   5.877   8.634  0.7467 -3.4123 -0.2820
 1697TIP3    H226651   4.510   5.916   8.489  1.1810 -0.6821  0.4569
 1698TIP3   OH226652   0.091   3.123   8.614  0.4481  0.5013  1.0228
 1698TIP3    H126653   0.122   3.145   8.702 -0.2059  1.9023  0.9358
 1698TIP3    H226654   0.045   3.201   8.585  2.9229  1.1527 -1.6370
 1699TIP3   OH226655   5.222   1.528   8.048  0.3036  0.6549 -0.0714
 1699TIP3    H126656   5.131   1.503   8.065  0.5001 -1.8536 -2.0980
 1699TIP3    H226657   5.232   1.614   8.089 -2.2524 -0.0480  2.3362
 1700TIP3   OH226658   5.871   0.851   8.327  0.1163  0.2316  0.3884
 1700TIP3    H126659   5.921   0.907   8.386  0.8537 -1.2977  1.2838
 1700TIP3    H226660   5.938   0.800   8.281 -0.5723 -0.9957  0.7225
 1701TIP3   OH226661   3.029   4.685   2.473  0.5465 -0.0156  0.2541
 1701TIP3    H126662   2.996   4.696   2.562 -0.1018  0.8045 -0.0703
 1701TIP3    H226663   3.124   4.685   2.482  0.4790 -0.1355  0.9678
 1702TIP3   OH226664   4.584   4.515   7.199 -0.6309 -0.3964  0.0793
 1702TIP3    H126665   4.668   4.558   7.182 -0.3511 -1.1974 -0.6392
 1702TIP3    H226666   4.519   4.574   7.160 -0.6464  1.2329  2.3400
 1703TIP3   OH226667   0.185   5.799   2.597  0.1316  0.5971 -0.1711
 1703TIP3    H126668   0.121   5.742   2.552 -0.3268  1.0347 -0.0819
 1703TIP3    H226669   0.270   5.770   2.564 -0.1204  0.0832 -0.3839
 1704TIP3   OH226670   3.338   0.583   7.976  0.0368 -0.2275  0.4452
 1704TIP3    H126671   3.322   0.593   7.882  0.6305 -0.1597  0.3475
 1704TIP3    H226672   3.282   0.649   8.018 -0.0171 -0.0710  0.1256
 1705TIP3   OH226673   3.740   2.873   1.689  0.2815  0.9421  0.3151
 1705TIP3    H126674   3.654   2.878   1.732  0.1719  1.3504  0.0581
 1705TIP3    H226675   3.731   2.802   1.626 -0.1748  1.5730 -0.3565
 1706TIP3   OH226676   1.704   1.435   1.376  0.5384  0.4307  0.9990
 1706TIP3    H126677   1.623   1.464   1.417 -1.8964 -3.3607 -0.5289
 1706TIP3    H226678   1.755   1.397   1.447 -0.9022 -0.7170  1.4727
 1707TIP3   OH226679   0.948   3.219   8.504 -0.5007 -0.1493  0.4419
 1707TIP3    H126680   0.877   3.161   8.476 -0.5991 -0.3744  1.1304
 1707TIP3    H226681   0.945   3.293   8.443 -0.5798 -0.7075 -0.2492
 1708TIP3   OH226682   4.394   3.054   1.492 -0.0004  0.1842  0.6163
 1708TIP3    H126683   4.487   3.065   1.509  0.3264 -0.5434 -0.6550
 1708TIP3    H226684   4.355   3.138   1.517  1.2047  1.0420 -0.3352
 1709TIP3   OH226685   0.301   6.107   3.261 -0.1611  0.0702 -0.3383
 1709TIP3    H126686   0.391   6.129   3.281  0.1236  2.6775 -3.5899
 1709TIP3    H226687   0.297   6.012   3.266  1.8414  0.0018  2.8271
 1710TIP3   OH226688   5.552   2.318   7.876  0.2946  0.2376  0.3110
 1710TIP3    H126689   5.522   2.409   7.877 -1.8793 -0.3503 -2.0919
 1710TIP3    H226690   5.472   2.266   7.880  1.2802 -1.5221 -1.2880
 1711TIP3   OH226691   5.602   4.561   0.720 -0.3463  0.2045  0.1388
 1711TIP3    H126692   5.590   4.647   0.762  0.1195  0.4265 -0.1745
 1711TIP3    H226693   5.573   4.499   0.787 -4.1289  0.6688 -0.8409
 1712TIP3   OH226694   1.158   4.524   7.054  0.3444  0.2946 -0.0967
 1712TIP3    H126695   1.082   4.577   7.031 -0.7000 -0.9298  0.4333
 1712TIP3    H226696   1.129   4.469   7.126  0.9436 -1.9558 -1.4698
 1713TIP3   OH226697   1.121   1.402   2.608  0.2772  0.2526  0.0727
 1713TIP3    H126698   1.090   1.325   2.654  0.5252  0.8023  1.1967
 1713TIP3    H226699   1.213   1.383   2.588  0.7669  0.8159  1.6553
 1714TIP3   OH226700   1.622   2.788   7.579 -0.0945 -0.5583  0.5082
 1714TIP3    H126701   1.625   2.721   7.511 -1.5037  0.9150 -1.1046
 1714TIP3    H226702   1.706   2.833   7.572 -1.5302  2.0962 -3.1328
 1715TIP3   OH226703   5.321   2.004   1.827  0.0740 -0.6996  0.1101
 1715TIP3    H126704   5.330   2.067   1.756  1.1992 -2.0798 -1.0286
 1715TIP3    H226705   5.265   2.048   1.891  1.7652  1.9391 -0.0545
 1716TIP3   OH226706   2.152   4.790   8.416 -0.0099 -0.1815 -0.3642
 1716TIP3    H126707   2.226   4.836   8.377 -1.0717  0.3761 -1.7819
 1716TIP3    H226708   2.096   4.766   8.342 -0.9046 -1.2375  0.6063
 1717TIP3   OH226709   0.774   3.499   3.230  0.4523  0.2932  0.1717
 1717TIP3    H126710   0.697   3.442   3.226  1.3358 -1.1762  2.3381
 1717TIP3    H226711   0.835   3.461   3.167  0.0776  0.4403 -0.2902
 1718TIP3   OH226712   0.564   4.473   0.660 -0.2064  0.6575  0.0243
 1718TIP3    H126713   0.633   4.522   0.705  0.5032  0.6823 -1.0499
 1718TIP3    H226714   0.524   4.537   0.600 -0.2798  0.3038 -0.3094
 1719TIP3   OH226715   4.658   4.678   1.907 -0.0847 -0.3461  0.8978
 1719TIP3    H126716   4.685   4.720   1.988  0.4679 -0.5108  0.8050
 1719TIP3    H226717   4.712   4.599   1.901  0.7170  0.2570 -0.1968
 1720TIP3   OH226718   6.536   4.328   0.737  0.0931  0.1136  0.2051
 1720TIP3    H126719   6.575   4.405   0.779 -0.2249 -0.0173  0.7542
 1720TIP3    H226720   6.457   4.362   0.693 -1.2281 -0.2107  2.1974
 1721TIP3   OH226721   5.588   5.961   0.336 -0.8664  0.2153 -0.7622
 1721TIP3    H126722   5.501   5.990   0.362 -0.7216  1.0538 -1.1719
 1721TIP3    H226723   5.583   5.953   0.241 -0.9534 -1.3110 -0.6404
 1722TIP3   OH226724   4.137   5.073   0.173 -0.3588  0.2734  1.1182
 1722TIP3    H126725   4.168   5.136   0.238 -0.6670  0.3515  1.1904
 1722TIP3    H226726   4.217   5.043   0.128 -0.2351  0.9153  0.9035
 1723TIP3   OH226727   4.198   3.716   1.806 -0.0232  0.2231 -0.0105
 1723TIP3    H126728   4.212   3.698   1.713 -3.5160 -0.2882 -0.5695
 1723TIP3    H226729   4.242   3.800   1.821  3.1069 -1.0384 -1.3084
 1724TIP3   OH226730   0.322   0.641   2.227  0.2373 -0.7315 -0.3748
 1724TIP3    H126731   0.314   0.548   2.249 -0.6504 -0.7387 -0.7013
 1724TIP3    H226732   0.233   0.669   2.208  0.3540  0.4662  0.7618
 1725TIP3   OH226733   6.430   2.308   7.588 -0.5386  0.5021 -0.5049
 1725TIP3    H126734   6.387   2.275   7.509  1.2659 -1.2697 -0.8253
 1725TIP3    H226735   6.477   2.387   7.559 -0.7928  0.4937 -0.9447
 1726TIP3   OH226736   0.217   2.493   1.216 -0.2563 -0.2475 -0.1502
 1726TIP3    H126737   0.162   2.416   1.233 -0.9335  0.3185  0.2732
 1726TIP3    H226738   0.218   2.541   1.299  0.3303  0.0921 -0.3510
 1727TIP3   OH226739   1.320   5.643   2.296 -0.4329 -0.5341 -0.0039
 1727TIP3    H126740   1.294   5.614   2.209  1.4527 -1.8424 -0.1997
 1727TIP3    H226741   1.405   5.685   2.282  0.4881 -1.8685  1.3339
 1728TIP3   OH226742   6.391   1.706   2.394  0.3156 -0.1173  0.3288
 1728TIP3    H126743   6.386   1.636   2.329  2.2890  0.3164 -0.3552
 1728TIP3    H226744   6.401   1.786   2.342  2.6053  0.1720  1.1119
 1729TIP3   OH226745   5.752   0.233   2.246  0.6944  0.6998 -0.4304
 1729TIP3    H126746   5.803   0.312   2.231  1.3297  0.4460  0.3181
 1729TIP3    H226747   5.788   0.196   2.327  0.2968 -0.2663 -0.6778
 1730TIP3   OH226748   3.295   0.674   1.972  0.1020  0.3189 -0.1725
 1730TIP3    H126749   3.261   0.586   1.990 -1.0728  1.1673  2.1399
 1730TIP3    H226750   3.331   0.703   2.056 -0.2184  2.3334 -0.6802
 1731TIP3   OH226751   1.069   6.043   0.753 -0.4676  0.2893  0.1511
 1731TIP3    H126752   1.071   6.114   0.818 -0.6863  0.5696 -0.1484
 1731TIP3    H226753   1.161   6.021   0.740 -0.3854  0.6282  0.1326
 1732TIP3   OH226754   0.941   5.507   1.952  0.0842 -0.4215  0.0357
 1732TIP3    H126755   0.908   5.466   1.872 -1.3176  1.3920 -0.3696
 1732TIP3    H226756   0.976   5.592   1.923 -0.4282  0.2615  1.3377
 1733TIP3   OH226757   2.305   6.531   1.312  0.6792 -0.0002  0.0683
 1733TIP3    H126758   2.400   6.522   1.309  0.6426 -0.6494  0.4884
 1733TIP3    H226759   2.279   6.557   1.224  1.2265 -0.0456 -0.1048
 1734TIP3   OH226760   0.340   2.297   2.756  0.4661  0.2557  0.7932
 1734TIP3    H126761   0.332   2.379   2.806  2.0281  0.2868  1.0191
 1734TIP3    H226762   0.409   2.314   2.692 -1.4242  0.1743 -1.3830
 1735TIP3   OH226763   2.893   0.550   2.386 -0.3669 -0.0250  0.3117
 1735TIP3    H126764   2.971   0.533   2.438  0.7334  0.6410 -1.0593
 1735TIP3    H226765   2.843   0.469   2.390  1.6845 -1.4346 -0.9280
 1736TIP3   OH226766   1.943   6.463   8.158 -0.1963  0.2067  0.0977
 1736TIP3    H126767   1.908   6.500   8.077  0.0418 -1.5663 -0.8633
 1736TIP3    H226768   1.992   6.534   8.198  0.6258  0.8304 -1.8993
 1737TIP3   OH226769   5.807   5.943   1.066  0.1854  0.3084  0.7258
 1737TIP3    H126770   5.721   5.983   1.073  0.7046  1.8420 -0.8284
 1737TIP3    H226771   5.868   6.017   1.062  1.5136 -0.7210  1.0723
 1738TIP3   OH226772   5.558   2.144   2.541  0.0278 -0.4503  0.1200
 1738TIP3    H126773   5.582   2.058   2.507  1.4760  0.2833 -0.7937
 1738TIP3    H226774   5.602   2.150   2.626  0.9838 -0.1245 -0.3905
 1739TIP3   OH226775   2.768   3.775   3.016  0.2355  0.4890 -0.2259
 1739TIP3    H126776   2.751   3.725   2.937 -1.0485  0.3694  0.1064
 1739TIP3    H226777   2.807   3.713   3.077  0.7488  0.4600 -0.5751
 1740TIP3   OH226778   4.825   5.817   2.955 -0.1409  0.1883  1.1423
 1740TIP3    H126779   4.734   5.816   2.925 -0.1073 -1.0129  1.0349
 1740TIP3    H226780   4.865   5.740   2.915  1.1696  1.1462  0.4997
 1741TIP3   OH226781   0.420   0.436   1.919  0.3290 -0.3666  0.3217
 1741TIP3    H126782   0.488   0.440   1.853  0.4559 -0.9608  0.4096
 1741TIP3    H226783   0.413   0.525   1.953  2.0409 -0.5540  1.2938
 1742TIP3   OH226784   3.147   0.000   0.732  0.3658  0.0392 -0.5127
 1742TIP3    H126785   3.234   0.032   0.708 -0.0187  0.1908 -1.7770
 1742TIP3    H226786   3.133   0.032   0.821  0.6038  2.1832 -1.1894
 1743TIP3   OH226787   0.960   5.711   0.402  0.3629  0.0407 -0.2949
 1743TIP3    H126788   0.896   5.663   0.455  0.3867  1.8744  1.4865
 1743TIP3    H226789   1.041   5.708   0.453  0.2097  2.4446  0.2077
 1744TIP3   OH226790   4.581   2.734   1.391 -0.1695 -0.3678 -0.2549
 1744TIP3    H126791   4.595   2.795   1.318  1.2657 -0.5306 -0.1515
 1744TIP3    H226792   4.624   2.654   1.364 -0.8537 -0.8969  0.1936
 1745TIP3   OH226793   3.237   3.108   2.308  0.0199 -0.6113  0.4672
 1745TIP3    H126794   3.151   3.145   2.330  0.0131 -0.0490 -0.4553
 1745TIP3    H226795   3.248   3.126   2.214  0.4189 -2.1475  0.1791
 1746TIP3   OH226796   4.306   6.281   1.833  0.3452  0.1839  1.1182
 1746TIP3    H126797   4.368   6.355   1.827 -0.6748  1.2517  2.8489
 1746TIP3    H226798   4.362   6.205   1.846  1.4025  0.7595  0.1445
 1747TIP3   OH226799   0.538   0.880   2.726 -0.1719 -0.0212  0.2437
 1747TIP3    H126800   0.627   0.886   2.692  0.3125 -0.7568  1.3285
 1747TIP3    H226801   0.488   0.944   2.674  0.9464  0.3117 -0.4593
 1748TIP3   OH226802   1.175   1.387   1.911 -0.0195 -0.3917 -0.6296
 1748TIP3    H126803   1.225   1.318   1.867  0.8821  0.4603 -0.9652
 1748TIP3    H226804   1.205   1.384   2.002  1.2374  0.5989 -0.9767
 1749TIP3   OH226805   5.078   6.588   1.424  0.0758  0.6085  0.3019
 1749TIP3    H126806   5.061   6.543   1.341 -0.5480  1.3849 -0.0061
 1749TIP3    H226807   5.039   6.531   1.490  0.3374  0.1156  0.0411
 1750TIP3   OH226808   1.666   1.130   1.064 -0.8664  0.1656 -0.1002
 1750TIP3    H126809   1.761   1.123   1.056 -0.7401  0.3753  1.0844
 1750TIP3    H226810   1.638   1.172   0.983 -0.0338 -0.5387 -0.7758
 1751TIP3   OH226811   5.525   5.394   0.290  0.1463  0.2884  0.4153
 1751TIP3    H126812   5.593   5.366   0.351 -0.4962  0.0127  1.0104
 1751TIP3    H226813   5.495   5.314   0.248  2.0372  0.6555 -1.8631
 1752TIP3   OH226814   1.206   6.491   2.314  0.2947 -0.0386  0.3695
 1752TIP3    H126815   1.271   6.431   2.351  0.1083 -1.0266 -0.8488
 1752TIP3    H226816   1.194   6.558   2.381  1.5062 -0.6273  1.2055
 1753TIP3   OH226817   2.763   2.932   8.195 -0.4736  0.4844 -1.1239
 1753TIP3    H126818   2.678   2.926   8.151 -0.2823  1.4199 -1.6477
 1753TIP3    H226819   2.827   2.918   8.125 -0.1925  0.1848 -0.8072
 1754TIP3   OH226820   0.885   3.851   7.719 -0.3403 -0.1570  0.0405
 1754TIP3    H126821   0.882   3.944   7.698 -1.5966 -0.2907 -0.4658
 1754TIP3    H226822   0.950   3.844   7.789  0.4434  0.9620 -0.5466
 1755TIP3   OH226823   2.751   4.904   1.852  0.3393 -0.1448 -0.5996
 1755TIP3    H126824   2.783   4.814   1.859  0.3612 -0.2700 -2.1103
 1755TIP3    H226825   2.819   4.957   1.893 -0.7523 -0.9461  2.5630
 1756TIP3   OH226826   1.272   0.140   0.409 -0.5043  0.7525  0.2181
 1756TIP3    H126827   1.200   0.195   0.378 -0.0505  1.9603  1.2181
 1756TIP3    H226828   1.345   0.201   0.423 -0.0349 -0.0640  1.5267
 1757TIP3   OH226829   6.035   2.078   7.993 -0.1782 -0.0671  0.5136
 1757TIP3    H126830   5.968   2.023   7.951 -0.0537 -0.8923  1.3470
 1757TIP3    H226831   5.987   2.129   8.058 -0.7530  2.8950 -2.0542
 1758TIP3   OH226832   3.011   0.005   2.108 -0.1013 -0.0122 -0.5882
 1758TIP3    H126833   3.093   0.049   2.130  0.7476 -1.5594 -0.4626
 1758TIP3    H226834   2.946   0.045   2.165  0.6254  1.0492 -0.4798
 1759TIP3   OH226835   2.746   2.190   2.835 -0.0322  0.4099 -0.1079
 1759TIP3    H126836   2.825   2.172   2.786 -0.0717  0.0376 -0.0383
 1759TIP3    H226837   2.770   2.177   2.927 -1.4301 -5.1659 -0.2037
 1760TIP3   OH226838   4.787   3.460   0.543  0.0708  0.0102 -0.1777
 1760TIP3    H126839   4.741   3.376   0.556  0.4374 -0.2400 -0.4777
 1760TIP3    H226840   4.787   3.500   0.630 -1.5884  0.4768 -0.3451
 1761TIP3   OH226841   5.926   2.830   1.250  0.1970 -0.1254 -0.1258
 1761TIP3    H126842   5.954   2.768   1.182 -0.1269  0.0325 -0.4059
 1761TIP3    H226843   5.908   2.774   1.326  1.0082 -0.2558 -0.0170
 1762TIP3   OH226844   6.675   0.031   2.494 -0.4049 -0.0691 -0.1122
 1762TIP3    H126845   6.766   0.018   2.468  0.1203  3.0112 -0.2834
 1762TIP3    H226846   6.638   0.086   2.424 -1.4973  1.1682  1.3579
 1763TIP3   OH226847   0.477   4.181   1.611 -0.5719 -0.4138  0.0316
 1763TIP3    H126848   0.444   4.252   1.557 -0.1688 -0.7556 -0.6766
 1763TIP3    H226849   0.534   4.223   1.674  0.9579 -0.2492 -1.3980
 1764TIP3   OH226850   3.303   2.985   7.959 -0.2864  0.6979  0.0847
 1764TIP3    H126851   3.251   2.926   7.903  0.2684 -0.0573  0.3513
 1764TIP3    H226852   3.302   3.069   7.913 -1.3529  0.5732 -0.1510
 1765TIP3   OH226853   4.659   0.357   0.536  0.2333  0.2250 -0.0258
 1765TIP3    H126854   4.641   0.389   0.447  0.5498 -0.0636 -0.1950
 1765TIP3    H226855   4.587   0.297   0.555  0.3032  0.0907 -0.1862
 1766TIP3   OH226856   1.683   5.081   1.258  0.1594 -0.0533 -0.8056
 1766TIP3    H126857   1.751   5.111   1.318  1.2389  0.7664 -2.4010
 1766TIP3    H226858   1.700   4.988   1.247  0.0595 -0.1744 -0.0032
 1767TIP3   OH226859   2.854   0.208   7.887  0.0943  0.3588 -0.0798
 1767TIP3    H126860   2.807   0.219   7.805  1.4665  0.4850 -0.8842
 1767TIP3    H226861   2.876   0.115   7.890  0.0548  0.3559  0.1300
 1768TIP3   OH226862   4.682   4.195   8.484  0.5631 -0.4187  0.1776
 1768TIP3    H126863   4.631   4.114   8.483  0.5007 -0.3743 -1.3026
 1768TIP3    H226864   4.749   4.182   8.417 -0.8074  1.5905 -1.7163
 1769TIP3   OH226865   5.275   1.737   1.407  0.0092 -0.0623 -0.2236
 1769TIP3    H126866   5.282   1.691   1.323  0.4214  0.3466 -0.4169
 1769TIP3    H226867   5.278   1.829   1.385 -2.4644  0.1356  0.0162
 1770TIP3   OH226868   5.212   5.376   0.882  0.0970  0.4762  0.5533
 1770TIP3    H126869   5.182   5.454   0.836 -0.8473 -0.1691  0.0194
 1770TIP3    H226870   5.209   5.307   0.816  1.6650  0.1206  0.8095
 1771TIP3   OH226871   4.640   3.710   2.673 -0.7130  0.3731  0.3621
 1771TIP3    H126872   4.565   3.768   2.686 -0.3590  0.8996  0.1054
 1771TIP3    H226873   4.714   3.758   2.713 -0.3697  0.2206 -0.0874
 1772TIP3   OH226874   2.354   3.505   2.310  1.0541 -0.2318 -0.2920
 1772TIP3    H126875   2.337   3.423   2.355  2.1914  0.5117  1.5872
 1772TIP3    H226876   2.446   3.501   2.286  0.8608  0.0702 -1.1179
 1773TIP3   OH226877   5.568   0.028   0.962  0.3210 -0.9044 -0.4753
 1773TIP3    H126878   5.532   0.081   0.890  1.1211 -0.1291 -0.3153
 1773TIP3    H226879   5.626   0.088   1.009 -0.8665 -1.1417  1.3704
 1774TIP3   OH226880   4.422   0.959   1.355 -0.2811 -0.4070  0.0557
 1774TIP3    H126881   4.488   0.911   1.404 -0.0843  0.7316  0.9432
 1774TIP3    H226882   4.362   0.993   1.422 -0.4750  0.4811 -0.5537
 1775TIP3   OH226883   2.724   1.794   2.547  0.1332 -0.0885 -0.1374
 1775TIP3    H126884   2.676   1.870   2.580  0.7130  0.3478 -0.2876
 1775TIP3    H226885   2.816   1.815   2.563  0.2756 -0.9515  0.2203
 1776TIP3   OH226886   5.861   6.414   1.004 -0.4631  0.0758  0.5141
 1776TIP3    H126887   5.837   6.489   1.059 -1.6839 -0.3639  0.5904
 1776TIP3    H226888   5.787   6.355   1.009  0.9190 -1.6830  1.3484
 1777TIP3   OH226889   3.709   5.920   7.919  0.1934 -0.3207 -0.3461
 1777TIP3    H126890   3.780   5.957   7.865  0.2067 -1.7104 -1.3209
 1777TIP3    H226891   3.749   5.844   7.962 -0.1606  0.0771  0.7232
 1778TIP3   OH226892   5.844   0.465   7.949  0.1691  0.6721 -0.1390
 1778TIP3    H126893   5.789   0.530   7.907 -0.2510 -1.0197 -2.3821
 1778TIP3    H226894   5.893   0.424   7.878 -0.4209 -2.2078  0.9526
 1779TIP3   OH226895   2.553   6.239   0.518  0.0217  0.0316  0.1370
 1779TIP3    H126896   2.540   6.280   0.432  0.9233  1.3539  0.5993
 1779TIP3    H226897   2.629   6.182   0.506 -1.5149 -1.9633 -0.6314
 1780TIP3   OH226898   4.738   1.706   8.479  0.6803 -0.6630  0.6018
 1780TIP3    H126899   4.800   1.764   8.524  1.4965 -1.8076  1.0173
 1780TIP3    H226900   4.656   1.716   8.527  0.9906 -0.3413  1.0716
 1781TIP3   OH226901   6.566   5.999   8.518  0.3420  0.0073 -0.3681
 1781TIP3    H126902   6.534   5.929   8.575 -1.7641  0.6777 -0.6263
 1781TIP3    H226903   6.585   5.956   8.435  1.4045 -0.6245  0.1822
 1782TIP3   OH226904   6.193   4.787   7.660  0.1571 -0.0204  0.4129
 1782TIP3    H126905   6.175   4.707   7.612  0.6803 -0.1103  0.3695
 1782TIP3    H226906   6.106   4.824   7.678 -0.0301  0.4104 -1.2641
 1783TIP3   OH226907   4.395   2.448   1.104 -0.5453  0.2637  0.3255
 1783TIP3    H126908   4.413   2.399   1.184 -0.2476 -1.2341 -0.6028
 1783TIP3    H226909   4.467   2.510   1.098 -1.1400  1.1296  1.7395
 1784TIP3   OH226910   3.868   1.032   1.852 -0.0460 -0.6831 -0.0350
 1784TIP3    H126911   3.902   1.037   1.763 -0.3106  1.1167 -0.0714
 1784TIP3    H226912   3.864   1.123   1.881  0.7435 -1.2725  2.0926
 1785TIP3   OH226913   3.142   3.049   1.404  0.2586 -0.2611  0.0888
 1785TIP3    H126914   3.164   3.084   1.317 -1.0895 -0.0757 -0.1948
 1785TIP3    H226915   3.056   3.085   1.423  0.0512 -1.2176  1.0159
 1786TIP3   OH226916   5.865   4.158   0.709 -0.0395 -0.8765 -0.1920
 1786TIP3    H126917   5.823   4.085   0.754  1.0615 -1.0963  0.5164
 1786TIP3    H226918   5.843   4.235   0.761 -0.9835 -0.7167 -0.7947
 1787TIP3   OH226919   4.380   6.655   2.555 -0.1191 -0.0877 -0.4809
 1787TIP3    H126920   4.303   6.612   2.593  0.1809  0.2561  0.5463
 1787TIP3    H226921   4.351   6.745   2.537 -0.0131 -0.0088 -0.2608
 1788TIP3   OH226922   3.219   3.194   2.607 -0.4587 -0.1114  0.4166
 1788TIP3    H126923   3.276   3.262   2.641 -1.4572  0.2974  1.3292
 1788TIP3    H226924   3.190   3.227   2.521 -1.7539  1.1351  1.2860
 1789TIP3   OH226925   1.825   4.277   2.743  0.5341 -0.4066 -0.2414
 1789TIP3    H126926   1.756   4.230   2.791  1.3783 -1.5487 -0.0985
 1789TIP3    H226927   1.784   4.304   2.661  0.8178 -4.3301 -1.8865
 1790TIP3   OH226928   5.493   4.681   0.396  0.0027 -0.6628  0.3782
 1790TIP3    H126929   5.516   4.589   0.405  1.2302 -0.3488  0.6325
 1790TIP3    H226930   5.412   4.681   0.344  0.6094 -1.8200 -0.6049
 1791TIP3   OH226931   2.060   4.112   8.228 -0.1018  0.3338  0.5827
 1791TIP3    H126932   2.111   4.108   8.147 -1.3633 -0.8065 -0.1892
 1791TIP3    H226933   2.126   4.120   8.297  1.0997 -0.5709 -0.4057
 1792TIP3   OH226934   6.718   5.503   8.249 -0.2384  0.4813  0.2516
 1792TIP3    H126935   6.726   5.414   8.284  0.6138  0.9257  1.2087
 1792TIP3    H226936   6.772   5.502   8.170 -0.0182  0.2259  0.4040
 1793TIP3   OH226937   2.087   5.410   2.507 -0.5403 -0.0734  0.1015
 1793TIP3    H126938   2.080   5.400   2.601 -2.1215  0.3431  0.0579
 1793TIP3    H226939   2.066   5.502   2.491 -0.5737 -0.2027 -0.6709
 1794TIP3   OH226940   2.729   1.330   0.673  0.2356  0.7793  0.1351
 1794TIP3    H126941   2.811   1.378   0.677  1.1436 -0.4975 -1.6959
 1794TIP3    H226942   2.718   1.293   0.761  2.4693 -0.3409  0.0123
 1795TIP3   OH226943   4.026   5.694   1.315  0.2020  0.2365 -0.2335
 1795TIP3    H126944   4.035   5.779   1.271 -1.6474  0.2226 -0.7171
 1795TIP3    H226945   3.947   5.704   1.368  0.4920 -0.8912  0.4164
 1796TIP3   OH226946   6.055   3.567   0.946 -0.0849  0.1032 -0.3140
 1796TIP3    H126947   6.020   3.637   0.890 -0.1340  0.0705 -0.3235
 1796TIP3    H226948   6.018   3.585   1.032 -2.4721 -1.5948 -0.9026
 1797TIP3   OH226949   6.507   3.714   1.828 -0.3421 -0.3425  0.6342
 1797TIP3    H126950   6.438   3.691   1.767 -1.2247  0.0852  1.4435
 1797TIP3    H226951   6.471   3.694   1.915  1.0348 -1.3427  1.0221
 1798TIP3   OH226952   2.001   6.474   1.339  0.1991 -0.0008  0.1373
 1798TIP3    H126953   2.050   6.399   1.307  0.4639  0.4189 -0.4719
 1798TIP3    H226954   1.914   6.464   1.301  0.8529  1.1330 -1.7886
 1799TIP3   OH226955   5.508   2.972   0.393  0.1766  0.1689 -0.1239
 1799TIP3    H126956   5.591   3.001   0.433  0.3193 -1.3143  0.7466
 1799TIP3    H226957   5.533   2.899   0.337 -0.2275  1.3697 -1.9371
 1800TIP3   OH226958   2.475   5.208   2.807  0.1956 -0.2220  0.9390
 1800TIP3    H126959   2.461   5.253   2.890  3.8188 -0.5727  1.9074
 1800TIP3    H226960   2.498   5.277   2.745 -1.4423 -0.0805  0.4386
 1801TIP3   OH226961   1.469   0.868   1.949  0.3886  0.3809  0.4707
 1801TIP3    H126962   1.512   0.951   1.927  0.7892  0.2202  0.6377
 1801TIP3    H226963   1.424   0.885   2.031  0.8914  0.2869  0.7653
 1802TIP3   OH226964   3.310   4.169   7.645 -0.4130  0.2135  0.6435
 1802TIP3    H126965   3.258   4.090   7.627 -0.6582  0.3112  0.9192
 1802TIP3    H226966   3.370   4.175   7.571 -1.2593  0.4881 -0.0466
 1803TIP3   OH226967   6.018   3.710   7.841  0.3607  0.3951  0.6139
 1803TIP3    H126968   5.925   3.696   7.859  0.1408  1.6150  0.4779
 1803TIP3    H226969   6.051   3.623   7.819 -0.6408 -0.1354  1.1209
 1804TIP3   OH226970   3.988   0.716   0.555 -0.1031  0.2830 -0.0742
 1804TIP3    H126971   4.028   0.802   0.565  0.5555 -0.1766  1.4890
 1804TIP3    H226972   4.018   0.666   0.631  0.2701 -1.6186 -1.3997
 1805TIP3   OH226973   0.458   4.707   1.863 -0.0039 -0.2320  0.0344
 1805TIP3    H126974   0.542   4.751   1.850 -0.0611 -0.1871 -0.1735
 1805TIP3    H226975   0.470   4.658   1.945  0.1967 -0.1604  0.0490
 1806TIP3   OH226976   0.219   5.790   7.476 -0.2103  0.3195  0.6712
 1806TIP3    H126977   0.230   5.880   7.507 -0.9635  0.3683  0.8333
 1806TIP3    H226978   0.125   5.784   7.454  0.2646  0.2842 -1.6100
 1807TIP3   OH226979   3.905   0.910   8.201 -0.2857 -0.2235  0.0651
 1807TIP3    H126980   3.951   0.972   8.258 -0.8899  0.5023 -0.2169
 1807TIP3    H226981   3.960   0.833   8.200 -0.8637 -0.7819  2.7079
 1808TIP3   OH226982   6.533   3.743   8.662  0.7306  0.4872 -0.3374
 1808TIP3    H126983   6.566   3.654   8.676  1.0920  0.5479 -0.7632
 1808TIP3    H226984   6.601   3.799   8.699 -0.8836  0.5736  2.7953
 1809TIP3   OH226985   5.116   4.269   0.858 -0.5422  0.2537  0.5297
 1809TIP3    H126986   5.153   4.316   0.783  0.0586 -0.2756  0.4803
 1809TIP3    H226987   5.116   4.332   0.929 -0.0899  0.4420  0.3662
 1810TIP3   OH226988   1.909   4.666   1.470 -0.1784 -0.5368  0.5680
 1810TIP3    H126989   1.964   4.742   1.488 -0.0117 -1.0601  2.5744
 1810TIP3    H226990   1.827   4.703   1.436  0.5127  0.3999 -0.1370
 1811TIP3   OH226991   3.590   5.539   0.860 -0.0848 -0.2886  0.1743
 1811TIP3    H126992   3.497   5.517   0.853 -0.6097  0.9177  2.2637
 1811TIP3    H226993   3.591   5.619   0.913  2.0854  0.5273 -0.9978
 1812TIP3   OH226994   0.478   3.898   1.708 -0.6629  0.3008 -0.2097
 1812TIP3    H126995   0.497   3.860   1.622  1.7626  2.7321 -0.8836
 1812TIP3    H226996   0.442   3.985   1.688  0.9745  1.3602  1.1726
 1813TIP3   OH226997   6.385   3.034   8.354  0.3284  0.2995  0.2912
 1813TIP3    H126998   6.294   3.022   8.382  0.3865 -0.3152  0.2317
 1813TIP3    H226999   6.435   3.034   8.435  0.2156  1.2958  0.3744
 1814TIP3   OH227000   1.334   3.272   0.553 -0.0365  0.1782  0.3035
 1814TIP3    H127001   1.254   3.320   0.575 -0.5842 -0.5637 -0.0002
 1814TIP3    H227002   1.306   3.180   0.549  1.0335 -0.2111  1.1520
 1815TIP3   OH227003   1.407   1.117   1.164 -0.4980  0.0393  0.2668
 1815TIP3    H127004   1.502   1.122   1.161 -0.4115 -1.4134 -2.2230
 1815TIP3    H227005   1.389   1.036   1.213 -0.3178 -1.0924 -1.4667
 1816TIP3   OH227006   1.500   6.301   2.812  0.5732 -0.3598 -0.6804
 1816TIP3    H127007   1.570   6.350   2.854  0.1624 -0.6505  0.3873
 1816TIP3    H227008   1.424   6.360   2.815  0.3302 -0.6818 -0.2519
 1817TIP3   OH227009   5.654   5.795   7.690 -0.0220 -0.1619  0.0832
 1817TIP3    H127010   5.567   5.819   7.724 -0.6186  1.0146 -2.0639
 1817TIP3    H227011   5.705   5.876   7.695  0.9729 -0.8263  1.2483
 1818TIP3   OH227012   4.294   2.504   2.413  0.1500  0.1268  0.1724
 1818TIP3    H127013   4.216   2.454   2.388  0.0793  0.9871 -1.4658
 1818TIP3    H227014   4.320   2.550   2.333  2.4328 -0.2294  0.6465
 1819TIP3   OH227015   6.299   6.082   8.792 -0.3283  0.0828  0.4031
 1819TIP3    H127016   6.222   6.031   8.816  1.4258 -2.6052  0.6765
 1819TIP3    H227017   6.297   6.086   8.696 -1.2218  0.7870  0.4412
 1820TIP3   OH227018   0.860   4.261   1.847 -0.7533  0.4344 -0.1625
 1820TIP3    H127019   0.953   4.280   1.850 -1.2134  3.0939 -0.5543
 1820TIP3    H227020   0.845   4.201   1.920  1.1518  0.4527  0.2819
 1821TIP3   OH227021   6.797   1.833   0.101  0.3079 -0.6357 -0.2157
 1821TIP3    H127022   6.863   1.840   0.169 -0.2710 -4.8002  1.0036
 1821TIP3    H227023   6.835   1.774   0.036 -1.1356 -0.9026 -0.8640
 1822TIP3   OH227024   4.305   6.186   8.480 -0.0972 -0.0013  0.8745
 1822TIP3    H127025   4.305   6.166   8.387  0.1272 -0.5583  0.9860
 1822TIP3    H227026   4.235   6.132   8.516 -1.9116  2.1003  0.6658
 1823TIP3   OH227027   1.868   1.022   1.884  0.0060 -0.6976 -0.2126
 1823TIP3    H127028   1.778   1.018   1.851  0.6267 -2.1143 -1.9305
 1823TIP3    H227029   1.891   0.931   1.903  0.5025 -0.1643  1.9923
 1824TIP3   OH227030   6.097   3.203   7.212  0.3031 -0.0307 -0.3565
 1824TIP3    H127031   6.017   3.180   7.259  0.0380 -1.1412 -1.3074
 1824TIP3    H227032   6.166   3.154   7.256  0.0366 -1.1669 -1.1714
 1825TIP3   OH227033   4.501   6.420   2.526  0.1424 -0.1409 -0.2610
 1825TIP3    H127034   4.465   6.507   2.509 -3.0952 -1.5684 -1.5647
 1825TIP3    H227035   4.463   6.395   2.610 -0.1806 -0.8152 -0.5963
 1826TIP3   OH227036   0.498   4.350   2.735 -0.1680 -0.3111 -0.0468
 1826TIP3    H127037   0.503   4.443   2.756 -1.2271 -0.3446  0.4270
 1826TIP3    H227038   0.539   4.306   2.809  0.1972 -0.2412 -0.2020
 1827TIP3   OH227039   1.235   5.589   2.058  0.1572  0.1777  0.4960
 1827TIP3    H127040   1.270   5.505   2.029 -0.5542 -0.4405  1.3808
 1827TIP3    H227041   1.217   5.637   1.977  0.8126 -0.4081 -0.0086
 1828TIP3   OH227042   5.472   5.595   3.052  0.2571  0.1521  0.3385
 1828TIP3    H127043   5.474   5.635   3.139 -0.7564  1.5552 -0.2562
 1828TIP3    H227044   5.388   5.549   3.049 -0.1337  0.8777 -0.2037
 1829TIP3   OH227045   5.415   4.312   0.307  0.7473  0.0392  0.1700
 1829TIP3    H127046   5.398   4.324   0.401 -0.5499  1.2605 -0.1873
 1829TIP3    H227047   5.332   4.280   0.272  0.7138  1.1279 -0.8070
 1830TIP3   OH227048   5.578   6.208   1.934 -0.0531 -0.2448 -0.4265
 1830TIP3    H127049   5.540   6.153   1.865 -1.0327 -0.3772  0.1953
 1830TIP3    H227050   5.632   6.147   1.985 -1.0671 -0.6377  0.2094
 1831TIP3   OH227051   5.893   0.110   7.399 -0.3456  0.1617  0.1671
 1831TIP3    H127052   5.961   0.046   7.420 -1.0801 -0.6056  0.2646
 1831TIP3    H227053   5.813   0.071   7.433 -1.0355  0.4725 -1.0597
 1832TIP3   OH227054   5.750   3.032   0.510  0.0572 -0.4079  0.0081
 1832TIP3    H127055   5.794   3.115   0.489 -0.3124 -0.4259 -0.8943
 1832TIP3    H227056   5.822   2.972   0.532  0.6948 -0.8617 -2.9037
 1833TIP3   OH227057   1.663   5.085   8.254  0.0093 -0.7497 -0.4960
 1833TIP3    H127058   1.657   4.991   8.239  2.0501 -1.1616  0.7620
 1833TIP3    H227059   1.651   5.095   8.349 -0.4004  0.2896 -0.6445
 1834TIP3   OH227060   6.708   5.997   8.076 -0.4741  0.3516 -0.1386
 1834TIP3    H127061   6.743   5.963   8.158 -1.9852 -0.4725  0.2051
 1834TIP3    H227062   6.741   5.936   8.009  0.1744  0.6094 -0.0575
 1835TIP3   OH227063   4.241   2.381   2.644 -0.3716 -0.1898  0.0886
 1835TIP3    H127064   4.306   2.391   2.714  1.5286 -1.7358 -1.3261
 1835TIP3    H227065   4.269   2.444   2.577 -1.4623  0.4323  0.2002
 1836TIP3   OH227066   2.200   1.858   8.234 -0.4946  0.5266 -0.0363
 1836TIP3    H127067   2.127   1.799   8.250  0.9479 -1.4219 -0.1800
 1836TIP3    H227068   2.187   1.930   8.295 -2.5488  0.2978 -0.1306
 1837TIP3   OH227069   3.182   0.403   0.827  0.5704 -0.0746  0.1317
 1837TIP3    H127070   3.158   0.464   0.897  0.3395  1.8798 -1.5353
 1837TIP3    H227071   3.276   0.416   0.815  0.7598 -0.9734  0.5679
 1838TIP3   OH227072   1.926   3.736   3.213 -0.0135  0.0305  0.0087
 1838TIP3    H127073   1.856   3.747   3.149  0.3778  0.4409 -0.3590
 1838TIP3    H227074   1.918   3.645   3.243 -1.1573  0.2811  0.5226
 1839TIP3   OH227075   3.554   1.328   7.987  0.2044 -0.3322  0.4010
 1839TIP3    H127076   3.570   1.313   7.893  3.5664  1.2707  0.5607
 1839TIP3    H227077   3.512   1.414   7.990 -1.1140 -0.9443  0.3779
 1840TIP3   OH227078   1.245   2.768   7.734 -1.0606 -0.3334 -1.0580
 1840TIP3    H127079   1.302   2.756   7.810  1.0149 -0.9757 -2.6109
 1840TIP3    H227080   1.218   2.679   7.710 -2.1346 -0.0897 -0.7726
 1841TIP3   OH227081   5.205   4.450   0.688 -0.0758  0.4967  0.1458
 1841TIP3    H127082   5.128   4.447   0.633 -0.1422 -1.6054  0.2750
 1841TIP3    H227083   5.279   4.440   0.627  0.0812  1.9648  0.0764
 1842TIP3   OH227084   5.461   5.057   8.464 -0.3434 -0.2107 -0.4081
 1842TIP3    H127085   5.404   5.075   8.390 -0.0084 -0.5604 -0.7573
 1842TIP3    H227086   5.516   5.135   8.472 -1.2462  0.3774  0.3011
 1843TIP3   OH227087   0.249   6.594   0.520  0.3392  0.3375  0.3394
 1843TIP3    H127088   0.199   6.513   0.529  0.6885 -0.1302 -1.6160
 1843TIP3    H227089   0.337   6.566   0.494  0.5716  1.3237 -0.0001
 1844TIP3   OH227090   1.790   0.867   2.698 -0.2265  0.4379  0.2594
 1844TIP3    H127091   1.718   0.891   2.757 -0.8187  0.2204 -0.3567
 1844TIP3    H227092   1.869   0.897   2.743 -0.6709  0.3645  1.1190
 1845TIP3   OH227093   6.174   3.212   7.521  0.1502 -0.3481 -0.1410
 1845TIP3    H127094   6.224   3.165   7.454 -1.8996 -0.1388 -1.9398
 1845TIP3    H227095   6.084   3.212   7.488 -0.4292  2.4042  1.1402
 1846TIP3   OH227096   4.296   4.555   0.171  0.7033 -0.4450  0.3532
 1846TIP3    H127097   4.215   4.513   0.141  1.9720 -2.1436 -0.9285
 1846TIP3    H227098   4.267   4.617   0.237 -1.5560 -1.7015  0.6794
 1847TIP3   OH227099   2.392   1.880   0.643 -0.0542 -0.8184 -0.0578
 1847TIP3    H127100   2.373   1.787   0.653 -0.4072 -0.7545 -0.1459
 1847TIP3    H227101   2.388   1.914   0.733 -0.7697 -0.7264 -0.1180
 1848TIP3   OH227102   0.331   2.413   0.470 -0.1456 -0.6221 -0.4462
 1848TIP3    H127103   0.264   2.368   0.522  0.6809 -2.5085 -0.9149
 1848TIP3    H227104   0.313   2.386   0.380  0.1915  0.2646 -0.7865
 1849TIP3   OH227105   3.404   6.326   1.649 -0.2224  0.3935  0.1041
 1849TIP3    H127106   3.461   6.300   1.577 -1.2686 -2.0126  0.0406
 1849TIP3    H227107   3.448   6.293   1.728 -1.0793 -0.7365  0.1315
 1850TIP3   OH227108   0.362   5.435   1.730 -0.2284  0.2735 -0.3224
 1850TIP3    H127109   0.336   5.515   1.775 -0.6945  0.0155 -0.1268
 1850TIP3    H227110   0.349   5.455   1.637  0.6863  0.7866 -0.3618
 1851TIP3   OH227111   4.346   3.066   0.492 -0.4190  0.5368  0.0931
 1851TIP3    H127112   4.315   3.030   0.576 -0.4060 -1.5549 -0.7264
 1851TIP3    H227113   4.275   3.047   0.430  0.5942 -0.2332 -0.8691
 1852TIP3   OH227114   4.635   3.114   2.210  0.3598 -0.3632 -0.0125
 1852TIP3    H127115   4.550   3.089   2.174 -1.0386  1.9289  1.4828
 1852TIP3    H227116   4.648   3.056   2.285  0.0792 -0.6211 -0.1611
 1853TIP3   OH227117   5.476   5.323   2.335 -0.2509 -0.1981 -0.4851
 1853TIP3    H127118   5.392   5.312   2.380  0.5738  0.7602  1.3648
 1853TIP3    H227119   5.536   5.265   2.382  0.8998  1.6894  0.4500
 1854TIP3   OH227120   2.752   3.188   8.254  0.4788  0.4492 -0.3656
 1854TIP3    H127121   2.662   3.193   8.224  0.7615  0.9347 -1.1700
 1854TIP3    H227122   2.780   3.099   8.232  0.0269  0.1017  0.4180
 1855TIP3   OH227123   1.960   0.416   1.562  0.0221  0.7483 -0.3330
 1855TIP3    H127124   1.989   0.425   1.652 -0.3268  0.8571 -0.2277
 1855TIP3    H227125   1.889   0.479   1.553  0.6730  1.4096 -0.9568
 1856TIP3   OH227126   1.494   0.609   1.029  0.1008  0.2186 -0.0696
 1856TIP3    H127127   1.532   0.554   0.960  1.6764 -1.8033  2.2298
 1856TIP3    H227128   1.499   0.698   0.995  0.2577 -0.7203 -2.7539
 1857TIP3   OH227129   3.058   4.727   7.524  0.0576  0.2163  0.4316
 1857TIP3    H127130   3.141   4.762   7.489  1.0450 -1.6323  0.8158
 1857TIP3    H227131   3.041   4.649   7.472 -0.8411 -0.0691  1.1334
 1858TIP3   OH227132   0.960   2.882   0.512  0.0139  0.1534  0.1303
 1858TIP3    H127133   1.009   2.802   0.492  1.3721  0.8245  0.6499
 1858TIP3    H227134   0.881   2.852   0.556 -1.6406 -1.1907 -3.3576
 1859TIP3   OH227135   3.563   4.760   1.537  0.1776  0.3699  0.1688
 1859TIP3    H127136   3.620   4.684   1.533  0.1101  0.3654 -1.8035
 1859TIP3    H227137   3.622   4.835   1.539  0.2526  0.3278 -0.4328
 1860TIP3   OH227138   3.560   4.806   1.837  0.1742 -0.4856 -0.4414
 1860TIP3    H127139   3.586   4.757   1.759 -1.6941 -0.9669 -0.8036
 1860TIP3    H227140   3.591   4.895   1.820  1.0553 -0.8930 -1.0686
 1861TIP3   OH227141   3.718   2.669   8.511 -0.1325  0.3605  0.0684
 1861TIP3    H127142   3.672   2.665   8.427  0.8569  0.1469 -0.4805
 1861TIP3    H227143   3.648   2.678   8.576 -1.0385 -1.2283 -0.6164
 1862TIP3   OH227144   4.818   6.288   2.485  0.3926  0.6714  0.3857
 1862TIP3    H127145   4.777   6.250   2.407 -0.6621  2.6395 -0.0840
 1862TIP3    H227146   4.902   6.243   2.492  0.0482 -0.3157 -1.2528
 1863TIP3   OH227147   6.271   5.973   2.602  0.3220 -0.3885 -0.2511
 1863TIP3    H127148   6.205   6.028   2.561  1.2396 -0.0930 -1.3668
 1863TIP3    H227149   6.286   5.902   2.540 -1.9563 -2.8814  1.8046
 1864TIP3   OH227150   5.426   4.489   8.619 -0.0652 -0.2554  0.1540
 1864TIP3    H127151   5.392   4.413   8.666 -0.1641 -0.9295 -0.9677
 1864TIP3    H227152   5.416   4.466   8.526 -0.3238  1.2188 -0.2135
 1865TIP3   OH227153   0.263   0.163   8.017  0.4001  0.6750 -0.3253
 1865TIP3    H127154   0.324   0.092   8.038 -2.0884 -1.8534 -1.0523
 1865TIP3    H227155   0.306   0.211   7.947  2.9299  1.0528  1.3420
 1866TIP3   OH227156   2.922   3.691   2.421 -0.0805  0.2971  0.4476
 1866TIP3    H127157   2.876   3.719   2.501 -0.9182 -0.1117  0.1185
 1866TIP3    H227158   2.988   3.758   2.407 -1.2256  1.4447  0.3740
 1867TIP3   OH227159   4.007   3.025   8.272  0.1688 -0.1006  0.4276
 1867TIP3    H127160   3.929   2.985   8.232  2.0116 -3.4085 -0.1908
 1867TIP3    H227161   4.020   2.977   8.354  2.6025 -1.0566 -0.4328
 1868TIP3   OH227162   0.413   4.431   8.648  0.2827  0.0439 -0.1229
 1868TIP3    H127163   0.448   4.488   8.580 -0.8262  0.9713  0.0648
 1868TIP3    H227164   0.349   4.485   8.695 -0.3632 -1.1634  0.4350
 1869TIP3   OH227165   1.930   5.590   8.403  0.1961  0.6671  0.0106
 1869TIP3    H127166   1.839   5.618   8.412  0.0354  0.4651 -0.9163
 1869TIP3    H227167   1.965   5.597   8.492 -0.9736 -0.1437  0.5657
 1870TIP3   OH227168   0.953   6.798   7.053  0.8800  0.1397 -0.0653
 1870TIP3    H127169   0.938   6.704   7.065  0.4940  0.1655 -0.3305
 1870TIP3    H227170   1.044   6.811   7.080 -0.0132  0.2862  3.4525
 1871TIP3   OH227171   5.608   4.163   6.930 -0.3547 -0.1738 -0.1284
 1871TIP3    H127172   5.677   4.223   6.960 -2.2858  1.3064  1.6158
 1871TIP3    H227173   5.630   4.079   6.969  0.5769  0.2100  0.2073
 1872TIP3   OH227174   5.214   5.637   2.215 -0.3002  0.3776  0.3879
 1872TIP3    H127175   5.224   5.731   2.229 -0.8090  0.2643  1.5982
 1872TIP3    H227176   5.134   5.614   2.262  0.1129 -0.7586  0.5629
 1873TIP3   OH227177   2.969   2.115   1.775 -0.3390 -0.0006  0.0739
 1873TIP3    H127178   2.939   2.138   1.687 -0.1145 -0.3667 -0.1050
 1873TIP3    H227179   3.036   2.180   1.795 -0.4797  0.1593  0.0225
 1874TIP3   OH227180   2.398   5.186   0.239  0.2225 -0.7166  0.2753
 1874TIP3    H127181   2.465   5.176   0.171  1.1272 -0.5983  1.1194
 1874TIP3    H227182   2.393   5.100   0.281 -0.0994 -0.7021  0.2717
 1875TIP3   OH227183   3.690   4.449   0.502 -0.2655 -0.9483  0.1154
 1875TIP3    H127184   3.622   4.383   0.492 -0.5477 -1.2136  2.8984
 1875TIP3    H227185   3.642   4.529   0.524  0.2151 -0.4993 -0.4462
 1876TIP3   OH227186   6.049   5.788   2.337 -0.2039 -0.3671  0.0564
 1876TIP3    H127187   5.991   5.734   2.282  1.6214  0.2046 -2.6409
 1876TIP3    H227188   6.077   5.729   2.407  1.2132 -2.8934 -2.4136
 1877TIP3   OH227189   4.501   0.700   2.030  0.2633  0.4813  0.4695
 1877TIP3    H127190   4.534   0.648   2.103  0.8752  1.2314  0.7460
 1877TIP3    H227191   4.525   0.650   1.952  2.6058  1.2190  0.6256
 1878TIP3   OH227192   5.035   0.780   2.436  0.4921  0.1793 -0.6368
 1878TIP3    H127193   5.042   0.868   2.400 -0.3071  0.6039  0.1965
 1878TIP3    H227194   5.105   0.775   2.502  0.5458  0.1860 -0.6933
 1879TIP3   OH227195   4.789   4.696   0.181  0.3178 -0.1357 -0.4453
 1879TIP3    H127196   4.693   4.697   0.183  0.3185  0.6566 -0.6399
 1879TIP3    H227197   4.811   4.651   0.099  0.1204 -0.4173 -0.3476
 1880TIP3   OH227198   6.645   4.990   2.021  0.4058 -0.2677  0.3028
 1880TIP3    H127199   6.605   5.030   1.944  1.2799  0.1501  0.0665
 1880TIP3    H227200   6.602   4.904   2.028 -2.3293  1.0414  1.4642
 1881TIP3   OH227201   0.767   2.441   0.413 -0.6643 -0.2423  0.4236
 1881TIP3    H127202   0.723   2.483   0.339 -1.2627 -1.6854 -0.0738
 1881TIP3    H227203   0.701   2.442   0.483 -0.9151 -0.9418  0.1989
 1882TIP3   OH227204   0.956   4.151   2.695  0.3897 -0.0719 -0.0203
 1882TIP3    H127205   0.999   4.228   2.657  0.5207 -0.2340 -0.1972
 1882TIP3    H227206   0.903   4.116   2.624  1.1193 -0.7428 -0.2455
 1883TIP3   OH227207   5.057   3.445   1.372  0.4726 -0.4444 -0.3148
 1883TIP3    H127208   5.078   3.523   1.423 -0.4319  0.7524 -1.6888
 1883TIP3    H227209   5.066   3.372   1.434 -0.9961  0.9676  1.6462
 1884TIP3   OH227210   4.571   5.251   7.815 -0.4200  0.1267 -0.7764
 1884TIP3    H127211   4.638   5.295   7.763 -0.5796  0.0018 -1.0895
 1884TIP3    H227212   4.590   5.158   7.805  1.3039  0.1030  1.6921
 1885TIP3   OH227213   1.554   1.454   2.699 -0.0993 -0.0023 -0.1374
 1885TIP3    H127214   1.537   1.404   2.779  0.6386  0.3252  0.2341
 1885TIP3    H227215   1.572   1.543   2.730  0.7441  0.0075 -0.6234
 1886TIP3   OH227216   3.768   3.817   1.408  0.4582 -0.2172 -0.1262
 1886TIP3    H127217   3.859   3.837   1.430  0.2642 -0.5189  0.9996
 1886TIP3    H227218   3.724   3.902   1.405  0.3829 -0.1997  1.1807
 1887TIP3   OH227219   1.570   0.801   2.296  0.7652 -0.4651  0.2700
 1887TIP3    H127220   1.564   0.874   2.357  0.5428 -1.9768  2.1585
 1887TIP3    H227221   1.505   0.821   2.229  2.0040  1.9416 -0.3178
 1888TIP3   OH227222   2.275   4.922   8.225  0.0646  0.1355 -0.3719
 1888TIP3    H127223   2.240   5.001   8.183  4.3343  2.6993  0.3222
 1888TIP3    H227224   2.273   4.855   8.157  1.3966  2.4916 -2.9049
 1889TIP3   OH227225   6.367   6.363   8.800 -0.0472  0.5239  0.0500
 1889TIP3    H127226   6.323   6.280   8.780 -0.9015  1.3063 -1.5415
 1889TIP3    H227227   6.424   6.378   8.724  0.9464  0.8733  0.8404
 1890TIP3   OH227228   0.654   5.737   1.023 -0.1108  0.1834 -0.5406
 1890TIP3    H127229   0.675   5.681   1.097 -0.0168  3.2206  1.9464
 1890TIP3    H227230   0.561   5.722   1.006  0.4816 -2.6338 -1.8750
 1891TIP3   OH227231   5.252   5.976   2.591 -0.3185 -0.1453  0.1917
 1891TIP3    H127232   5.316   6.045   2.603 -0.7236  0.2724 -0.0289
 1891TIP3    H227233   5.303   5.899   2.566  0.2288 -0.1853  1.3573
 1892TIP3   OH227234   6.017   4.088   1.451 -0.1276  0.3122  0.0819
 1892TIP3    H127235   5.922   4.092   1.442 -0.1706 -2.1955 -1.6242
 1892TIP3    H227236   6.036   3.995   1.459  2.0677  0.8888  2.8120
 1893TIP3   OH227237   4.796   2.760   0.692  0.3836  0.2333 -0.3989
 1893TIP3    H127238   4.723   2.760   0.629  0.0969  0.4772 -0.0685
 1893TIP3    H227239   4.777   2.833   0.750  1.4796  0.9892 -0.9797
 1894TIP3   OH227240   1.957   2.315   1.463  0.2211 -0.5865  0.2136
 1894TIP3    H127241   1.926   2.400   1.495  1.7629  0.2500 -0.3597
 1894TIP3    H227242   1.958   2.259   1.541 -2.0039 -0.4910  0.3607
 1895TIP3   OH227243   3.681   4.545   1.249  0.4073 -0.3861  0.0834
 1895TIP3    H127244   3.672   4.516   1.340 -4.9103 -1.6285 -0.5066
 1895TIP3    H227245   3.650   4.635   1.250 -0.0289 -0.5287 -0.5304
 1896TIP3   OH227246   6.181   0.319   0.161 -0.1234  0.3451 -0.4386
 1896TIP3    H127247   6.156   0.268   0.084  2.2052 -0.1904 -0.9099
 1896TIP3    H227248   6.142   0.272   0.235  0.5866 -1.1929 -1.0100
 1897TIP3   OH227249   2.783   1.099   2.826 -0.0174  0.0348  0.0880
 1897TIP3    H127250   2.856   1.149   2.862 -0.6061  1.4956 -0.7070
 1897TIP3    H227251   2.825   1.030   2.774  0.8225  1.1967 -0.8237
 1898TIP3   OH227252   4.989   2.070   2.847  0.0811  0.5789 -0.3645
 1898TIP3    H127253   5.012   2.030   2.932 -1.1337 -0.1387 -0.3536
 1898TIP3    H227254   4.897   2.048   2.834  0.7307 -1.0539 -2.8207
 1899TIP3   OH227255   1.302   3.204   2.460  0.0289  0.4702  0.3270
 1899TIP3    H127256   1.207   3.205   2.445  0.3852  2.0520 -2.4517
 1899TIP3    H227257   1.315   3.265   2.532 -1.0551  0.1456  0.8222
 1900TIP3   OH227258   2.290   2.269   1.089  0.5477  0.1893 -0.0426
 1900TIP3    H127259   2.351   2.240   1.157 -0.6918 -1.8931  0.2473
 1900TIP3    H227260   2.229   2.327   1.135  1.0040  0.5529  0.1183
 1901TIP3   OH227261   3.583   5.396   2.097 -0.5549  0.3415  0.4750
 1901TIP3    H127262   3.668   5.441   2.095 -1.4667  2.1256  0.2155
 1901TIP3    H227263   3.574   5.359   2.009  0.1072 -0.2019  0.6255
 1902TIP3   OH227264   0.963   2.565   0.596  0.5372  0.0317  0.5956
 1902TIP3    H127265   0.975   2.480   0.637  1.4072  0.5025  1.3439
 1902TIP3    H227266   0.911   2.547   0.518 -0.5928 -0.9648  1.5562
 1903TIP3   OH227267   2.874   5.945   1.624 -0.0111 -0.5451  0.2221
 1903TIP3    H127268   2.779   5.948   1.639 -0.0037 -1.3483  0.4556
 1903TIP3    H227269   2.891   6.020   1.567 -0.6530  0.1482  0.8975
 1904TIP3   OH227270   0.960   6.733   1.403 -0.0485  0.1034 -0.3249
 1904TIP3    H127271   0.912   6.753   1.484  0.5468  1.3104 -0.2514
 1904TIP3    H227272   1.045   6.702   1.433 -0.8615 -2.5063 -0.4432
 1905TIP3   OH227273   4.915   2.315   0.403  0.2636 -0.0429 -0.6848
 1905TIP3    H127274   4.986   2.250   0.411  2.0598  1.9174  0.2669
 1905TIP3    H227275   4.901   2.346   0.492 -2.3574 -0.8529 -0.7431
 1906TIP3   OH227276   3.029   3.442   2.513 -0.1948  0.1914  0.2164
 1906TIP3    H127277   2.975   3.511   2.474  1.8100  2.4086  1.1247
 1906TIP3    H227278   3.079   3.486   2.581  0.4390 -2.4231  1.5696
 1907TIP3   OH227279   6.626   0.339   0.054 -0.6075  0.5775 -0.4964
 1907TIP3    H127280   6.651   0.246   0.058  1.6477  1.1420  0.1905
 1907TIP3    H227281   6.588   0.350  -0.033 -0.5453 -0.9104 -0.7337
 1908TIP3   OH227282   1.415   3.488   0.217  0.1708 -0.5613 -0.3734
 1908TIP3    H127283   1.350   3.449   0.276  0.8447  0.5462  1.1475
 1908TIP3    H227284   1.372   3.565   0.180  0.7206  0.4134  0.9584
 1909TIP3   OH227285   6.770   2.669   2.493 -0.7325  0.1251 -0.5595
 1909TIP3    H127286   6.839   2.731   2.516  0.3059 -1.8860  2.3587
 1909TIP3    H227287   6.691   2.704   2.533 -0.4790  0.3056 -0.2138
 1910TIP3   OH227288   6.531   0.101   3.010  0.1669 -0.6963  0.0213
 1910TIP3    H127289   6.553   0.077   3.100  0.0819 -0.8144  0.0110
 1910TIP3    H227290   6.612   0.139   2.975  0.3376 -1.0653  0.0052
 1911TIP3   OH227291   2.326   5.676   3.254  0.0206 -0.2890  0.5836
 1911TIP3    H127292   2.266   5.604   3.238  0.6536 -0.3167 -2.0257
 1911TIP3    H227293   2.406   5.652   3.208  2.3543 -0.4706  4.2751
 1912TIP3   OH227294   0.978   3.492   1.520  0.3935  0.4866  0.3683
 1912TIP3    H127295   0.888   3.521   1.503 -0.1558 -0.4795  1.4588
 1912TIP3    H227296   1.018   3.565   1.567 -0.0651  0.6361  0.5354
 1913TIP3   OH227297   5.972   5.731   3.710 -0.4982  0.6902 -0.2491
 1913TIP3    H127298   6.010   5.806   3.665  0.5945  0.7814  0.7788
 1913TIP3    H227299   6.047   5.678   3.736 -1.2678 -1.4596 -2.0557
 1914TIP3   OH227300   4.443   2.633   2.881  0.2976  0.3636 -0.2830
 1914TIP3    H127301   4.365   2.654   2.829  0.9220  2.3576 -0.4629
 1914TIP3    H227302   4.448   2.537   2.877 -1.9833  0.1924 -0.4760
 1915TIP3   OH227303   5.355   3.834   8.429  0.2433  0.4258 -0.5079
 1915TIP3    H127304   5.388   3.793   8.509 -1.3035 -2.4532 -1.2061
 1915TIP3    H227305   5.346   3.927   8.452 -0.0753 -0.2522  2.6233
 1916TIP3   OH227306   0.327   0.088   2.551  0.1310  0.4104  0.6693
 1916TIP3    H127307   0.362   0.171   2.521  1.1729 -0.7440 -1.5493
 1916TIP3    H227308   0.401   0.043   2.591  0.1002 -0.2721 -0.0217
 1917TIP3   OH227309   3.918   5.250   7.890 -0.1393  0.5587 -0.0230
 1917TIP3    H127310   3.823   5.259   7.888 -0.0203  2.9515  1.2168
 1917TIP3    H227311   3.949   5.310   7.822  0.5183 -0.5949 -0.7859
 1918TIP3   OH227312   3.194   6.178   3.117  0.1587  0.6956 -0.1302
 1918TIP3    H127313   3.109   6.170   3.160  0.9491 -0.8958  1.2288
 1918TIP3    H227314   3.252   6.120   3.166  1.9984  1.5645 -1.1573
 1919TIP3   OH227315   0.859   0.256   2.190  0.2607 -0.2015  0.1215
 1919TIP3    H127316   0.954   0.243   2.182  0.5163  1.5688 -0.1337
 1919TIP3    H227317   0.826   0.172   2.222  2.1418 -0.3423  1.9396
 1920TIP3   OH227318   6.140   0.445   8.665 -0.1049 -0.1075  0.1974
 1920TIP3    H127319   6.224   0.461   8.620  0.2345 -0.2448  0.7700
 1920TIP3    H227320   6.128   0.351   8.661  0.5106 -0.2587  1.3927
 1921TIP3   OH227321   2.133   3.284   2.775 -0.1759 -0.2355 -0.1230
 1921TIP3    H127322   2.120   3.193   2.803  0.5979 -0.0431  0.9447
 1921TIP3    H227323   2.063   3.332   2.818 -0.5067 -0.2995 -0.5829
 1922TIP3   OH227324   5.351   3.387   8.729  0.0009  0.7617 -0.1442
 1922TIP3    H127325   5.255   3.391   8.724 -0.0966 -0.3791  0.4912
 1922TIP3    H227326   5.370   3.295   8.749  1.1691  1.2225  0.9591
 1923TIP3   OH227327   0.185   1.471   2.430  1.0616 -0.0458 -0.2252
 1923TIP3    H127328   0.165   1.554   2.474  2.5894 -0.5337  1.5235
 1923TIP3    H227329   0.233   1.420   2.495  1.1770 -1.8665 -1.6426
 1924TIP3   OH227330   5.579   2.283   1.747 -0.0008 -0.0795  0.2010
 1924TIP3    H127331   5.615   2.215   1.690 -0.0089 -0.4678  0.6566
 1924TIP3    H227332   5.599   2.253   1.836 -0.1441  0.4352  0.4105
 1925TIP3   OH227333   4.473   4.396   2.617  0.1290 -0.1955  0.2650
 1925TIP3    H127334   4.521   4.410   2.698  1.5218  0.3908 -0.6264
 1925TIP3    H227335   4.503   4.465   2.558  1.5416 -2.3779 -1.7791
 1926TIP3   OH227336   0.282   6.093   8.592 -0.1486  0.2622  0.3166
 1926TIP3    H127337   0.355   6.044   8.630 -1.7064 -2.1773  0.4017
 1926TIP3    H227338   0.232   6.124   8.668  0.5923  1.6729  0.2567
 1927TIP3   OH227339   0.353   4.256   2.280 -0.2146  0.6526 -0.3990
 1927TIP3    H127340   0.374   4.228   2.369 -1.6796 -0.9119 -0.5113
 1927TIP3    H227341   0.290   4.192   2.248  0.0391  1.3488 -2.4736
 1928TIP3   OH227342   2.558   0.688   3.297 -0.4063  0.0815  0.6422
 1928TIP3    H127343   2.573   0.686   3.392  0.3738 -2.1203  0.5134
 1928TIP3    H227344   2.551   0.596   3.271 -1.1591  0.6503 -1.3747
 1929TIP3   OH227345   1.393   0.274   7.015  0.1867  0.2595 -0.2495
 1929TIP3    H127346   1.351   0.359   7.004 -0.2510  0.2627  1.2181
 1929TIP3    H227347   1.375   0.227   6.933 -0.7655  1.0645 -0.5135
 1930TIP3   OH227348   0.587   3.600   1.620 -0.3476  0.1415  0.6048
 1930TIP3    H127349   0.647   3.531   1.592  0.2366 -0.3114  2.8002
 1930TIP3    H227350   0.510   3.590   1.563  1.0711 -0.1121 -1.3619
 1931TIP3   OH227351   1.707   1.964   0.632 -0.2019  0.2924  0.1609
 1931TIP3    H127352   1.659   1.997   0.556 -1.1521 -1.7893 -0.2427
 1931TIP3    H227353   1.799   1.977   0.611 -0.4964  1.0133 -0.7283
 1932TIP3   OH227354   2.397   5.413   1.195  0.6318 -0.0918 -0.4874
 1932TIP3    H127355   2.436   5.426   1.281  1.4955 -1.4741 -0.6369
 1932TIP3    H227356   2.407   5.497   1.150 -1.0448  1.0804  1.1883
 1933TIP3   OH227357   4.398   6.478   0.173  0.3220 -0.3209 -0.0352
 1933TIP3    H127358   4.403   6.519   0.087 -1.0239 -1.3350 -0.6330
 1933TIP3    H227359   4.336   6.533   0.222  1.6099  0.6535  0.5490
 1934TIP3   OH227360   1.956   1.721   1.461  0.3560 -0.4654 -0.1477
 1934TIP3    H127361   1.950   1.653   1.394  2.2743 -0.2634 -0.6070
 1934TIP3    H227362   1.978   1.674   1.541  2.2658 -0.4250 -0.5820
 1935TIP3   OH227363   6.252   1.924   8.091  0.1458 -0.1577 -0.3902
 1935TIP3    H127364   6.169   1.949   8.133  0.0357 -0.4001 -0.4596
 1935TIP3    H227365   6.243   1.952   8.001  0.6913  1.0700 -0.0804
 1936TIP3   OH227366   3.542   2.645   8.275  0.5925 -0.2547  0.4059
 1936TIP3    H127367   3.536   2.556   8.309  1.1032 -0.7296 -0.7072
 1936TIP3    H227368   3.455   2.664   8.239  1.0280 -1.0735 -1.1590
 1937TIP3   OH227369   5.858   5.448   7.337 -0.1557 -0.7612 -0.6048
 1937TIP3    H127370   5.785   5.494   7.377  1.1706  1.0910 -0.2100
 1937TIP3    H227371   5.828   5.357   7.329 -2.6199  0.0154 -0.8369
 1938TIP3   OH227372   3.304   4.628   2.378 -0.1138  0.7845  0.5114
 1938TIP3    H127373   3.291   4.718   2.347 -0.4182  0.0480 -1.6476
 1938TIP3    H227374   3.381   4.633   2.435 -1.3515  2.7537  2.1638
 1939TIP3   OH227375   2.492   0.209   0.630  0.0378 -0.5773  1.1993
 1939TIP3    H127376   2.517   0.195   0.721  0.2415 -3.5066  0.7676
 1939TIP3    H227377   2.397   0.196   0.629  0.2035 -1.8605  0.8147
 1940TIP3   OH227378   0.924   1.480   1.985  0.5926  0.0883  0.5412
 1940TIP3    H127379   1.002   1.472   1.930 -0.7408  2.6549 -1.9881
 1940TIP3    H227380   0.948   1.543   2.053  0.5809  1.4750 -0.6908
 1941TIP3   OH227381   1.448   5.872   7.239 -0.2865  0.1685 -0.4023
 1941TIP3    H127382   1.471   5.926   7.164  0.4384 -0.7247 -0.8445
 1941TIP3    H227383   1.461   5.782   7.209 -0.8960 -0.2429  0.4963
 1942TIP3   OH227384   4.652   5.509   1.162  0.3030  0.2982  0.4742
 1942TIP3    H127385   4.605   5.508   1.244  1.3127  0.5655  1.0760
 1942TIP3    H227386   4.716   5.439   1.170  1.1039  0.9928  0.3534
 1943TIP3   OH227387   5.274   3.280   0.729  0.0318 -0.0780  0.2022
 1943TIP3    H127388   5.323   3.271   0.647  0.4113  1.3719  0.2362
 1943TIP3    H227389   5.240   3.369   0.727 -0.6889 -0.3120  1.2305
 1944TIP3   OH227390   5.628   6.099   1.431  0.8065  0.6172  0.7934
 1944TIP3    H127391   5.699   6.036   1.448 -1.1473 -2.2858 -1.0618
 1944TIP3    H227392   5.646   6.134   1.344 -0.4891 -0.8951 -0.1202
 1945TIP3   OH227393   0.398   1.763   8.807 -0.1109 -0.3367 -0.6483
 1945TIP3    H127394   0.356   1.837   8.851  2.0801 -0.1840  1.3807
 1945TIP3    H227395   0.419   1.702   8.877 -0.8683 -2.4229 -2.1499
 1946TIP3   OH227396   4.357   5.691   8.756  0.1036  0.0178  0.4473
 1946TIP3    H127397   4.442   5.698   8.712  0.0496  1.0854  0.4810
 1946TIP3    H227398   4.360   5.607   8.802  0.5971 -0.5953 -0.6730
 1947TIP3   OH227399   0.245   6.367   2.485 -0.0880  0.3346  0.6554
 1947TIP3    H127400   0.326   6.417   2.482  0.2926 -0.3369 -0.7553
 1947TIP3    H227401   0.259   6.293   2.427 -2.1213  0.8305 -0.5958
 1948TIP3   OH227402   0.070   0.397   8.477 -0.9553 -0.5299  0.0382
 1948TIP3    H127403   0.024   0.315   8.462 -1.9188  0.3620 -2.4478
 1948TIP3    H227404   0.011   0.447   8.535 -1.5313 -0.6863 -0.4023
 1949TIP3   OH227405   6.171   2.615   0.185 -0.1909  0.6950  0.2654
 1949TIP3    H127406   6.118   2.692   0.165 -0.7645  0.6268  1.4760
 1949TIP3    H227407   6.143   2.549   0.121 -0.0042  1.3433 -0.4982
 1950TIP3   OH227408   5.039   2.743   2.127  0.0542 -0.0634 -0.4943
 1950TIP3    H127409   5.015   2.827   2.087  1.9747  1.6706  1.7073
 1950TIP3    H227410   5.110   2.710   2.073 -0.1780  0.1046 -0.9123
 1951TIP3   OH227411   6.093   1.220   0.705 -0.2482  0.0757  0.3340
 1951TIP3    H127412   6.092   1.153   0.773 -2.6706  1.2385  1.5755
 1951TIP3    H227413   6.150   1.185   0.637 -0.2664 -2.5609  1.5706
 1952TIP3   OH227414   5.582   5.308   8.061 -0.4333 -0.1036 -0.4096
 1952TIP3    H127415   5.618   5.232   8.108  0.9636 -0.6259 -2.2337
 1952TIP3    H227416   5.548   5.272   7.979 -0.5148  1.1306 -0.9446
 1953TIP3   OH227417   4.006   1.924   1.826  0.5325  0.3884  0.6487
 1953TIP3    H127418   4.036   1.836   1.852  3.2494  0.7697 -0.7946
 1953TIP3    H227419   3.985   1.915   1.733  2.8135  1.6180 -0.0536
 1954TIP3   OH227420   0.100   6.626   1.069 -0.0829 -0.1430  0.4586
 1954TIP3    H127421   0.026   6.566   1.076 -0.7312  0.6187  0.2274
 1954TIP3    H227422   0.095   6.659   0.979  1.5752 -1.4026 -0.1425
 1955TIP3   OH227423   2.801   4.821   0.580  0.0789  0.1124  0.0414
 1955TIP3    H127424   2.849   4.738   0.578  0.2066  0.1765  0.4490
 1955TIP3    H227425   2.717   4.800   0.621 -0.7674 -0.2639 -1.7709
 1956TIP3   OH227426   4.692   6.316   1.554 -0.2100  0.0250  0.2671
 1956TIP3    H127427   4.698   6.225   1.526  1.8066 -0.5607  2.2740
 1956TIP3    H227428   4.782   6.343   1.571 -0.8997  1.7383  1.6212
 1957TIP3   OH227429   2.812   0.323   3.190 -0.1298  0.2224 -0.5089
 1957TIP3    H127430   2.889   0.300   3.241 -0.4137  0.1199 -0.1217
 1957TIP3    H227431   2.836   0.404   3.145 -0.4733  1.2774  1.1248
 1958TIP3   OH227432   2.544   1.500   7.665  0.2497 -0.2926  1.2383
 1958TIP3    H127433   2.524   1.530   7.754  0.0165 -1.8867  1.7575
 1958TIP3    H227434   2.477   1.434   7.647 -0.8325  1.2645 -0.8545
 1959TIP3   OH227435   0.978   4.205   0.006  0.2608 -0.3339  0.2260
 1959TIP3    H127436   0.959   4.294  -0.024  0.8041  0.3025  1.6371
 1959TIP3    H227437   1.000   4.156  -0.073 -1.2710  0.4509 -0.7208
 1960TIP3   OH227438   3.261   3.195   8.600  0.2090 -0.1529  0.4546
 1960TIP3    H127439   3.337   3.248   8.622 -0.2936  0.4236  0.8501
 1960TIP3    H227440   3.189   3.235   8.649 -0.6314  0.1845 -1.0033
 1961TIP3   OH227441   2.003   3.579   7.808 -0.1946 -0.6690  0.1105
 1961TIP3    H127442   2.028   3.575   7.900  0.4966 -0.1298 -0.0432
 1961TIP3    H227443   1.933   3.644   7.804 -0.2813 -0.7535  0.2635
 1962TIP3   OH227444   3.573   4.233   6.924  0.2919  0.3789  0.0440
 1962TIP3    H127445   3.539   4.219   7.012  2.2144  1.0055  0.9448
 1962TIP3    H227446   3.557   4.150   6.878  0.2182 -0.3439  1.3308
 1963TIP3   OH227447   6.083   4.024   0.031 -0.5791  0.1250  0.3104
 1963TIP3    H127448   6.060   4.025  -0.062  0.6464  2.5348 -0.0542
 1963TIP3    H227449   6.177   4.004   0.033 -0.6531 -0.1927  1.0480
 1964TIP3   OH227450   6.670   6.113   1.694  0.0969  0.7627  0.2480
 1964TIP3    H127451   6.624   6.067   1.764  0.4528  2.8076  1.9340
 1964TIP3    H227452   6.749   6.061   1.679 -1.6802 -1.7038 -1.3020
 1965TIP3   OH227453   1.646   1.809   7.714 -0.2611  0.6768 -0.4319
 1965TIP3    H127454   1.739   1.815   7.692 -0.0952  2.0768  0.5442
 1965TIP3    H227455   1.622   1.719   7.690  1.8537 -0.4207  1.2102
 1966TIP3   OH227456   1.422   2.094   8.039 -0.0902 -0.2065 -0.0484
 1966TIP3    H127457   1.340   2.141   8.026  0.6142  0.9164 -0.5173
 1966TIP3    H227458   1.457   2.128   8.121  0.9682  0.9335 -0.9471
 1967TIP3   OH227459   5.080   5.642   0.440 -0.1242  0.1224 -0.1899
 1967TIP3    H127460   5.162   5.607   0.405  0.3447  0.6388  0.3711
 1967TIP3    H227461   5.013   5.579   0.413  0.6929 -1.2023  0.8230
 1968TIP3   OH227462   6.551   2.890   3.065 -0.6760  0.5895 -0.8365
 1968TIP3    H127463   6.617   2.903   3.133 -2.4591 -1.2167  1.4221
 1968TIP3    H227464   6.596   2.839   2.997  0.2866 -0.6217  0.6392
 1969TIP3   OH227465   1.358   5.157   7.335  0.1233 -0.5953 -0.1611
 1969TIP3    H127466   1.422   5.102   7.290 -0.5905 -1.9326  0.4404
 1969TIP3    H227467   1.278   5.149   7.282 -0.1588 -0.6242  0.2707
 1970TIP3   OH227468   0.305   6.224   1.720 -0.3445 -0.7241 -0.5991
 1970TIP3    H127469   0.374   6.161   1.739  1.3316  0.2500 -3.0165
 1970TIP3    H227470   0.252   6.183   1.652 -0.9180 -0.6139 -0.2332
 1971TIP3   OH227471   5.603   4.887   1.124 -0.2337 -0.2414  0.2009
 1971TIP3    H127472   5.526   4.935   1.157 -0.9015 -0.4575 -0.9866
 1971TIP3    H227473   5.678   4.932   1.164 -0.9741 -1.4396  3.2867
 1972TIP3   OH227474   5.926   2.725   8.383 -0.3035  0.1931 -0.2425
 1972TIP3    H127475   5.946   2.648   8.330 -1.9094 -0.4967  0.1032
 1972TIP3    H227476   5.884   2.786   8.321  1.9653  1.3333 -0.7916
 1973TIP3   OH227477   6.123   2.088   2.225  0.2675 -0.1437  0.1241
 1973TIP3    H127478   6.145   1.996   2.242  0.2409 -0.3061 -0.6716
 1973TIP3    H227479   6.041   2.102   2.271  1.5376  0.2231  2.4318
 1974TIP3   OH227480   3.347   4.685   0.347  0.0474 -0.0831  0.1250
 1974TIP3    H127481   3.415   4.752   0.342  0.8564 -0.9148 -0.2179
 1974TIP3    H227482   3.281   4.713   0.284  0.5615  0.1879 -0.2953
 1975TIP3   OH227483   5.471   3.510   8.484  0.8076  0.4146 -0.0897
 1975TIP3    H127484   5.406   3.527   8.415  0.7624 -0.7453 -0.3475
 1975TIP3    H227485   5.421   3.470   8.555  1.4456 -2.2115 -0.9877
 1976TIP3   OH227486   3.384   3.869   1.893 -0.6628 -0.4142 -0.0554
 1976TIP3    H127487   3.300   3.913   1.904 -0.6689 -0.5654  0.5187
 1976TIP3    H227488   3.415   3.852   1.982  0.7636  1.1077 -0.1921
 1977TIP3   OH227489   4.416   0.147   2.608  0.8086  0.0126  0.0161
 1977TIP3    H127490   4.503   0.160   2.646  0.6512  0.9649  0.0726
 1977TIP3    H227491   4.355   0.166   2.680  0.5359  0.5911 -0.3618
 1978TIP3   OH227492   3.669   1.443   2.768  0.0735  0.5133 -0.3223
 1978TIP3    H127493   3.643   1.513   2.827 -2.0025 -0.3026 -0.1800
 1978TIP3    H227494   3.597   1.435   2.707 -0.7866 -2.7763  0.8926
 1979TIP3   OH227495   5.672   0.681   0.751  0.0712 -0.4194  0.4194
 1979TIP3    H127496   5.747   0.702   0.807  0.1893 -0.8235  0.4193
 1979TIP3    H227497   5.598   0.680   0.811 -0.0476  0.6148  0.3135
 1980TIP3   OH227498   4.466   6.488   1.743 -0.1322  0.0247 -0.2492
 1980TIP3    H127499   4.553   6.526   1.733 -0.8901  1.6294 -1.2519
 1980TIP3    H227500   4.434   6.480   1.653 -1.0907 -0.3331  0.1153
 1981TIP3   OH227501   4.607   0.262   1.242 -0.3494 -0.0680 -0.0533
 1981TIP3    H127502   4.701   0.250   1.228 -0.3849 -0.0430 -0.3357
 1981TIP3    H227503   4.578   0.182   1.285 -0.0683  0.2339  0.7062
 1982TIP3   OH227504   1.443   0.332   0.818  0.6172 -0.2144  0.2453
 1982TIP3    H127505   1.390   0.289   0.886  0.6043  0.0885  0.4287
 1982TIP3    H227506   1.519   0.364   0.865  0.3905  0.3955  0.1987
 1983TIP3   OH227507   0.763   1.955   7.400 -0.4876 -0.3070  0.7634
 1983TIP3    H127508   0.694   1.909   7.449  0.3483  0.2588  2.5673
 1983TIP3    H227509   0.774   2.038   7.448 -0.1303  0.6122 -0.8510
 1984TIP3   OH227510   3.688   4.630   0.736 -0.4517 -0.2115  0.0332
 1984TIP3    H127511   3.711   4.621   0.829 -0.6078  0.2871  0.1273
 1984TIP3    H227512   3.767   4.665   0.695 -0.1796 -1.0212 -0.1395
 1985TIP3   OH227513   4.944   1.176   0.894 -0.5979 -0.1641 -0.2513
 1985TIP3    H127514   4.953   1.108   0.960  0.3322  0.3210  0.1319
 1985TIP3    H227515   4.867   1.226   0.921  0.8707  1.2461  1.6269
 1986TIP3   OH227516   0.071   3.975   0.725 -0.1859  0.1073  0.1945
 1986TIP3    H127517   0.065   3.900   0.784 -1.6457  0.6529  0.7752
 1986TIP3    H227518   0.126   3.944   0.652  1.2805 -0.7265  1.5777
 1987TIP3   OH227519   2.951   2.656   0.739  0.4414  0.6735 -0.1609
 1987TIP3    H127520   3.014   2.602   0.786 -0.9647 -0.4110  0.5880
 1987TIP3    H227521   2.962   2.743   0.775 -1.9242 -0.4319  3.9085
 1988TIP3   OH227522   4.121   5.688   0.638  0.0170  0.5345 -0.2727
 1988TIP3    H127523   4.048   5.739   0.602 -0.1670  0.9453  0.6216
 1988TIP3    H227524   4.129   5.720   0.728  1.2506  0.4327 -0.3313
 1989TIP3   OH227525   3.462   3.617   7.981  0.1632 -0.0782 -0.7972
 1989TIP3    H127526   3.528   3.585   7.919  1.6642  0.5789  0.3803
 1989TIP3    H227527   3.397   3.548   7.985  2.3886 -2.3075  0.3198
 1990TIP3   OH227528   0.515   0.782   7.293 -0.1556  0.1956 -0.2190
 1990TIP3    H127529   0.566   0.701   7.280  1.1975  0.6742  1.6486
 1990TIP3    H227530   0.562   0.829   7.362  0.5095  3.7640 -2.8285
 1991TIP3   OH227531   3.803   5.715   1.814 -0.3219  0.3775 -0.2567
 1991TIP3    H127532   3.711   5.741   1.813 -0.2071  0.9269  1.0476
 1991TIP3    H227533   3.810   5.656   1.889  0.6724  1.5160  0.5825
 1992TIP3   OH227534   0.513   0.731   8.217  0.4320  0.2610  0.4377
 1992TIP3    H127535   0.553   0.799   8.271  1.0257 -0.1634  0.5522
 1992TIP3    H227536   0.556   0.740   8.132 -0.9227  1.3123 -0.1750
 1993TIP3   OH227537   2.442   1.865   2.479  0.5028  0.2756 -0.3245
 1993TIP3    H127538   2.367   1.862   2.539  2.7648 -0.0962  2.7479
 1993TIP3    H227539   2.404   1.847   2.393 -2.8515 -0.3141  1.0863
 1994TIP3   OH227540   1.477   3.853   8.406  0.8987 -0.5101  0.2548
 1994TIP3    H127541   1.427   3.854   8.325 -0.4417 -0.1987  1.0588
 1994TIP3    H227542   1.483   3.760   8.430  1.0102 -0.5743 -0.0239
 1995TIP3   OH227543   1.582   0.241   7.828  0.1846  0.0715 -0.2738
 1995TIP3    H127544   1.533   0.262   7.749  0.6900 -0.9630 -0.8772
 1995TIP3    H227545   1.532   0.169   7.868  0.9055 -0.6180 -0.6051
 1996TIP3   OH227546   3.684   4.498   6.906 -0.2811  0.0645  0.2247
 1996TIP3    H127547   3.652   4.547   6.981  0.2273 -2.4899  2.2559
 1996TIP3    H227548   3.639   4.413   6.910  0.2294 -0.3940 -2.0038
 1997TIP3   OH227549   6.625   1.096   1.124 -0.1305 -0.1968 -0.0716
 1997TIP3    H127550   6.630   1.161   1.054  1.8978 -0.7995 -0.5520
 1997TIP3    H227551   6.713   1.058   1.128 -1.1946 -2.8696  0.2294
 1998TIP3   OH227552   6.013   6.364   8.573 -0.1795  0.5438 -0.1123
 1998TIP3    H127553   6.010   6.366   8.668 -2.9095 -0.5664 -0.0630
 1998TIP3    H227554   5.986   6.453   8.546  2.0375  1.3271  0.0546
 1999TIP3   OH227555   4.269   1.598   1.616 -0.2861 -0.1315 -0.1712
 1999TIP3    H127556   4.301   1.531   1.556  2.0232 -0.0799  0.9034
 1999TIP3    H227557   4.348   1.638   1.652 -1.5988  1.1295  1.4760
 2000TIP3   OH227558   0.932   0.709   7.739 -0.0178  0.2055 -0.1017
 2000TIP3    H127559   0.926   0.770   7.666  2.1696  0.5833 -0.0352
 2000TIP3    H227560   0.844   0.672   7.747 -1.0996  2.4666 -0.8798
 2001TIP3   OH227561   1.969   2.639   8.105 -0.2945 -0.4868  0.4810
 2001TIP3    H127562   2.023   2.708   8.066 -2.3252  1.4325  0.8640
 2001TIP3    H227563   2.031   2.584   8.154  1.6975 -0.3607 -1.7477
 2002TIP3   OH227564   4.664   6.728   0.898  0.1465  0.1639 -1.0310
 2002TIP3    H127565   4.729   6.668   0.935  0.6622  0.7777 -0.9129
 2002TIP3    H227566   4.606   6.750   0.970  1.1876  1.4093 -0.5277
 2003TIP3   OH227567   5.704   4.859   0.346  0.6574 -0.0905 -0.0092
 2003TIP3    H127568   5.718   4.881   0.254  0.0284  1.9779  0.3461
 2003TIP3    H227569   5.623   4.808   0.347 -1.5919  3.1676 -0.3111
 2004TIP3   OH227570   4.589   3.476   1.428  0.5435 -0.4069 -0.1587
 2004TIP3    H127571   4.644   3.554   1.425 -1.7055  1.2515 -2.6829
 2004TIP3    H227572   4.554   3.474   1.517  1.0881  1.1148  0.1079
 2005TIP3   OH227573   1.461   2.444   1.905 -0.1370 -0.2821 -0.0811
 2005TIP3    H127574   1.545   2.410   1.935 -0.1240 -0.8169 -0.7106
 2005TIP3    H227575   1.432   2.502   1.975  0.3821 -0.7069  0.4896
 2006TIP3   OH227576   0.061   2.700   2.225 -0.0574  0.1174 -0.7094
 2006TIP3    H127577   0.035   2.792   2.237 -2.6224 -0.4945 -1.0568
 2006TIP3    H227578   0.048   2.660   2.311 -1.2676 -0.4246 -1.1358
 2007TIP3   OH227579   5.752   2.447   1.611  0.1475  0.2359 -0.1040
 2007TIP3    H127580   5.828   2.425   1.665  0.8057 -0.0688 -1.1329
 2007TIP3    H227581   5.677   2.418   1.663  0.8476 -1.7916 -0.1372
 2008TIP3   OH227582   5.578   4.968   1.525  1.1126  0.2383 -0.4884
 2008TIP3    H127583   5.516   4.930   1.463  1.2618 -1.4122  0.3192
 2008TIP3    H227584   5.611   5.046   1.481 -1.1358  0.8975 -1.1514
 2009TIP3   OH227585   4.996   2.986   1.221  0.1036 -0.0820 -0.2148
 2009TIP3    H127586   4.981   2.926   1.148 -2.4202  0.4000 -0.1846
 2009TIP3    H227587   5.085   3.019   1.208 -0.1027 -0.3814 -2.7836
 2010TIP3   OH227588   0.822   3.846   1.084 -0.4097  0.1857 -0.1253
 2010TIP3    H127589   0.791   3.777   1.025  0.0153 -1.9562  1.9958
 2010TIP3    H227590   0.917   3.844   1.076 -0.3646  0.0757  0.3594
 2011TIP3   OH227591   6.701   2.156   2.488  0.0095 -0.3725 -0.2621
 2011TIP3    H127592   6.707   2.229   2.427  0.9501 -1.1475 -1.1213
 2011TIP3    H227593   6.607   2.150   2.509  0.0648  1.9594  0.9715
 2012TIP3   OH227594   0.979   0.817   7.393 -0.0160 -0.0479  0.0537
 2012TIP3    H127595   1.061   0.866   7.386 -0.9639  1.6124  0.0066
 2012TIP3    H227596   0.925   0.869   7.453 -2.2205  0.7093 -2.4000
 2013TIP3   OH227597   5.355   1.062   7.323 -0.6966  0.1991 -0.2375
 2013TIP3    H127598   5.349   1.158   7.323 -1.3374  0.1710  0.6882
 2013TIP3    H227599   5.437   1.044   7.367  0.5940  0.3412 -2.4360
 2014TIP3   OH227600   6.799   2.848   7.925 -0.3731 -0.3104 -0.8067
 2014TIP3    H127601   6.857   2.869   7.852 -1.1361  1.6450 -0.9308
 2014TIP3    H227602   6.751   2.771   7.896  0.6710 -0.7034 -1.5687
 2015TIP3   OH227603   3.024   5.788   1.324  0.9350 -1.1928 -0.2103
 2015TIP3    H127604   2.931   5.772   1.308  0.7145 -0.4828  0.2911
 2015TIP3    H227605   3.063   5.701   1.328 -0.1104 -1.6480  1.8639
 2016TIP3   OH227606   0.133   3.860   8.579 -0.5908 -0.0904 -0.2328
 2016TIP3    H127607   0.127   3.838   8.486  0.2019 -0.5478 -0.1855
 2016TIP3    H227608   0.089   3.945   8.586 -0.3994  0.0906 -1.0776
 2017TIP3   OH227609   4.605   0.057   1.966 -0.1719 -0.0046 -0.0833
 2017TIP3    H127610   4.690   0.090   1.938  0.3295 -0.3325  1.0087
 2017TIP3    H227611   4.574   0.005   1.892 -0.1238  1.3385 -1.0867
 2018TIP3   OH227612   6.667   0.906   0.466  0.2283  1.0946  0.0310
 2018TIP3    H127613   6.761   0.889   0.467  0.0013 -0.2747 -0.3964
 2018TIP3    H227614   6.656   0.978   0.403  1.0407  1.7425  0.6044
 2019TIP3   OH227615   6.143   5.748   0.837  0.1320 -0.4331 -0.0128
 2019TIP3    H127616   6.162   5.816   0.902  1.2635  0.0207 -0.7868
 2019TIP3    H227617   6.071   5.698   0.875 -1.8991  2.1956 -0.1465
 2020TIP3   OH227618   3.233   4.916   0.175  0.0199  0.6877  0.5061
 2020TIP3    H127619   3.218   5.007   0.149  0.6528  0.7116  0.2177
 2020TIP3    H227620   3.161   4.867   0.135  0.8786  0.7426 -1.1966
 2021TIP3   OH227621   4.008   2.826   2.148 -0.0787  0.0459 -0.1343
 2021TIP3    H127622   3.940   2.773   2.106  0.7153 -0.7391 -0.4631
 2021TIP3    H227623   4.080   2.825   2.086 -0.0569  1.5656 -0.1520
 2022TIP3   OH227624   1.181   2.944   8.642  0.1544  0.0070  0.5883
 2022TIP3    H127625   1.174   3.030   8.601 -0.8137 -0.2010  0.2807
 2022TIP3    H227626   1.271   2.917   8.626 -0.4767 -0.6065 -2.5509
 2023TIP3   OH227627   4.928   6.106   8.302 -0.3867  0.3705  0.3086
 2023TIP3    H127628   4.944   6.120   8.395 -0.2455 -0.2883  0.3857
 2023TIP3    H227629   4.978   6.028   8.280  1.6819  1.9214 -0.9163
 2024TIP3   OH227630   6.193   6.559   2.095  0.4065 -0.0795 -0.0470
 2024TIP3    H127631   6.195   6.471   2.059  0.3307  0.1299 -0.5763
 2024TIP3    H227632   6.226   6.550   2.184 -1.4075 -0.9582  0.5944
 2025TIP3   OH227633   5.441   4.298   1.682  0.1335 -0.0216  0.1799
 2025TIP3    H127634   5.512   4.322   1.622  0.9976  0.4597  1.3730
 2025TIP3    H227635   5.365   4.347   1.650  0.1362 -0.9788 -1.4518
 2026TIP3   OH227636   5.880   5.687   1.820 -0.1707  0.1010  0.0140
 2026TIP3    H127637   5.890   5.774   1.859  0.4702  0.4172 -0.8239
 2026TIP3    H227638   5.950   5.682   1.755  0.1218 -1.2462  0.4088
 2027TIP3   OH227639   2.032   1.592   0.759 -0.0175  0.2466 -0.1851
 2027TIP3    H127640   1.979   1.570   0.682  0.2708 -1.7370  0.1236
 2027TIP3    H227641   1.989   1.669   0.796 -2.5608 -1.0752 -0.1368
 2028TIP3   OH227642   4.446   6.204   1.028 -0.3111  0.6009  0.5052
 2028TIP3    H127643   4.483   6.223   0.942  0.0992  0.4604  0.6453
 2028TIP3    H227644   4.393   6.281   1.049  0.2445  1.0026  0.4808
 2029TIP3   OH227645   0.042   5.163   1.564  0.0363 -0.2488 -0.0417
 2029TIP3    H127646   0.113   5.132   1.620  0.2137  0.4138  0.1144
 2029TIP3    H227647  -0.026   5.096   1.572 -0.2420  0.1702  1.5599
 2030TIP3   OH227648   4.709   0.181   1.514 -0.4012 -0.2669  0.0108
 2030TIP3    H127649   4.725   0.102   1.566 -0.3810  0.6723  1.5057
 2030TIP3    H227650   4.614   0.183   1.503 -0.2353 -1.8745 -2.3686
 2031TIP3   OH227651   1.582   5.319   1.860 -0.1723  0.0313  0.0911
 2031TIP3    H127652   1.605   5.412   1.862 -0.2606  0.0959 -1.0949
 2031TIP3    H227653   1.492   5.315   1.893  0.0381  0.2904  0.7001
 2032TIP3   OH227654   6.755   5.794   7.343 -0.3221  0.1442  0.6518
 2032TIP3    H127655   6.788   5.850   7.272 -0.2317  1.2292  1.5201
 2032TIP3    H227656   6.660   5.808   7.342 -0.6439 -1.8014 -0.8616
 2033TIP3   OH227657   1.073   6.562   2.034 -0.3859  0.9805 -0.2535
 2033TIP3    H127658   1.096   6.542   2.125  0.0850  2.0253 -0.1254
 2033TIP3    H227659   1.015   6.491   2.007  0.6640 -0.1564  0.3816
 2034TIP3   OH227660   2.122   6.138   2.705  0.0437 -0.7816  0.5808
 2034TIP3    H127661   2.061   6.202   2.742  1.3648  0.8979  0.0386
 2034TIP3    H227662   2.099   6.134   2.612  1.5333  0.9488  0.0607
 2035TIP3   OH227663   0.289   5.081   8.244 -0.1482 -0.9169 -0.3244
 2035TIP3    H127664   0.364   5.114   8.195  0.0584 -0.2149  0.4606
 2035TIP3    H227665   0.222   5.066   8.177 -0.1174  0.7047 -0.7612
 2036TIP3   OH227666   0.213   0.061   8.321 -0.0604  0.1209 -0.1149
 2036TIP3    H127667   0.249   0.148   8.334  2.7790 -0.9736 -0.0704
 2036TIP3    H227668   0.214   0.021   8.408  2.3718 -1.2021 -0.6566
 2037TIP3   OH227669   5.711   0.703   1.496 -0.0158  0.1342 -0.2551
 2037TIP3    H127670   5.805   0.702   1.477  0.1273  1.0083  0.3243
 2037TIP3    H227671   5.702   0.659   1.581  0.1388  1.8005  0.6665
 2038TIP3   OH227672   0.838   5.586   2.714  0.5181 -0.0259  0.0348
 2038TIP3    H127673   0.923   5.545   2.700  1.0032  0.6082  1.0270
 2038TIP3    H227674   0.808   5.609   2.626  2.1780  1.3140 -0.2417
 2039TIP3   OH227675   6.671   5.801   1.468  0.6492  0.3885  0.0476
 2039TIP3    H127676   6.752   5.835   1.432  1.7153 -1.3415  0.7010
 2039TIP3    H227677   6.639   5.738   1.403  1.0622 -0.6189  0.7965
 2040TIP3   OH227678   1.894   3.321   7.864 -0.5826 -0.0684 -0.4557
 2040TIP3    H127679   1.924   3.411   7.848 -0.2543 -0.1454 -0.2822
 2040TIP3    H227680   1.949   3.290   7.935 -0.8689 -0.3227 -0.3438
 2041TIP3   OH227681   2.566   2.983   8.784  0.0005  0.0274  0.1018
 2041TIP3    H127682   2.560   2.892   8.813  1.8863  0.2425  1.3169
 2041TIP3    H227683   2.561   3.035   8.864  1.6865  0.8334 -0.2725
 2042TIP3   OH227684   3.046   0.257   3.329 -0.1029  0.2041  0.6650
 2042TIP3    H127685   3.047   0.162   3.317 -0.6148  0.4256 -1.5913
 2042TIP3    H227686   3.135   0.285   3.308 -0.1568  0.2881  0.5437
 2043TIP3   OH227687   3.840   5.990   0.167  0.2009  0.1372 -1.0933
 2043TIP3    H127688   3.779   6.010   0.238 -0.3359  1.0606 -1.7892
 2043TIP3    H227689   3.910   5.940   0.208  0.1912  1.1488  0.1994
 2044TIP3   OH227690   6.599   0.656   1.189 -0.3101  0.3745  0.0377
 2044TIP3    H127691   6.682   0.640   1.233  0.3701  2.5098 -0.3862
 2044TIP3    H227692   6.559   0.728   1.238 -0.6426  1.1761 -1.3565
 2045TIP3   OH227693   2.429   1.270   1.853  0.3175  0.5634 -0.1431
 2045TIP3    H127694   2.368   1.272   1.780  0.5384  1.9925 -0.3327
 2045TIP3    H227695   2.507   1.314   1.820  0.3556  1.4019  0.9931
 2046TIP3   OH227696   2.252   5.745   0.297  0.3570 -0.6903  0.3528
 2046TIP3    H127697   2.283   5.741   0.387  0.8516 -1.0280  0.1717
 2046TIP3    H227698   2.303   5.678   0.251  1.8674  1.1072 -0.7184
 2047TIP3   OH227699   4.011   0.928   0.273  0.2578 -0.4614 -0.3579
 2047TIP3    H127700   4.007   0.941   0.367 -0.9814 -0.6756 -0.3665
 2047TIP3    H227701   4.095   0.965   0.247  0.2485  0.3447  0.7121
 2048TIP3   OH227702   5.176   1.656   1.156  0.0960  0.6069  0.2953
 2048TIP3    H127703   5.259   1.609   1.150 -0.5786 -0.9206  1.9041
 2048TIP3    H227704   5.111   1.587   1.171 -1.6820  1.6299 -2.0853
 2049TIP3   OH227705   4.848   5.460   3.026  0.2885  0.4414  0.5449
 2049TIP3    H127706   4.923   5.475   3.083  1.1644 -0.4585 -0.3298
 2049TIP3    H227707   4.866   5.514   2.949  0.5046 -0.4626 -0.0554
 2050TIP3   OH227708   2.376   5.738   2.643  0.0510 -0.5991 -0.0624
 2050TIP3    H127709   2.379   5.698   2.730  1.3608  1.1447  0.7502
 2050TIP3    H227710   2.467   5.737   2.613 -0.0072  0.9778 -0.3576
 2051TIP3   OH227711   6.406   6.561   1.734  0.0791  0.3660 -0.9599
 2051TIP3    H127712   6.331   6.509   1.706  0.9323 -0.3525 -1.9567
 2051TIP3    H227713   6.371   6.620   1.801 -1.5747  0.7028 -2.0731
 2052TIP3   OH227714   2.379   6.668   8.561 -0.3000 -0.5214  0.2166
 2052TIP3    H127715   2.357   6.579   8.532  1.4978 -1.6282  1.9443
 2052TIP3    H227716   2.327   6.680   8.641  0.6469 -0.7133  0.8850
 2053TIP3   OH227717   3.312   0.186   8.288  0.0612  0.3843 -0.2248
 2053TIP3    H127718   3.357   0.269   8.270  1.1173  0.3881  2.0915
 2053TIP3    H227719   3.254   0.206   8.362  0.7194 -1.0370  0.7209
 2054TIP3   OH227720   2.477   6.317   3.248  0.5225  0.3400  0.1800
 2054TIP3    H127721   2.569   6.340   3.263  1.0751 -0.1511 -2.0537
 2054TIP3    H227722   2.463   6.240   3.304  1.0506  1.1723  1.5129
 2055TIP3   OH227723   1.165   6.451   0.758 -0.4525 -0.4272  0.2820
 2055TIP3    H127724   1.226   6.409   0.698  0.6741 -0.6599  1.5310
 2055TIP3    H227725   1.200   6.431   0.845 -1.1334  1.2362  0.9765
 2056TIP3   OH227726   4.963   0.417   0.842  0.2311 -0.0504 -0.2318
 2056TIP3    H127727   4.919   0.351   0.895  0.5619  0.7754  1.1156
 2056TIP3    H227728   4.970   0.493   0.899 -1.4162  1.6861 -2.1699
 2057TIP3   OH227729   4.070   5.311   7.465 -0.8926 -0.3870  0.4982
 2057TIP3    H127730   4.003   5.368   7.428  0.3116  1.3611  0.8899
 2057TIP3    H227731   4.028   5.225   7.471 -2.2767  0.0802 -1.5421
 2058TIP3   OH227732   2.758   1.289   8.278 -0.1002 -0.0112  0.4865
 2058TIP3    H127733   2.819   1.340   8.332  0.7205 -2.6594  2.3228
 2058TIP3    H227734   2.805   1.207   8.261 -0.1729  0.7427 -4.7434
 2059TIP3   OH227735   0.613   3.455   1.238 -0.4871 -0.4025 -0.0302
 2059TIP3    H127736   0.559   3.530   1.215  0.6731  0.4993  0.0720
 2059TIP3    H227737   0.699   3.493   1.258  0.0920 -1.7455  0.1321
 2060TIP3   OH227738   2.272   6.163   2.373  0.2472 -0.3380  0.0242
 2060TIP3    H127739   2.308   6.252   2.366  0.3931 -0.0025  3.3080
 2060TIP3    H227740   2.179   6.176   2.394  0.3228 -0.9079  0.7759
 2061TIP3   OH227741   6.752   5.564   0.658  0.1499  0.0808  0.4158
 2061TIP3    H127742   6.830   5.511   0.676  0.4881  0.7169  0.8146
 2061TIP3    H227743   6.700   5.509   0.598  0.6307 -0.5829  0.5950
 2062TIP3   OH227744   3.812   6.018   2.429  0.1200  0.1302 -0.6838
 2062TIP3    H127745   3.842   6.048   2.342  0.1405 -0.2013 -0.7922
 2062TIP3    H227746   3.865   6.069   2.491 -0.4259  0.9133 -0.8556
 2063TIP3   OH227747   5.823   3.076   2.153 -0.4166  0.5100  0.1536
 2063TIP3    H127748   5.780   3.148   2.107 -0.5246 -0.1673 -0.8421
 2063TIP3    H227749   5.760   3.003   2.148  0.0626  0.0747  0.3398
 2064TIP3   OH227750   3.055   3.065   1.120 -0.8874  0.1744  0.8383
 2064TIP3    H127751   3.003   3.018   1.186 -2.8752 -0.1520 -0.8409
 2064TIP3    H227752   3.019   3.153   1.120  0.6257  0.8180  1.7037
 2065TIP3   OH227753   4.007   3.494   1.700  0.6756 -0.1120 -0.6224
 2065TIP3    H127754   3.993   3.556   1.628 -1.5219  0.6915  0.4206
 2065TIP3    H227755   4.060   3.543   1.763  0.7053 -0.0378 -0.7041
 2066TIP3   OH227756   6.246   6.641   8.021 -0.1831 -0.7336  0.2295
 2066TIP3    H127757   6.183   6.617   8.089 -0.5970 -1.3371 -0.3645
 2066TIP3    H227758   6.289   6.558   7.998 -0.4202 -0.6303 -0.6194
 2067TIP3   OH227759   4.302   5.685   1.708 -0.2042  0.1054  0.4535
 2067TIP3    H127760   4.372   5.731   1.754  0.0730  0.2299 -0.0858
 2067TIP3    H227761   4.276   5.744   1.637  0.5622 -0.7912 -0.6071
 2068TIP3   OH227762   2.343   2.402   8.445  0.7115  0.3763  0.2313
 2068TIP3    H127763   2.269   2.447   8.487 -0.3412 -1.0718  0.0429
 2068TIP3    H227764   2.369   2.335   8.509 -0.5570 -1.5007 -1.0851
 2069TIP3   OH227765   4.919   1.740   1.434 -0.2294 -0.1147 -0.6157
 2069TIP3    H127766   5.001   1.782   1.407  0.3283 -0.7690  0.0247
 2069TIP3    H227767   4.946   1.660   1.479 -1.2645 -1.3537 -2.0827
 2070TIP3   OH227768   2.012   6.378   0.162  0.0345  0.1604  0.1744
 2070TIP3    H127769   2.022   6.441   0.091 -0.7652  0.7201  0.5553
 2070TIP3    H227770   2.081   6.313   0.145  0.1725  0.5447 -0.8271
 2071TIP3   OH227771   2.426   5.021   8.430  0.3254  0.1478 -0.3450
 2071TIP3    H127772   2.511   4.981   8.414  0.3945 -0.1397  0.6374
 2071TIP3    H227773   2.369   4.987   8.361  0.8616 -0.1191 -0.6557
 2072TIP3   OH227774   1.428   2.910   0.789  0.5407 -0.0606  0.1812
 2072TIP3    H127775   1.467   2.826   0.765 -0.1282 -0.3683  0.1500
 2072TIP3    H227776   1.396   2.947   0.706  0.0846 -0.1634  0.3112
 2073TIP3   OH227777   3.771   1.877   8.221 -0.4199 -0.6881 -0.2386
 2073TIP3    H127778   3.738   1.955   8.176 -2.0495 -0.1834  1.7128
 2073TIP3    H227779   3.854   1.905   8.261 -0.3192 -0.3717 -0.6582
 2074TIP3   OH227780   6.198   0.164   2.632 -0.1353 -0.2644 -0.1661
 2074TIP3    H127781   6.175   0.088   2.578  0.0039 -0.1885 -0.3327
 2074TIP3    H227782   6.277   0.199   2.591  0.1626 -0.4034  0.2801
 2075TIP3   OH227783   1.798   5.851   8.023 -0.3219 -0.8389 -0.0202
 2075TIP3    H127784   1.742   5.838   8.099  0.4620 -0.2693  0.6751
 2075TIP3    H227785   1.743   5.830   7.948 -1.7752  0.6652  0.5662
 2076TIP3   OH227786   2.614   1.026   0.816 -0.1694  0.2042  0.5561
 2076TIP3    H127787   2.598   0.973   0.894  0.7987  0.7443  1.1309
 2076TIP3    H227788   2.589   1.115   0.841  1.2985  0.6015  0.6598
 2077TIP3   OH227789   2.810   0.286   2.336 -0.7592  0.0104 -0.6431
 2077TIP3    H127790   2.767   0.243   2.262  0.1470  0.5198 -1.4862
 2077TIP3    H227791   2.884   0.228   2.357 -1.3913 -0.4728  0.3052
 2078TIP3   OH227792   3.762   3.343   2.287  0.4463  0.4145 -0.4056
 2078TIP3    H127793   3.745   3.336   2.193 -0.4880  0.4433 -0.2470
 2078TIP3    H227794   3.705   3.277   2.326  0.9889  0.2551  0.1353
 2079TIP3   OH227795   0.773   5.649   0.594  0.1411 -0.5108  0.4225
 2079TIP3    H127796   0.820   5.591   0.654  0.1913 -0.8455  0.0571
 2079TIP3    H227797   0.751   5.725   0.648 -1.2143 -1.4750  1.3013
 2080TIP3   OH227798   3.805   5.209   7.117  0.4756 -0.0011 -0.3439
 2080TIP3    H127799   3.859   5.134   7.092  0.4405 -0.2305  0.2520
 2080TIP3    H227800   3.734   5.170   7.169  0.1998  0.3935 -0.4233
 2081TIP3   OH227801   2.038   4.314   1.497 -0.2930 -0.9337  0.4542
 2081TIP3    H127802   1.970   4.361   1.450 -1.1043 -1.9295  0.5964
 2081TIP3    H227803   2.015   4.221   1.487  2.2685 -1.4977 -1.4198
 2082TIP3   OH227804   6.515   6.246   0.579  0.0642 -0.3287 -0.4942
 2082TIP3    H127805   6.511   6.184   0.506 -1.7883 -1.0927  0.1958
 2082TIP3    H227806   6.530   6.192   0.656 -0.9841  0.1311  0.0436
 2083TIP3   OH227807   1.804   5.205   8.043  0.0592 -0.6288 -0.4755
 2083TIP3    H127808   1.866   5.143   8.005  1.5687  0.3003  0.3650
 2083TIP3    H227809   1.761   5.156   8.113 -1.1676 -1.6731 -1.8647
 2084TIP3   OH227810   1.142   3.034   7.504  0.3562  0.9721 -0.2882
 2084TIP3    H127811   1.101   3.045   7.589 -0.0778 -1.3188 -0.1315
 2084TIP3    H227812   1.232   3.006   7.524 -0.3600 -1.7688 -0.4393
 2085TIP3   OH227813   3.344   5.784   0.948 -0.2477  0.8650 -0.0938
 2085TIP3    H127814   3.290   5.779   1.027  0.5433  0.3612  0.4337
 2085TIP3    H227815   3.398   5.862   0.960 -0.5150  1.0996 -0.3981
 2086TIP3   OH227816   5.452   4.035   1.544 -0.2362  0.2360 -0.7205
 2086TIP3    H127817   5.442   4.116   1.593 -0.3019 -1.1948  1.7866
 2086TIP3    H227818   5.366   4.020   1.504 -0.6938  0.5890  0.1219
 2087TIP3   OH227819   6.496   4.850   3.044  0.0858  0.1123  0.3050
 2087TIP3    H127820   6.490   4.762   3.007 -2.3830  0.1357  0.4496
 2087TIP3    H227821   6.438   4.847   3.121  0.9694  1.5166  1.0591
 2088TIP3   OH227822   3.928   3.169   0.483  0.1843 -0.1032 -0.0726
 2088TIP3    H127823   3.915   3.086   0.528  2.5053 -0.9409 -0.7962
 2088TIP3    H227824   4.007   3.156   0.430 -0.0038  2.2164 -1.0658
 2089TIP3   OH227825   1.447   6.554   2.056 -0.8286  1.2118  0.3172
 2089TIP3    H127826   1.365   6.509   2.080  0.8441 -0.5150  3.5258
 2089TIP3    H227827   1.474   6.513   1.974 -1.1427 -1.2668  1.3537
 2090TIP3   OH227828   3.597   1.796   0.786  0.5358 -0.1249  0.0246
 2090TIP3    H127829   3.625   1.855   0.856 -1.2733  0.6894  0.1221
 2090TIP3    H227830   3.560   1.721   0.831 -1.4764  0.8090  0.0108
 2091TIP3   OH227831   0.762   4.463   0.088 -0.6246 -0.9288 -0.2665
 2091TIP3    H127832   0.696   4.406   0.050  1.0132 -2.1658 -1.3932
 2091TIP3    H227833   0.808   4.408   0.152  0.2754 -0.5593 -0.5816
 2092TIP3   OH227834   5.284   6.697   8.054  0.7716 -0.5554  0.1354
 2092TIP3    H127835   5.189   6.690   8.057  0.8616 -1.8784  0.7019
 2092TIP3    H227836   5.306   6.755   8.127  0.3073  1.3613 -1.1818
 2093TIP3   OH227837   2.078   4.881   1.891 -0.1479 -0.2811 -0.0188
 2093TIP3    H127838   2.059   4.949   1.956 -1.0861  0.6654 -1.2108
 2093TIP3    H227839   1.992   4.841   1.874 -0.0171 -0.1767 -0.9959
 2094TIP3   OH227840   2.664   3.285   2.161 -0.2080 -0.1192 -0.0712
 2094TIP3    H127841   2.659   3.365   2.214 -1.0740  0.6020 -1.2096
 2094TIP3    H227842   2.742   3.297   2.107  0.4375 -0.6720  0.7058
 2095TIP3   OH227843   1.199   3.300   1.407 -0.7414  0.5853  0.3804
 2095TIP3    H127844   1.122   3.242   1.409 -1.4473  1.4861 -0.0285
 2095TIP3    H227845   1.227   3.304   1.498  0.4108 -1.7888  0.2021
 2096TIP3   OH227846   0.820   4.871   7.497  0.3887 -0.4313 -0.3186
 2096TIP3    H127847   0.892   4.813   7.473  0.9605  0.3017 -0.3998
 2096TIP3    H227848   0.745   4.839   7.446  0.8800 -0.6440 -0.9094
 2097TIP3   OH227849   5.495   4.277   2.689  0.1475 -0.0799  0.4693
 2097TIP3    H127850   5.576   4.285   2.738  0.1461  0.7004  0.3598
 2097TIP3    H227851   5.449   4.204   2.729  0.7049 -0.2441  0.8148
 2098TIP3   OH227852   4.936   2.469   8.532  0.0640  0.4786 -0.1502
 2098TIP3    H127853   4.903   2.380   8.539 -0.4992  0.6644 -0.3446
 2098TIP3    H227854   5.025   2.460   8.499  0.1398 -0.0285  0.1943
 2099TIP3   OH227855   2.927   3.744   0.972 -0.1817 -0.1577 -0.0013
 2099TIP3    H127856   2.841   3.739   0.931  0.6933 -1.6522 -1.7760
 2099TIP3    H227857   2.967   3.823   0.936 -0.1931 -0.3668 -0.4777
 2100TIP3   OH227858   1.421   3.901   1.306 -1.0416 -0.0246 -0.3595
 2100TIP3    H127859   1.426   3.861   1.219 -1.1035 -0.6697 -0.0668
 2100TIP3    H227860   1.426   3.995   1.289 -0.6936 -0.1618 -1.0323
 2101TIP3   OH227861   3.304   0.803   0.805 -0.3950  0.2102  0.5286
 2101TIP3    H127862   3.358   0.872   0.844 -1.4585  1.9373 -0.9070
 2101TIP3    H227863   3.220   0.810   0.850 -0.7461  0.3748 -0.1394
 2102TIP3   OH227864   0.113   4.597   8.571 -0.3223 -0.6468  0.7888
 2102TIP3    H127865   0.076   4.673   8.616 -1.7894 -1.2162  0.5977
 2102TIP3    H227866   0.093   4.611   8.479  0.3764 -0.7308  0.6222
 2103TIP3   OH227867   4.959   0.796   8.666 -0.4966 -0.1484 -0.0717
 2103TIP3    H127868   5.017   0.748   8.723 -1.1843  0.1423  0.9025
 2103TIP3    H227869   4.890   0.734   8.643 -0.8121  0.0571  0.3151
 2104TIP3   OH227870   5.556   2.092   1.254 -0.5689  0.4245  0.2505
 2104TIP3    H127871   5.600   2.167   1.295 -0.2245  0.4305 -0.1240
 2104TIP3    H227872   5.627   2.042   1.213 -0.7791 -0.1620  0.5791
 2105TIP3   OH227873   0.883   6.526   0.850 -0.2419  0.2011  0.0295
 2105TIP3    H127874   0.899   6.595   0.786  0.2659  0.4307  0.3964
 2105TIP3    H227875   0.970   6.506   0.886 -0.5714  0.4016  0.9723
 2106TIP3   OH227876   6.315   0.034   8.192  0.3805 -0.0078  0.0230
 2106TIP3    H127877   6.269  -0.026   8.133 -0.7938 -0.1869  1.0691
 2106TIP3    H227878   6.250   0.103   8.210  1.0574  0.5603  0.3435
 2107TIP3   OH227879   5.575   2.800   8.464  0.0917 -0.2140  0.1276
 2107TIP3    H127880   5.579   2.890   8.497 -0.8529 -0.8986  2.3109
 2107TIP3    H227881   5.662   2.785   8.426  0.4952  1.3844  0.3390
 2108TIP3   OH227882   4.772   3.319   2.572 -0.0167 -0.0728 -0.1648
 2108TIP3    H127883   4.745   3.347   2.485  0.3916  2.0844  0.3381
 2108TIP3    H227884   4.861   3.284   2.560  0.2206  0.6494 -0.5704
 2109TIP3   OH227885   6.323   2.263   0.674 -0.5746  0.0937 -0.0953
 2109TIP3    H127886   6.265   2.254   0.598 -1.0368 -1.1056  0.3620
 2109TIP3    H227887   6.270   2.232   0.747  1.1609 -2.8731  0.0738
 2110TIP3   OH227888   0.645   4.317   7.873  0.5390  0.0816  0.8835
 2110TIP3    H127889   0.739   4.315   7.856  0.5032  0.2593  0.6507
 2110TIP3    H227890   0.613   4.234   7.838  0.6026  0.0489  0.9039
 2111TIP3   OH227891   4.647   0.885   2.669 -0.0697 -0.2312  0.4576
 2111TIP3    H127892   4.736   0.889   2.704 -0.0623  2.3784  0.3598
 2111TIP3    H227893   4.659   0.858   2.577  0.7289  0.7982  0.2370
 2112TIP3   OH227894   3.034   3.797   7.312 -0.3918  0.4067  0.3858
 2112TIP3    H127895   3.016   3.720   7.365  1.0642  0.4083  0.9354
 2112TIP3    H227896   2.948   3.833   7.291 -1.1411 -1.7390 -0.4797
 2113TIP3   OH227897   5.196   4.075   2.784 -0.0560 -0.2743 -0.4473
 2113TIP3    H127898   5.133   4.047   2.850 -1.3514 -0.6030 -1.7418
 2113TIP3    H227899   5.280   4.042   2.814 -0.5123  0.0576  1.2819
 2114TIP3   OH227900   4.408   5.747   1.142  0.1867 -0.1584 -0.1212
 2114TIP3    H127901   4.488   5.760   1.092  0.2700  0.7465  0.2397
 2114TIP3    H227902   4.437   5.736   1.233 -0.1195  0.5861  0.0735
 2115TIP3   OH227903   4.803   4.652   0.473  0.1589 -0.0927  0.6219
 2115TIP3    H127904   4.852   4.666   0.392  0.0550 -1.7437  0.2555
 2115TIP3    H227905   4.713   4.674   0.451  0.1657 -0.3332  0.3556
 2116TIP3   OH227906   2.503   6.067   2.485 -0.1115  0.7078 -0.0574
 2116TIP3    H127907   2.472   6.081   2.574  0.2764 -0.8126  0.3437
 2116TIP3    H227908   2.430   6.096   2.430  0.1640  2.9872  0.6568
 2117TIP3   OH227909   5.392   2.032   7.945  0.2484 -1.1462  0.1765
 2117TIP3    H127910   5.435   2.069   8.022  2.5202 -1.0435 -1.0427
 2117TIP3    H227911   5.336   2.102   7.912  3.1367  0.7428 -1.0863
 2118TIP3   OH227912   2.603   0.800   1.649  0.1896  0.2673  0.6933
 2118TIP3    H127913   2.594   0.881   1.700  1.6686  0.3643  0.8693
 2118TIP3    H227914   2.623   0.830   1.560  0.9581  0.1110  0.8066
 2119TIP3   OH227915   3.190   6.046   2.615  0.3229  0.3202 -0.2430
 2119TIP3    H127916   3.134   6.115   2.650 -1.4572 -0.7455 -0.8629
 2119TIP3    H227917   3.203   5.986   2.689  1.0089  0.7720  0.0113
 2120TIP3   OH227918   6.021   0.145   7.972 -0.7710 -0.1217  0.1339
 2120TIP3    H127919   6.039   0.190   7.889 -0.2589  2.5830  1.5779
 2120TIP3    H227920   5.926   0.133   7.974 -1.1042  2.1485  0.1960
 2121TIP3   OH227921   0.869   0.759   8.236  0.5708 -0.6386 -0.1797
 2121TIP3    H127922   0.814   0.713   8.172  0.2187  0.7275 -0.8823
 2121TIP3    H227923   0.867   0.702   8.313 -4.3308  0.6473  1.0056
 2122TIP3   OH227924   3.844   1.724   8.654 -0.3038 -0.2760 -0.1388
 2122TIP3    H127925   3.854   1.815   8.681 -0.7930 -0.1941 -0.2160
 2122TIP3    H227926   3.930   1.699   8.620  0.1694 -0.2141  0.9834
 2123TIP3   OH227927   5.708   0.512   7.402  0.1391 -0.1968 -0.0903
 2123TIP3    H127928   5.759   0.460   7.339 -1.2948  0.4869 -1.8996
 2123TIP3    H227929   5.727   0.472   7.487  1.6843 -1.5424 -1.0112
 2124TIP3   OH227930   2.245   4.785   3.026  0.2924 -0.0376 -0.0796
 2124TIP3    H127931   2.234   4.696   2.993 -1.6330  0.3900 -0.7599
 2124TIP3    H227932   2.299   4.829   2.959  1.4143 -0.7117  0.3573
 2125TIP3   OH227933   5.595   5.711   1.989  0.4656  0.1489 -0.2738
 2125TIP3    H127934   5.654   5.645   1.952 -0.1338  0.8318 -2.6045
 2125TIP3    H227935   5.533   5.661   2.042  1.1364 -0.9372 -0.4915
 2126TIP3   OH227936   6.122   6.253   8.182  0.2371  0.0516  0.1583
 2126TIP3    H127937   6.037   6.292   8.205  0.1765  0.8902 -1.3623
 2126TIP3    H227938   6.117   6.238   8.088  0.7703 -2.4924  0.4669
 2127TIP3   OH227939   3.792   3.985   0.238 -0.2835 -0.2811 -0.0737
 2127TIP3    H127940   3.868   3.938   0.205  1.0741  1.2541  0.7569
 2127TIP3    H227941   3.777   3.949   0.325 -0.7239 -0.7939 -0.3530
 2128TIP3   OH227942   1.975   1.996   0.670  0.0506 -0.0974  0.2477
 2128TIP3    H127943   2.007   2.063   0.731  1.0800  0.1750 -0.5669
 2128TIP3    H227944   2.049   1.980   0.612 -0.2599 -1.7870  0.2858
 2129TIP3   OH227945   3.164   4.413   7.423  0.0139 -0.1905  0.5393
 2129TIP3    H127946   3.087   4.453   7.383 -1.2695 -1.7258  1.3693
 2129TIP3    H227947   3.132   4.332   7.464  2.0547 -0.8849  0.9346
 2130TIP3   OH227948   5.116   3.132   3.398  0.1062  0.3536  0.4684
 2130TIP3    H127949   5.167   3.209   3.372  0.6856 -0.0194  0.4855
 2130TIP3    H227950   5.043   3.129   3.336  0.2917  0.6998  0.2324
 2131TIP3   OH227951   1.445   3.257   0.822 -0.1655 -0.6604 -0.1997
 2131TIP3    H127952   1.398   3.336   0.848  0.1456 -1.0915  1.8381
 2131TIP3    H227953   1.437   3.255   0.727 -3.3579 -0.1540 -0.0631
 2132TIP3   OH227954   3.559   4.365   2.478  0.0758 -0.2736 -0.1757
 2132TIP3    H127955   3.495   4.393   2.543 -0.3933  0.7877 -1.0430
 2132TIP3    H227956   3.640   4.407   2.505 -0.2384  0.6015 -0.5324
 2133TIP3   OH227957   5.811   6.702   8.402  0.0948  0.2894  0.0495
 2133TIP3    H127958   5.754   6.667   8.470  1.0981  0.7271  1.1317
 2133TIP3    H227959   5.751   6.749   8.343 -0.8958 -0.8556  0.1021
 2134TIP3   OH227960   6.268   6.398   2.795  0.0701 -0.3112 -0.7519
 2134TIP3    H127961   6.330   6.456   2.752  0.6360 -0.4277 -0.1086
 2134TIP3    H227962   6.300   6.310   2.778  0.4139 -0.3529  0.0599
 2135TIP3   OH227963   4.838   6.051   0.194 -0.3650  0.3029  0.1967
 2135TIP3    H127964   4.843   5.955   0.192 -1.9729  0.1314 -3.0580
 2135TIP3    H227965   4.927   6.080   0.174  0.7244 -0.3107  3.5456
 2136TIP3   OH227966   2.805   3.858   1.269 -0.1361 -0.6593  0.0823
 2136TIP3    H127967   2.892   3.860   1.229 -0.2603 -0.5232 -0.1841
 2136TIP3    H227968   2.821   3.877   1.362  0.0847 -0.2878 -0.0288
 2137TIP3   OH227969   0.658   5.075   7.823 -0.3100  0.2035 -0.0079
 2137TIP3    H127970   0.643   5.152   7.878 -0.5379  0.6456 -0.6670
 2137TIP3    H227971   0.570   5.046   7.798 -0.3074 -1.2371  1.4954
 2138TIP3   OH227972   3.425   1.594   1.698  0.2886 -0.1201  0.0219
 2138TIP3    H127973   3.457   1.642   1.775 -1.0101 -1.0928  1.2354
 2138TIP3    H227974   3.480   1.624   1.626  2.7739 -0.5161  1.6582
 2139TIP3   OH227975   1.065   2.514   1.204  0.9520 -0.3275 -0.3638
 2139TIP3    H127976   0.973   2.538   1.214  1.0885  0.4208 -0.8895
 2139TIP3    H227977   1.104   2.532   1.290  0.7195 -0.1666 -0.2914
 2140TIP3   OH227978   3.882   5.584   8.430 -0.7161 -0.7571 -0.0078
 2140TIP3    H127979   3.947   5.631   8.377 -1.2717  0.0174 -0.0200
 2140TIP3    H227980   3.909   5.600   8.521 -0.6588 -0.7725 -0.0224
 2141TIP3   OH227981   5.210   4.685   1.201  0.0943 -0.7356  0.2073
 2141TIP3    H127982   5.166   4.712   1.121  0.6102 -0.0437  0.1507
 2141TIP3    H227983   5.139   4.654   1.258 -0.5491  0.9348  0.3577
 2142TIP3   OH227984   0.150   0.979   2.537 -0.3564  0.4371  0.3056
 2142TIP3    H127985   0.234   1.009   2.571  0.2910 -1.2139  0.2376
 2142TIP3    H227986   0.102   0.948   2.613  0.5283 -1.9240 -0.0436
 2143TIP3   OH227987   6.125   0.766   0.327  0.1104 -0.1126  0.5804
 2143TIP3    H127988   6.146   0.701   0.394  0.0010 -0.3672  0.3699
 2143TIP3    H227989   6.031   0.756   0.313  0.2416 -0.5116 -0.0710
 2144TIP3   OH227990   1.442   2.434   0.843 -0.8215 -0.0037  0.0441
 2144TIP3    H127991   1.518   2.377   0.831 -0.9116 -0.3599  1.0816
 2144TIP3    H227992   1.367   2.377   0.826 -0.9139 -0.2303  1.1552
 2145TIP3   OH227993   6.338   5.478   2.937  0.2532  0.1882  0.2276
 2145TIP3    H127994   6.375   5.522   2.861  1.8418 -2.3368 -0.5791
 2145TIP3    H227995   6.399   5.406   2.955 -1.5167 -0.9223  2.2187
 2146TIP3   OH227996   6.178   3.834   0.237 -0.0941 -0.1495 -0.7539
 2146TIP3    H127997   6.138   3.887   0.169 -1.5441 -1.1642 -0.7405
 2146TIP3    H227998   6.252   3.886   0.268 -1.4819  1.9089 -0.6753
 2147TIP3   OH227999   4.341   3.760   8.560 -1.5902  0.0702  0.0820
 2147TIP3    H128000   4.288   3.770   8.639 -1.2623 -0.0126  0.3115
 2147TIP3    H228001   4.421   3.718   8.590 -1.1398  0.7457 -0.1655
 2148TIP3   OH228002   4.801   1.854   8.767  0.0989 -0.4232  0.4286
 2148TIP3    H128003   4.895   1.867   8.778 -0.0171  0.3748  0.5558
 2148TIP3    H228004   4.783   1.772   8.812  0.6137 -0.1933  1.0723
 2149TIP3   OH228005   6.188   6.191   2.986  0.0238 -0.2471  0.4601
 2149TIP3    H128006   6.253   6.156   2.926 -0.0246  1.6641 -0.7819
 2149TIP3    H228007   6.237   6.209   3.066  0.9189  0.6248 -0.2635
 2150TIP3   OH228008   0.658   6.516   1.009  0.0315 -0.7554 -0.4153
 2150TIP3    H128009   0.742   6.540   0.969 -0.6316 -0.5553 -1.7485
 2150TIP3    H228010   0.682   6.466   1.087  1.3859 -0.6052 -0.7126
 2151TIP3   OH228011   4.043   4.986   0.966  0.4331 -0.2120  0.1249
 2151TIP3    H128012   4.045   5.070   0.921  3.4828 -2.3700 -4.5817
 2151TIP3    H228013   3.954   4.954   0.952  0.0285  1.0889 -0.4261
 2152TIP3   OH228014   3.207   1.554   1.546  0.3555  0.1539  0.2534
 2152TIP3    H128015   3.271   1.490   1.515 -2.4390 -3.8332  1.9906
 2152TIP3    H228016   3.219   1.556   1.641 -1.0650  0.5367  0.4430
 2153TIP3   OH228017   5.527   0.615   2.644  0.4900  0.2944 -0.2859
 2153TIP3    H128018   5.523   0.535   2.697  1.5889 -0.4858 -1.3044
 2153TIP3    H228019   5.525   0.686   2.707 -0.3622 -0.5466  0.6587
 2154TIP3   OH228020   5.725   6.645   2.715 -0.1175 -0.0656  0.5283
 2154TIP3    H128021   5.690   6.629   2.628 -2.3757 -0.6727  1.4956
 2154TIP3    H228022   5.676   6.587   2.773  0.8636  0.7850  2.3248
 2155TIP3   OH228023   3.894   0.613   0.066 -0.0016  0.2160  0.4052
 2155TIP3    H128024   3.803   0.588   0.080 -0.0191 -0.0287 -0.1263
 2155TIP3    H228025   3.938   0.586   0.147  0.1016 -2.2059 -0.3690
 2156TIP3   OH228026   6.249   2.581   1.730  0.4879  0.0429 -0.7692
 2156TIP3    H128027   6.312   2.635   1.683  1.2766 -1.4963 -1.5651
 2156TIP3    H228028   6.301   2.509   1.765 -0.4710 -0.0579  0.5401
 2157TIP3   OH228029   0.654   2.521   0.181 -0.1380  0.0798  0.7772
 2157TIP3    H128030   0.708   2.557   0.112  0.0791  1.9292  1.8462
 2157TIP3    H228031   0.574   2.492   0.137  0.3970  0.2878 -0.3563
 2158TIP3   OH228032   1.611   0.048   8.591  0.2783 -0.5450  0.1705
 2158TIP3    H128033   1.604   0.031   8.497 -1.5441 -1.1870  0.3811
 2158TIP3    H228034   1.522   0.038   8.624  0.7159  0.5700  1.8380
 2159TIP3   OH228035   5.134   2.069   2.284 -0.3680  0.2303 -0.3045
 2159TIP3    H128036   5.057   2.011   2.288  0.2020 -0.5121  0.3729
 2159TIP3    H228037   5.156   2.084   2.376  0.9951 -0.5280 -0.4782
 2160TIP3   OH228038   0.874   1.371   8.151  0.5388 -0.8103 -0.4424
 2160TIP3    H128039   0.785   1.402   8.133  0.5829 -0.9530 -0.9343
 2160TIP3    H228040   0.893   1.402   8.239 -0.2864 -1.4248 -0.0268
 2161TIP3   OH228041   3.576   6.054   1.717  0.9307 -0.1809  0.4899
 2161TIP3    H128042   3.670   6.036   1.709  1.1182  0.2698  1.5249
 2161TIP3    H228043   3.569   6.115   1.791  0.0009  1.3258 -0.7723
 2162TIP3   OH228044   4.448   0.209   1.004  0.0513 -0.2180 -0.0523
 2162TIP3    H128045   4.414   0.134   1.053  0.8406 -1.1053 -0.8345
 2162TIP3    H228046   4.512   0.250   1.063 -0.5049 -0.0392  0.4411
 2163TIP3   OH228047   3.664   1.099   8.755  0.1645  0.2504  0.2908
 2163TIP3    H128048   3.708   1.021   8.789 -0.1482 -0.1092 -0.1226
 2163TIP3    H228049   3.734   1.149   8.714  0.3854  0.2422  0.6497
 2164TIP3   OH228050   6.180   6.736   1.579 -0.6944 -0.2024  0.0978
 2164TIP3    H128051   6.249   6.692   1.529 -0.9379 -1.0485  0.4823
 2164TIP3    H228052   6.099   6.702   1.541 -0.9486  1.3052 -0.8229
 2165TIP3   OH228053   5.884   3.075   1.401  0.1795 -0.1311 -0.3089
 2165TIP3    H128054   5.909   3.152   1.350  2.0826  0.2788  1.0946
 2165TIP3    H228055   5.909   3.001   1.346  1.0826  0.2972 -0.5077
 2166TIP3   OH228056   1.497   3.718   0.636  0.5485  0.2817  0.6994
 2166TIP3    H128057   1.503   3.686   0.546  0.6554  0.3310  0.6879
 2166TIP3    H228058   1.551   3.657   0.687 -0.2439 -0.2858  0.8825
 2167TIP3   OH228059   5.568   5.963   0.061  0.1963  0.2625  0.3224
 2167TIP3    H128060   5.640   5.963  -0.002  0.7648 -2.7510  0.8190
 2167TIP3    H228061   5.491   5.986   0.010  1.0438  0.4480 -0.9038
 2168TIP3   OH228062   3.792   6.730   7.900  0.0254 -0.2223  0.1983
 2168TIP3    H128063   3.771   6.818   7.929  0.7823 -0.1196  0.4635
 2168TIP3    H228064   3.867   6.741   7.841 -0.9003 -0.5297 -1.0691
 2169TIP3   OH228065   0.658   0.225   2.518  0.2161 -0.2349  0.0624
 2169TIP3    H128066   0.654   0.175   2.437 -0.0359  0.1465 -0.1621
 2169TIP3    H228067   0.714   0.173   2.576 -0.8006 -1.2679  0.1725
 2170TIP3   OH228068   4.998   6.002   7.882  0.5948 -0.3531  0.0934
 2170TIP3    H128069   5.064   6.070   7.895  0.8945 -0.5889 -0.1724
 2170TIP3    H228070   5.048   5.921   7.876  0.3656 -0.4353 -1.0011
 2171TIP3   OH228071   6.569   5.955   7.601  0.3790 -0.0955 -0.2575
 2171TIP3    H128072   6.527   6.023   7.653 -1.0444 -0.8509 -0.3934
 2171TIP3    H228073   6.662   5.960   7.625 -0.2587 -0.7233  2.7081
 2172TIP3   OH228074   0.129   4.987   8.022  0.1469 -0.1664 -0.6875
 2172TIP3    H128075   0.197   4.925   7.995 -1.8542 -3.7273  1.5825
 2172TIP3    H228076   0.073   4.996   7.945  0.4952 -1.2200 -1.0834
 2173TIP3   OH228077   0.883   3.806   0.746  0.1562 -0.6045  0.3356
 2173TIP3    H128078   0.815   3.872   0.733  1.7534  0.7654 -1.6346
 2173TIP3    H228079   0.840   3.723   0.726 -0.5869  0.3724 -2.6184
 2174TIP3   OH228080   2.871   2.135   1.535 -0.3740 -0.7769  0.2282
 2174TIP3    H128081   2.881   2.108   1.444 -1.0420  3.9382 -1.5332
 2174TIP3    H228082   2.794   2.193   1.534 -1.3270 -1.6678  4.1750
 2175TIP3   OH228083   6.764   2.505   8.689  0.3478 -0.1344 -0.6053
 2175TIP3    H128084   6.754   2.466   8.602 -0.7541 -1.1000 -0.0681
 2175TIP3    H228085   6.720   2.590   8.682  1.3983  0.3669 -1.3390
 2176TIP3   OH228086   4.969   6.385   1.645  0.1350 -0.6503 -0.0748
 2176TIP3    H128087   5.044   6.327   1.657 -0.8044 -1.9914 -0.3542
 2176TIP3    H228088   4.939   6.404   1.734  0.0341 -1.1772  0.0079
 2177TIP3   OH228089   5.203   1.126   2.550  0.2950  0.1776  0.0980
 2177TIP3    H128090   5.188   1.053   2.609  1.0032  0.6248  0.8507
 2177TIP3    H228091   5.294   1.151   2.564  1.4457 -1.5347 -3.2743
 2178TIP3   OH228092   1.031   3.379   7.144 -0.2284 -0.1166 -0.0812
 2178TIP3    H128093   1.030   3.472   7.168  1.1667 -0.2314  0.5200
 2178TIP3    H228094   0.959   3.340   7.194  0.2339  0.3558  0.9879
 2179TIP3   OH228095   2.776   2.768   7.875  0.2826 -0.2037  0.1596
 2179TIP3    H128096   2.782   2.853   7.833  0.8572 -0.6293 -0.6550
 2179TIP3    H228097   2.804   2.783   7.966 -4.8271  1.5704  1.7666
 2180TIP3   OH228098   0.190   0.201   0.461 -1.0783 -0.0015  0.6202
 2180TIP3    H128099   0.173   0.192   0.554 -1.3236 -3.6005  0.3694
 2180TIP3    H228100   0.285   0.202   0.453 -1.0534  0.9557  0.8957
 2181TIP3   OH228101   4.361   4.977   0.005 -0.2352 -0.2487  0.4146
 2181TIP3    H128102   4.400   5.065   0.001 -0.2610 -0.0891  2.4820
 2181TIP3    H228103   4.436   4.918   0.010 -0.1839 -0.4944 -1.9897
 2182TIP3   OH228104   6.336   2.859   7.640  0.1289 -0.6035 -0.4087
 2182TIP3    H128105   6.390   2.870   7.561  1.8513  1.0391  0.8932
 2182TIP3    H228106   6.300   2.947   7.656 -0.4724 -0.9963  0.4335
 2183TIP3   OH228107   3.254   5.225   1.097  0.5162 -0.3502 -0.4354
 2183TIP3    H128108   3.239   5.141   1.055 -2.9107 -0.4220  0.5809
 2183TIP3    H228109   3.200   5.287   1.048  0.6652  0.6363  0.5891
 2184TIP3   OH228110   0.775   6.691   1.779 -0.3825 -0.4560  0.6831
 2184TIP3    H128111   0.736   6.766   1.823 -1.6590 -0.0672 -1.0035
 2184TIP3    H228112   0.864   6.719   1.756 -0.3104 -0.0509  1.4453
 2185TIP3   OH228113   1.898   1.514   2.465 -0.0302 -0.4516  0.1829
 2185TIP3    H128114   1.865   1.584   2.521  2.2474  1.2211 -0.4370
 2185TIP3    H228115   1.833   1.506   2.396 -1.0845 -0.0464  1.1011
 2186TIP3   OH228116   5.378   3.486   0.387  0.3778  0.1377  0.6056
 2186TIP3    H128117   5.376   3.391   0.394  0.1800  0.0390 -0.6304
 2186TIP3    H228118   5.320   3.507   0.313  1.3506  1.1339  0.0963
 2187TIP3   OH228119   2.471   2.582   8.691  0.0347 -0.4628  0.8532
 2187TIP3    H128120   2.470   2.495   8.730 -0.4931  0.1275  2.1959
 2187TIP3    H228121   2.381   2.595   8.660  0.0149 -0.2357  1.0067
 2188TIP3   OH228122   4.602   6.631   7.406 -0.5385 -0.1465  0.2741
 2188TIP3    H128123   4.575   6.663   7.492  1.1614  0.1625  0.7447
 2188TIP3    H228124   4.609   6.709   7.352 -0.0614 -0.1502  0.3262
 2189TIP3   OH228125   1.198   4.679   7.721 -0.4326  0.5629  0.1861
 2189TIP3    H128126   1.237   4.663   7.807 -2.4795  0.6631  1.1852
 2189TIP3    H228127   1.163   4.768   7.727 -0.7850  0.4898 -0.6782
 2190TIP3   OH228128   0.778   6.112   0.779 -0.2447  0.2954 -0.0789
 2190TIP3    H128129   0.871   6.089   0.784  0.0243  1.4026  0.7217
 2190TIP3    H228130   0.773   6.177   0.709 -0.4217  0.2235 -0.1332
 2191TIP3   OH228131   2.037   4.606   8.582 -0.3127  0.4171 -0.0253
 2191TIP3    H128132   2.108   4.665   8.555  0.6178 -0.0671  1.2446
 2191TIP3    H228133   1.959   4.642   8.541  0.2256  2.5400  0.6909
 2192TIP3   OH228134   3.959   3.275   1.858 -0.7345 -0.0740 -0.1375
 2192TIP3    H128135   4.029   3.210   1.858  0.0595  0.7676 -0.4237
 2192TIP3    H228136   3.981   3.335   1.787 -0.8645  1.1325  0.8000
 2193TIP3   OH228137   0.780   4.112   0.651 -0.0901 -0.8019  0.3430
 2193TIP3    H128138   0.754   4.200   0.624  0.8633 -0.8860 -0.9390
 2193TIP3    H228139   0.856   4.126   0.708  0.4573 -0.8099 -0.3727
 2194TIP3   OH228140   0.913   6.726   7.713 -0.4571  0.8031  0.4903
 2194TIP3    H128141   0.962   6.774   7.780 -0.5267  2.2416 -0.4439
 2194TIP3    H228142   0.980   6.696   7.651 -0.4797  0.2386  0.7344
 2195TIP3   OH228143   5.628   1.463   1.966 -0.6166  0.2542 -0.4216
 2195TIP3    H128144   5.614   1.520   2.041 -1.7265  0.7638 -0.9933
 2195TIP3    H228145   5.589   1.379   1.992  1.9866 -0.6685  0.8507
 2196TIP3   OH228146   4.740   1.295   1.665  0.1249  0.3711 -0.1185
 2196TIP3    H128147   4.682   1.231   1.624 -2.0792  0.8554  2.0259
 2196TIP3    H228148   4.755   1.361   1.598  0.5342 -1.1640 -1.6136
 2197TIP3   OH228149   5.912   6.754   0.421  0.4771 -0.3425  0.2762
 2197TIP3    H128150   5.819   6.759   0.398 -0.0418 -1.2957  2.0185
 2197TIP3    H228151   5.920   6.674   0.473  1.9139  0.6539  1.6861
 2198TIP3   OH228152   3.490   0.923   2.398 -0.0345 -0.3902  0.1038
 2198TIP3    H128153   3.529   0.888   2.478  0.7246  1.6410  0.6741
 2198TIP3    H228154   3.493   1.018   2.409 -1.2722 -0.0926 -1.7092
 2199TIP3   OH228155   5.290   4.793   8.389 -0.2353  0.1055 -0.2869
 2199TIP3    H128156   5.288   4.750   8.474  1.4700 -0.5634 -0.5428
 2199TIP3    H228157   5.303   4.721   8.326 -0.8675  0.6508 -1.0665
 2200TIP3   OH228158   5.653   6.496   8.180  0.1378  0.2550  0.3079
 2200TIP3    H128159   5.661   6.589   8.160 -0.6151  0.7453  2.0689
 2200TIP3    H228160   5.559   6.478   8.172  0.3878 -0.6146 -0.9605
 2201TIP3   OH228161   5.664   1.683   1.605 -0.5683 -1.0722 -0.4750
 2201TIP3    H128162   5.595   1.738   1.571  0.1606 -0.8383 -1.6179
 2201TIP3    H228163   5.745   1.727   1.580  0.0070 -1.4110  0.7084
 2202TIP3   OH228164   1.854   0.949   0.329  0.0277  0.4618 -0.0415
 2202TIP3    H128165   1.850   0.904   0.413 -0.1153 -0.8028 -0.7077
 2202TIP3    H228166   1.946   0.973   0.319  0.0912  0.3890  0.3497
 2203TIP3   OH228167   2.250   0.508   2.028  0.1345  0.3124  0.2450
 2203TIP3    H128168   2.310   0.574   1.996 -0.2147  0.5944  0.1721
 2203TIP3    H228169   2.222   0.541   2.114  0.5197 -0.0955  0.5365
 2204TIP3   OH228170   3.375   1.353   1.453  0.0625 -0.4232  0.2119
 2204TIP3    H128171   3.417   1.368   1.368  1.2983 -1.6253  0.5743
 2204TIP3    H228172   3.360   1.258   1.455 -0.5080 -0.3188  1.0821
 2205TIP3   OH228173   3.329   1.061   1.458  0.1284 -0.2025 -0.5044
 2205TIP3    H128174   3.294   0.974   1.474  2.2157 -1.0490 -0.2753
 2205TIP3    H228175   3.416   1.061   1.499  1.3456  1.0179 -2.8204
 2206TIP3   OH228176   1.446   5.447   0.008  0.0729  0.1609 -0.2338
 2206TIP3    H128177   1.538   5.422   0.001 -0.4351 -1.6068 -1.1561
 2206TIP3    H228178   1.434   5.515  -0.058  0.9280  1.1764  0.6192
 2207TIP3   OH228179   2.412   1.176   0.348  0.1999 -0.1332  0.6509
 2207TIP3    H128180   2.344   1.146   0.407  0.4019 -1.6908  0.1307
 2207TIP3    H228181   2.472   1.103   0.340  1.6301  0.9951  0.6199
 2208TIP3   OH228182   4.785   3.150   1.106 -0.3830  0.1061 -0.0828
 2208TIP3    H128183   4.813   3.238   1.082 -0.4085  0.2640  0.4687
 2208TIP3    H228184   4.854   3.117   1.162 -0.1712 -0.3865 -0.6216
 2209TIP3   OH228185   2.072   4.924   0.032 -0.3408  0.4325 -0.6925
 2209TIP3    H128186   2.051   4.831   0.021  0.3492  0.1514  0.2750
 2209TIP3    H228187   2.134   4.942  -0.039 -0.6234  0.2110 -1.0030
 2210TIP3   OH228188   5.715   0.951   3.118 -0.0426  0.3211  0.4413
 2210TIP3    H128189   5.654   0.966   3.045 -0.3465 -0.5305  0.5076
 2210TIP3    H228190   5.680   0.874   3.162  0.2899  0.6775  1.3392
 2211TIP3   OH228191   4.985   1.353   8.027 -0.2974  0.3738 -0.6412
 2211TIP3    H128192   5.012   1.371   7.937  1.1976 -1.1385 -0.5406
 2211TIP3    H228193   5.054   1.297   8.062 -0.9735  0.7340  1.3836
 2212TIP3   OH228194   1.261   2.878   1.491 -0.2210  0.1612  0.6309
 2212TIP3    H128195   1.235   2.787   1.473  2.0914 -0.3617 -0.4759
 2212TIP3    H228196   1.349   2.870   1.528  1.5471  2.0099 -2.7210
 2213TIP3   OH228197   2.237   1.369   1.358  0.9732 -0.3977 -0.0930
 2213TIP3    H128198   2.142   1.360   1.357  0.8580 -0.4880  2.9101
 2213TIP3    H228199   2.254   1.461   1.337  0.0138  0.2992  2.0084
 2214TIP3   OH228200   4.118   1.030   8.703 -0.7636  0.2400  0.0740
 2214TIP3    H128201   4.088   1.096   8.641  1.2591  1.9244  0.7650
 2214TIP3    H228202   4.065   1.045   8.782 -0.5391  0.8478  0.1166
 2215TIP3   OH228203   0.610   0.722   8.715  0.1851  0.5532  0.4925
 2215TIP3    H128204   0.667   0.705   8.641 -0.4693 -1.2327  0.3572
 2215TIP3    H228205   0.522   0.726   8.678 -0.1966 -0.7841  1.2102
 2216TIP3   OH228206   0.447   0.923   8.542 -0.0870  0.0201  0.0058
 2216TIP3    H128207   0.381   0.990   8.558 -0.3066  0.0775 -1.0231
 2216TIP3    H228208   0.506   0.928   8.617 -0.5225  0.8546  0.3047
 2217TIP3   OH228209   3.155   6.353   1.787  0.6364 -0.3311  0.0915
 2217TIP3    H128210   3.179   6.283   1.848  1.6298 -0.9748 -1.0075
 2217TIP3    H228211   3.236   6.374   1.741 -0.1100  0.0907 -1.0741
 2218TIP3   OH228212   5.146   1.141   7.762 -0.1374  0.1796  1.2438
 2218TIP3    H128213   5.206   1.067   7.753 -0.6554  0.0016 -1.9911
 2218TIP3    H228214   5.196   1.217   7.732 -0.4965  0.6561  1.8255
 2219TIP3   OH228215   2.620   0.217   8.311 -0.6009  0.6507  0.0507
 2219TIP3    H128216   2.668   0.263   8.242  0.3652 -0.7067 -0.2230
 2219TIP3    H228217   2.688   0.167   8.357 -1.3159  1.0655  1.6198
 2220TIP3   OH228218   2.400   2.948   0.373 -0.1732  0.0720  0.3182
 2220TIP3    H128219   2.486   2.984   0.349 -0.2328  0.8958  1.2586
 2220TIP3    H228220   2.347   3.025   0.391 -0.8619 -0.4627  0.5765
 2221TIP3   OH228221   4.297   5.970   0.936 -0.4889 -0.1766  0.3853
 2221TIP3    H128222   4.354   6.046   0.946 -1.1565  0.7303 -1.9570
 2221TIP3    H228223   4.212   6.008   0.912 -0.8815 -1.6378 -0.6346
 2222TIP3   OH228224   1.194   6.293   8.754  0.4880 -0.0602 -0.0472
 2222TIP3    H128225   1.100   6.296   8.775  0.5302  1.7096  0.0971
 2222TIP3    H228226   1.216   6.200   8.753 -1.2348 -0.5072  0.0653
 2223TIP3   OH228227   0.005   3.935   8.100 -0.2080 -0.1220  0.1627
 2223TIP3    H128228   0.003   4.002   8.032 -1.7326  0.8174  1.0846
 2223TIP3    H228229   0.098   3.916   8.112  0.3151  2.1081  0.1253
 2224TIP3   OH228230   5.696   4.578   8.477 -0.2078  0.6682 -0.2203
 2224TIP3    H128231   5.772   4.524   8.501 -0.8191  0.5820  1.7601
 2224TIP3    H228232   5.641   4.576   8.555 -1.7280  1.6459 -1.2228
 2225TIP3   OH228233   1.401   3.818   8.724  0.5776  1.0113 -0.3639
 2225TIP3    H128234   1.473   3.785   8.778  0.6715  0.5396 -0.7690
 2225TIP3    H228235   1.437   3.895   8.680  0.7159  0.9898 -0.2894
 2226TIP3   OH228236   5.773   0.116   3.044  0.0802 -0.1011 -0.1496
 2226TIP3    H128237   5.777   0.063   3.123 -0.9775  1.3572  0.9357
 2226TIP3    H228238   5.679   0.129   3.028  0.2914  0.1797 -1.2748
 2227TIP3   OH228239   1.062   6.239   8.414 -0.0793  0.0325 -0.0170
 2227TIP3    H128240   0.970   6.248   8.392 -0.3956 -1.2871  0.6243
 2227TIP3    H228241   1.089   6.326   8.443 -1.1592  0.4007 -0.0770
 2228TIP3   OH228242   3.160   5.157   2.344  0.0890 -0.1506  0.5113
 2228TIP3    H128243   3.213   5.130   2.269  0.0083  1.0562 -0.0027
 2228TIP3    H228244   3.223   5.186   2.409  0.1074  0.1892  0.3437
 2229TIP3   OH228245   6.503   0.024   1.153  0.0372  0.7265 -0.2142
 2229TIP3    H128246   6.467   0.112   1.159  0.2738  0.8470 -0.5541
 2229TIP3    H228247   6.431  -0.034   1.180 -0.9403  0.8488 -2.4239
 2230TIP3   OH228248   4.321   3.202   0.978 -0.2232  0.4065  0.1534
 2230TIP3    H128249   4.285   3.201   1.067 -2.2083  0.1422 -0.6002
 2230TIP3    H228250   4.306   3.291   0.947  0.1590  0.4068 -0.0318
 2231TIP3   OH228251   4.805   3.108   0.082 -0.1243  0.2909  0.4577
 2231TIP3    H128252   4.879   3.098   0.022 -0.2731 -1.5021  0.4960
 2231TIP3    H228253   4.746   3.168   0.037  0.4075  0.0958 -0.5471
 2232TIP3   OH228254   4.258   1.071   0.760 -0.0146 -0.5652 -0.0191
 2232TIP3    H128255   4.289   0.996   0.810  0.7001  0.4465  1.1310
 2232TIP3    H228256   4.326   1.138   0.774 -1.1162  0.6160 -0.1678
 2233TIP3   OH228257   3.035   2.752   1.297  0.0503 -0.3947  0.2523
 2233TIP3    H128258   3.005   2.733   1.386  0.2956 -1.1621  0.1746
 2233TIP3    H228259   2.955   2.774   1.249  0.1304  2.1847  1.1622
 2234TIP3   OH228260   1.030   6.760   1.723 -0.5060  0.9911 -0.0858
 2234TIP3    H128261   1.086   6.822   1.676 -1.0176  0.9237 -0.7940
 2234TIP3    H228262   1.067   6.757   1.811  0.0884  1.5949 -0.3044
 2235TIP3   OH228263   5.402   0.095   0.220 -0.1187 -0.0534 -0.0067
 2235TIP3    H128264   5.378   0.021   0.164  1.0804  0.1825 -0.8754
 2235TIP3    H228265   5.372   0.172   0.172  2.8340  0.2972 -1.4716
 2236TIP3   OH228266   2.099   1.849   3.187  0.0592  0.5292  0.9309
 2236TIP3    H128267   2.176   1.800   3.162 -0.0432  1.6294 -1.9144
 2236TIP3    H228268   2.042   1.846   3.110 -2.7017 -0.0734  2.8425
 2237TIP3   OH228269   4.893   5.618   2.761 -0.3666 -0.1248 -0.7063
 2237TIP3    H128270   4.957   5.562   2.717  1.0328  0.5245  0.4086
 2237TIP3    H228271   4.904   5.704   2.721  0.5037  0.3272  0.4421
 2238TIP3   OH228272   2.649   0.904   0.047  0.8918  0.0413  0.6687
 2238TIP3    H128273   2.700   0.962   0.104  0.5060  0.6645  0.3896
 2238TIP3    H228274   2.692   0.912  -0.038  0.1912  0.7621  0.3728
 2239TIP3   OH228275   3.451   2.657   2.325  0.3460  0.5615  0.2322
 2239TIP3    H128276   3.356   2.653   2.315  0.2277  1.5004  0.8353
 2239TIP3    H228277   3.468   2.745   2.357  1.5311  0.8033 -0.9702
 2240TIP3   OH228278   0.971   3.820   2.275  0.0173  0.2330 -0.1208
 2240TIP3    H128279   0.915   3.753   2.314 -0.9913  1.1885  0.1091
 2240TIP3    H228280   0.974   3.797   2.182 -3.3136  1.8409 -0.7630
 2241TIP3   OH228281   3.855   6.520   2.525  0.4058  0.3796  0.6736
 2241TIP3    H128282   3.826   6.563   2.445  0.4650  0.5316  0.7329
 2241TIP3    H228283   3.796   6.445   2.535  0.2731  0.4722  0.5926
 2242TIP3   OH228284   4.345   3.509   0.140 -0.5415 -0.1877  0.2830
 2242TIP3    H128285   4.357   3.532   0.232 -1.8958  0.4747  0.3244
 2242TIP3    H228286   4.253   3.481   0.135 -0.7409  0.6382 -1.0341
 2243TIP3   OH228287   4.784   5.864   7.704 -0.5964 -0.5370  0.1541
 2243TIP3    H128288   4.792   5.902   7.792  0.4317 -1.5804  0.5470
 2243TIP3    H228289   4.874   5.856   7.674 -0.9806  0.7128 -1.4282
 2244TIP3   OH228290   2.872   5.249   2.494 -0.2806  0.1159 -0.0674
 2244TIP3    H128291   2.907   5.196   2.566 -1.3430 -0.4842  0.0338
 2244TIP3    H228292   2.945   5.258   2.433  0.2925 -0.3687  0.5312
 2245TIP3   OH228293   6.354   5.507   1.191  0.3953 -0.2209 -0.3800
 2245TIP3    H128294   6.404   5.549   1.120 -0.6526 -1.2633 -1.7848
 2245TIP3    H228295   6.263   5.517   1.165 -0.1842  1.4011  2.0131
 2246TIP3   OH228296   4.504   6.208   7.228  0.0855  0.1187 -0.0694
 2246TIP3    H128297   4.442   6.272   7.194 -1.4981 -1.8710 -1.1510
 2246TIP3    H228298   4.487   6.206   7.322 -1.4528 -0.2812 -0.3250
 2247TIP3   OH228299   5.593   6.415   2.864 -0.0370 -0.0125 -0.0748
 2247TIP3    H128300   5.671   6.361   2.874 -0.1631 -0.1603  0.1139
 2247TIP3    H228301   5.588   6.465   2.945 -0.0619  0.0992 -0.1446
 2248TIP3   OH228302   2.195   2.158   7.421 -0.0091 -0.5399  0.4642
 2248TIP3    H128303   2.121   2.207   7.456 -0.6528 -0.5599 -0.8012
 2248TIP3    H228304   2.227   2.212   7.349  0.4338 -1.1108  0.2255
 2249TIP3   OH228305   3.661   0.874   3.440 -0.1659 -0.0393 -0.0692
 2249TIP3    H128306   3.599   0.939   3.408  0.1038 -0.0063 -0.5340
 2249TIP3    H228307   3.646   0.798   3.384 -1.4041 -0.8629  1.3159
 2250TIP3   OH228308   5.532   0.043   8.579  0.2720  0.1203 -0.8109
 2250TIP3    H128309   5.525  -0.050   8.602 -1.6016  0.1610 -1.0601
 2250TIP3    H228310   5.442   0.070   8.562  0.1500  3.0119  3.1580
 2251TIP3   OH228311   1.165   3.546   0.385  0.0962  0.4637  0.2755
 2251TIP3    H128312   1.090   3.487   0.374  0.7236 -0.1827 -0.5910
 2251TIP3    H228313   1.178   3.550   0.480 -1.0850  0.6572  0.4499
 2252TIP3   OH228314   1.891   0.649   0.166  0.3648  0.1900  0.4307
 2252TIP3    H128315   1.905   0.688   0.079  0.4028 -0.9195 -0.0771
 2252TIP3    H228316   1.839   0.570   0.148  0.9454 -0.4138  1.3439
 2253TIP3   OH228317   0.684   5.389   1.391  0.1586  0.0069 -0.2641
 2253TIP3    H128318   0.765   5.414   1.347  1.7616 -1.8018  1.4567
 2253TIP3    H228319   0.647   5.320   1.337  1.1700 -0.9699  0.2684
 2254TIP3   OH228320   1.524   0.380   8.086  0.2180 -0.0062  0.2957
 2254TIP3    H128321   1.566   0.441   8.025 -0.3161 -0.3279 -0.4057
 2254TIP3    H228322   1.596   0.346   8.139  0.7638 -0.1335 -0.5201
 2255TIP3   OH228323   1.915   0.018   0.354  0.0974 -0.3634 -0.0870
 2255TIP3    H128324   1.837   0.008   0.408 -1.0013  3.0568 -0.8082
 2255TIP3    H228325   1.970   0.080   0.403  0.2928  0.7291 -1.6275
 2256TIP3   OH228326   3.245   0.892   0.510  0.9721  0.1983 -0.2274
 2256TIP3    H128327   3.236   0.855   0.598 -1.6473  2.4599  0.5984
 2256TIP3    H228328   3.216   0.983   0.519  2.5922  1.1364 -3.0612
 2257TIP3   OH228329   5.015   3.009   2.685  0.3799  0.0641  0.4964
 2257TIP3    H128330   5.028   3.045   2.773  1.2263  1.8413 -0.3074
 2257TIP3    H228331   5.102   2.983   2.656  0.4345  1.2444 -0.4997
 2258TIP3   OH228332   2.129   3.980   6.858  0.5387  0.3228 -0.4454
 2258TIP3    H128333   2.062   4.035   6.897  0.1739 -0.1704 -0.3645
 2258TIP3    H228334   2.178   4.038   6.800 -0.4519  0.5157 -1.1021
 2259TIP3   OH228335   1.000   0.957   0.888  0.5989 -0.0856  0.1504
 2259TIP3    H128336   1.055   0.885   0.918  0.6993 -0.4789 -0.9357
 2259TIP3    H228337   1.047   0.995   0.814  2.2809  3.3474  2.6741
 2260TIP3   OH228338   5.972   1.082   0.043 -0.4140  0.4325 -0.3556
 2260TIP3    H128339   6.012   0.995   0.040  0.5720  0.8858 -1.0781
 2260TIP3    H228340   5.888   1.071  -0.002 -0.4858 -0.2336 -0.0695
 2261TIP3   OH228341   3.600   2.001   8.742  0.5159  0.3263 -0.3178
 2261TIP3    H128342   3.675   2.051   8.711  2.7975 -1.4711  1.8634
 2261TIP3    H228343   3.622   1.978   8.832 -1.0608 -3.1421 -0.6428
 2262TIP3   OH228344   4.601   1.019   1.032 -0.1043  0.2311  0.3602
 2262TIP3    H128345   4.638   1.106   1.015 -0.7008  0.4075 -0.0736
 2262TIP3    H228346   4.651   0.960   0.976 -1.8797  0.7707 -1.9477
 2263TIP3   OH228347   3.113   3.160   3.130  0.1048  0.2088  0.3255
 2263TIP3    H128348   3.202   3.149   3.095 -0.0416 -1.1813  0.3272
 2263TIP3    H228349   3.116   3.242   3.178  0.8833  1.1224 -1.2126
 2264TIP3   OH228350   2.342   1.165   0.608  0.1231  0.0171  0.5576
 2264TIP3    H128351   2.365   1.241   0.555  1.6984 -1.5496 -1.1179
 2264TIP3    H228352   2.343   1.198   0.698  2.6971  1.5579  0.0593
 2265TIP3   OH228353   1.119   0.367   0.106 -0.4134 -0.0103 -0.1617
 2265TIP3    H128354   1.057   0.409   0.046  1.9993  3.1947 -0.6671
 2265TIP3    H228355   1.195   0.347   0.051 -0.4102 -2.7458  0.6802
 2266TIP3   OH228356   3.352   2.497   8.105  0.2170  0.7398 -0.0999
 2266TIP3    H128357   3.271   2.475   8.151  1.3109 -0.3447  1.3997
 2266TIP3    H228358   3.324   2.518   8.016 -1.6170 -0.4527  0.1433
 2267TIP3   OH228359   2.063   3.742   0.046 -0.0117  0.0245  0.2318
 2267TIP3    H128360   2.019   3.665   0.082  0.0625  0.3787  1.1209
 2267TIP3    H228361   2.106   3.711  -0.033 -0.0563 -0.8296  0.5303
 2268TIP3   OH228362   4.673   5.656   0.518  0.1564  0.0280 -0.0260
 2268TIP3    H128363   4.727   5.647   0.597 -1.2362  0.1556  0.9661
 2268TIP3    H228364   4.586   5.628   0.545 -0.8640  2.1870 -0.9179
 2269TIP3   OH228365   5.955   0.419   2.228 -0.8732 -0.4220 -0.7589
 2269TIP3    H128366   5.992   0.460   2.150 -1.0244  0.0666 -0.5805
 2269TIP3    H228367   5.907   0.489   2.271  0.8629 -0.1461  0.8439
 2270TIP3   OH228368   3.508   2.070   8.408  0.2198  0.1071  0.0148
 2270TIP3    H128369   3.488   2.160   8.385 -1.1992 -0.2839 -0.4241
 2270TIP3    H228370   3.603   2.068   8.420  0.4467  1.3457 -1.3113
 2271TIP3   OH228371   3.103   1.513   8.195 -0.2482  0.7139 -0.2088
 2271TIP3    H128372   3.194   1.503   8.221 -0.2712 -0.5493 -0.5222
 2271TIP3    H228373   3.100   1.483   8.104 -1.0061  0.5050 -0.1287
 2272TIP3   OH228374   5.636   4.800   0.864  0.1111 -0.0011  0.1936
 2272TIP3    H128375   5.725   4.835   0.871  0.3681 -0.8655  1.7109
 2272TIP3    H228376   5.597   4.816   0.951 -0.2414 -2.1363  0.4784
 2273TIP3   OH228377   1.445   6.786   1.847  0.3411 -0.4645  0.0539
 2273TIP3    H128378   1.491   6.857   1.892  1.5322 -0.7560 -0.6673
 2273TIP3    H228379   1.507   6.755   1.781 -0.9341 -0.8107 -1.0234
 2274TIP3   OH228380   4.383   3.029   8.474  0.0160 -0.4594 -0.3793
 2274TIP3    H128381   4.381   3.122   8.450  1.5541 -0.0299  0.9323
 2274TIP3    H228382   4.452   2.991   8.419 -0.8613 -0.9345 -1.1772
 2275TIP3   OH228383   3.100   5.466   0.198 -0.0046  0.3555  0.0623
 2275TIP3    H128384   3.081   5.376   0.172  1.3875  0.3040 -0.8837
 2275TIP3    H228385   3.015   5.509   0.199 -0.7803 -1.0923  1.1229
 2276TIP3   OH228386   1.906   3.336   8.554 -0.0133 -0.2629  0.6390
 2276TIP3    H128387   1.816   3.304   8.563  0.2761 -0.6933  2.3675
 2276TIP3    H228388   1.945   3.325   8.641  1.4013  0.8984  0.2090
 2277TIP3   OH228389   5.829   4.346   1.596 -0.1162  0.6016  0.2474
 2277TIP3    H128390   5.794   4.284   1.532  0.5056  0.1413  0.3444
 2277TIP3    H228391   5.833   4.429   1.549  1.7149 -0.0324 -0.8245
 2278TIP3   OH228392   6.552   1.749   8.747 -0.0067 -0.1462  0.4909
 2278TIP3    H128393   6.587   1.729   8.834 -0.9189 -1.7151  0.5394
 2278TIP3    H228394   6.587   1.680   8.691 -1.1668 -0.4219  0.0869
 2279TIP3   OH228395   0.683   2.881   2.305 -0.1819 -0.4985  0.4078
 2279TIP3    H128396   0.662   2.814   2.370 -0.5666  0.0898  0.9028
 2279TIP3    H228397   0.693   2.962   2.356 -1.1044  0.0945 -0.3299
 2280TIP3   OH228398   4.931   6.057   8.616  0.6155 -0.2499 -0.0572
 2280TIP3    H128399   4.837   6.052   8.632  0.9096  1.1017  2.8018
 2280TIP3    H228400   4.960   5.966   8.610 -1.0055 -0.6803 -2.4757
 2281TIP3   OH228401   0.527   3.784   0.365  0.1100  0.4635  0.0451
 2281TIP3    H128402   0.544   3.855   0.426  2.5415 -0.2875  0.3523
 2281TIP3    H228403   0.565   3.813   0.282  1.1230 -0.4487  0.1727
 2282TIP3   OH228404   4.253   3.172   7.460 -0.1508 -0.2560 -0.2745
 2282TIP3    H128405   4.188   3.181   7.391  0.4746 -0.3507 -0.8849
 2282TIP3    H228406   4.325   3.124   7.419 -0.3235 -1.4845  0.8173
 2283TIP3   OH228407   0.829   5.356   8.213  0.0369 -0.3616 -0.0594
 2283TIP3    H128408   0.884   5.337   8.288  1.7490 -0.5274 -1.3150
 2283TIP3    H228409   0.883   5.337   8.137 -1.2982  0.7313 -1.3584
 2284TIP3   OH228410   3.165   2.336   3.123  0.4154 -0.2060  0.1133
 2284TIP3    H128411   3.113   2.282   3.182  0.4162 -0.2705  0.0550
 2284TIP3    H228412   3.108   2.354   3.049  1.2208 -2.2661 -1.0912
 2285TIP3   OH228413   1.445   0.335   1.685  0.0906 -0.1712  0.3038
 2285TIP3    H128414   1.529   0.375   1.706 -0.3474 -0.0576  1.9388
 2285TIP3    H228415   1.457   0.300   1.596  1.5925  0.5208  0.2001
 2286TIP3   OH228416   5.397   2.613   7.962  0.4513  0.6580 -0.0796
 2286TIP3    H128417   5.403   2.695   8.010  1.0372  0.4534  0.2072
 2286TIP3    H228418   5.408   2.545   8.029  0.4571  0.3594 -0.3803
 2287TIP3   OH228419   4.519   3.393   0.888 -0.3761  0.4976 -0.0902
 2287TIP3    H128420   4.536   3.300   0.877 -1.6488  0.3521 -1.0282
 2287TIP3    H228421   4.560   3.416   0.971 -1.4603 -1.2511  0.9697
 2288TIP3   OH228422   2.871   4.995   1.599  0.0301  0.1998  0.3561
 2288TIP3    H128423   2.838   4.924   1.654  1.2724 -0.2003  0.6144
 2288TIP3    H228424   2.805   5.065   1.607 -2.0900 -1.4716 -1.2114
 2289TIP3   OH228425   2.464   5.204   7.248 -0.3824 -0.1833 -0.1680
 2289TIP3    H128426   2.530   5.250   7.196 -1.1879 -1.7304 -2.7587
 2289TIP3    H228427   2.504   5.119   7.266 -0.2875  0.1836  1.4559
 2290TIP3   OH228428   0.393   3.518   2.409 -0.3116  0.3262 -0.2422
 2290TIP3    H128429   0.328   3.549   2.471  0.3276 -0.3112  0.7730
 2290TIP3    H228430   0.353   3.441   2.368  0.5782 -1.4058  1.9535
 2291TIP3   OH228431   5.783   6.582   8.742  0.3179  0.3376 -0.8313
 2291TIP3    H128432   5.738   6.618   8.818 -1.7165 -1.4946 -1.0806
 2291TIP3    H228433   5.848   6.521   8.778  0.0308  0.2082 -0.5356
 2292TIP3   OH228434   6.715   2.113   7.960 -0.0035 -0.1477 -0.0305
 2292TIP3    H128435   6.669   2.032   7.982  0.7557 -0.8428 -0.9115
 2292TIP3    H228436   6.690   2.131   7.869 -1.0971  1.2771  0.5224
 2293TIP3   OH228437   6.089   5.884   8.543  0.1792  0.4226  0.0934
 2293TIP3    H128438   6.085   5.908   8.450  0.7585  0.4860  0.0801
 2293TIP3    H228439   6.044   5.799   8.547  4.0283 -1.9132 -1.0952
 2294TIP3   OH228440   6.522   5.015   8.149  0.3416 -0.5064  0.0662
 2294TIP3    H128441   6.536   4.935   8.200  0.1762 -0.2573  0.5107
 2294TIP3    H228442   6.434   5.005   8.113 -0.8656  0.7017  2.4489
 2295TIP3   OH228443   4.083   5.321   2.850  0.8265 -0.3885  0.1485
 2295TIP3    H128444   4.078   5.236   2.807 -0.8467  0.0529 -0.6144
 2295TIP3    H228445   4.012   5.372   2.811  1.2253  1.0685  1.2279
 2296TIP3   OH228446   1.000   3.578   2.052  0.0069  0.2066  0.0717
 2296TIP3    H128447   0.994   3.483   2.044  1.8384 -0.0260  0.8546
 2296TIP3    H228448   1.090   3.599   2.027 -0.0540  1.6153  0.8849
 2297TIP3   OH228449   2.355   0.285   2.633  0.2656  0.3560  0.9620
 2297TIP3    H128450   2.329   0.370   2.597  1.6368  0.7846  0.9490
 2297TIP3    H228451   2.277   0.254   2.679 -1.4425 -0.0445 -1.9887
 2298TIP3   OH228452   3.695   2.439   2.749 -0.2906  0.0348 -0.1526
 2298TIP3    H128453   3.742   2.455   2.831 -0.2513 -1.8498  0.2256
 2298TIP3    H228454   3.629   2.373   2.770  0.3216 -1.1852 -1.8012
 2299TIP3   OH228455   0.239   4.079   0.460  0.0926  0.1771 -0.5568
 2299TIP3    H128456   0.329   4.076   0.493  0.0783 -0.1271 -0.5344
 2299TIP3    H228457   0.195   4.142   0.517  0.6407  1.4220 -1.4874
 2300TIP3   OH228458   0.005   4.072   1.000 -0.2614 -0.6648 -0.4031
 2300TIP3    H128459   0.034   4.011   0.932 -0.6777 -0.4417 -0.7852
 2300TIP3    H228460  -0.052   4.021   1.056  2.0305 -1.5509  1.2764
 2301TIP3   OH228461   2.690   5.264   1.337  0.2061  0.3992  0.3887
 2301TIP3    H128462   2.723   5.242   1.424 -1.1649  2.2162  1.4636
 2301TIP3    H228463   2.638   5.344   1.351 -1.9139 -0.4912 -1.7039
 2302TIP3   OH228464   3.805   4.608   0.998 -0.2602  0.1710 -0.1934
 2302TIP3    H128465   3.852   4.679   1.042  0.5250  0.5585 -1.5980
 2302TIP3    H228466   3.750   4.570   1.066  0.8175  0.8149  1.0819
 2303TIP3   OH228467   6.373   6.808   2.828 -0.2367 -0.1835  0.5540
 2303TIP3    H128468   6.341   6.884   2.780  1.5580  0.8948  0.9660
 2303TIP3    H228469   6.452   6.839   2.872  1.8179 -2.8345 -0.9595
 2304TIP3   OH228470   4.962   1.496   0.031  0.5534  0.7481  0.1114
 2304TIP3    H128471   4.899   1.519  -0.036 -0.1075  1.7132  1.0375
 2304TIP3    H228472   4.945   1.403   0.049  0.1397  0.7191 -0.4082
 2305TIP3   OH228473   3.405   2.762   0.155  0.4001  0.5829 -0.2263
 2305TIP3    H128474   3.351   2.839   0.139 -0.0725  0.3213  0.0697
 2305TIP3    H228475   3.388   2.740   0.247  0.2147 -0.1099 -0.4184
 2306TIP3   OH228476   4.928   2.953   7.600 -0.9511  0.3450  0.1368
 2306TIP3    H128477   5.012   2.961   7.645 -0.9651  1.0719  0.0468
 2306TIP3    H228478   4.943   2.994   7.515 -1.1835 -0.2072 -0.1721
 2307TIP3   OH228479   2.278   3.837   0.559 -0.6549 -0.1560  0.4083
 2307TIP3    H128480   2.282   3.828   0.463  1.0819 -1.0790  0.5196
 2307TIP3    H228481   2.194   3.797   0.583 -1.8724  1.5282 -0.8272
 2308TIP3   OH228482   3.215   6.174   1.986 -0.1978 -0.6646 -0.2801
 2308TIP3    H128483   3.164   6.182   2.066  0.1883 -0.9543 -0.0029
 2308TIP3    H228484   3.210   6.081   1.964 -0.8396 -0.4846 -0.9527
 2309TIP3   OH228485   5.931   0.828   3.280  0.1565  0.3120  0.0109
 2309TIP3    H128486   5.985   0.749   3.273  0.2737  0.4346 -0.5571
 2309TIP3    H228487   5.842   0.795   3.290 -0.1424  0.0266 -2.6614
 2310TIP3   OH228488   2.839   2.127   2.064  0.2060  0.1893  0.0108
 2310TIP3    H128489   2.765   2.078   2.100  1.2727 -1.6120 -0.1033
 2310TIP3    H228490   2.896   2.060   2.026  2.3695  1.3911  0.9286
 2311TIP3   OH228491   0.161   2.448   8.378  0.3758 -0.1317 -0.1167
 2311TIP3    H128492   0.098   2.391   8.333 -0.4198 -0.1620  1.0041
 2311TIP3    H228493   0.121   2.535   8.375  0.3030 -0.1425  0.5621
 2312TIP3   OH228494   2.655   6.469   0.873  0.5752  0.2716 -0.2654
 2312TIP3    H128495   2.717   6.542   0.882  1.2133 -0.1425 -1.1089
 2312TIP3    H228496   2.706   6.392   0.898 -0.2430  0.1539  1.1121
 2313TIP3   OH228497   1.113   5.181   1.835 -0.0360 -0.2908  0.3067
 2313TIP3    H128498   1.037   5.209   1.886  0.8130  2.2118  0.3427
 2313TIP3    H228499   1.089   5.201   1.744  0.1400 -0.6275  0.1838
 2314TIP3   OH228500   4.438   0.940   6.955  0.1367 -0.2943  0.1438
 2314TIP3    H128501   4.477   0.963   6.871 -0.3814 -0.3438 -0.1124
 2314TIP3    H228502   4.440   1.022   7.005 -0.3180 -0.0545 -0.2200
 2315TIP3   OH228503   4.020   2.746   0.162  0.4295 -0.4920  0.5499
 2315TIP3    H128504   4.105   2.701   0.161  0.9411  0.4199  0.9173
 2315TIP3    H228505   3.971   2.706   0.091  1.5356 -0.3882 -0.3155
 2316TIP3   OH228506   3.741   3.986   8.008 -0.1474  0.3771 -0.5712
 2316TIP3    H128507   3.756   3.991   8.103  0.1704  1.6793 -0.6624
 2316TIP3    H228508   3.771   4.071   7.975  0.6234 -0.4079 -1.9712
 2317TIP3   OH228509   1.937   6.204   0.523  0.5307  0.1003 -0.0820
 2317TIP3    H128510   2.023   6.173   0.494  0.2535  0.7405 -1.7013
 2317TIP3    H228511   1.894   6.231   0.442 -0.4967  1.5376  0.9187
 2318TIP3   OH228512   1.171   4.439   0.732  0.4863  1.1078 -0.0848
 2318TIP3    H128513   1.203   4.509   0.789 -0.0013  0.6797  0.7324
 2318TIP3    H228514   1.248   4.385   0.714  0.9669  2.0852 -1.0988
 2319TIP3   OH228515   6.200   1.763   8.709 -0.2304  0.6185 -0.2691
 2319TIP3    H128516   6.167   1.845   8.745 -0.1932  0.7102 -0.4396
 2319TIP3    H228517   6.290   1.783   8.684  0.3310  0.0522  1.2393
 2320TIP3   OH228518   1.874   4.369   8.530 -0.0748 -0.0220 -0.0067
 2320TIP3    H128519   1.782   4.359   8.554 -0.1556 -1.0436 -0.6626
 2320TIP3    H228520   1.902   4.448   8.576 -0.9104 -0.4293  1.2629
 2321TIP3   OH228521   2.817   6.677   1.003 -0.4168  0.3027 -0.0691
 2321TIP3    H128522   2.734   6.720   1.023 -0.0150  0.1257  2.1811
 2321TIP3    H228523   2.878   6.711   1.067  0.9117 -0.6425 -0.7812
 2322TIP3   OH228524   0.448   2.469   2.174 -0.7748 -0.1220  0.0130
 2322TIP3    H128525   0.516   2.437   2.233 -0.1827 -0.4991 -0.8495
 2322TIP3    H228526   0.474   2.560   2.155  0.6101 -0.8418 -1.8339
 2323TIP3   OH228527   5.945   4.153   0.214  0.6045  0.7153 -0.0290
 2323TIP3    H128528   5.995   4.153   0.295  0.0525 -2.6285  0.4761
 2323TIP3    H228529   6.003   4.111   0.150  0.3576  1.6628 -0.9151
 2324TIP3   OH228530   2.684   2.240   8.264  0.2602  0.2061 -0.4578
 2324TIP3    H128531   2.640   2.173   8.212 -0.1828 -0.5244  0.8342
 2324TIP3    H228532   2.777   2.228   8.244  0.4186 -2.3079  1.4174
 2325TIP3   OH228533   4.821   3.620   1.709 -0.1211 -0.8186 -0.4406
 2325TIP3    H128534   4.780   3.666   1.636  0.5808 -2.3906 -1.8798
 2325TIP3    H228535   4.759   3.551   1.731 -0.3944 -0.2700  0.5819
 2326TIP3   OH228536   1.896   1.941   0.026  0.0665 -0.6724  0.5390
 2326TIP3    H128537   1.892   1.974  -0.064  1.6235 -0.4436  0.5233
 2326TIP3    H228538   1.925   1.850   0.016 -0.6476 -0.9327  0.7757
 2327TIP3   OH228539   4.986   5.739   8.736 -0.2235  0.0982 -0.2186
 2327TIP3    H128540   4.895   5.713   8.726 -0.2113  0.6898 -2.3863
 2327TIP3    H228541   5.036   5.658   8.727 -0.4192  0.1485 -2.3975
 2328TIP3   OH228542   0.596   3.918   0.598  0.3046  0.3841  0.0913
 2328TIP3    H128543   0.555   3.889   0.680  0.6830  0.6629  0.3850
 2328TIP3    H228544   0.649   3.993   0.624 -1.4548  2.0193 -0.8019
 2329TIP3   OH228545   3.944   0.140   8.193 -0.0075 -0.1989 -0.4281
 2329TIP3    H128546   3.982   0.226   8.211  1.2803 -0.4739 -1.6343
 2329TIP3    H228547   3.894   0.153   8.112 -1.2810 -0.1919  0.3440
 2330TIP3   OH228548   0.879   1.405   0.087  0.3613  0.1033  0.0414
 2330TIP3    H128549   0.847   1.336   0.029 -0.0191  0.8636 -0.6711
 2330TIP3    H228550   0.803   1.431   0.138  0.1384  0.9847 -0.7131
 2331TIP3   OH228551   1.026   1.871   2.236  0.5675  0.7656 -0.0779
 2331TIP3    H128552   0.984   1.956   2.245 -1.2345 -0.1678  0.8064
 2331TIP3    H228553   0.954   1.809   2.225  1.6957 -0.8898  1.2839
 2332TIP3   OH228554   0.908   2.959   0.188 -0.0440 -0.0251  0.8582
 2332TIP3    H128555   0.992   2.915   0.174 -0.7839 -1.3469  0.2748
 2332TIP3    H228556   0.915   2.998   0.275  0.3355 -2.2010  1.8806
 2333TIP3   OH228557   6.167   2.520   1.336 -0.0047  0.3146 -0.2308
 2333TIP3    H128558   6.169   2.427   1.315 -0.9122  0.2636 -0.1015
 2333TIP3    H228559   6.214   2.561   1.263 -0.3212 -0.1663 -0.7103
 2334TIP3   OH228560   3.012   5.207   0.309 -0.3971 -0.4908 -0.1254
 2334TIP3    H128561   2.942   5.188   0.371  0.1569 -1.4454  0.2335
 2334TIP3    H228562   3.092   5.203   0.361  0.1813 -2.4357 -1.0670
 2335TIP3   OH228563   1.509   3.747   1.577  0.4227 -0.0175  0.1440
 2335TIP3    H128564   1.578   3.809   1.553 -1.7841  2.0594 -1.3329
 2335TIP3    H228565   1.500   3.690   1.500  1.3851 -1.1977  0.8818
 2336TIP3   OH228566   5.300   2.982   2.883  0.4713  0.0843 -0.6039
 2336TIP3    H128567   5.356   2.979   2.961  1.9672  1.6805 -1.5349
 2336TIP3    H228568   5.226   3.036   2.909  1.2244  1.0561 -0.3901
 2337TIP3   OH228569   0.939   5.279   1.202 -0.0009  0.2008 -0.3208
 2337TIP3    H128570   1.022   5.239   1.225  0.6752  0.7012 -1.7822
 2337TIP3    H228571   0.873   5.227   1.248  1.1131 -0.1534  0.9046
 2338TIP3   OH228572   4.748   6.479   2.782 -0.4305 -0.2246  0.1173
 2338TIP3    H128573   4.757   6.385   2.796 -0.3575  0.0009  1.7509
 2338TIP3    H228574   4.736   6.515   2.869 -0.5804  1.2797 -0.4997
 2339TIP3   OH228575   6.038   4.237   2.291  0.5643  0.6229 -0.1979
 2339TIP3    H128576   5.945   4.216   2.296  0.5357  0.8708  0.3105
 2339TIP3    H228577   6.042   4.316   2.238  0.5362  0.2987 -0.6943
 2340TIP3   OH228578   1.490   4.155   8.164 -0.0133 -0.6691 -0.4954
 2340TIP3    H128579   1.577   4.122   8.188 -0.0597  1.1718  2.9784
 2340TIP3    H228580   1.430   4.083   8.183  0.5915 -1.4702 -1.5550
 2341TIP3   OH228581   1.394   2.244   8.425  0.1422  0.3735 -0.2419
 2341TIP3    H128582   1.450   2.248   8.503  0.9416  2.2413 -0.8639
 2341TIP3    H228583   1.455   2.229   8.353 -0.2550  1.4143 -0.8130
 2342TIP3   OH228584   5.512   2.329   8.385  0.7278  0.3857 -0.5939
 2342TIP3    H128585   5.493   2.288   8.470  1.8822 -0.3371 -0.6643
 2342TIP3    H228586   5.510   2.423   8.403 -0.2646  0.2848 -0.0476
 2343TIP3   OH228587   2.989   1.724   0.629  0.5814  0.1669 -0.1623
 2343TIP3    H128588   3.084   1.712   0.637  0.7897  0.5412 -1.6934
 2343TIP3    H228589   2.953   1.635   0.637  0.6678  0.2899  3.8099
 2344TIP3   OH228590   0.627   3.552   0.483 -0.2596  0.7195 -0.0354
 2344TIP3    H128591   0.617   3.474   0.429 -0.1800  2.2283 -2.3422
 2344TIP3    H228592   0.575   3.619   0.439 -1.9774  1.5502  2.9383
 2345TIP3   OH228593   1.108   4.933   7.727 -0.4825  0.0862 -0.3487
 2345TIP3    H128594   1.045   4.967   7.790 -1.5471  0.0598 -1.3708
 2345TIP3    H228595   1.077   4.966   7.642  0.9323  0.1552 -0.8710
 2346TIP3   OH228596   0.491   0.510   1.100 -0.7098  0.3401  0.2061
 2346TIP3    H128597   0.550   0.550   1.164  0.4905  0.4337 -0.9142
 2346TIP3    H228598   0.478   0.579   1.034 -0.0755 -0.4970 -0.8149
 2347TIP3   OH228599   0.919   0.765   3.083  0.5829  0.1223 -0.0377
 2347TIP3    H128600   0.974   0.746   3.159  1.0691  2.2731  0.2152
 2347TIP3    H228601   0.839   0.803   3.119 -0.2562 -1.1105 -0.5169
 2348TIP3   OH228602   3.499   4.713   8.696  0.3479  0.1188  0.2584
 2348TIP3    H128603   3.410   4.682   8.712  1.1123 -1.8855  0.9621
 2348TIP3    H228604   3.507   4.713   8.601 -0.3016  0.0582  0.1977
 2349TIP3   OH228605   2.371   0.223   1.717  0.9549 -0.4153 -0.2368
 2349TIP3    H128606   2.437   0.154   1.724  2.6418  1.1539  0.2117
 2349TIP3    H228607   2.353   0.248   1.808  0.5342 -0.1114 -0.4034
 2350TIP3   OH228608   0.687   0.590   7.765  0.3363 -0.1033  0.0776
 2350TIP3    H128609   0.682   0.538   7.685  0.2557 -1.0424  0.6640
 2350TIP3    H228610   0.690   0.524   7.835 -3.6300  0.6040  1.1415
 2351TIP3   OH228611   1.869   5.318   2.363 -0.7059 -0.7780 -0.1277
 2351TIP3    H128612   1.938   5.328   2.428  0.8057  0.8160 -1.8584
 2351TIP3    H228613   1.909   5.266   2.293 -0.9249  0.8188 -1.5102
 2352TIP3   OH228614   1.978   3.241   0.827  0.0117 -0.0592 -0.4720
 2352TIP3    H128615   1.994   3.209   0.739 -1.5609  1.0746 -1.2072
 2352TIP3    H228616   1.917   3.178   0.865  0.1722 -0.1875 -0.4259
 2353TIP3   OH228617   1.818   5.651   7.303 -0.4864 -0.3702  0.2267
 2353TIP3    H128618   1.793   5.731   7.256  1.6013 -0.2312 -0.7488
 2353TIP3    H228619   1.901   5.626   7.265  0.0827 -1.6845  2.1871
 2354TIP3   OH228620   2.944   4.566   0.515 -0.0421  0.5488 -0.4828
 2354TIP3    H128621   2.984   4.503   0.456  0.3704  1.3537 -1.0912
 2354TIP3    H228622   3.018   4.611   0.556 -0.3183 -0.0163  0.6876
 2355TIP3   OH228623   2.104   1.521   7.772 -0.4916  0.3819  0.3326
 2355TIP3    H128624   2.181   1.479   7.734 -1.3278 -0.7687 -0.1299
 2355TIP3    H228625   2.054   1.553   7.697 -0.2672  1.5291  0.6482
 2356TIP3   OH228626   3.564   0.993   7.847 -0.9041 -0.0889  0.5170
 2356TIP3    H128627   3.649   1.018   7.811 -2.4631  2.0716 -2.0406
 2356TIP3    H228628   3.545   0.908   7.806 -0.3455 -0.1981  0.4709
 2357TIP3   OH228629   3.481   2.280   2.868 -0.3627 -0.1246 -0.0429
 2357TIP3    H128630   3.552   2.229   2.907 -0.9224 -0.2706  0.8049
 2357TIP3    H228631   3.402   2.232   2.891 -1.0523  1.8275  2.0447
 2358TIP3   OH228632   2.798   2.003   0.207  0.6835 -0.0781 -0.2253
 2358TIP3    H128633   2.887   1.969   0.224  0.3882 -1.1311 -0.7171
 2358TIP3    H228634   2.743   1.925   0.205 -0.9750  0.7005  3.9337
 2359TIP3   OH228635   2.929   5.266   7.329  0.4960  0.0406  0.0641
 2359TIP3    H128636   2.967   5.320   7.260  0.5426 -0.6827 -0.4892
 2359TIP3    H228637   2.999   5.256   7.394  0.1847  1.4236  0.6461
 2360TIP3   OH228638   3.717   0.016   0.065 -0.2079  0.0187  0.1558
 2360TIP3    H128639   3.621   0.024   0.069 -0.1426  0.4597  1.4398
 2360TIP3    H228640   3.746   0.096   0.021 -0.3514  0.6205  1.1290
 2361TIP3   OH228641   0.184   3.600   8.733 -0.3228  0.1836  0.0476
 2361TIP3    H128642   0.138   3.673   8.690 -1.4128 -0.6285 -0.2188
 2361TIP3    H228643   0.216   3.546   8.661  1.0390  0.7022  0.2337
 2362TIP3   OH228644   6.352   1.337   1.179 -0.4975  0.1692  0.4711
 2362TIP3    H128645   6.375   1.427   1.202  1.4398 -0.3511  0.7612
 2362TIP3    H228646   6.339   1.339   1.085  0.8633  0.5265  0.2701
 2363TIP3   OH228647   0.388   5.430   7.935  0.2386  0.1515  0.4952
 2363TIP3    H128648   0.344   5.467   7.859 -0.7157 -0.8114  0.5572
 2363TIP3    H228649   0.381   5.335   7.923  0.0403 -0.0214  1.8008
 2364TIP3   OH228650   4.121   2.155   7.305  0.2953  0.7650  0.1086
 2364TIP3    H128651   4.089   2.160   7.215  0.9639 -1.1305 -0.2900
 2364TIP3    H228652   4.051   2.111   7.354  0.8535 -0.2949 -0.0175
 2365TIP3   OH228653   0.969   6.346   7.871  0.1948 -0.1938  0.6238
 2365TIP3    H128654   0.994   6.364   7.780  0.7356  1.6338  1.0863
 2365TIP3    H228655   0.884   6.301   7.864 -0.3877  1.0295 -0.7681
 2366TIP3   OH228656   6.140   0.708   0.816 -0.0303 -0.2681 -0.1101
 2366TIP3    H128657   6.148   0.783   0.875  0.8866 -2.1226  2.2930
 2366TIP3    H228658   6.230   0.679   0.803 -0.2788 -0.2973 -1.9768
 2367TIP3   OH228659   0.417   0.977   1.966  0.4365 -0.1725 -0.4782
 2367TIP3    H128660   0.413   1.040   1.894  1.0300  1.2171  0.6571
 2367TIP3    H228661   0.339   0.996   2.018  0.2633 -0.8400 -0.4928
 2368TIP3   OH228662   1.798   0.905   3.221 -0.0551  0.3881  0.1824
 2368TIP3    H128663   1.752   0.894   3.304 -0.2680  0.9947  0.1531
 2368TIP3    H228664   1.881   0.858   3.233 -0.2118  0.2229  0.6309
 2369TIP3   OH228665   4.808   2.343   2.130 -0.0376 -0.1807  0.0867
 2369TIP3    H128666   4.818   2.314   2.039 -0.7820 -0.4906  0.1020
 2369TIP3    H228667   4.805   2.262   2.181  3.6446 -0.0479  0.7903
 2370TIP3   OH228668   6.620   4.142   7.951  0.6372 -0.4015 -0.5786
 2370TIP3    H128669   6.707   4.172   7.924  0.6418 -0.0032 -0.1345
 2370TIP3    H228670   6.581   4.106   7.871  2.1298 -2.8648 -0.3201
 2371TIP3   OH228671   0.895   5.974   0.307  0.5368 -0.5521 -0.1825
 2371TIP3    H128672   0.806   6.000   0.329  1.2294  1.7252  0.1314
 2371TIP3    H228673   0.902   5.883   0.338 -1.2409 -0.3255  1.0061
 2372TIP3   OH228674   4.442   1.469   7.769  0.1797 -0.5267 -0.0050
 2372TIP3    H128675   4.431   1.557   7.803  0.9974 -0.4914  0.2075
 2372TIP3    H228676   4.536   1.451   7.780  0.2313 -0.9915 -1.0934
 2373TIP3   OH228677   6.736   3.995   2.534 -0.2195  0.6332 -0.1209
 2373TIP3    H128678   6.671   3.966   2.470 -0.0274  1.5450 -0.7544
 2373TIP3    H228679   6.684   4.019   2.612 -0.6297  1.1523 -0.5455
 2374TIP3   OH228680   2.606   1.842   8.717 -0.0273 -0.1291 -0.2614
 2374TIP3    H128681   2.700   1.858   8.722 -0.0849  1.2623 -2.5105
 2374TIP3    H228682   2.598   1.762   8.665 -0.0898 -1.5932  1.8642
 2375TIP3   OH228683   4.217   3.687   8.138 -0.2214 -0.0242  0.0256
 2375TIP3    H128684   4.180   3.706   8.052 -1.1749  3.5867  1.0480
 2375TIP3    H228685   4.181   3.602   8.162 -2.8183  0.4881 -1.6986
 2376TIP3   OH228686   2.945   5.060   7.596  0.2328  0.3339 -0.2836
 2376TIP3    H128687   3.035   5.034   7.615  0.9297 -0.0309 -3.4947
 2376TIP3    H228688   2.937   5.051   7.501 -3.1244  0.6520 -0.1539
 2377TIP3   OH228689   3.598   3.712   0.638  0.6409  0.1328 -0.6592
 2377TIP3    H128690   3.652   3.649   0.591  2.0311 -0.2050  1.2630
 2377TIP3    H228691   3.520   3.662   0.664  0.1904  0.1401 -1.9325
 2378TIP3   OH228692   1.920   2.906   7.962 -0.2319  0.7647  0.1179
 2378TIP3    H128693   2.015   2.897   7.973 -0.3861  0.1802  1.1159
 2378TIP3    H228694   1.910   2.960   7.884  0.9030 -1.2231 -1.4934
 2379TIP3   OH228695   4.056   5.857   1.908  0.1368 -0.3348 -0.1938
 2379TIP3    H128696   4.082   5.783   1.963  0.2418  0.1797  0.4692
 2379TIP3    H228697   3.968   5.880   1.939 -0.7468 -1.4395 -1.7532
 2380TIP3   OH228698   2.367   0.802   1.140  0.7833 -0.0614 -0.6755
 2380TIP3    H128699   2.351   0.716   1.180  1.4041 -0.2939 -0.9152
 2380TIP3    H228700   2.280   0.843   1.137  0.6573 -0.2059  0.5013
 2381TIP3   OH228701   4.071   1.678   1.920 -0.2714  0.2787 -0.1231
 2381TIP3    H128702   4.003   1.611   1.928 -0.8783  0.7159 -1.3881
 2381TIP3    H228703   4.124   1.667   1.999 -0.8880 -1.0960  0.1371
 2382TIP3   OH228704   3.081   0.876   0.937 -0.0234  0.4715  0.3203
 2382TIP3    H128705   3.060   0.817   1.010 -0.2168  0.9017  0.6223
 2382TIP3    H228706   3.012   0.859   0.873  0.6464 -0.5389 -0.1508
 2383TIP3   OH228707   3.339   6.023   3.247 -0.5051  0.7278 -0.2119
 2383TIP3    H128708   3.430   5.999   3.260 -0.9201 -0.0257  1.6059
 2383TIP3    H228709   3.294   5.940   3.232 -1.0474  0.9804 -0.0148
 2384TIP3   OH228710   5.438   3.289   0.952  0.0726 -0.0329 -0.0389
 2384TIP3    H128711   5.500   3.217   0.943  1.0742  0.9068 -1.0827
 2384TIP3    H228712   5.376   3.277   0.879 -0.0434 -0.0975  0.0695
 2385TIP3   OH228713   3.408   3.038   8.784  0.1950  0.0104 -0.5800
 2385TIP3    H128714   3.402   3.108   8.718  0.0572  0.8255  0.2793
 2385TIP3    H228715   3.435   3.083   8.864  0.5192 -0.9951 -0.1152
 2386TIP3   OH228716   2.863   2.400   2.646 -0.1386 -0.6422  0.1813
 2386TIP3    H128717   2.831   2.413   2.736 -1.0149 -0.4574 -0.1502
 2386TIP3    H228718   2.813   2.462   2.594  1.3238  0.2256 -0.2526
 2387TIP3   OH228719   1.266   6.165   2.766  0.3684 -0.2309  0.2349
 2387TIP3    H128720   1.218   6.201   2.841 -1.1282 -0.7967 -0.4037
 2387TIP3    H228721   1.355   6.198   2.776  0.1562 -0.1095  2.1396
 2388TIP3   OH228722   4.771   0.072   2.402 -0.1394 -0.0431  0.0002
 2388TIP3    H128723   4.817   0.126   2.338  0.5702 -1.4266 -0.7128
 2388TIP3    H228724   4.691   0.044   2.358 -0.9907  1.1577  0.7130
 2389TIP3   OH228725   5.067   1.951   3.249 -0.4941 -0.0268  0.5121
 2389TIP3    H128726   5.015   1.882   3.290  2.1127 -1.9723  0.8520
 2389TIP3    H228727   5.030   2.033   3.283 -2.3231 -1.3248  1.8403
 2390TIP3   OH228728   3.649   2.050   0.586 -0.2713  0.5476  0.6218
 2390TIP3    H128729   3.618   1.971   0.541  0.9927  0.8032 -0.8060
 2390TIP3    H228730   3.589   2.119   0.557  0.8857  0.8351 -1.2811
 2391TIP3   OH228731   0.345   4.114   7.888 -0.2300  0.7303 -0.4488
 2391TIP3    H128732   0.437   4.102   7.865  0.1490  2.2588  0.1568
 2391TIP3    H228733   0.343   4.107   7.984 -1.0489 -1.0018 -0.5540
 2392TIP3   OH228734   4.288   6.790   2.288 -0.1730  0.4190 -0.4425
 2392TIP3    H128735   4.267   6.700   2.265  1.0002  0.4483 -1.7574
 2392TIP3    H228736   4.250   6.802   2.375 -1.4509 -0.9272 -0.7734
 2393TIP3   OH228737   4.590   5.356   7.506 -0.1160  0.0168 -0.2578
 2393TIP3    H128738   4.610   5.420   7.438 -3.5915  1.1162 -0.4612
 2393TIP3    H228739   4.674   5.338   7.548  1.6501  1.6227 -2.8045
 2394TIP3   OH228740   1.204   5.107   1.261  0.4156 -0.2064 -0.2794
 2394TIP3    H128741   1.227   5.196   1.236 -1.2770  0.7188  1.1951
 2394TIP3    H228742   1.260   5.087   1.335 -0.4331  0.3708  0.5444
 2395TIP3   OH228743   5.689   4.745   7.587  0.0646  0.3514  0.0426
 2395TIP3    H128744   5.696   4.715   7.677 -0.4403  2.6255  0.9054
 2395TIP3    H228745   5.768   4.712   7.544  0.7386 -0.0349  1.5193
 2396TIP3   OH228746   4.422   5.957   1.702  0.4626  0.4661 -0.4495
 2396TIP3    H128747   4.499   5.920   1.660  0.5263 -1.1375  0.9534
 2396TIP3    H228748   4.453   6.036   1.745  0.9628  0.6747 -1.1684
 2397TIP3   OH228749   0.478   4.903   8.586 -0.0371  0.6602 -0.4021
 2397TIP3    H128750   0.453   4.883   8.676  2.4851  1.5103  0.5871
 2397TIP3    H228751   0.559   4.954   8.595 -0.4800  2.0174 -3.1122
 2398TIP3   OH228752   6.660   6.400   8.328  0.5238 -0.2433  0.0675
 2398TIP3    H128753   6.570   6.379   8.351  0.0942  1.8870  0.5927
 2398TIP3    H228754   6.652   6.457   8.251  1.4388 -0.1897 -0.0018
 2399TIP3   OH228755   1.717   1.902   0.245  0.3303 -0.1232  0.0569
 2399TIP3    H128756   1.747   1.901   0.154 -2.0345  1.9189 -0.8459
 2399TIP3    H228757   1.760   1.979   0.283  1.2326 -0.9141  0.6814
 2400TIP3   OH228758   4.025   3.300   8.300  0.4970 -0.3754 -0.2794
 2400TIP3    H128759   4.028   3.208   8.275  0.8821 -0.2304 -0.7761
 2400TIP3    H228760   4.093   3.308   8.368  0.2285 -0.5267  0.0103
 2401TIP3   OH228761   2.426   4.648   8.634 -0.0216  0.0551  0.4899
 2401TIP3    H128762   2.432   4.567   8.686  0.1698  0.9572  1.9287
 2401TIP3    H228763   2.513   4.657   8.595 -1.0217 -2.3060 -2.7475
 2402TIP3   OH228764   1.395   5.927   0.017 -0.4559  0.3600 -0.1760
 2402TIP3    H128765   1.312   5.974   0.010 -0.6068  0.2560  0.8065
 2402TIP3    H228766   1.405   5.884  -0.068 -0.9579  1.1009 -0.6238
 2403TIP3   OH228767   5.891   5.931   8.179 -0.1061  0.6808 -0.3224
 2403TIP3    H128768   5.975   5.915   8.222 -0.9361  1.0126  1.4941
 2403TIP3    H228769   5.830   5.870   8.221 -1.4214  2.5105  0.5590
 2404TIP3   OH228770   5.404   2.670   8.706 -0.0114  0.2233 -0.3062
 2404TIP3    H128771   5.466   2.604   8.676  0.6643  0.9927 -0.6580
 2404TIP3    H228772   5.454   2.752   8.706 -1.8691  1.6156 -4.1271
 2405TIP3   OH228773   6.031   1.176   1.923  0.3191  0.5708 -0.2146
 2405TIP3    H128774   6.040   1.158   1.830  0.8436  0.5880 -0.1664
 2405TIP3    H228775   6.103   1.236   1.943  0.5294  0.1457  0.3155
 2406TIP3   OH228776   5.672   1.295   7.470 -0.6601 -0.2603 -0.5060
 2406TIP3    H128777   5.696   1.202   7.473 -0.9558 -0.3367 -0.4594
 2406TIP3    H228778   5.577   1.295   7.456 -0.6033  0.0416 -0.8975
 2407TIP3   OH228779   4.036   3.574   0.072 -0.6590 -0.7423 -0.0514
 2407TIP3    H128780   3.963   3.605   0.125  0.5234 -1.5389  2.1934
 2407TIP3    H228781   4.049   3.484   0.100  2.2230 -0.1297  0.9318
 2408TIP3   OH228782   2.710   6.216   1.555 -0.4586 -0.0145 -0.3352
 2408TIP3    H128783   2.782   6.240   1.614  0.6095 -1.2196 -1.0886
 2408TIP3    H228784   2.647   6.288   1.564 -0.8999 -0.6583  3.1028
 2409TIP3   OH228785   5.938   3.547   1.754 -0.3493 -0.4449  0.1249
 2409TIP3    H128786   6.002   3.547   1.826 -0.2265  0.2682  0.0277
 2409TIP3    H228787   5.853   3.538   1.798 -0.4578  2.1206  0.5766
 2410TIP3   OH228788   6.051   6.193   0.174 -0.1181 -0.6830  0.4537
 2410TIP3    H128789   6.080   6.238   0.253  1.4243 -0.8304  0.0081
 2410TIP3    H228790   6.003   6.117   0.205 -2.9402  1.2727  1.2309
 2411TIP3   OH228791   2.911   6.795   0.202  0.6797  0.5884  0.2292
 2411TIP3    H128792   2.852   6.870   0.195  0.4233  0.2258 -2.7175
 2411TIP3    H228793   2.865   6.734   0.260  0.3997  2.1967  1.7962
 2412TIP3   OH228794   1.697   4.278   0.958 -0.3118  0.2883  0.0862
 2412TIP3    H128795   1.606   4.298   0.936 -0.5591 -1.7067 -0.9202
 2412TIP3    H228796   1.692   4.238   1.045 -0.3403  0.6086  0.2323
 2413TIP3   OH228797   5.106   3.923   0.156  0.3450 -0.2190  0.2217
 2413TIP3    H128798   5.011   3.936   0.154  0.3189 -0.3226  0.5653
 2413TIP3    H228799   5.141   4.005   0.189  0.4729  0.2297 -0.9921
 2414TIP3   OH228800   0.238   0.191   1.131  0.2690 -0.0423 -0.3290
 2414TIP3    H128801   0.170   0.132   1.163  0.5950 -0.0384  0.3934
 2414TIP3    H228802   0.320   0.152   1.162  0.4794  0.8214  0.2347
 2415TIP3   OH228803   2.064   4.417   2.314 -0.0216  0.0572  0.1177
 2415TIP3    H128804   2.037   4.496   2.268  0.2236  3.7121  5.4273
 2415TIP3    H228805   1.982   4.373   2.338 -0.2874  0.3475 -0.2505
 2416TIP3   OH228806   6.126   1.797   1.696 -0.5824  0.3210  0.0768
 2416TIP3    H128807   6.091   1.708   1.693 -1.2132  0.5062  1.1548
 2416TIP3    H228808   6.052   1.850   1.727  0.4870  0.8154  1.9114
 2417TIP3   OH228809   1.099   5.372   2.258 -0.3349 -0.8893 -0.1962
 2417TIP3    H128810   1.180   5.321   2.260  0.1085 -0.1979  0.0714
 2417TIP3    H228811   1.128   5.462   2.240 -1.0061 -0.5657  0.2963
 2418TIP3   OH228812   1.132   4.805   8.446 -0.4524 -0.2079 -0.4019
 2418TIP3    H128813   1.055   4.798   8.390 -0.0543 -0.1872 -0.9541
 2418TIP3    H228814   1.173   4.888   8.421 -0.3600 -0.1184  0.0339
 2419TIP3   OH228815   4.852   2.397   7.371  1.0010  0.0227  0.2094
 2419TIP3    H128816   4.841   2.488   7.401  1.3725  0.5065 -1.0317
 2419TIP3    H228817   4.905   2.405   7.292  1.4006 -1.3292  0.3211
 2420TIP3   OH228818   5.357   1.542   2.709  0.2656 -0.1733 -0.5074
 2420TIP3    H128819   5.280   1.560   2.655 -1.1791 -0.9524  1.1871
 2420TIP3    H228820   5.360   1.614   2.772  2.3824  1.1426 -1.9958
 2421TIP3   OH228821   1.473   4.914   1.621  0.2743 -0.0309  0.1305
 2421TIP3    H128822   1.390   4.881   1.654  1.0176  0.1527  2.3198
 2421TIP3    H228823   1.520   4.836   1.591  0.1242 -0.3844  0.8098
 2422TIP3   OH228824   6.799   2.084   0.487  0.3062 -0.3048 -0.2057
 2422TIP3    H128825   6.716   2.109   0.529 -0.2858  1.8784 -2.3969
 2422TIP3    H228826   6.832   2.012   0.540 -2.6682 -0.8373  1.1487
 2423TIP3   OH228827   2.349   4.104   1.531  0.3450  0.3926 -0.4274
 2423TIP3    H128828   2.366   4.098   1.437  0.1051 -0.3093 -0.4359
 2423TIP3    H228829   2.341   4.198   1.548  2.6413  0.6924 -0.6762
 2424TIP3   OH228830   3.282   6.563   0.409  0.4072 -0.1827 -0.1495
 2424TIP3    H128831   3.231   6.636   0.373 -0.3575 -0.6156  0.0302
 2424TIP3    H228832   3.321   6.599   0.489  0.4798  0.1875 -0.3490
 2425TIP3   OH228833   4.765   2.811   8.155 -1.1872  0.3420 -0.4847
 2425TIP3    H128834   4.680   2.852   8.171 -1.8520 -0.8041 -0.9938
 2425TIP3    H228835   4.757   2.771   8.069  0.5529  1.8807 -1.4495
 2426TIP3   OH228836   3.371   6.521   8.512  0.2372 -0.0916 -0.0576
 2426TIP3    H128837   3.368   6.597   8.455 -1.2331 -0.2242 -0.2001
 2426TIP3    H228838   3.386   6.556   8.599 -1.8247  0.5310  0.0944
 2427TIP3   OH228839   0.294   4.906   1.369 -0.1552  0.8399  0.2009
 2427TIP3    H128840   0.250   4.862   1.442 -1.2280  0.1778 -0.8112
 2427TIP3    H228841   0.225   4.960   1.330  0.2183  0.6403 -0.7486
 2428TIP3   OH228842   4.062   3.697   2.936 -0.0063  0.1973  0.3627
 2428TIP3    H128843   4.078   3.743   2.853 -3.2324  0.0811 -0.4645
 2428TIP3    H228844   4.059   3.604   2.911 -2.8614  0.2699  0.1176
 2429TIP3   OH228845   6.095   2.187   0.577 -0.4184 -0.3632 -0.0746
 2429TIP3    H128846   6.021   2.210   0.633  1.1844  1.9012  1.2663
 2429TIP3    H228847   6.073   2.225   0.491 -2.3111 -2.7625 -0.7471
 2430TIP3   OH228848   5.040   0.749   0.363  0.0463 -0.6724  0.1791
 2430TIP3    H128849   4.998   0.797   0.292  0.0686  0.4325  0.8888
 2430TIP3    H228850   5.026   0.657   0.341 -1.3730 -0.3463 -0.4052
 2431TIP3   OH228851   5.967   2.542   2.181  0.5295  0.3492  0.0700
 2431TIP3    H128852   5.990   2.629   2.148  0.7600  1.0081  1.8520
 2431TIP3    H228853   5.880   2.525   2.145 -0.1821  2.0083  0.9019
 2432TIP3   OH228854   2.893   1.847   3.284 -0.1675 -0.2590  0.1379
 2432TIP3    H128855   2.933   1.761   3.272  1.0420  0.1852  0.8795
 2432TIP3    H228856   2.824   1.833   3.349  0.2049 -0.6202  0.4583
 2433TIP3   OH228857   2.961   6.322   0.640 -0.0995  0.8024 -0.0162
 2433TIP3    H128858   2.989   6.414   0.645 -2.2530  1.4666  1.4755
 2433TIP3    H228859   2.905   6.310   0.717 -1.0632 -1.3505 -0.9783
 2434TIP3   OH228860   0.029   3.607   8.039 -0.1165  0.5260  0.7236
 2434TIP3    H128861   0.064   3.684   8.084 -2.0720  1.4658  0.7447
 2434TIP3    H228862  -0.054   3.588   8.084 -0.2690 -0.8488 -0.0672
 2435TIP3   OH228863   5.029   3.736   0.535 -0.2724 -0.6637  0.8665
 2435TIP3    H128864   4.958   3.797   0.556  0.4497  1.1375 -1.4509
 2435TIP3    H228865   5.109   3.783   0.559  0.3873  0.1233 -2.3082
 2436TIP3   OH228866   4.371   4.225   8.602  0.1556 -0.1143  0.0113
 2436TIP3    H128867   4.281   4.212   8.634 -0.4426  0.4461 -1.3687
 2436TIP3    H228868   4.367   4.307   8.553  1.6540  0.3872  0.6714
 2437TIP3   OH228869   1.260   2.872   8.288  0.0643 -0.1080  0.3496
 2437TIP3    H128870   1.316   2.933   8.336  2.5337 -1.3561 -0.8305
 2437TIP3    H228871   1.288   2.785   8.316  1.2615 -0.8809 -2.8709
 2438TIP3   OH228872   0.310   5.232   2.231  0.6430  0.0380 -0.0073
 2438TIP3    H128873   0.386   5.191   2.189  1.7001  1.2469  0.6420
 2438TIP3    H228874   0.264   5.275   2.160  2.1706  1.6890 -0.0678
 2439TIP3   OH228875   4.498   5.004   7.954 -0.3025  0.1077 -0.2129
 2439TIP3    H128876   4.520   4.992   7.861 -0.3406  0.4968 -0.2762
 2439TIP3    H228877   4.510   5.098   7.969  0.2345 -0.0417  0.3205
 2440TIP3   OH228878   5.098   2.640   7.326  0.3268  0.4257  0.6787
 2440TIP3    H128879   5.134   2.552   7.340 -0.9050 -0.2220 -0.0336
 2440TIP3    H228880   5.173   2.692   7.298  0.9654 -0.5433  0.5228
 2441TIP3   OH228881   4.664   5.276   2.984 -0.3663  0.3942  0.0252
 2441TIP3    H128882   4.719   5.353   2.994 -1.8533  1.5142 -0.0347
 2441TIP3    H228883   4.578   5.304   3.016 -0.7939 -1.4382  0.6057
 2442TIP3   OH228884   4.094   5.377   2.190  0.0258  0.0210  0.4353
 2442TIP3    H128885   4.052   5.307   2.139  2.0396 -0.4210 -0.7160
 2442TIP3    H228886   4.043   5.455   2.169 -0.7400 -0.6368 -0.2426
 2443TIP3   OH228887   1.430   6.179   0.752  0.2519  0.6859 -0.4440
 2443TIP3    H128888   1.400   6.115   0.816 -4.0669  2.8362  0.0211
 2443TIP3    H228889   1.433   6.132   0.670  0.3848 -0.8225  0.3954
 2444TIP3   OH228890   3.289   4.020   8.639  0.0343  0.3036  0.1194
 2444TIP3    H128891   3.324   3.952   8.581 -1.6001 -0.1470 -0.3850
 2444TIP3    H228892   3.255   4.087   8.580 -1.7390 -0.2047  0.5136
 2445TIP3   OH228893   0.118   0.716   1.155 -0.1358  0.1278  0.2811
 2445TIP3    H128894   0.163   0.733   1.073  1.9094  2.3689  1.7149
 2445TIP3    H228895   0.150   0.630   1.182  1.0054  0.3762 -0.1998
 2446TIP3   OH228896   6.155   2.990   0.143 -0.0024 -0.0782 -0.0072
 2446TIP3    H128897   6.128   3.077   0.114  0.6663  1.3737  3.1826
 2446TIP3    H228898   6.082   2.932   0.119 -0.1115  1.1251 -2.9171
 2447TIP3   OH228899   5.651   1.568   7.507 -0.1590 -0.1830 -0.8036
 2447TIP3    H128900   5.558   1.556   7.527  0.0003  0.5750  0.5631
 2447TIP3    H228901   5.679   1.485   7.470 -1.1505 -0.7681 -0.2846
 2448TIP3   OH228902   5.676   2.455   0.500 -0.4763 -0.5375 -0.5099
 2448TIP3    H128903   5.733   2.379   0.507 -0.5168 -0.5117  0.1734
 2448TIP3    H228904   5.590   2.419   0.476 -0.8835 -0.8833  1.3355
 2449TIP3   OH228905   4.644   4.527   7.579 -0.2059 -0.2488  0.4211
 2449TIP3    H128906   4.636   4.522   7.674 -0.1563 -1.1815  0.3812
 2449TIP3    H228907   4.648   4.621   7.560 -1.5638  0.0008  1.2254
 2450TIP3   OH228908   6.753   2.756   2.912 -0.0023  0.2057 -0.1330
 2450TIP3    H128909   6.792   2.677   2.876 -0.1887  0.8423 -1.8181
 2450TIP3    H228910   6.827   2.810   2.940  0.1282 -0.4892  0.8813
 2451TIP3   OH228911   4.551   4.624   0.111 -0.1041 -0.1229  0.2364
 2451TIP3    H128912   4.460   4.605   0.134 -0.2003 -0.5063 -0.4408
 2451TIP3    H228913   4.558   4.600   0.018  0.5678  0.3300  0.1647
 2452TIP3   OH228914   3.973   0.026   1.376 -0.7365  0.3146  0.1248
 2452TIP3    H128915   3.878   0.029   1.388 -0.8497 -2.3654  0.6351
 2452TIP3    H228916   3.996  -0.066   1.394  1.6560  0.3562 -2.1910
 2453TIP3   OH228917   0.828   6.483   8.336 -0.4213  0.0626 -0.2028
 2453TIP3    H128918   0.869   6.453   8.255  1.3403 -1.8279  1.2640
 2453TIP3    H228919   0.804   6.402   8.382  0.2523  0.9900  1.9102
 2454TIP3   OH228920   2.422   4.938   0.393 -0.2009  0.1444  0.4350
 2454TIP3    H128921   2.465   4.969   0.472  0.1431  2.8873 -0.7230
 2454TIP3    H228922   2.328   4.947   0.410 -0.1277  0.7213  0.5250
 2455TIP3   OH228923   5.181   5.445   1.857 -0.4956  0.8029 -0.4093
 2455TIP3    H128924   5.190   5.444   1.762  0.5178  1.2792 -0.3340
 2455TIP3    H228925   5.261   5.402   1.889  0.0820  2.2897  0.2580
 2456TIP3   OH228926   2.793   1.111   3.098 -0.1954  0.5677  0.2566
 2456TIP3    H128927   2.870   1.166   3.108  0.2529 -0.0261  0.0952
 2456TIP3    H228928   2.740   1.129   3.176  0.5649  0.2575  0.8545
 2457TIP3   OH228929   4.894   3.353   1.774  0.1772 -0.2328  0.3516
 2457TIP3    H128930   4.859   3.275   1.817 -0.8383 -0.5794 -1.0257
 2457TIP3    H228931   4.886   3.335   1.680 -1.2224  1.9746 -0.0401
 2458TIP3   OH228932   4.110   5.222   2.415 -0.6231  0.0994 -0.2861
 2458TIP3    H128933   4.135   5.276   2.490  2.4479 -1.1482 -0.2715
 2458TIP3    H228934   4.113   5.282   2.341  2.0442  0.1982 -0.1763
 2459TIP3   OH228935   0.494   3.013   1.420  0.3822 -0.0510  0.3896
 2459TIP3    H128936   0.484   3.091   1.364 -1.2552  0.9730  2.0136
 2459TIP3    H228937   0.408   2.973   1.422  1.5742 -3.1464 -1.9594
 2460TIP3   OH228938   5.066   2.730   0.638  0.0426  0.1976 -0.1505
 2460TIP3    H128939   4.980   2.767   0.619  0.5401  1.2916 -0.3575
 2460TIP3    H228940   5.124   2.773   0.574  0.6527 -0.9003 -0.3485
 2461TIP3   OH228941   2.210   3.294   8.550  0.0144 -0.1395  0.0282
 2461TIP3    H128942   2.189   3.299   8.456 -0.6731 -0.0480  0.1760
 2461TIP3    H228943   2.244   3.206   8.562 -2.3304 -1.1147  0.1332
 2462TIP3   OH228944   1.109   6.134   7.297  0.1472  0.5417 -0.6912
 2462TIP3    H128945   1.103   6.229   7.291 -3.3765  0.4191 -1.4353
 2462TIP3    H228946   1.152   6.107   7.216 -0.2286  1.4442 -1.2023
 2463TIP3   OH228947   2.041   2.753   1.653  0.1629  0.5461  0.9475
 2463TIP3    H128948   2.091   2.758   1.735 -0.0528  0.5989  1.0758
 2463TIP3    H228949   2.073   2.827   1.601  1.6646 -0.5581  0.2071
 2464TIP3   OH228950   2.445   3.543   7.028  0.0630  0.1243 -0.2335
 2464TIP3    H128951   2.381   3.595   6.979 -0.1678  0.6891  0.6433
 2464TIP3    H228952   2.520   3.602   7.038  1.1437 -0.8487 -2.0742
 2465TIP3   OH228953   0.573   6.588   0.706 -0.2576 -0.2019  0.7133
 2465TIP3    H128954   0.636   6.554   0.769  0.4205  0.6626  0.5242
 2465TIP3    H228955   0.488   6.555   0.736  0.3554 -1.9723  0.5698
 2466TIP3   OH228956   1.088   4.608   2.970 -0.5801  0.6018  0.6242
 2466TIP3    H128957   1.146   4.576   3.039  0.7077  2.5954  0.5556
 2466TIP3    H228958   1.142   4.670   2.920 -1.4163 -0.7711 -2.2456
 2467TIP3   OH228959   4.323   6.305   7.999 -0.0415 -0.7842  0.1446
 2467TIP3    H128960   4.372   6.383   8.024  1.0314 -1.7237  1.0773
 2467TIP3    H228961   4.353   6.285   7.910  0.1312 -0.4787  0.1324
 2468TIP3   OH228962   4.222   3.774   1.262 -0.1335  0.0747  0.8669
 2468TIP3    H128963   4.258   3.754   1.176  2.2397 -0.2901  1.8662
 2468TIP3    H228964   4.134   3.736   1.261 -0.4660  0.7452 -1.6129
 2469TIP3   OH228965   0.489   2.982   7.915 -0.9341 -0.2354  0.5551
 2469TIP3    H128966   0.471   2.891   7.889  0.5902 -1.0369  2.0862
 2469TIP3    H228967   0.566   3.006   7.864 -0.3121 -0.4192  1.3988
 2470TIP3   OH228968   0.281   5.820   7.825 -0.5268  0.1689  0.5310
 2470TIP3    H128969   0.376   5.821   7.820 -0.4755  1.1942  1.4241
 2470TIP3    H228970   0.251   5.853   7.740 -0.1065 -0.6550  0.0573
 2471TIP3   OH228971   0.036   3.284   2.228  0.3511  0.4577  0.0675
 2471TIP3    H128972   0.128   3.292   2.201  0.5847  0.1494  0.7495
 2471TIP3    H228973   0.015   3.369   2.266  0.0191  0.8959 -1.0628
 2472TIP3   OH228974   1.020   0.433   3.099 -0.2222  0.0762  0.0361
 2472TIP3    H128975   0.942   0.379   3.088 -1.3787  1.8900 -1.2696
 2472TIP3    H228976   1.092   0.378   3.071 -1.0943 -1.4098  0.5981
 2473TIP3   OH228977   3.528   2.995   2.917  0.9593  1.0406 -0.0714
 2473TIP3    H128978   3.622   3.005   2.928  1.0162 -0.7477  1.6193
 2473TIP3    H228979   3.512   2.902   2.930 -0.9138  1.0678 -1.6342
 2474TIP3   OH228980   0.105   1.113   7.591  0.8778  0.3582  0.2359
 2474TIP3    H128981   0.129   1.192   7.542  1.3232 -0.0897 -0.2857
 2474TIP3    H228982   0.010   1.110   7.588  0.9308 -0.8139 -2.5011
 2475TIP3   OH228983   1.397   4.285   2.005  0.8247 -0.9237  0.4275
 2475TIP3    H128984   1.447   4.231   1.943 -1.4965 -1.8645 -0.7772
 2475TIP3    H228985   1.437   4.267   2.090  3.3494 -0.5359 -0.5943
 2476TIP3   OH228986   1.770   0.596   1.460 -0.3402  0.5545  0.3677
 2476TIP3    H128987   1.724   0.579   1.377 -0.4781  0.3769  0.4771
 2476TIP3    H228988   1.712   0.656   1.507 -0.1052  0.9140  0.2009
 2477TIP3   OH228989   2.080   2.256   1.956  0.4241 -0.2986 -0.0133
 2477TIP3    H128990   2.166   2.231   1.991 -0.1538  0.1090  1.8421
 2477TIP3    H228991   2.068   2.346   1.985 -1.1520 -0.7621  0.9458
 2478TIP3   OH228992   5.423   4.662   2.185  0.2256 -0.1451  0.4813
 2478TIP3    H128993   5.462   4.743   2.218  1.4065 -0.7681  0.6574
 2478TIP3    H228994   5.448   4.660   2.092  0.3353 -0.3835  0.5157
 2479TIP3   OH228995   5.147   4.013   1.371 -0.3250  0.4279  0.0821
 2479TIP3    H128996   5.137   4.079   1.439 -1.1254  1.2520 -0.8111
 2479TIP3    H228997   5.141   4.062   1.289 -2.8775 -0.9397 -0.6637
 2480TIP3   OH228998   3.666   6.275   2.564 -0.6445 -0.3830 -0.1643
 2480TIP3    H128999   3.648   6.197   2.512  0.6573 -0.8007 -0.0372
 2480TIP3    H229000   3.714   6.243   2.640 -2.0060  0.2949  1.0288
 2481TIP3   OH229001   3.978   3.498   7.797 -0.1574  0.2529 -0.3055
 2481TIP3    H129002   3.962   3.410   7.832 -0.1575 -0.0595 -1.0770
 2481TIP3    H229003   3.927   3.502   7.716  1.9502 -0.0065 -1.7119
 2482TIP3   OH229004   6.427   6.599   2.625  0.5348 -0.0918 -0.5398
 2482TIP3    H129005   6.446   6.670   2.687 -0.7072  0.2425 -0.5078
 2482TIP3    H229006   6.494   6.607   2.558  1.9720 -0.5172  0.7969
 2483TIP3   OH229007   2.045   0.564   8.314 -0.0116  0.2391 -0.4360
 2483TIP3    H129008   2.128   0.517   8.318  0.2621  0.5997 -1.6584
 2483TIP3    H229009   2.019   0.560   8.222 -1.8494 -0.7044  0.0712
 2484TIP3   OH229010   2.528   1.846   1.866 -0.0687  0.1818 -0.1480
 2484TIP3    H129011   2.611   1.800   1.880  0.3050  0.9155  0.0698
 2484TIP3    H229012   2.554   1.936   1.845 -0.7509  0.0850 -1.5105
 2485TIP3   OH229013   1.637   6.207   1.946  0.0684 -0.4462  0.9499
 2485TIP3    H129014   1.650   6.252   2.030  0.6066  0.8181  0.2157
 2485TIP3    H229015   1.590   6.127   1.969  0.9416 -0.5429  2.5652
 2486TIP3   OH229016   0.557   1.787   1.705 -0.7738  0.4558  0.2921
 2486TIP3    H129017   0.563   1.820   1.615  0.2985 -2.6959 -0.9360
 2486TIP3    H229018   0.648   1.772   1.731 -1.1662 -1.3800  0.7488
 2487TIP3   OH229019   1.337   6.631   3.638  0.0740 -0.5017 -0.2297
 2487TIP3    H129020   1.269   6.691   3.670  1.8087  1.6493 -0.3219
 2487TIP3    H229021   1.319   6.624   3.544 -1.9594 -2.7081  0.2309
 2488TIP3   OH229022   4.063   1.996   8.117  0.2755 -0.0773 -0.5043
 2488TIP3    H129023   4.072   1.905   8.145 -2.6464 -0.5088 -0.5809
 2488TIP3    H229024   4.132   2.008   8.052  0.9448 -2.1313 -0.2477
 2489TIP3   OH229025   1.356   3.798   7.908  0.0636 -0.2901 -0.0342
 2489TIP3    H129026   1.440   3.756   7.928  0.9194  1.6551  0.7352
 2489TIP3    H229027   1.375   3.892   7.910 -2.2380  0.2310  0.5986
 2490TIP3   OH229028   2.730   5.099   0.381 -0.2111  0.8124 -0.5534
 2490TIP3    H129029   2.685   5.105   0.297  0.7733 -0.0701 -1.1734
 2490TIP3    H229030   2.661   5.108   0.446 -0.9596  1.7374 -1.4504
 2491TIP3   OH229031   0.824   6.627   7.350  0.3310  0.7768 -0.1410
 2491TIP3    H129032   0.751   6.566   7.336 -0.1720  1.5622 -1.0741
 2491TIP3    H229033   0.902   6.573   7.338 -0.0623 -0.1891  1.3784
 2492TIP3   OH229034   3.658   3.662   1.614  0.2107  0.4384  0.1172
 2492TIP3    H129035   3.597   3.732   1.640  1.8269  0.7356  3.6600
 2492TIP3    H229036   3.728   3.707   1.567 -1.1747  0.3794 -2.1276
 2493TIP3   OH229037   4.482   3.987   3.340  0.0691 -0.1843  0.2566
 2493TIP3    H129038   4.560   3.933   3.334  0.1045 -0.0521 -0.5912
 2493TIP3    H229039   4.421   3.948   3.276  0.5620  1.5197 -1.3439
 2494TIP3   OH229040   1.369   1.718   2.079  0.2438  0.1702 -0.4407
 2494TIP3    H129041   1.295   1.757   2.033  0.9657 -0.3988 -2.1545
 2494TIP3    H229042   1.395   1.643   2.025 -0.5445 -2.2604  2.2670
 2495TIP3   OH229043   2.776   4.245   1.087  0.3212  1.1090 -0.7544
 2495TIP3    H129044   2.796   4.170   1.031 -0.3498 -0.5526  1.1350
 2495TIP3    H229045   2.836   4.238   1.160  0.3361  2.5225 -0.6043
 2496TIP3   OH229046   6.098   4.810   2.038  0.8531  0.1987 -0.1008
 2496TIP3    H129047   6.020   4.755   2.027  1.6036 -0.8097 -0.5628
 2496TIP3    H229048   6.124   4.794   2.129  0.8901  0.0281 -0.1403
 2497TIP3   OH229049   3.122   2.868   0.932 -0.0030 -0.0315  0.2551
 2497TIP3    H129050   3.092   2.785   0.969  0.9692 -0.2455  0.6097
 2497TIP3    H229051   3.094   2.934   0.996  0.1604 -0.2101  0.5160
 2498TIP3   OH229052   4.976   5.914   7.511  0.7593  0.7504  0.3786
 2498TIP3    H129053   5.007   6.004   7.519  2.6346  0.1243  0.6128
 2498TIP3    H229054   5.055   5.861   7.514 -0.3944 -1.0249  1.8336
 2499TIP3   OH229055   4.983   1.263   7.417 -0.3242 -0.2534 -0.2233
 2499TIP3    H129056   5.052   1.326   7.438 -0.0956  0.1809 -2.0855
 2499TIP3    H229057   4.919   1.274   7.487 -0.2507  2.0065 -0.4293
 2500TIP3   OH229058   5.752   2.539   2.465  0.1756  0.0238 -0.0595
 2500TIP3    H129059   5.765   2.579   2.379  1.4178 -0.9184 -0.3413
 2500TIP3    H229060   5.689   2.469   2.449  0.2752 -0.0400 -0.1779
 2501TIP3   OH229061   0.674   0.468   1.822 -0.3186 -0.2972  0.2009
 2501TIP3    H129062   0.740   0.528   1.788 -0.9084  0.1793 -0.1350
 2501TIP3    H229063   0.697   0.383   1.786 -0.6195  0.1002 -0.9729
 2502TIP3   OH229064   0.610   4.584   2.901  0.4259 -0.2680  0.4898
 2502TIP3    H129065   0.544   4.537   2.951  0.4348 -0.1654  0.5976
 2502TIP3    H229066   0.606   4.674   2.933  1.5895 -0.5432  1.5058
 2503TIP3   OH229067   1.215   4.904   2.145 -0.0383  0.4739  0.1324
 2503TIP3    H129068   1.128   4.877   2.116 -0.3001  2.5481 -1.2410
 2503TIP3    H229069   1.200   4.980   2.201  0.8851  2.7394 -2.4414
 2504TIP3   OH229070   2.075   6.636   8.436 -0.0289 -0.0445 -0.0574
 2504TIP3    H129071   2.008   6.570   8.418  0.6410 -0.7454 -0.0483
 2504TIP3    H229072   2.039   6.689   8.506 -1.6860  1.2296 -1.7900
 2505TIP3   OH229073   3.343   5.995   0.618  0.3863 -0.3760  0.0985
 2505TIP3    H129074   3.339   6.035   0.531  0.8427 -0.2458  0.1351
 2505TIP3    H229075   3.406   5.924   0.609  1.9373  0.8428  0.7906
 2506TIP3   OH229076   2.486   0.487   0.638  0.1836  0.4284  0.6098
 2506TIP3    H129077   2.480   0.395   0.613  2.0842  0.8526 -1.7549
 2506TIP3    H229078   2.401   0.524   0.613 -0.1765 -0.4391  0.5156
 2507TIP3   OH229079   5.873   3.016   8.674 -0.3005  0.1403  0.5831
 2507TIP3    H129080   5.825   3.088   8.634 -1.4600 -0.7279  0.3573
 2507TIP3    H229081   5.815   2.983   8.742 -0.3772 -1.4141 -0.1863
 2508TIP3   OH229082   6.185   2.090   1.659  0.2374 -0.4116  0.2399
 2508TIP3    H129083   6.278   2.112   1.658  0.1492  0.1761 -2.4589
 2508TIP3    H229084   6.182   1.997   1.637  0.2097 -0.5882  0.9883
 2509TIP3   OH229085   2.142   3.897   8.578 -0.1426 -0.2782  0.3608
 2509TIP3    H129086   2.150   3.977   8.525  0.4058  0.3157  1.2997
 2509TIP3    H229087   2.156   3.825   8.516 -0.5567  0.3470 -0.4886
 2510TIP3   OH229088   4.060   0.473   1.923  0.4965 -0.6525 -0.2624
 2510TIP3    H129089   4.091   0.561   1.946  0.2219 -0.5965 -0.0985
 2510TIP3    H229090   4.026   0.437   2.005 -0.5991 -0.4085 -0.5843
 2511TIP3   OH229091   6.387   1.949   7.783 -0.7997 -0.1125  0.6675
 2511TIP3    H129092   6.465   2.003   7.796  0.0714 -1.2968  0.5484
 2511TIP3    H229093   6.420   1.860   7.781 -2.0663 -0.5958 -0.1781
 2512TIP3   OH229094   4.594   6.383   1.309 -0.1041  0.3711 -0.4618
 2512TIP3    H129095   4.537   6.445   1.355  0.5419  0.9768 -0.4777
 2512TIP3    H229096   4.661   6.359   1.373  1.6073  2.2748 -1.4658
 2513TIP3   OH229097   4.794   1.966   0.341  0.3776 -0.1972 -0.0061
 2513TIP3    H129098   4.802   1.896   0.407 -1.8978 -0.8818 -0.3664
 2513TIP3    H229099   4.873   1.957   0.288  1.3730 -0.8182  1.4879
 2514TIP3   OH229100   3.187   0.480   8.717 -0.4889 -0.3459 -0.5785
 2514TIP3    H129101   3.197   0.517   8.805 -0.9299 -1.4011 -0.0609
 2514TIP3    H229102   3.095   0.495   8.696 -0.8073 -1.5447 -0.1477
 2515TIP3   OH229103   4.670   4.247   7.274  0.4433  0.9616  0.0302
 2515TIP3    H129104   4.718   4.295   7.341  1.8316  1.7510 -1.4444
 2515TIP3    H229105   4.607   4.310   7.239  0.2303  0.7888  0.1031
 2516TIP3   OH229106   0.418   5.819   8.657  0.1161  0.1060  0.0048
 2516TIP3    H129107   0.461   5.739   8.627  2.7070  0.3127  2.6307
 2516TIP3    H229108   0.381   5.795   8.742 -1.5837  0.9960 -0.4596
 2517TIP3   OH229109   6.691   6.782   8.268  0.0799  0.7751  0.0699
 2517TIP3    H129110   6.635   6.763   8.193 -1.0693 -2.5292  1.5994
 2517TIP3    H229111   6.769   6.729   8.254  0.8023  1.7500  0.2614
 2518TIP3   OH229112   2.976   0.806   0.147  0.3223 -0.5305  0.6418
 2518TIP3    H129113   3.013   0.874   0.092  3.5857 -2.1811  0.5873
 2518TIP3    H229114   2.956   0.850   0.230  2.6062  0.4841  0.7173
 2519TIP3   OH229115   0.432   6.158   2.497 -1.0964  0.4115 -0.3460
 2519TIP3    H129116   0.520   6.161   2.461 -1.3071  1.3875 -0.8210
 2519TIP3    H229117   0.437   6.210   2.577 -1.2948  0.6641 -0.4970
 2520TIP3   OH229118   0.678   5.586   0.345 -0.5242  0.2889 -0.3472
 2520TIP3    H129119   0.712   5.607   0.432 -1.2056  0.5864 -0.1497
 2520TIP3    H229120   0.625   5.508   0.359  0.7187 -0.6844 -0.8033
 2521TIP3   OH229121   5.227   6.239   3.101 -0.2764  0.1265 -0.4289
 2521TIP3    H129122   5.150   6.217   3.152 -1.7218  1.3910 -1.9483
 2521TIP3    H229123   5.261   6.319   3.141  0.2651 -0.4270  0.2362
 2522TIP3   OH229124   0.545   3.712   2.311 -0.4510 -0.2213  0.3676
 2522TIP3    H129125   0.506   3.633   2.348 -1.2321  0.7188  1.6068
 2522TIP3    H229126   0.636   3.688   2.294 -0.0957 -0.7688  2.7591
 2523TIP3   OH229127   3.705   1.619   8.247  0.2987 -0.0383  0.1972
 2523TIP3    H129128   3.768   1.572   8.191 -0.1477 -1.6979  1.0234
 2523TIP3    H229129   3.741   1.707   8.255  2.3137 -0.8164  0.3007
 2524TIP3   OH229130   1.613   4.403   8.646 -0.1571 -0.7921 -0.3915
 2524TIP3    H129131   1.600   4.330   8.706  1.7190 -0.5523  0.3514
 2524TIP3    H229132   1.683   4.455   8.685 -0.8708  0.9760 -1.3215
 2525TIP3   OH229133   3.475   3.240   1.062 -0.4830  0.0684  0.4085
 2525TIP3    H129134   3.546   3.192   1.019 -0.2640  1.0658 -0.3574
 2525TIP3    H229135   3.520   3.294   1.127 -0.6592 -0.1477  0.7141
 2526TIP3   OH229136   0.552   2.036   8.120 -0.3073  0.4950 -0.0527
 2526TIP3    H129137   0.473   2.009   8.167  0.5260 -1.0516  0.5407
 2526TIP3    H229138   0.566   1.966   8.055  2.0898 -0.8297  1.7125
 2527TIP3   OH229139   4.200   2.021   1.526 -0.1063 -0.9259 -0.5248
 2527TIP3    H129140   4.209   1.992   1.617 -1.2871  1.8744  0.6051
 2527TIP3    H229141   4.284   2.000   1.485  1.4868  0.1209  1.9649
 2528TIP3   OH229142   3.960   6.244   0.383  0.2998 -0.4075 -0.5837
 2528TIP3    H129143   4.013   6.294   0.445  1.4029 -1.1559 -0.8785
 2528TIP3    H229144   4.023   6.185   0.341 -1.1009 -2.9380  0.6411
 2529TIP3   OH229145   3.835   1.541   7.389  0.3679  0.2844 -0.3954
 2529TIP3    H129146   3.904   1.607   7.397 -0.3379  0.8303  1.8488
 2529TIP3    H229147   3.790   1.564   7.308  0.9011  1.8181 -0.2994
 2530TIP3   OH229148   6.366   0.505   0.059 -0.6315 -0.3054 -0.0461
 2530TIP3    H129149   6.326   0.419   0.061 -2.1256  0.3689  1.2187
 2530TIP3    H229150   6.294   0.565   0.039 -0.0692  0.8559  1.2116
 2531TIP3   OH229151   1.234   0.664   1.629 -0.0934 -0.4608 -0.0529
 2531TIP3    H129152   1.280   0.598   1.577 -0.3097 -0.0445 -0.7697
 2531TIP3    H229153   1.256   0.642   1.720  0.6807 -0.8899 -0.3396
 2532TIP3   OH229154   5.881   0.191   0.733  0.1914 -0.0916 -0.4630
 2532TIP3    H129155   5.883   0.096   0.729 -0.1804 -0.1080 -0.3447
 2532TIP3    H229156   5.794   0.215   0.701 -0.2435  0.1274  0.8281
 2533TIP3   OH229157   0.535   1.875   7.520 -0.0336 -0.5887 -0.2632
 2533TIP3    H129158   0.586   1.881   7.601  0.0203 -0.7509 -0.2858
 2533TIP3    H229159   0.470   1.945   7.528 -0.5064 -1.0845  0.2553
 2534TIP3   OH229160   5.617   6.478   1.894 -0.1385  0.3248 -0.3770
 2534TIP3    H129161   5.565   6.409   1.935  0.0713  0.6344  0.4293
 2534TIP3    H229162   5.707   6.446   1.897 -0.3574 -0.7280 -2.8163
 2535TIP3   OH229163   6.469   1.945   2.230 -0.1974 -0.5524 -0.5731
 2535TIP3    H129164   6.441   2.005   2.161 -1.1344 -2.3284 -1.8171
 2535TIP3    H229165   6.552   1.909   2.198 -0.0593 -0.5416 -0.2305
 2536TIP3   OH229166   1.666   6.011   8.586 -1.0796  0.1717 -0.4501
 2536TIP3    H129167   1.603   6.077   8.555  0.5412  1.9942 -0.0694
 2536TIP3    H229168   1.751   6.052   8.574  0.1366 -2.4648 -1.5093
 2537TIP3   OH229169   5.337   2.182   1.638 -0.4604  0.2597 -0.4228
 2537TIP3    H129170   5.416   2.235   1.653 -1.5838  1.9219 -0.1418
 2537TIP3    H229171   5.340   2.161   1.544 -1.1356  2.8667 -1.1183
 2538TIP3   OH229172   0.563   3.872   1.420 -0.6811 -0.1130  0.3160
 2538TIP3    H129173   0.586   3.951   1.371 -4.3620  0.7259 -0.3934
 2538TIP3    H229174   0.557   3.804   1.352 -1.1593 -0.0846  0.3272
 2539TIP3   OH229175   3.601   5.893   2.741  0.3765  0.2373  1.0704
 2539TIP3    H129176   3.507   5.876   2.744  0.2344  1.0008  0.9314
 2539TIP3    H229177   3.640   5.806   2.730 -0.3916  0.0582 -0.4088
 2540TIP3   OH229178   5.120   3.774   2.698  0.0771  0.2852 -0.0939
 2540TIP3    H129179   5.196   3.789   2.754 -0.2625 -0.4467  0.5940
 2540TIP3    H229180   5.146   3.702   2.640 -0.6288 -1.1706  1.2973
 2541TIP3   OH229181   3.086   5.971   0.482 -0.0032 -0.1419  0.4160
 2541TIP3    H129182   3.017   6.029   0.447  0.5123 -0.5078 -1.3253
 2541TIP3    H229183   3.164   6.027   0.485  0.3367 -0.5285 -0.6315
 2542TIP3   OH229184   6.395   0.228   8.416 -0.5375 -0.1949 -0.1260
 2542TIP3    H129185   6.326   0.280   8.375 -0.0631 -0.7686 -1.7153
 2542TIP3    H229186   6.379   0.138   8.386 -0.5462 -0.7665  1.4902
 2543TIP3   OH229187   5.382   3.054   1.785 -0.2866 -0.2300  0.6063
 2543TIP3    H129188   5.333   3.106   1.721  0.5417 -1.6676 -1.2628
 2543TIP3    H229189   5.337   2.970   1.786  0.5458 -0.6764  0.8800
 2544TIP3   OH229190   3.093   1.500   1.241 -0.3882  0.1120 -0.4480
 2544TIP3    H129191   3.030   1.560   1.280 -0.3512  0.7097 -1.2954
 2544TIP3    H229192   3.096   1.426   1.302 -0.6048  0.8522  0.4899
 2545TIP3   OH229193   2.898   6.122   8.002 -0.1357  0.1237 -0.4437
 2545TIP3    H129194   2.858   6.094   8.084 -1.3162  0.2369 -0.9671
 2545TIP3    H229195   2.835   6.098   7.934  0.9169 -0.1639 -1.3528
 2546TIP3   OH229196   3.225   3.361   1.143  0.0083 -0.5572  0.0040
 2546TIP3    H129197   3.318   3.357   1.163  0.0275 -2.2356 -0.2949
 2546TIP3    H229198   3.219   3.339   1.050 -0.6389  0.4046 -0.2049
 2547TIP3   OH229199   1.384   0.665   8.408 -0.2794 -0.0048  0.1265
 2547TIP3    H129200   1.370   0.749   8.451  0.2097 -0.3043  0.9071
 2547TIP3    H229201   1.425   0.611   8.475  1.7856 -0.0850 -1.1373
 2548TIP3   OH229202   6.614   1.947   7.508 -0.1526  0.2113  0.0640
 2548TIP3    H129203   6.528   1.960   7.469  0.5047  0.0547 -1.4902
 2548TIP3    H229204   6.635   1.855   7.492  0.0583  0.0905  0.9698
 2549TIP3   OH229205   4.601   6.047   1.185  0.2296 -0.6357 -0.0191
 2549TIP3    H129206   4.522   6.089   1.152  0.6131  0.5335  0.5116
 2549TIP3    H229207   4.606   5.965   1.136  0.3402  0.6364 -2.2875
 2550TIP3   OH229208   5.222   4.111   0.412  0.0250  0.5055 -0.0676
 2550TIP3    H129209   5.142   4.131   0.461  0.5760  1.2731  0.5636
 2550TIP3    H229210   5.215   4.163   0.332  0.3904  1.4988  0.5135
 2551TIP3   OH229211   2.417   0.736   1.890  0.2696  0.4002  0.5249
 2551TIP3    H129212   2.495   0.764   1.841  0.4212  2.7542  1.9742
 2551TIP3    H229213   2.372   0.817   1.911 -1.4392 -0.7802  1.6099
 2552TIP3   OH229214   5.934   2.339   1.012  0.0543 -0.8391 -0.0133
 2552TIP3    H129215   5.956   2.304   0.926 -0.1486 -2.0591  0.4062
 2552TIP3    H229216   5.839   2.340   1.014  0.0516 -0.0741 -0.0749
 2553TIP3   OH229217   6.461   3.335   7.491 -0.5745 -0.1949 -0.1534
 2553TIP3    H129218   6.400   3.402   7.461 -1.0444 -0.7966 -0.5612
 2553TIP3    H229219   6.484   3.286   7.412  4.0671  2.7719 -1.0349
 2554TIP3   OH229220   3.344   3.821   0.822 -0.3840 -0.2379  0.3057
 2554TIP3    H129221   3.377   3.906   0.793 -1.2139 -0.1368 -0.4030
 2554TIP3    H229222   3.417   3.761   0.807  0.3129  0.3894  1.1015
 2555TIP3   OH229223   4.177   5.849   1.512  0.3486  0.7875 -0.0167
 2555TIP3    H129224   4.152   5.916   1.575 -0.0812  0.9189 -0.3236
 2555TIP3    H229225   4.094   5.821   1.473  0.5822  0.4845 -0.2969
 2556TIP3   OH229226   1.632   3.360   0.520  0.0107 -0.1620 -0.1178
 2556TIP3    H129227   1.644   3.444   0.476 -0.9516  0.2133  0.3185
 2556TIP3    H229228   1.541   3.360   0.547  0.0315 -1.3175 -0.0338
 2557TIP3   OH229229   3.481   2.634   2.066  0.4475 -0.3760 -0.3502
 2557TIP3    H129230   3.471   2.632   2.162 -0.7939  2.2029 -0.3258
 2557TIP3    H229231   3.410   2.579   2.034 -1.9612  2.1522  0.2429
 2558TIP3   OH229232   0.142   2.627   1.483  0.4339 -0.2045  0.7863
 2558TIP3    H129233   0.161   2.697   1.546  2.9921  0.6652 -0.7661
 2558TIP3    H229234   0.053   2.645   1.454  0.6961  1.9175  1.0994
 2559TIP3   OH229235   4.045   4.554   8.002 -0.5882 -0.7994  0.0478
 2559TIP3    H129236   4.011   4.479   8.051  0.3630 -0.4073  1.3723
 2559TIP3    H229237   4.026   4.533   7.910  0.1054 -2.8988  0.3168
 2560TIP3   OH229238   1.972   1.581   7.994  0.0216 -0.1322  0.2153
 2560TIP3    H129239   2.018   1.551   7.916  0.0714  0.2941  0.0799
 2560TIP3    H229240   1.903   1.516   8.007 -1.2454  0.8560 -1.3343
 2561TIP3   OH229241   0.460   3.146   0.782  0.0694  0.0776  0.0759
 2561TIP3    H129242   0.441   3.141   0.688  1.0810  0.2122 -0.1414
 2561TIP3    H229243   0.388   3.199   0.817 -0.3262  0.0245 -0.6173
 2562TIP3   OH229244   2.693   4.538   8.540 -0.4720  0.0784  0.4494
 2562TIP3    H129245   2.644   4.571   8.465 -1.1751 -0.3685  0.7045
 2562TIP3    H229246   2.776   4.585   8.537 -1.0103  1.0290  0.1477
 2563TIP3   OH229247   2.940   0.847   7.989  0.0753  0.0240 -0.4606
 2563TIP3    H129248   2.921   0.773   7.932 -1.3941 -0.0161  0.0386
 2563TIP3    H229249   3.025   0.826   8.028  0.3143 -0.7326 -1.3631
 2564TIP3   OH229250   5.856   6.009   0.255 -0.3862 -0.1800  0.2116
 2564TIP3    H129251   5.857   5.915   0.272  0.9960 -0.0796  0.8248
 2564TIP3    H229252   5.770   6.038   0.286 -0.6188 -1.1513  0.5098
 2565TIP3   OH229253   5.504   3.495   2.197 -0.2227  0.6038  0.8803
 2565TIP3    H129254   5.428   3.514   2.141  0.4947 -2.3527 -1.3409
 2565TIP3    H229255   5.566   3.566   2.178 -0.0392 -0.2447 -2.1597
 2566TIP3   OH229256   0.377   5.695   0.993  0.7964 -0.1740 -0.2920
 2566TIP3    H129257   0.326   5.745   0.929 -0.3841 -1.0536 -0.0839
 2566TIP3    H229258   0.376   5.605   0.959  0.5993 -0.5520  0.6815
 2567TIP3   OH229259   6.220   2.492   2.323  0.4281  0.4091 -0.3825
 2567TIP3    H129260   6.140   2.509   2.273  0.0438  1.3982  0.5444
 2567TIP3    H229261   6.189   2.462   2.408  1.0818 -2.3288 -1.0226
 2568TIP3   OH229262   0.882   5.141   7.260  0.4182  0.3355  0.0247
 2568TIP3    H129263   0.815   5.099   7.207 -0.5523 -0.2561  1.6333
 2568TIP3    H229264   0.838   5.215   7.301  1.3351  1.2041 -0.5156
 2569TIP3   OH229265   0.778   4.577   7.435 -0.7898 -0.1758  0.7519
 2569TIP3    H129266   0.742   4.488   7.429 -0.7977 -0.2028  1.1968
 2569TIP3    H229267   0.706   4.634   7.407 -0.2485 -0.4007 -1.2180
 2570TIP3   OH229268   4.912   3.925   1.552 -0.3170  0.6681 -0.6074
 2570TIP3    H129269   4.929   3.850   1.495 -0.3162  1.7788 -2.1337
 2570TIP3    H229270   4.970   3.994   1.519 -0.6637  1.5028  0.4481
 2571TIP3   OH229271   5.377   6.035   3.019 -0.5398  0.4490  0.5467
 2571TIP3    H129272   5.417   6.025   3.106 -0.7263  0.9901  0.6980
 2571TIP3    H229273   5.329   6.117   3.024  0.2107  0.9620 -0.3633
 2572TIP3   OH229274   3.128   6.772   0.343 -0.3036  0.1504 -0.0735
 2572TIP3    H129275   3.034   6.764   0.323 -0.3552 -0.0721  0.2467
 2572TIP3    H229276   3.146   6.866   0.331 -0.6776  0.2777  0.3139
 2573TIP3   OH229277   6.134   1.103   2.213 -0.1091 -0.5139  0.4831
 2573TIP3    H129278   6.055   1.156   2.204  0.1938  0.0380  0.9618
 2573TIP3    H229279   6.195   1.141   2.150  0.7909  1.0361  2.1878
 2574TIP3   OH229280   5.284   0.218   2.316  0.4475 -0.1442  0.2204
 2574TIP3    H129281   5.282   0.164   2.394 -0.1945  2.6244  2.2816
 2574TIP3    H229282   5.222   0.289   2.334  0.8254  1.0294 -2.5001
 2575TIP3   OH229283   1.941   1.742   8.244  0.3419  0.5358 -0.7476
 2575TIP3    H129284   1.915   1.707   8.159 -3.0239 -1.0286  0.7025
 2575TIP3    H229285   1.865   1.794   8.272  1.0394  0.4375  1.5282
 2576TIP3   OH229286   2.333   5.771   2.094 -0.1197 -0.4606  0.7514
 2576TIP3    H129287   2.415   5.764   2.144 -0.7975 -2.4432  1.7054
 2576TIP3    H229288   2.352   5.728   2.011  0.0823 -0.0448  0.5809
 2577TIP3   OH229289   1.925   1.653   0.010  0.5378 -0.7749  0.0566
 2577TIP3    H129290   1.935   1.562   0.038  2.4050 -0.2542  1.3013
 2577TIP3    H229291   1.834   1.661  -0.016  0.5531 -3.2074 -0.9210
 2578TIP3   OH229292   2.179   5.887   2.283 -0.4766  0.4960 -0.3824
 2578TIP3    H129293   2.237   5.844   2.221 -1.0709 -0.9667  0.0407
 2578TIP3    H229294   2.235   5.950   2.328  1.5115 -2.5322  1.7652
 2579TIP3   OH229295   3.218   6.764   1.305  0.2186  0.1094 -0.1495
 2579TIP3    H129296   3.222   6.765   1.400  0.6996 -0.3472 -0.1599
 2579TIP3    H229297   3.294   6.712   1.278 -0.0885 -0.0340 -0.7684
 2580TIP3   OH229298   4.841   3.227   0.815 -0.3910 -0.6440  0.1831
 2580TIP3    H129299   4.849   3.319   0.788 -1.3979 -1.1895 -2.1693
 2580TIP3    H229300   4.793   3.185   0.744  0.5006 -3.1310  0.9526
 2581TIP3   OH229301   3.544   5.339   8.096 -0.2151 -0.2449 -0.2756
 2581TIP3    H129302   3.566   5.429   8.120 -1.2138 -0.4005  1.4231
 2581TIP3    H229303   3.577   5.329   8.007  1.4543  1.2505  0.1126
 2582TIP3   OH229304   0.781   5.071   1.262 -0.1972 -0.0918  0.1597
 2582TIP3    H129305   0.716   5.011   1.225 -1.0405  0.4852  0.6816
 2582TIP3    H229306   0.811   5.028   1.341  0.4226 -0.5792 -0.3283
 2583TIP3   OH229307   3.232   1.382   7.718  0.7032 -0.0541  0.4856
 2583TIP3    H129308   3.244   1.477   7.720  1.9894 -0.2026  0.7995
 2583TIP3    H229309   3.320   1.347   7.709  0.1611 -1.2016 -0.7156
 2584TIP3   OH229310   1.002   5.308   8.416 -0.0738 -0.7620 -0.5048
 2584TIP3    H129311   0.953   5.311   8.498 -0.6068  1.2048 -0.8481
 2584TIP3    H229312   1.094   5.317   8.443 -0.3692  2.0332 -0.1647
 2585TIP3   OH229313   5.823   5.919   8.772 -0.3931  0.5177  0.0172
 2585TIP3    H129314   5.855   5.969   8.847  0.2854 -1.0035  0.7878
 2585TIP3    H229315   5.889   5.851   8.759 -0.5914  0.6482 -1.8698
 2586TIP3   OH229316   5.408   2.581   8.411  0.1814  0.1705 -0.2959
 2586TIP3    H129317   5.481   2.640   8.427 -0.0150  0.8477 -1.7561
 2586TIP3    H229318   5.367   2.614   8.331 -0.8359 -1.0645 -0.3214
 2587TIP3   OH229319   1.690   3.656   1.835  0.4510 -0.4894  0.1339
 2587TIP3    H129320   1.651   3.682   1.752  1.3343 -1.0636 -0.4763
 2587TIP3    H229321   1.674   3.730   1.893 -0.1738 -0.0789 -0.5422
 2588TIP3   OH229322   0.679   5.094   0.781  0.1683 -0.0847 -0.7045
 2588TIP3    H129323   0.612   5.052   0.727  0.7144 -0.7328 -0.9016
 2588TIP3    H229324   0.637   5.172   0.816 -2.2385 -2.6071  2.7554
 2589TIP3   OH229325   5.927   4.248   8.211 -0.1878 -0.0228  0.5099
 2589TIP3    H129326   5.877   4.308   8.156 -2.0825 -0.7517  1.3677
 2589TIP3    H229327   5.935   4.294   8.295  0.9240  0.2308  0.2815
 2590TIP3   OH229328   2.642   4.297   8.676 -0.6320  0.4653 -0.0378
 2590TIP3    H129329   2.659   4.360   8.606 -0.7822  1.5561  0.8810
 2590TIP3    H229330   2.553   4.315   8.704 -1.1557 -1.0346 -0.6028
 2591TIP3   OH229331   0.684   5.913   3.166 -0.0136 -0.3207 -0.1980
 2591TIP3    H129332   0.634   5.879   3.091  0.7322  0.7363 -1.2174
 2591TIP3    H229333   0.680   5.843   3.231  0.0448 -1.6540 -1.5590
 2592TIP3   OH229334   1.079   5.751   1.853  0.0973  0.0221  0.0956
 2592TIP3    H129335   1.096   5.766   1.760  2.4360  0.9705  0.6098
 2592TIP3    H229336   1.042   5.833   1.885  1.0803  0.3578  0.3796
 2593TIP3   OH229337   1.141   4.354   1.928 -0.4378  0.1680 -0.1392
 2593TIP3    H129338   1.152   4.390   1.839  0.1651  0.0379 -0.1248
 2593TIP3    H229339   1.228   4.320   1.950 -0.4447  0.6924  0.7219
 2594TIP3   OH229340   1.827   3.427   1.962  0.3518 -0.1468  0.2173
 2594TIP3    H129341   1.852   3.455   2.050 -1.0546  0.1993  0.5358
 2594TIP3    H229342   1.784   3.504   1.924 -0.1404 -0.6764 -0.3153
 2595TIP3   OH229343   5.206   6.237   8.400 -0.1815  0.2943  0.3304
 2595TIP3    H129344   5.159   6.228   8.483 -0.4786 -1.0911  0.0303
 2595TIP3    H229345   5.258   6.317   8.410  2.0039 -1.3019  2.9738
 2596TIP3   OH229346   0.318   6.071   8.106  0.0934  0.3860  0.0708
 2596TIP3    H129347   0.331   6.021   8.188 -1.4853  0.1212  0.1986
 2596TIP3    H229348   0.393   6.047   8.052  0.4177 -0.5730  0.8977
 2597TIP3   OH229349   2.922   3.945   0.158  0.0767 -0.5945  0.1546
 2597TIP3    H129350   2.862   4.012   0.124 -1.3309 -1.6692  0.4392
 2597TIP3    H229351   2.884   3.862   0.129  0.4448 -1.3947  1.8583
 2598TIP3   OH229352   0.110   1.428   0.198  0.2026  0.2790 -0.4026
 2598TIP3    H129353   0.023   1.400   0.169  0.6707 -2.4101  0.4586
 2598TIP3    H229354   0.097   1.459   0.287 -0.0408  1.0143 -0.6909
 2599TIP3   OH229355   1.282   0.155   1.058 -0.3572  0.5375  0.1240
 2599TIP3    H129356   1.304   0.248   1.059 -1.1279  0.7337 -0.1586
 2599TIP3    H229357   1.201   0.149   1.108 -1.3520  0.3203 -1.4406
 2600TIP3   OH229358   2.341   0.888   0.606 -0.3506  0.0974 -0.1487
 2600TIP3    H129359   2.427   0.849   0.620 -1.0372 -1.0242  1.2787
 2600TIP3    H229360   2.358   0.981   0.594  1.1388 -0.2554 -1.0780
 2601TIP3   OH229361   5.772   4.835   3.288 -0.0094 -0.2096 -0.6506
 2601TIP3    H129362   5.774   4.855   3.195  0.8602 -1.3108 -0.8791
 2601TIP3    H229363   5.864   4.821   3.312 -0.3192 -1.0369  0.1220
 2602TIP3   OH229364   0.178   4.543   0.253  0.7416  0.1001 -0.2509
 2602TIP3    H129365   0.088   4.513   0.266 -0.2385  1.9164 -2.2626
 2602TIP3    H229366   0.230   4.492   0.316 -1.8151 -0.1337  1.8267
 2603TIP3   OH229367   0.826   3.972   8.302 -0.1056 -0.2367 -0.5027
 2603TIP3    H129368   0.844   4.054   8.349 -0.4794 -0.5834  0.2578
 2603TIP3    H229369   0.836   3.995   8.210 -0.6960  0.7909 -0.3210
 2604TIP3   OH229370   2.168   5.104   7.714  0.1523 -0.4615 -0.1945
 2604TIP3    H129371   2.130   5.031   7.664  0.6897  0.1761 -1.5639
 2604TIP3    H229372   2.245   5.130   7.664 -1.4831  2.8170 -1.2949
 2605TIP3   OH229373   3.692   3.086   1.040 -0.2559 -0.2179  0.1543
 2605TIP3    H129374   3.705   2.992   1.029 -0.2817 -0.3136  0.8554
 2605TIP3    H229375   3.754   3.127   0.980  2.2569 -0.6627  2.2691
 2606TIP3   OH229376   2.038   2.128   7.931  0.1074 -0.2855 -0.4444
 2606TIP3    H129377   1.984   2.071   7.876  0.6996 -1.1742 -0.1137
 2606TIP3    H229378   2.126   2.120   7.894  0.4756 -0.7493  0.5244
 2607TIP3   OH229379   6.486   5.549   1.751 -0.0173  0.4635 -0.2788
 2607TIP3    H129380   6.472   5.525   1.659  1.7906 -0.2863 -0.3957
 2607TIP3    H229381   6.543   5.626   1.747 -2.4012  2.4023  0.2074
 2608TIP3   OH229382   3.217   0.544   8.355  0.1487  0.4290 -0.6418
 2608TIP3    H129383   3.264   0.627   8.346  1.7774 -0.3506  0.1847
 2608TIP3    H229384   3.180   0.527   8.268  0.5298  1.5883 -1.0445
 2609TIP3   OH229385   0.790   3.959   1.533  0.5503  0.5386 -0.4017
 2609TIP3    H129386   0.789   3.970   1.629  0.3189  0.0255 -0.3414
 2609TIP3    H229387   0.709   3.912   1.514  1.4631 -1.0359 -0.6332
 2610TIP3   OH229388   0.392   5.947   8.353 -0.3668 -0.1466  0.2715
 2610TIP3    H129389   0.476   5.982   8.382 -0.6603  0.9433 -0.1190
 2610TIP3    H229390   0.332   5.963   8.426 -0.4173 -0.1725  0.2366
 2611TIP3   OH229391   5.865   4.688   1.677 -0.5056  0.1268  0.3074
 2611TIP3    H129392   5.904   4.775   1.663  1.5765 -0.9545 -1.1094
 2611TIP3    H229393   5.853   4.653   1.589 -1.0692 -1.1458  0.8656
 2612TIP3   OH229394   1.098   2.693   1.747 -0.0245 -0.2157 -0.0892
 2612TIP3    H129395   1.170   2.674   1.808  1.2268  1.4065 -0.9785
 2612TIP3    H229396   1.139   2.692   1.661 -1.4581 -0.9463 -0.7917
 2613TIP3   OH229397   2.264   5.476   7.505 -1.0587  0.6206 -0.0843
 2613TIP3    H129398   2.249   5.446   7.415  2.7207 -0.5520 -0.5013
 2613TIP3    H229399   2.288   5.397   7.553  0.2882  1.6813  1.0785
 2614TIP3   OH229400   5.205   6.402   0.967  0.1383 -0.4227  0.4241
 2614TIP3    H129401   5.284   6.401   1.021  2.4744 -0.3616 -2.7026
 2614TIP3    H229402   5.193   6.495   0.946 -0.3592 -0.5119  0.3254
 2615TIP3   OH229403   0.512   5.232   8.179 -0.0141  0.1714 -0.3717
 2615TIP3    H129404   0.517   5.302   8.114 -0.1191  0.0198 -0.5453
 2615TIP3    H229405   0.519   5.276   8.263  4.3873  0.0521 -0.4547
 2616TIP3   OH229406   5.356   3.933   0.023  0.6004  0.5164 -0.2636
 2616TIP3    H129407   5.401   3.960   0.103 -3.1135  2.8980  1.3352
 2616TIP3    H229408   5.292   3.868   0.052 -0.3169  0.8627 -1.3958
 2617TIP3   OH229409   5.437   5.401   1.882  0.5271  0.2391 -0.1500
 2617TIP3    H129410   5.469   5.431   1.967 -1.4106 -0.8697  1.0462
 2617TIP3    H229411   5.473   5.312   1.873 -0.8693 -0.4164  0.4874
 2618TIP3   OH229412   5.107   6.462   7.929 -0.3313 -1.2222  0.0055
 2618TIP3    H129413   5.129   6.484   7.838  1.7195  0.9783  0.8999
 2618TIP3    H229414   5.156   6.382   7.946  0.5065 -0.8350 -0.4480
 2619TIP3   OH229415   3.584   5.730   2.078 -0.1190 -0.6243 -0.0931
 2619TIP3    H129416   3.642   5.657   2.100 -0.8253 -0.8429  1.1702
 2619TIP3    H229417   3.641   5.808   2.081  0.4953 -1.0320 -0.7810
 2620TIP3   OH229418   2.817   5.169   3.265 -0.4965  0.0465  0.2474
 2620TIP3    H129419   2.733   5.191   3.305  0.3518  0.0579  2.1482
 2620TIP3    H229420   2.878   5.232   3.302  0.2794  0.4254 -1.5592
 2621TIP3   OH229421   5.061   1.177   0.641  0.4571 -0.2302 -0.2212
 2621TIP3    H129422   5.079   1.087   0.617  0.2880 -0.4265  0.3771
 2621TIP3    H229423   4.968   1.178   0.663  0.4902  0.0542 -0.0809
 2622TIP3   OH229424   1.157   6.012   8.737 -0.0038 -0.0890 -0.3430
 2622TIP3    H129425   1.063   6.004   8.751 -0.1314  0.8473 -0.6363
 2622TIP3    H229426   1.171   5.977   8.649 -0.2944  1.1188 -0.8835
 2623TIP3   OH229427   6.018   4.931   3.581 -0.4305 -0.3975  0.2880
 2623TIP3    H129428   6.016   4.925   3.486 -1.2296  0.2546  0.2536
 2623TIP3    H229429   6.111   4.943   3.602 -0.3023  0.0010 -0.4490
 2624TIP3   OH229430   1.462   0.180   2.351  0.0998  0.3017  0.7695
 2624TIP3    H129431   1.430   0.141   2.270  3.1294  0.1791 -0.4947
 2624TIP3    H229432   1.494   0.107   2.403 -0.7414  0.4943  1.5864
 2625TIP3   OH229433   1.047   1.019   0.621  0.1778 -0.1370  0.6561
 2625TIP3    H129434   0.993   1.091   0.652  2.0383  2.0482 -0.8783
 2625TIP3    H229435   1.044   1.026   0.525  1.1358 -1.5345  0.4851
 2626TIP3   OH229436   1.498   5.763   2.558  0.7207 -0.0377  0.8414
 2626TIP3    H129437   1.503   5.733   2.649  2.4224  1.1422  1.1783
 2626TIP3    H229438   1.547   5.697   2.509 -1.2962 -1.3853  0.5306
 2627TIP3   OH229439   6.081   3.047   8.453  0.1297 -0.1063 -0.0445
 2627TIP3    H129440   6.010   3.006   8.502  2.0853 -1.8449  1.5519
 2627TIP3    H229441   6.046   3.058   8.364 -1.7312 -2.0252  0.3774
 2628TIP3   OH229442   1.493   0.803   0.072  0.0388  0.1748  0.4746
 2628TIP3    H129443   1.497   0.812   0.167  0.5343  0.1101  0.4638
 2628TIP3    H229444   1.527   0.886   0.039  0.1240  0.0929  0.3550
 2629TIP3   OH229445   5.186   5.090   0.128  0.0076 -0.5998 -0.1135
 2629TIP3    H129446   5.234   5.079   0.046  0.9444 -2.1951  0.6074
 2629TIP3    H229447   5.130   5.013   0.134 -1.1140  0.1981  0.0954
 2630TIP3   OH229448   3.392   3.630   8.507 -0.3912  0.9925 -0.0123
 2630TIP3    H129449   3.304   3.602   8.532  0.3541 -2.6938 -0.8843
 2630TIP3    H229450   3.395   3.615   8.412  1.8819 -1.5390  0.3534
 2631TIP3   OH229451   4.849   6.176   1.164  0.2324 -0.5792  0.0305
 2631TIP3    H129452   4.760   6.145   1.145  0.5846 -1.0884 -0.8424
 2631TIP3    H229453   4.905   6.100   1.149  0.8927 -0.0693 -0.1423
 2632TIP3   OH229454   6.505   5.367   2.366  0.4422 -0.3491  0.0615
 2632TIP3    H129455   6.518   5.282   2.324 -0.1211  0.2156 -1.2992
 2632TIP3    H229456   6.568   5.425   2.323 -0.8552  0.4841 -0.7947
 2633TIP3   OH229457   1.579   3.080   7.777 -0.0030  0.8292  0.8302
 2633TIP3    H129458   1.607   3.016   7.843  0.6483 -0.4732 -0.6373
 2633TIP3    H229459   1.498   3.043   7.741  0.0876  1.0905  0.3441
 2634TIP3   OH229460   0.440   1.207   1.790  0.0832 -0.0013 -0.2641
 2634TIP3    H129461   0.436   1.235   1.698 -1.2039 -0.3003 -0.3195
 2634TIP3    H229462   0.430   1.288   1.840 -1.0457 -0.0389 -0.4112
 2635TIP3   OH229463   2.748   1.283   0.950 -0.6107  0.3010  0.1481
 2635TIP3    H129464   2.718   1.361   0.996 -1.7278 -1.1656  2.0584
 2635TIP3    H229465   2.792   1.231   1.017  1.8966  0.1074 -1.4947
 2636TIP3   OH229466   1.899   3.449   2.225  0.3379 -0.2277 -0.3341
 2636TIP3    H129467   1.932   3.363   2.250  0.1976  0.0677  0.9281
 2636TIP3    H229468   1.974   3.493   2.187  0.1921 -1.2066 -1.8453
 2637TIP3   OH229469   1.275   4.741   1.698 -0.1790  0.0334  0.0685
 2637TIP3    H129470   1.273   4.659   1.747 -0.6503  0.4149  0.6996
 2637TIP3    H229471   1.232   4.804   1.755  0.4263  0.7912 -0.2909
 2638TIP3   OH229472   1.847   3.167   8.791 -0.2410  0.0475 -0.1867
 2638TIP3    H129473   1.855   3.141   8.883  0.8720 -1.0754 -0.5604
 2638TIP3    H229474   1.915   3.233   8.779  0.2340 -0.4744 -0.4100
 2639TIP3   OH229475   3.957   4.444   0.491  0.3815  0.4922  0.1476
 2639TIP3    H129476   3.862   4.454   0.487  0.3081 -0.2423 -0.0301
 2639TIP3    H229477   3.973   4.400   0.575  0.4117 -1.0424 -0.6462
 2640TIP3   OH229478   0.245   6.446   0.160  0.4062  0.1924  0.2188
 2640TIP3    H129479   0.211   6.425   0.074  0.6761 -0.1724  0.1983
 2640TIP3    H229480   0.218   6.373   0.216  0.9557  0.0076  0.2514
 2641TIP3   OH229481   6.673   6.262   8.791  0.3527  0.1796 -0.0964
 2641TIP3    H129482   6.651   6.174   8.821  0.5619  0.2696  0.3215
 2641TIP3    H229483   6.630   6.270   8.705  0.6211 -0.4562 -0.2933
 2642TIP3   OH229484   2.018   1.212   0.272 -0.3205  0.6103  0.0676
 2642TIP3    H129485   2.048   1.145   0.334 -0.0517  0.8123  0.1565
 2642TIP3    H229486   2.098   1.248   0.235 -0.4951 -0.4402 -1.4076
 2643TIP3   OH229487   2.215   2.559   0.973 -0.5087  0.2418  0.1528
 2643TIP3    H129488   2.282   2.493   0.957  0.0611  0.7802  0.2796
 2643TIP3    H229489   2.169   2.567   0.890 -1.3210 -1.1126  0.4498
 2644TIP3   OH229490   1.218   3.621   8.677 -0.8632  0.4688 -0.5601
 2644TIP3    H129491   1.145   3.648   8.733  0.8866  0.2667  1.9727
 2644TIP3    H229492   1.281   3.693   8.684  0.3623 -0.5857 -0.3897
 2645TIP3   OH229493   3.145   1.982   2.431 -0.2446 -0.6728  0.2838
 2645TIP3    H129494   3.072   1.965   2.490  0.3755 -0.4156  1.1501
 2645TIP3    H229495   3.119   1.940   2.348 -1.2027 -0.8938  0.6779
 2646TIP3   OH229496   1.760   4.124   8.523 -0.2162 -0.4309 -0.3674
 2646TIP3    H129497   1.807   4.203   8.498  0.2772 -0.1841  1.1980
 2646TIP3    H229498   1.815   4.083   8.590 -1.1058 -1.3839 -0.1887
 2647TIP3   OH229499   6.101   5.924   3.302 -0.8541  0.0972  0.0478
 2647TIP3    H129500   6.069   6.014   3.301  1.0677  0.8171 -0.7248
 2647TIP3    H229501   6.164   5.919   3.230 -0.2308 -1.6056  0.6444
 2648TIP3   OH229502   0.470   5.315   1.998 -0.0990  0.1090  0.2994
 2648TIP3    H129503   0.491   5.225   1.976 -2.0414 -0.7018  1.4677
 2648TIP3    H229504   0.413   5.344   1.927 -1.1082 -0.3015  0.9201
 2649TIP3   OH229505   6.803   0.032   1.223 -0.3788  0.2036 -0.3276
 2649TIP3    H129506   6.711   0.027   1.248 -0.4550 -0.0215 -0.6502
 2649TIP3    H229507   6.804   0.011   1.130  0.2500 -2.0038  0.1309
 2650TIP3   OH229508   4.627   1.436   2.557  0.0457 -0.3167 -0.1742
 2650TIP3    H129509   4.609   1.502   2.490 -0.1519 -0.2016 -0.0087
 2650TIP3    H229510   4.578   1.466   2.634  1.3477  0.2869  0.4519
 2651TIP3   OH229511   0.542   3.362   2.088 -0.3622 -0.1252 -0.3860
 2651TIP3    H129512   0.521   3.407   2.006  2.5368  1.2715 -0.5120
 2651TIP3    H229513   0.566   3.433   2.148 -1.4770 -1.1903  1.4095
 2652TIP3   OH229514   5.331   3.961   2.496 -0.5470 -0.1428  0.7001
 2652TIP3    H129515   5.243   3.996   2.488 -1.3139 -2.2835 -1.5165
 2652TIP3    H229516   5.336   3.928   2.586 -1.4902  1.2364  1.2787
 2653TIP3   OH229517   5.928   0.575   1.753 -0.0565  0.1838 -0.7608
 2653TIP3    H129518   5.989   0.520   1.703  0.1321  1.7254 -2.3589
 2653TIP3    H229519   5.942   0.663   1.718 -1.2946  1.0305  0.7540
 2654TIP3   OH229520   4.277   4.900   8.352 -0.3290  0.4289 -0.5082
 2654TIP3    H129521   4.197   4.849   8.339  1.0181 -2.8083  2.3927
 2654TIP3    H229522   4.340   4.861   8.290  0.2535 -0.3813  0.5626
 2655TIP3   OH229523   4.524   4.104   8.788  0.6690 -0.1567  0.0133
 2655TIP3    H129524   4.474   4.156   8.724  1.9566  1.9263  0.5929
 2655TIP3    H229525   4.581   4.049   8.734  0.5127  0.3068 -0.6435
 2656TIP3   OH229526   4.982   3.424   7.972 -0.5296  0.3891 -0.2201
 2656TIP3    H129527   4.931   3.433   7.891 -0.4141  1.7334 -0.1691
 2656TIP3    H229528   5.073   3.434   7.943 -0.3158 -1.3056 -0.2122
 2657TIP3   OH229529   6.211   5.789   1.786 -0.1055  0.4204  0.3319
 2657TIP3    H129530   6.276   5.819   1.722 -1.4312  1.2681 -0.6891
 2657TIP3    H229531   6.168   5.869   1.816 -0.3489 -0.0781  1.3452
 2658TIP3   OH229532   6.040   6.051   0.649 -0.7231 -0.2464  0.2031
 2658TIP3    H129533   6.060   6.036   0.557 -1.4272 -0.4808  0.0830
 2658TIP3    H229534   6.124   6.039   0.694 -0.4379 -0.4375 -0.3712
 2659TIP3   OH229535   3.297   6.809   1.603 -0.2196  0.2503 -0.0995
 2659TIP3    H129536   3.230   6.794   1.670 -0.3313 -0.1344 -0.2950
 2659TIP3    H229537   3.310   6.723   1.562  1.9928 -0.1914  1.3837
 2660TIP3   OH229538   2.490   2.118   7.595 -0.0871 -0.2315  0.4046
 2660TIP3    H129539   2.449   2.174   7.529 -2.0052 -0.9357  0.9337
 2660TIP3    H229540   2.523   2.180   7.661  0.5714  0.3969 -0.4864
 2661TIP3   OH229541   1.609   3.276   8.500 -0.2670 -0.1412 -0.0255
 2661TIP3    H129542   1.527   3.279   8.451 -0.1886 -1.8737 -0.3465
 2661TIP3    H229543   1.587   3.227   8.579  0.2524  0.2042  0.3366
 2662TIP3   OH229544   3.544   1.411   2.089  0.0374 -0.2854  0.5697
 2662TIP3    H129545   3.621   1.430   2.035  0.3053 -3.8269 -0.5243
 2662TIP3    H229546   3.470   1.438   2.034  0.3927 -1.1625 -0.3727
 2663TIP3   OH229547   6.419   5.269   8.143 -0.1115 -0.2905  0.1460
 2663TIP3    H129548   6.368   5.243   8.220 -1.6103  1.0521 -0.3483
 2663TIP3    H229549   6.474   5.193   8.125 -1.5552 -1.6088  1.0322
 2664TIP3   OH229550   4.496   3.617   8.729  0.4360  0.1705  0.2257
 2664TIP3    H129551   4.568   3.618   8.792 -0.7394 -3.7593  2.0119
 2664TIP3    H229552   4.420   3.593   8.782 -1.5252  0.9197 -2.1084
 2665TIP3   OH229553   2.842   0.075   7.108 -0.1167  0.1962 -0.3746
 2665TIP3    H129554   2.814  -0.017   7.107 -0.3885  0.2790 -0.8326
 2665TIP3    H229555   2.768   0.123   7.146 -0.2854  0.3143 -0.8382
 2666TIP3   OH229556   1.325   6.231   8.261 -0.4494  0.5836  0.4514
 2666TIP3    H129557   1.240   6.245   8.304 -0.9356  0.6988 -0.5139
 2666TIP3    H229558   1.313   6.267   8.173  0.5584  0.4593  0.2547
 2667TIP3   OH229559   5.515   4.368   0.924 -0.3877  0.1497 -0.3712
 2667TIP3    H129560   5.479   4.284   0.953 -1.0885  0.4963 -0.2039
 2667TIP3    H229561   5.477   4.433   0.984 -1.3132  0.7972 -1.6093
 2668TIP3   OH229562   0.382   1.761   7.787 -0.6020  0.0305 -0.6454
 2668TIP3    H129563   0.286   1.751   7.785 -0.7574  1.0553  0.7187
 2668TIP3    H229564   0.409   1.735   7.699 -2.2604  0.8605 -1.4608
 2669TIP3   OH229565   3.809   1.514   3.036 -0.6632 -0.1543 -0.3724
 2669TIP3    H129566   3.848   1.469   3.111  0.1169 -0.2769 -0.8395
 2669TIP3    H229567   3.717   1.488   3.038 -0.4163 -1.0478 -0.1001
 2670TIP3   OH229568   3.622   6.009   0.369 -0.6465 -0.0556  0.6428
 2670TIP3    H129569   3.529   6.023   0.353 -0.6077 -0.6759 -0.1960
 2670TIP3    H229570   3.637   5.917   0.348  0.4990  0.4595 -0.9547
 2671TIP3   OH229571   3.906   1.165   1.621  0.1543  0.1262 -0.5407
 2671TIP3    H129572   3.992   1.183   1.660 -0.2150  1.4832 -0.2721
 2671TIP3    H229573   3.895   1.233   1.554 -0.8297  0.1615 -0.3648
 2672TIP3   OH229574   2.082   5.984   1.579  0.0940 -0.4692 -0.0442
 2672TIP3    H129575   2.086   5.980   1.675  0.3368 -1.0333 -0.0716
 2672TIP3    H229576   2.171   6.008   1.553 -0.1344  0.3285 -0.1040
 2673TIP3   OH229577   2.626   6.748   8.139  0.1525  0.0290  0.2764
 2673TIP3    H129578   2.650   6.762   8.048  1.0544  0.4156  0.5567
 2673TIP3    H229579   2.702   6.780   8.189 -0.8995  1.1527  1.2159
 2674TIP3   OH229580   1.426   5.601   7.131  0.2184  0.4409 -0.3761
 2674TIP3    H129581   1.339   5.609   7.092  1.5056  0.0784 -3.6532
 2674TIP3    H229582   1.413   5.545   7.207 -2.4194  0.5850 -0.6180
 2675TIP3   OH229583   1.789   6.429   1.149 -0.2730  0.1112 -0.1984
 2675TIP3    H129584   1.721   6.492   1.170 -0.7227  0.3476 -2.2135
 2675TIP3    H229585   1.742   6.347   1.134  0.1393 -0.3032  0.6928
 2676TIP3   OH229586   2.774   2.458   0.272 -0.1648 -0.0792  0.3639
 2676TIP3    H129587   2.791   2.533   0.329 -0.6231  1.2294 -1.1454
 2676TIP3    H229588   2.839   2.466   0.202 -1.4600  0.0358 -0.8569
 2677TIP3   OH229589   1.111   1.605   1.245  0.9688  0.1279 -0.3738
 2677TIP3    H129590   1.156   1.674   1.197  0.5046 -0.2762 -1.4431
 2677TIP3    H229591   1.151   1.524   1.213 -0.1923 -0.2115 -1.0324
 2678TIP3   OH229592   2.890   4.891   8.276  0.6879 -0.0874  0.3862
 2678TIP3    H129593   2.954   4.937   8.332  2.2977 -1.5559 -0.1595
 2678TIP3    H229594   2.864   4.956   8.212  2.2616  0.3698  0.1554
 2679TIP3   OH229595   4.615   3.841   7.642  0.1778 -0.3429  0.0010
 2679TIP3    H129596   4.645   3.897   7.570  2.5382 -2.4356 -0.8188
 2679TIP3    H229597   4.693   3.827   7.695  0.0836 -3.6927 -0.5078
 2680TIP3   OH229598   4.489   1.959   7.896 -0.6490 -0.1304 -0.4741
 2680TIP3    H129599   4.450   1.916   7.821  0.6599 -0.5622 -0.9416
 2680TIP3    H229600   4.453   1.914   7.972  0.1150 -1.5887 -0.9307
 2681TIP3   OH229601   3.291   4.938   0.818  0.3747  0.2851 -0.4166
 2681TIP3    H129602   3.382   4.934   0.788  0.1814 -1.7035 -0.8887
 2681TIP3    H229603   3.240   4.934   0.737 -0.1170 -1.7604 -0.0793
 2682TIP3   OH229604   6.119   4.289   7.149  0.4685  0.4628  0.0038
 2682TIP3    H129605   6.082   4.341   7.220  0.1553 -0.5584  0.6121
 2682TIP3    H229606   6.138   4.204   7.189  0.0446 -0.2137 -1.1816
 2683TIP3   OH229607   1.008   4.134   3.302 -0.1077  0.2723  0.0262
 2683TIP3    H129608   0.927   4.087   3.287  0.0981  0.8999 -4.5062
 2683TIP3    H229609   1.071   4.067   3.327 -1.4514 -0.5606  1.3024
 2684TIP3   OH229610   5.505   5.373   0.905  0.2349 -0.4147  0.6355
 2684TIP3    H129611   5.538   5.291   0.868  0.0823 -0.5869  0.8836
 2684TIP3    H229612   5.410   5.362   0.909  0.3215 -0.8589  2.1664
 2685TIP3   OH229613   3.824   1.232   7.526  0.1421 -0.2311 -0.0679
 2685TIP3    H129614   3.771   1.305   7.494  1.8761  1.1863  0.1290
 2685TIP3    H229615   3.875   1.204   7.450  0.8140 -0.0032  0.2916
 2686TIP3   OH229616   1.001   3.170   2.593 -0.1479 -0.3884 -0.6566
 2686TIP3    H129617   0.957   3.086   2.578  0.6033 -0.8688 -0.2130
 2686TIP3    H229618   1.006   3.178   2.688  0.7287 -0.3508 -0.6994
 2687TIP3   OH229619   2.399   4.334   2.704  0.2837  0.3194 -0.2240
 2687TIP3    H129620   2.335   4.401   2.679 -0.2848  0.6492  1.8991
 2687TIP3    H229621   2.347   4.255   2.717  0.5602  0.1477 -0.1585
 2688TIP3   OH229622   6.335   0.321   2.153  1.4081  0.0191  0.7674
 2688TIP3    H129623   6.397   0.384   2.119 -0.2843  1.7065  0.6601
 2688TIP3    H229624   6.270   0.373   2.200 -0.6895 -1.5088 -0.2786
 2689TIP3   OH229625   2.729   2.287   1.050  0.5897 -0.4584 -0.4246
 2689TIP3    H129626   2.747   2.378   1.023  1.1705 -0.3947  0.1467
 2689TIP3    H229627   2.701   2.294   1.141  0.2336 -0.8185 -0.5054
 2690TIP3   OH229628   2.694   6.074   7.824 -0.6893 -0.1196  0.6887
 2690TIP3    H129629   2.611   6.029   7.805  0.3307 -1.5214 -0.6460
 2690TIP3    H229630   2.710   6.128   7.747 -0.3482  0.1642  0.9540
 2691TIP3   OH229631   0.994   4.583   2.383  1.1357  0.2825 -0.1890
 2691TIP3    H129632   0.907   4.601   2.418  1.3757  1.7325 -0.2531
 2691TIP3    H229633   1.014   4.494   2.412 -0.2087  0.0596  0.1322
 2692TIP3   OH229634   0.147   2.795   7.365  0.8915  0.1951 -0.5123
 2692TIP3    H129635   0.126   2.839   7.282 -0.3869 -0.1322 -0.3767
 2692TIP3    H229636   0.102   2.711   7.360  0.0301  0.5382  0.8807
 2693TIP3   OH229637   5.216   4.409   1.572  0.2293 -0.1515  0.3382
 2693TIP3    H129638   5.232   4.425   1.479  1.4149  2.1421  0.8478
 2693TIP3    H229639   5.158   4.480   1.599  1.0598  0.0665  1.6252
 2694TIP3   OH229640   5.128   6.767   8.317  0.1578  0.2397 -0.2331
 2694TIP3    H129641   5.088   6.809   8.241 -1.6789 -1.2193 -0.1406
 2694TIP3    H229642   5.054   6.732   8.367  1.4821 -1.5965  0.5621
 2695TIP3   OH229643   0.449   3.499   0.686 -0.0005  0.0099  0.1575
 2695TIP3    H129644   0.528   3.505   0.633 -0.8297 -0.1889 -1.1406
 2695TIP3    H229645   0.393   3.437   0.639 -1.7927  1.7371 -0.1172
 2696TIP3   OH229646   4.850   0.561   2.750 -0.4380 -0.2131 -0.3027
 2696TIP3    H129647   4.837   0.656   2.746 -1.7131 -0.1863  2.3124
 2696TIP3    H229648   4.832   0.538   2.842  0.6118 -2.8846 -0.6718
 2697TIP3   OH229649   3.157   6.111   0.164  0.1883  0.2436 -0.2616
 2697TIP3    H129650   3.169   6.045   0.095  1.3394 -0.0659  0.2119
 2697TIP3    H229651   3.121   6.186   0.118 -0.8468 -0.5971 -0.8743
 2698TIP3   OH229652   3.743   5.085   0.884  0.7132  0.0972  0.2174
 2698TIP3    H129653   3.761   5.074   0.790 -0.4425 -0.2883  0.0357
 2698TIP3    H229654   3.745   5.180   0.898  0.8960  0.1552 -0.1887
 2699TIP3   OH229655   6.243   4.174   2.484 -0.2479  0.0136 -0.1350
 2699TIP3    H129656   6.325   4.208   2.449 -0.4881  1.1683  0.3759
 2699TIP3    H229657   6.176   4.232   2.450 -0.8521 -0.8154 -0.4032
 2700TIP3   OH229658   0.566   6.232   8.725 -0.4038  0.5449  0.1358
 2700TIP3    H129659   0.544   6.175   8.652  2.2544  0.0781 -0.4208
 2700TIP3    H229660   0.657   6.258   8.708 -0.2329  1.7094  2.4535
 2701TIP3   OH229661   0.465   2.796   8.211  0.1965 -0.1178  0.9137
 2701TIP3    H129662   0.473   2.887   8.183 -0.6761 -0.5444 -0.8900
 2701TIP3    H229663   0.553   2.772   8.240  0.9778  0.6570 -0.6975
 2702TIP3   OH229664   5.708   2.262   1.986 -0.1329  0.3700 -0.2541
 2702TIP3    H129665   5.787   2.217   1.956 -0.0276 -0.4518  1.1717
 2702TIP3    H229666   5.720   2.270   2.081 -0.5489  2.6455 -0.3381
 2703TIP3   OH229667   5.713   6.301   1.641  0.1659 -0.0981  0.2364
 2703TIP3    H129668   5.697   6.237   1.571  0.5251  0.0263  0.0403
 2703TIP3    H229669   5.646   6.368   1.627 -0.3528 -0.5350  0.5759
 2704TIP3   OH229670   2.514   6.502   8.084 -0.3006  0.2442 -0.1124
 2704TIP3    H129671   2.570   6.579   8.099  1.3818 -1.2744  1.9281
 2704TIP3    H229672   2.438   6.516   8.140  0.3601  0.0898  0.8371
 2705TIP3   OH229673   0.654   0.786   2.412  0.8636  0.5723  0.0618
 2705TIP3    H129674   0.560   0.799   2.423  0.7610  0.8116 -0.9257
 2705TIP3    H229675   0.694   0.833   2.485  0.2613  1.7598 -0.3414
 2706TIP3   OH229676   1.165   0.804   1.407  0.1571  0.8426  0.5129
 2706TIP3    H129677   1.205   0.761   1.483 -0.6556  0.3054  0.6586
 2706TIP3    H229678   1.094   0.745   1.381 -0.6775  1.8557  0.4114
 2707TIP3   OH229679   6.067   0.475   1.976 -0.3014 -0.8417  0.5325
 2707TIP3    H129680   5.999   0.499   1.913  0.9371 -1.4259 -1.0737
 2707TIP3    H229681   6.060   0.380   1.985  1.6571 -1.2257 -1.3407
 2708TIP3   OH229682   0.079   0.431   0.163 -0.0886 -0.0902  0.5605
 2708TIP3    H129683   0.092   0.342   0.195  0.5938 -0.1774  0.0736
 2708TIP3    H229684  -0.014   0.434   0.140 -0.2250 -0.5241  1.0257
 2709TIP3   OH229685   5.863   5.252   7.992  0.1763  0.0733 -0.4084
 2709TIP3    H129686   5.900   5.339   7.973 -0.0691  0.2518 -0.0641
 2709TIP3    H229687   5.774   5.270   8.021 -0.1749 -0.3532 -1.1820
 2710TIP3   OH229688   1.622   6.215   1.140 -0.1598 -0.2486 -0.7200
 2710TIP3    H129689   1.529   6.205   1.158 -0.5403  0.5576 -2.1101
 2710TIP3    H229690   1.650   6.129   1.107 -0.4246 -0.4624 -0.3885
 2711TIP3   OH229691   2.754   4.589   0.321  0.7785 -0.0684  0.1532
 2711TIP3    H129692   2.795   4.576   0.406  1.6346  0.5882 -0.1454
 2711TIP3    H229693   2.800   4.665   0.283  0.2708 -0.2169 -0.7983
 2712TIP3   OH229694   1.997   1.936   2.532 -0.6381  0.4272  0.2995
 2712TIP3    H129695   2.005   1.988   2.612  0.8251 -0.1410  0.5477
 2712TIP3    H229696   2.042   1.854   2.552  1.4956  1.0135 -1.7421
 2713TIP3   OH229697   3.488   5.980   8.759  0.0633  0.1193 -0.4560
 2713TIP3    H129698   3.423   5.983   8.829  0.3571 -0.9811 -0.1006
 2713TIP3    H229699   3.496   5.886   8.739  2.0147  0.1539 -0.0213
 2714TIP3   OH229700   2.257   5.246   1.919 -0.0681 -0.3009  0.3323
 2714TIP3    H129701   2.164   5.237   1.940 -0.2791 -1.2583 -0.9132
 2714TIP3    H229702   2.300   5.177   1.971  0.1587  1.0231  1.9851
 2715TIP3   OH229703   6.741   3.209   0.085 -0.5895 -0.0393  0.2724
 2715TIP3    H129704   6.650   3.211   0.115 -1.6019  1.5999 -2.5151
 2715TIP3    H229705   6.742   3.147   0.013  0.1506  0.9525 -0.6062
 2716TIP3   OH229706   3.512   5.460   8.399  0.2098 -0.4454 -0.1021
 2716TIP3    H129707   3.454   5.498   8.466 -1.3985 -1.3401 -0.9157
 2716TIP3    H229708   3.510   5.523   8.327  1.4571  0.2263  0.4269
 2717TIP3   OH229709   2.525   1.593   2.447  0.0708 -0.3494 -0.0442
 2717TIP3    H129710   2.563   1.679   2.468 -1.1217 -0.2418  1.9526
 2717TIP3    H229711   2.446   1.613   2.398  0.2793 -0.3474 -0.3777
 2718TIP3   OH229712   6.402   4.295   1.729  0.6550  0.7794  0.1640
 2718TIP3    H129713   6.310   4.302   1.704  0.5403 -1.9573 -0.4987
 2718TIP3    H229714   6.400   4.281   1.824  0.0795 -2.1982 -0.1914
 2719TIP3   OH229715   5.077   0.126   1.711  0.1185  0.2935  0.6803
 2719TIP3    H129716   5.152   0.167   1.755 -0.8582  2.3610  0.5221
 2719TIP3    H229717   5.100   0.129   1.618  1.0935 -1.8380  0.7763
 2720TIP3   OH229718   4.949   3.996   8.022 -0.2138 -0.1456 -0.0044
 2720TIP3    H129719   5.022   3.950   8.063 -0.5148  0.2542  1.0429
 2720TIP3    H229720   4.988   4.045   7.950  0.0931 -2.0906 -1.2325
 2721TIP3   OH229721   5.397   2.873   8.074 -0.6805  0.3330 -0.7308
 2721TIP3    H129722   5.364   2.912   8.155 -0.8889 -2.5104  0.6914
 2721TIP3    H229723   5.370   2.934   8.005 -1.2859  2.4135  1.2275
 2722TIP3   OH229724   0.253   0.790   0.944  0.3801 -0.5313 -0.5583
 2722TIP3    H129725   0.256   0.862   0.882 -0.9076 -0.2845 -0.3626
 2722TIP3    H229726   0.341   0.752   0.942  0.8730  0.6116 -1.1627
 2723TIP3   OH229727   3.561   2.850   7.992  0.4880 -0.0077 -0.0857
 2723TIP3    H129728   3.521   2.773   7.950 -1.6964  1.9321 -1.8494
 2723TIP3    H229729   3.491   2.915   7.993  1.7474  1.4693  2.9292
 2724TIP3   OH229730   6.608   4.274   8.431 -0.1943  0.8137 -0.5857
 2724TIP3    H129731   6.604   4.244   8.521  3.2828  0.7390 -0.3389
 2724TIP3    H229732   6.670   4.214   8.388  1.3685  3.2329 -1.9338
 2725TIP3   OH229733   1.648   0.572   8.646  0.4653  0.4262  0.1894
 2725TIP3    H129734   1.561   0.579   8.686  0.6395 -0.3610  0.7192
 2725TIP3    H229735   1.705   0.622   8.704  0.2889  1.3837 -0.4388
 2726TIP3   OH229736   2.754   1.831   2.228  0.1604  0.4037 -0.4597
 2726TIP3    H129737   2.847   1.843   2.212  0.4762 -0.1737  0.7662
 2726TIP3    H229738   2.747   1.821   2.323 -1.0421 -0.3706 -0.5979
 2727TIP3   OH229739   2.308   4.492   8.169  0.3646 -0.0288  0.4855
 2727TIP3    H129740   2.331   4.404   8.140  1.8145  0.9286 -1.5662
 2727TIP3    H229741   2.386   4.545   8.150 -0.8682  1.9214  0.5173
 2728TIP3   OH229742   4.551   3.841   0.948  0.4321  0.1407 -0.3413
 2728TIP3    H129743   4.601   3.806   1.021  1.0493  0.3317 -0.6679
 2728TIP3    H229744   4.535   3.932   0.971  2.0817  0.6722 -1.1916
 2729TIP3   OH229745   4.518   2.492   8.167  0.0438  0.4044 -0.0185
 2729TIP3    H129746   4.496   2.584   8.151  2.5060  0.9686 -0.6404
 2729TIP3    H229747   4.586   2.473   8.102  0.9205 -1.2998  1.3438
 2730TIP3   OH229748   1.715   5.133   8.521  0.4757  0.7072 -0.3824
 2730TIP3    H129749   1.710   5.185   8.601 -1.3329 -2.2700  1.6308
 2730TIP3    H229750   1.772   5.059   8.544 -2.2588 -1.6858 -0.7734
 2731TIP3   OH229751   4.479   5.829   2.084  0.1089  0.5532  0.2371
 2731TIP3    H129752   4.564   5.857   2.049  0.1290 -0.1423 -0.2843
 2731TIP3    H229753   4.425   5.908   2.079  0.1063  0.4852 -1.4123
 2732TIP3   OH229754   2.456   2.782   1.661 -0.3950  0.2645  0.6491
 2732TIP3    H129755   2.499   2.867   1.653  1.0870 -0.3985  1.1299
 2732TIP3    H229756   2.449   2.767   1.755  0.7243 -0.7705  0.5957
 2733TIP3   OH229757   3.037   2.236   8.662  0.3847  0.3899 -0.3755
 2733TIP3    H129758   2.994   2.308   8.616 -1.6766 -1.5366 -1.6169
 2733TIP3    H229759   2.988   2.228   8.744 -1.4970 -1.5140 -1.5954
 2734TIP3   OH229760   1.596   6.785   0.285 -0.0783 -0.1945 -0.1919
 2734TIP3    H129761   1.644   6.747   0.359 -1.0230 -0.3703  0.3371
 2734TIP3    H229762   1.600   6.879   0.300 -0.1548 -0.2224  0.0050
 2735TIP3   OH229763   4.723   4.075   8.191  0.0565 -0.1396  0.2410
 2735TIP3    H129764   4.738   4.162   8.153 -0.6667 -0.7581 -1.5342
 2735TIP3    H229765   4.801   4.024   8.166 -1.3360 -1.1548 -2.3750
 2736TIP3   OH229766   0.358   0.479   0.232 -0.2034  0.4863 -0.8950
 2736TIP3    H129767   0.416   0.442   0.299 -0.1355  2.3050  0.1077
 2736TIP3    H229768   0.272   0.442   0.252 -0.6564  2.6181  1.6409
 2737TIP3   OH229769   0.638   0.468   7.511 -0.1474  0.0987  0.4620
 2737TIP3    H129770   0.607   0.487   7.423  1.6552 -0.5441 -0.3557
 2737TIP3    H229771   0.571   0.411   7.549  0.2146 -1.6927 -1.4331
 2738TIP3   OH229772   0.774   6.642   0.218 -0.0214 -0.3871 -0.0658
 2738TIP3    H129773   0.832   6.612   0.288  0.6592  0.5123 -0.2331
 2738TIP3    H229774   0.762   6.735   0.235  0.2757 -0.1240 -1.2297
 2739TIP3   OH229775   6.465   5.083   7.608  0.2731  0.1805 -0.4490
 2739TIP3    H129776   6.438   5.121   7.525 -0.8128 -1.2933 -0.8132
 2739TIP3    H229777   6.551   5.044   7.590  0.1091 -0.0045 -0.8457
 2740TIP3   OH229778   5.291   1.520   2.134  0.2187  0.9325 -0.0635
 2740TIP3    H129779   5.239   1.586   2.089  0.6744  0.7006 -0.9574
 2740TIP3    H229780   5.261   1.437   2.099  0.4857  0.7384  0.1585
 2741TIP3   OH229781   6.328   3.695   1.239  0.1163  0.1760 -0.0951
 2741TIP3    H129782   6.342   3.687   1.145  1.0569  0.5431  0.0104
 2741TIP3    H229783   6.308   3.788   1.253 -1.2203 -0.0866 -0.0709
 2742TIP3   OH229784   1.148   3.945   3.446  0.5531 -0.7841  0.1572
 2742TIP3    H129785   1.076   3.881   3.448 -0.7097  0.5026 -1.5144
 2742TIP3    H229786   1.210   3.913   3.511 -0.9763 -2.6037  0.8073
 2743TIP3   OH229787   0.952   5.158   8.741  0.0891 -0.2265  0.1137
 2743TIP3    H129788   1.033   5.209   8.742  0.3305 -0.5706  2.3391
 2743TIP3    H229789   0.885   5.218   8.773 -0.3874 -0.2006 -0.9019
 2744TIP3   OH229790   1.485   3.578   8.470  0.1090  0.4858  0.8267
 2744TIP3    H129791   1.461   3.569   8.563  1.4005 -0.6960  1.0814
 2744TIP3    H229792   1.453   3.498   8.429 -1.6562  1.5945 -0.0706
 2745TIP3   OH229793   2.817   5.968   8.243 -0.2318 -0.1316  0.0377
 2745TIP3    H129794   2.738   5.951   8.191 -0.1865 -0.1531 -0.0244
 2745TIP3    H229795   2.792   5.945   8.333 -0.2952 -0.1412  0.0172
 2746TIP3   OH229796   2.286   1.541   2.098 -0.1502 -0.5093  0.1813
 2746TIP3    H129797   2.199   1.516   2.067  0.3985 -1.2396 -0.8398
 2746TIP3    H229798   2.335   1.459   2.102  0.3466 -0.1723  1.2454
 2747TIP3   OH229799   4.622   5.349   8.272  0.0653  0.3655  0.1716
 2747TIP3    H129800   4.530   5.369   8.255 -0.3907 -1.7908 -0.1606
 2747TIP3    H229801   4.630   5.255   8.255  1.3674 -0.4217  4.0573
 2748TIP3   OH229802   0.284   3.753   1.533 -0.1924  0.0136  0.0320
 2748TIP3    H129803   0.211   3.807   1.562  0.0492  0.7203 -0.6556
 2748TIP3    H229804   0.323   3.801   1.461  2.4548  0.9295  1.8912
 2749TIP3   OH229805   2.320   4.441   1.048 -0.4797 -0.1541 -0.3993
 2749TIP3    H129806   2.273   4.359   1.036 -0.1234 -0.3094 -0.7590
 2749TIP3    H229807   2.410   4.421   1.024 -0.4609  0.4321 -0.8625
 2750TIP3   OH229808   6.445   1.787   7.229  0.4000 -0.3105  0.0632
 2750TIP3    H129809   6.486   1.741   7.302  1.9543  0.2343 -0.4205
 2750TIP3    H229810   6.513   1.790   7.161 -0.1052  1.4781 -0.4269
 2751TIP3   OH229811   0.432   6.183   1.397  0.3985  0.1173  0.1191
 2751TIP3    H129812   0.457   6.276   1.397  0.6588  0.0529 -0.3602
 2751TIP3    H229813   0.338   6.183   1.414  0.3672  0.4789 -0.0487
 2752TIP3   OH229814   3.186   5.013   7.185  0.1973 -0.0693  0.3600
 2752TIP3    H129815   3.224   5.075   7.246 -0.6456 -0.7765  1.6477
 2752TIP3    H229816   3.252   5.005   7.115  1.7131 -0.0939  1.7280
 2753TIP3   OH229817   2.580   1.469   8.145 -0.3603 -0.6555  0.4154
 2753TIP3    H129818   2.643   1.400   8.167 -1.0148 -1.3640  0.1250
 2753TIP3    H229819   2.548   1.501   8.230 -0.7597 -1.3871  0.5526
 2754TIP3   OH229820   5.364   6.295   0.075 -0.1768  0.0694 -0.2357
 2754TIP3    H129821   5.344   6.254  -0.009  0.3741 -1.4086  0.3318
 2754TIP3    H229822   5.459   6.295   0.079 -0.2129 -0.5662  0.7229
 2755TIP3   OH229823   2.209   6.697   2.832 -0.3972 -0.5153 -0.1907
 2755TIP3    H129824   2.142   6.692   2.900 -1.7673  0.3284 -1.4072
 2755TIP3    H229825   2.223   6.606   2.805 -1.5797 -0.6560 -0.3826
 2756TIP3   OH229826   0.097   5.438   1.527  0.2963 -0.1665  0.1004
 2756TIP3    H129827   0.026   5.466   1.470  1.0976 -1.6393 -1.6975
 2756TIP3    H229828   0.084   5.344   1.539  0.5938 -0.0391  1.7633
 2757TIP3   OH229829   3.160   3.086   8.210 -0.5273  0.0651  0.2799
 2757TIP3    H129830   3.213   3.029   8.154  0.0593 -0.8748  1.7013
 2757TIP3    H229831   3.070   3.074   8.180 -0.2328 -0.4074 -0.4381
 2758TIP3   OH229832   3.663   5.521   0.145  0.0003  0.1459  0.1653
 2758TIP3    H129833   3.663   5.495   0.053  2.0083  0.0117  0.1621
 2758TIP3    H229834   3.636   5.442   0.193 -2.2296  0.5345 -0.3054
 2759TIP3   OH229835   1.494   3.136   6.975  0.1118  0.6837 -0.1551
 2759TIP3    H129836   1.514   3.050   7.012 -1.4327  0.3471  0.0024
 2759TIP3    H229837   1.577   3.168   6.940  0.6319 -1.0961 -0.6687
 2760TIP3   OH229838   2.892   1.651   7.514  0.0806 -0.1791 -0.5463
 2760TIP3    H129839   2.855   1.739   7.529 -0.2078 -0.4297  0.2700
 2760TIP3    H229840   2.951   1.662   7.440 -2.0811  0.1189 -2.3156
 2761TIP3   OH229841   4.301   6.461   8.566  0.0483  0.1844  0.1586
 2761TIP3    H129842   4.297   6.366   8.557 -0.7003  0.0489  1.5589
 2761TIP3    H229843   4.316   6.493   8.477 -0.1304 -1.2079 -0.4047
 2762TIP3   OH229844   5.273   3.397   2.908  0.2827 -0.2032 -0.2351
 2762TIP3    H129845   5.256   3.484   2.944 -0.2101 -0.3161 -0.1920
 2762TIP3    H229846   5.197   3.345   2.933  0.1741 -0.4203 -0.9927
 2763TIP3   OH229847   3.965   5.084   8.706  0.3360 -0.1370 -0.6805
 2763TIP3    H129848   4.016   5.039   8.773  0.7687  1.6603  0.2490
 2763TIP3    H229849   3.991   5.176   8.713 -0.9323  0.3753 -2.1126
 2764TIP3   OH229850   0.908   5.698   1.334 -0.2910 -0.1925 -0.4581
 2764TIP3    H129851   0.890   5.770   1.275 -0.2940 -1.3103 -1.8739
 2764TIP3    H229852   0.837   5.700   1.398 -0.5937  0.7023 -0.8145
 2765TIP3   OH229853   4.450   6.566   8.059 -0.4473  0.1152 -0.2317
 2765TIP3    H129854   4.543   6.579   8.039 -0.8994  0.3368 -2.4228
 2765TIP3    H229855   4.404   6.627   8.001 -2.0188 -0.9832 -0.2055
 2766TIP3   OH229856   5.802   1.303   0.560  0.4267 -0.4176 -0.1770
 2766TIP3    H129857   5.825   1.312   0.468  2.5669  0.3892  0.3779
 2766TIP3    H229858   5.782   1.210   0.571  0.0221 -0.4975 -1.4578
 2767TIP3   OH229859   1.723   0.438   0.140  0.0967 -0.2813 -0.2231
 2767TIP3    H129860   1.707   0.351   0.103  1.3437 -0.3540 -0.6258
 2767TIP3    H229861   1.637   0.468   0.169 -0.3310 -1.7011  0.0278
 2768TIP3   OH229862   1.486   1.602   0.531  0.1388  0.9703  0.0263
 2768TIP3    H129863   1.548   1.623   0.461  0.3285 -1.2693 -0.5735
 2768TIP3    H229864   1.400   1.621   0.494  0.2263 -0.3373 -0.9458
 2769TIP3   OH229865   5.873   6.330   1.864  0.8305  0.0740 -0.0684
 2769TIP3    H129866   5.820   6.304   1.788 -1.1750  1.5623  0.7300
 2769TIP3    H229867   5.903   6.248   1.902 -1.2171 -0.8888 -0.3895
 2770TIP3   OH229868   3.290   4.696   1.540  0.0601 -0.4769  0.0954
 2770TIP3    H129869   3.377   4.735   1.545 -0.0247 -0.4060  1.4594
 2770TIP3    H229870   3.298   4.626   1.475  0.6364  0.7135 -1.1404
 2771TIP3   OH229871   2.717   2.913   2.557 -0.2073 -0.3134 -0.1049
 2771TIP3    H129872   2.661   2.946   2.628 -1.3239 -0.7795 -0.7507
 2771TIP3    H229873   2.804   2.906   2.597 -0.8460 -0.7254  1.2727
 2772TIP3   OH229874   1.423   5.278   8.457  0.3355  0.1902  0.0303
 2772TIP3    H129875   1.359   5.243   8.519  0.9919 -1.0276  0.0670
 2772TIP3    H229876   1.505   5.281   8.508  0.2218  2.2553  0.1586
 2773TIP3   OH229877   2.260   6.197   2.007  0.3862  0.1315 -0.7302
 2773TIP3    H129878   2.352   6.183   1.984  1.3933  2.4505  1.4534
 2773TIP3    H229879   2.240   6.125   2.067  1.5006  0.8055  0.4959
 2774TIP3   OH229880   4.134   6.235   2.037 -0.2277 -0.7369  0.9327
 2774TIP3    H129881   4.190   6.271   2.106 -0.5017  0.9840  0.3109
 2774TIP3    H229882   4.179   6.256   1.956 -2.0338  1.3710  0.3665
 2775TIP3   OH229883   2.709   4.106   8.177 -0.3855  0.3949  0.8224
 2775TIP3    H129884   2.679   4.197   8.177  0.0563  0.5561  1.6963
 2775TIP3    H229885   2.792   4.109   8.226 -0.4260 -0.4943  0.9575
 2776TIP3   OH229886   2.841   3.169   0.432  0.4734  0.0424 -0.3310
 2776TIP3    H129887   2.918   3.113   0.443 -0.8015 -1.9264 -1.0412
 2776TIP3    H229888   2.817   3.194   0.521  1.3489 -0.1456 -0.0338
 2777TIP3   OH229889   0.835   2.204   7.490 -0.1898 -0.5105  0.2108
 2777TIP3    H129890   0.915   2.242   7.525  0.1294 -1.8554  1.0256
 2777TIP3    H229891   0.811   2.261   7.417  1.5087 -0.0948 -0.0609
 2778TIP3   OH229892   2.563   3.027   1.641 -0.7465  0.1591  0.1078
 2778TIP3    H129893   2.622   3.099   1.660 -2.3308  1.7509 -0.7426
 2778TIP3    H229894   2.495   3.065   1.585 -1.6936 -1.9706 -0.3031
 2779TIP3   OH229895   5.626   3.870   2.544 -0.5786 -0.0314 -0.3209
 2779TIP3    H129896   5.624   3.963   2.525 -1.3656  0.0952  0.3297
 2779TIP3    H229897   5.551   3.855   2.601  0.2170 -0.8367  0.5673
 2780TIP3   OH229898   4.175   6.432   0.474  0.1603 -0.4179 -0.4558
 2780TIP3    H129899   4.214   6.515   0.449 -0.1564 -0.3046 -0.5826
 2780TIP3    H229900   4.214   6.411   0.559 -1.2830  0.9047  0.5966
 2781TIP3   OH229901   5.947   5.419   7.767  0.6769 -0.0435 -0.6019
 2781TIP3    H129902   5.967   5.330   7.739 -1.0593 -0.7623  0.2781
 2781TIP3    H229903   5.950   5.471   7.687 -0.6838 -1.3725 -1.5671
 2782TIP3   OH229904   5.526   4.661   1.514  0.2712 -0.1500  0.9778
 2782TIP3    H129905   5.585   4.631   1.445 -1.5838 -0.3670 -0.6003
 2782TIP3    H229906   5.497   4.748   1.485 -0.0891  0.0066  1.7724
 2783TIP3   OH229907   6.266   4.181   2.008 -0.1754 -0.2061 -0.0868
 2783TIP3    H129908   6.208   4.129   2.064  1.8809  1.0308  3.5486
 2783TIP3    H229909   6.214   4.257   1.983 -1.3601 -1.1038 -0.3939
 2784TIP3   OH229910   1.177   0.712   0.684 -0.0485 -0.0468  0.1712
 2784TIP3    H129911   1.219   0.696   0.768 -0.1711 -0.0517  0.2315
 2784TIP3    H229912   1.232   0.778   0.641 -0.1237  0.1395  0.3599
 2785TIP3   OH229913   5.397   6.231   1.305 -0.8712 -0.3273  0.3468
 2785TIP3    H129914   5.394   6.327   1.299 -0.2527 -0.3598 -3.3252
 2785TIP3    H229915   5.470   6.207   1.247 -1.9743 -3.0473 -0.0352
 2786TIP3   OH229916   2.849   4.012   7.416  0.3941  1.0610 -0.3914
 2786TIP3    H129917   2.783   4.021   7.347 -1.3598 -3.3142  0.3588
 2786TIP3    H229918   2.800   4.027   7.497  1.0154  0.6246  0.0718
 2787TIP3   OH229919   3.593   5.698   7.369  0.3160 -0.1889 -0.8264
 2787TIP3    H129920   3.592   5.792   7.354 -0.6162  0.0650  0.6096
 2787TIP3    H229921   3.675   5.668   7.329  1.3239  1.4504 -0.1004
 2788TIP3   OH229922   6.541   1.622   0.849  0.2002  0.1189  0.5357
 2788TIP3    H129923   6.475   1.666   0.796 -0.3908 -0.4188  0.8201
 2788TIP3    H229924   6.531   1.659   0.937  1.0693  0.8888  0.3349
 2789TIP3   OH229925   0.901   1.991   1.405  0.0358 -0.5634 -0.4792
 2789TIP3    H129926   0.983   1.954   1.439  0.0484 -0.8066 -0.7657
 2789TIP3    H229927   0.929   2.071   1.359  0.2025 -0.9741 -1.1182
 2790TIP3   OH229928   2.891   5.139   0.073 -0.0215  0.5795 -0.2152
 2790TIP3    H129929   2.928   5.142   0.161 -2.1287  0.1147  0.7485
 2790TIP3    H229930   2.900   5.228   0.040  0.1022  0.9400  0.7637
 2791TIP3   OH229931   4.283   1.638   2.378  0.5265  0.0813 -0.4243
 2791TIP3    H129932   4.372   1.629   2.344  0.0058 -0.4718 -1.6946
 2791TIP3    H229933   4.271   1.562   2.434  0.6518 -0.1790 -0.7430
 2792TIP3   OH229934   0.118   1.347   7.440 -0.5313  0.1016  0.1962
 2792TIP3    H129935   0.146   1.415   7.500 -0.5563  0.3481 -0.0678
 2792TIP3    H229936   0.077   1.394   7.368  1.2624 -0.0411 -0.9946
 2793TIP3   OH229937   0.758   0.385   2.752  0.1163 -0.2335 -0.6278
 2793TIP3    H129938   0.672   0.426   2.746  0.6901  0.8325 -2.4334
 2793TIP3    H229939   0.760   0.347   2.839 -1.3846  1.5609  0.2756
 2794TIP3   OH229940   3.144   6.573   8.159 -0.1311  0.4579 -0.9256
 2794TIP3    H129941   3.116   6.490   8.198  0.4885  0.4408 -0.5168
 2794TIP3    H229942   3.179   6.548   8.073  0.1011  0.2936 -0.7824
 2795TIP3   OH229943   2.151   4.230   1.797  0.0804 -0.1532  0.5574
 2795TIP3    H129944   2.129   4.223   1.704 -0.5186 -0.6318  0.7339
 2795TIP3    H229945   2.237   4.273   1.798  0.3983 -0.7600 -0.2390
 2796TIP3   OH229946   3.365   1.910   8.633  0.1139 -0.9344  0.1335
 2796TIP3    H129947   3.455   1.911   8.665  0.0584 -2.1058  0.3663
 2796TIP3    H229948   3.332   1.823   8.656 -1.9722  0.3487  2.4517
 2797TIP3   OH229949   3.568   4.798   1.199  0.1587 -0.2706  0.2443
 2797TIP3    H129950   3.588   4.886   1.228 -1.2943 -0.2737  1.3390
 2797TIP3    H229951   3.486   4.806   1.150 -0.2112 -1.0538  0.7045
 2798TIP3   OH229952   4.109   6.598   2.190 -0.3117 -0.5558 -0.3150
 2798TIP3    H129953   4.043   6.594   2.259  0.8690  0.6101  0.9336
 2798TIP3    H229954   4.058   6.603   2.109 -1.8521  2.2688  0.6944
 2799TIP3   OH229955   3.490   5.748   0.131  0.2295  0.2994  0.4390
 2799TIP3    H129956   3.556   5.683   0.154  0.4482  0.4682  0.2958
 2799TIP3    H229957   3.463   5.725   0.042 -0.6551 -0.3859  0.8746
 2800TIP3   OH229958   0.933   3.146   0.466  0.1341 -0.3266  0.0772
 2800TIP3    H129959   0.939   3.054   0.493  1.4610 -0.4924 -0.6814
 2800TIP3    H229960   0.945   3.195   0.548 -2.2306 -0.7645  0.7838
 2801TIP3   OH229961   4.501   4.332   1.011  0.0089 -0.2831 -0.6159
 2801TIP3    H129962   4.519   4.388   1.086  0.4659  1.2353 -1.8053
 2801TIP3    H229963   4.407   4.318   1.013  0.1908 -1.6202  1.1145
 2802TIP3   OH229964   1.999   5.378   2.776  0.3732  0.0955  0.1957
 2802TIP3    H129965   1.953   5.462   2.768  1.4160  0.7485  0.7972
 2802TIP3    H229966   1.930   5.314   2.789 -0.4467  0.8579 -0.2865
 2803TIP3   OH229967   4.523   1.123   3.042  0.2402 -0.0155 -0.0209
 2803TIP3    H129968   4.612   1.133   3.077  0.1300  4.0286 -0.4338
 2803TIP3    H229969   4.470   1.103   3.119  1.1244  0.5481  0.7695
 2804TIP3   OH229970   5.639   0.003   0.353  0.3702 -0.2040 -0.0128
 2804TIP3    H129971   5.566   0.050   0.311  1.5808  2.0753  0.2705
 2804TIP3    H229972   5.625  -0.089   0.330 -1.5835  0.3911 -1.4681
 2805TIP3   OH229973   1.519   6.061   8.051 -0.0534 -0.5555  0.3035
 2805TIP3    H129974   1.580   6.124   8.091  0.7313 -0.9740 -0.2091
 2805TIP3    H229975   1.477   6.019   8.126 -2.1301  1.9809  0.6866
 2806TIP3   OH229976   3.437   3.562   0.358  0.2619  0.0140 -0.0267
 2806TIP3    H129977   3.379   3.608   0.418 -1.4547 -1.1947 -0.6952
 2806TIP3    H229978   3.501   3.628   0.331 -2.0146  2.0143 -0.8680
 2807TIP3   OH229979   5.188   4.002   1.998  0.0489 -0.4074 -0.8268
 2807TIP3    H129980   5.143   4.080   1.965 -0.5059  0.1407  1.1366
 2807TIP3    H229981   5.145   3.982   2.081  2.0572 -1.1234  0.1052
 2808TIP3   OH229982   5.655   3.218   8.610 -0.5322 -0.6017  0.0960
 2808TIP3    H129983   5.620   3.215   8.521 -3.5717 -0.5687  1.1811
 2808TIP3    H229984   5.678   3.310   8.624 -2.2761 -0.1315  0.0795
 2809TIP3   OH229985   4.055   1.940   0.546  0.1256 -0.1512  0.4351
 2809TIP3    H129986   3.970   1.907   0.517  0.0492  0.5481 -0.1576
 2809TIP3    H229987   4.056   1.924   0.640  0.2491 -2.1683  0.1315
 2810TIP3   OH229988   0.637   1.591   0.535  0.9311  0.1427  0.0585
 2810TIP3    H129989   0.645   1.686   0.531 -0.1738  0.4321  2.6530
 2810TIP3    H229990   0.694   1.566   0.608  0.0753 -0.9884  0.3628
 2811TIP3   OH229991   2.379   0.992   2.304 -0.0589 -0.1217  0.4816
 2811TIP3    H129992   2.301   1.035   2.339 -1.5938 -1.5411 -0.9934
 2811TIP3    H229993   2.364   0.899   2.320  1.2498 -0.4502 -0.0585
 2812TIP3   OH229994   6.239   5.375   0.887  0.4434 -0.0885  0.1868
 2812TIP3    H129995   6.248   5.302   0.948  1.0999 -0.9505 -0.9102
 2812TIP3    H229996   6.208   5.336   0.805  0.2131  0.9478 -0.2502
 2813TIP3   OH229997   6.756   4.798   0.113  0.4794  0.5588 -0.2545
 2813TIP3    H129998   6.708   4.715   0.108 -0.7382  1.3099 -1.8064
 2813TIP3    H229999   6.815   4.796   0.037 -0.5951  1.6893 -1.1629
 2814TIP3   OH230000   2.386   3.489   0.740  0.3990 -0.0803 -0.0558
 2814TIP3    H130001   2.383   3.472   0.646  1.9636  2.0536 -0.5615
 2814TIP3    H230002   2.297   3.472   0.771 -0.0033 -1.3346 -1.8013
 2815TIP3   OH230003   5.710   4.950   1.772  0.4961 -0.4267 -0.5862
 2815TIP3    H130004   5.672   4.913   1.692  0.5711 -2.6488  0.3259
 2815TIP3    H230005   5.787   4.999   1.742 -1.2953  1.6439 -2.1580
 2816TIP3   OH230006   4.496   1.273   2.065  0.0736 -0.1451  0.2596
 2816TIP3    H130007   4.514   1.327   1.988  0.5174 -0.7682 -0.0841
 2816TIP3    H230008   4.549   1.195   2.052 -1.1051 -0.9918  0.3973
 2817TIP3   OH230009   4.014   6.759   7.732  0.2816 -0.4464 -0.4655
 2817TIP3    H130010   3.959   6.701   7.679  1.4259 -1.6051 -0.4197
 2817TIP3    H230011   4.039   6.829   7.671  1.9280 -1.9790 -1.6360
 2818TIP3   OH230012   1.104   2.060   8.106  0.0774 -0.1816  0.0929
 2818TIP3    H130013   1.049   1.992   8.066 -1.1653  0.8229  0.0172
 2818TIP3    H230014   1.067   2.070   8.194  0.0070  0.6506 -0.0294
 2819TIP3   OH230015   2.404   0.512   0.216  0.0352 -0.2957 -0.6670
 2819TIP3    H130016   2.441   0.434   0.258 -2.4145 -0.9679  0.4346
 2819TIP3    H230017   2.471   0.579   0.225  1.7129 -1.9226 -0.5018
 2820TIP3   OH230018   4.082   4.906   3.338  1.1819 -0.9593 -0.3390
 2820TIP3    H130019   4.065   4.813   3.324 -3.0517 -0.1550 -1.9666
 2820TIP3    H230020   4.136   4.909   3.418  2.2077 -4.7373 -0.6922
 2821TIP3   OH230021   0.392   5.926   2.296 -0.0517 -0.0864  0.0725
 2821TIP3    H130022   0.389   5.986   2.371 -3.5125  1.5788 -1.2138
 2821TIP3    H230023   0.423   5.980   2.223 -0.9362 -0.4978 -0.6188
 2822TIP3   OH230024   0.202   5.068   0.691  0.2090  0.2726 -0.0840
 2822TIP3    H130025   0.222   4.986   0.646 -0.1532 -0.2121  0.6195
 2822TIP3    H230026   0.214   5.048   0.783 -1.4929  0.5318  0.2202
 2823TIP3   OH230027   4.030   2.228   0.859  0.5804  0.9121 -0.0831
 2823TIP3    H130028   4.086   2.150   0.854 -0.5594 -0.0983  1.6917
 2823TIP3    H230029   4.011   2.237   0.953 -1.2971  1.8781 -0.5145
 2824TIP3   OH230030   6.778   6.203   0.978  0.0952 -0.2342 -0.1807
 2824TIP3    H130031   6.852   6.258   1.004  1.5553 -1.6766 -1.1406
 2824TIP3    H230032   6.817   6.134   0.924 -2.1665 -0.1683 -2.0267
 2825TIP3   OH230033   2.111   5.810   1.115 -0.3095  0.4383  0.0446
 2825TIP3    H130034   2.165   5.845   1.186 -0.8191 -0.2776  0.8055
 2825TIP3    H230035   2.139   5.719   1.107 -0.1008  0.5709 -0.8430
 2826TIP3   OH230036   0.244   1.954   1.941  0.7325 -0.0735 -0.3283
 2826TIP3    H130037   0.240   1.918   2.030  1.2839 -0.2489 -0.3671
 2826TIP3    H230038   0.252   1.877   1.884  3.4025  0.0999 -0.3133
 2827TIP3   OH230039   5.924   5.720   0.323  0.6464 -0.2967 -0.4167
 2827TIP3    H130040   5.838   5.686   0.298  1.2653 -2.2910  0.0211
 2827TIP3    H230041   5.917   5.736   0.418  0.2286  1.3358 -0.6816
 2828TIP3   OH230042   6.768   0.273   3.318  0.1651 -0.6317 -0.1641
 2828TIP3    H130043   6.698   0.208   3.311 -1.7657  1.1752  1.2396
 2828TIP3    H230044   6.805   0.258   3.405  1.5070 -1.4989 -0.8533
 2829TIP3   OH230045   5.115   1.340   2.054 -0.2320  0.1459 -0.1162
 2829TIP3    H130046   5.096   1.320   2.146  0.9637  0.6970  0.2736
 2829TIP3    H230047   5.053   1.410   2.031 -0.7715 -0.2329  0.1541
 2830TIP3   OH230048   1.268   3.483   8.023  0.4473 -0.2986  0.3761
 2830TIP3    H130049   1.336   3.550   8.019  1.1780 -1.0478 -0.4439
 2830TIP3    H230050   1.301   3.420   8.088  0.3163 -0.4347  0.3115
 2831TIP3   OH230051   5.004   4.641   1.375  0.1969  0.4389  0.6048
 2831TIP3    H130052   5.035   4.665   1.463 -0.0833  1.3684  0.4596
 2831TIP3    H230053   4.911   4.619   1.388 -0.0358  1.2795  0.4357
 2832TIP3   OH230054   5.927   2.328   8.294 -0.6207  0.2458 -0.6146
 2832TIP3    H130055   5.861   2.325   8.225 -0.1162  2.4143 -1.2690
 2832TIP3    H230056   5.902   2.258   8.354 -3.9310  1.3684 -0.4661
 2833TIP3   OH230057   0.805   2.150   0.818 -1.0318  0.4832 -0.2361
 2833TIP3    H130058   0.710   2.164   0.819 -0.9849  0.7695  0.6520
 2833TIP3    H230059   0.821   2.090   0.891 -0.7117 -0.8734 -1.3754
 2834TIP3   OH230060   2.535   3.110   8.029 -0.1900 -0.5663  0.5282
 2834TIP3    H130061   2.616   3.096   7.979  1.0168  0.3202  2.1322
 2834TIP3    H230062   2.495   3.187   7.988 -0.4634 -1.2398 -0.5233
 2835TIP3   OH230063   0.742   5.349   8.792  0.1002  0.4236  0.1453
 2835TIP3    H130064   0.655   5.373   8.823  0.2740  1.5611 -0.1944
 2835TIP3    H230065   0.752   5.397   8.710  1.1495  0.5157  0.3151
 2836TIP3   OH230066   3.772   6.332   2.302  0.2383  0.5399 -0.2438
 2836TIP3    H130067   3.678   6.323   2.288  0.4611 -1.1026 -0.9228
 2836TIP3    H230068   3.790   6.425   2.284 -1.0878  0.6512 -1.1348
 2837TIP3   OH230069   6.069   6.757   1.838  0.0966  0.1070  0.8131
 2837TIP3    H130070   6.134   6.742   1.769 -0.3010  2.2287 -0.1010
 2837TIP3    H230071   6.115   6.808   1.904  0.2401 -1.2133  1.7760
 2838TIP3   OH230072   1.701   1.342   0.494 -0.3855 -0.1375 -0.2616
 2838TIP3    H130073   1.691   1.436   0.478 -0.9085  0.0191  0.8937
 2838TIP3    H230074   1.791   1.332   0.527 -0.7504  0.1526  0.8550
 2839TIP3   OH230075   2.305   6.381   8.541 -0.4576  0.4381  0.2055
 2839TIP3    H130076   2.362   6.314   8.576  0.3722  0.9643 -0.1067
 2839TIP3    H230077   2.217   6.351   8.563 -0.1184 -0.8338 -0.0946
 2840TIP3   OH230078   2.377   4.776   0.148  0.5296 -0.1811  0.4095
 2840TIP3    H130079   2.360   4.857   0.100  1.5365  0.1134  0.5310
 2840TIP3    H230080   2.384   4.803   0.240 -0.6880 -0.6435  0.6613
 2841TIP3   OH230081   3.724   5.915   0.742  0.0383  0.0446 -0.1857
 2841TIP3    H130082   3.637   5.896   0.708  0.4670 -3.2185  0.2228
 2841TIP3    H230083   3.728   6.010   0.745 -3.0821  0.3309 -1.2432
 2842TIP3   OH230084   6.554   4.766   8.308 -0.2371 -0.5842 -0.0386
 2842TIP3    H130085   6.620   4.697   8.317  0.7962  0.3295 -0.3530
 2842TIP3    H230086   6.471   4.720   8.313  0.4204 -1.9005 -0.5366
 2843TIP3   OH230087   3.631   2.748   7.623  0.1879  0.1992  0.3044
 2843TIP3    H130088   3.550   2.697   7.611  0.5326 -0.3805  0.3763
 2843TIP3    H230089   3.606   2.820   7.680 -0.6420  0.9313 -0.9500
 2844TIP3   OH230090   1.057   0.880   8.542  1.4280  0.3587 -0.2379
 2844TIP3    H130091   0.974   0.892   8.588  1.1128 -0.5135 -0.5546
 2844TIP3    H230092   1.034   0.875   8.450  2.1854  3.2988 -0.6813
 2845TIP3   OH230093   2.394   1.714   1.162  0.3206 -0.3640 -0.1526
 2845TIP3    H130094   2.441   1.764   1.096 -0.4218  0.6203  0.0549
 2845TIP3    H230095   2.378   1.629   1.121 -1.7416  0.8098 -1.9536
 2846TIP3   OH230096   4.305   0.738   7.999 -0.5983 -0.3052 -0.0206
 2846TIP3    H130097   4.368   0.697   8.058 -0.3603 -0.0887 -0.1261
 2846TIP3    H230098   4.220   0.708   8.032 -0.4051 -1.4912 -0.5522
 2847TIP3   OH230099   0.987   4.718   2.128 -0.1880 -0.5308  0.0714
 2847TIP3    H130100   1.019   4.660   2.197 -0.9619 -1.2474 -0.1541
 2847TIP3    H230101   0.912   4.672   2.091  0.5935 -0.4708 -1.6880
 2848TIP3   OH230102   4.229   1.549   8.707 -0.3883  0.9648  0.9003
 2848TIP3    H130103   4.260   1.614   8.770  1.8113 -0.5385  1.4723
 2848TIP3    H230104   4.268   1.467   8.736 -2.4593 -0.4983 -0.2482
 2849TIP3   OH230105   4.999   2.485   1.860 -0.0981  0.2391  0.5540
 2849TIP3    H130106   5.025   2.393   1.853 -0.9511 -0.0633  1.1685
 2849TIP3    H230107   4.932   2.496   1.792 -2.1042 -0.3998  2.3216
 2850TIP3   OH230108   5.450   5.592   0.682 -0.3869 -0.4320  0.3068
 2850TIP3    H130109   5.534   5.595   0.635 -1.1164 -0.2397 -1.0391
 2850TIP3    H230110   5.473   5.565   0.771  1.1711  0.2360  0.1390
 2851TIP3   OH230111   3.213   3.305   0.865 -0.1700  0.0066 -0.3701
 2851TIP3    H130112   3.162   3.235   0.824  0.2591 -1.0855  0.8865
 2851TIP3    H230113   3.154   3.380   0.867 -1.3435 -0.8933 -0.0154
 2852TIP3   OH230114   4.893   2.160   0.694  0.3325 -0.3368 -0.2816
 2852TIP3    H130115   4.860   2.212   0.767 -0.4532 -1.7624  0.4238
 2852TIP3    H230116   4.814   2.125   0.652  0.8140 -0.4347 -1.1391
 2853TIP3   OH230117   1.533   6.039   0.514 -0.2115 -0.5656 -0.0820
 2853TIP3    H130118   1.468   6.036   0.444 -1.0973 -0.2626  0.6956
 2853TIP3    H230119   1.613   6.004   0.475 -1.4089 -3.1630 -0.4451
 2854TIP3   OH230120   0.900   5.659   2.171 -0.0175  0.4173 -0.5803
 2854TIP3    H130121   0.816   5.673   2.128 -1.5801 -1.4883  1.5570
 2854TIP3    H230122   0.933   5.577   2.133 -0.2349 -0.0027  0.1203
 2855TIP3   OH230123   2.061   6.340   1.592  0.0772 -0.1721 -0.4815
 2855TIP3    H130124   1.988   6.350   1.653  0.9764  0.0020  0.6113
 2855TIP3    H230125   2.022   6.306   1.512 -1.1375 -0.4478  0.2106
 2856TIP3   OH230126   0.359   2.091   7.559  0.5541 -0.0648 -0.0469
 2856TIP3    H130127   0.402   2.136   7.487  0.1418  1.7419  0.7820
 2856TIP3    H230128   0.268   2.121   7.555  1.1274  2.7373  3.0602
 2857TIP3   OH230129   4.212   0.763   1.904 -0.4442  0.2469 -0.1864
 2857TIP3    H130130   4.215   0.856   1.927  0.9514  0.3220 -0.5441
 2857TIP3    H230131   4.276   0.754   1.833 -1.3503 -0.8040 -0.9037
 2858TIP3   OH230132   2.469   0.354   2.340  0.0355 -0.1458  0.0408
 2858TIP3    H130133   2.396   0.406   2.375 -0.4676 -2.0070  1.9328
 2858TIP3    H230134   2.471   0.275   2.394  1.1649 -1.8445 -2.3084
 2859TIP3   OH230135   3.708   1.895   1.841  0.3750 -0.4371 -0.2439
 2859TIP3    H130136   3.702   1.969   1.780 -0.6763 -1.1012 -0.9895
 2859TIP3    H230137   3.802   1.884   1.857  0.5418  3.3606  2.8386
 2860TIP3   OH230138   6.679   0.503   1.704 -0.3250 -0.4917  0.4373
 2860TIP3    H130139   6.693   0.592   1.736 -0.4850 -0.1884 -0.3169
 2860TIP3    H230140   6.764   0.477   1.670 -0.1485 -0.8241  1.1086
 2861TIP3   OH230141   4.725   2.740   7.653  0.0805 -0.0259  0.4004
 2861TIP3    H130142   4.793   2.807   7.651 -0.2115  0.2867 -1.7965
 2861TIP3    H230143   4.745   2.684   7.579 -0.7433 -1.3174  1.1220
 2862TIP3   OH230144   3.528   5.707   1.767 -0.5141  0.8096 -0.0463
 2862TIP3    H130145   3.468   5.728   1.695 -1.2107  3.6926  1.2488
 2862TIP3    H230146   3.479   5.727   1.846  0.5347 -1.4822  1.2633
 2863TIP3   OH230147   2.970   5.349   8.545  0.2297 -0.1060 -0.1799
 2863TIP3    H130148   2.946   5.417   8.482 -0.6340 -0.6149 -0.4137
 2863TIP3    H230149   2.915   5.274   8.522  1.0784 -0.8514  0.1480
 2864TIP3   OH230150   1.464   4.001   3.253 -0.2535 -0.6776 -0.5024
 2864TIP3    H130151   1.472   3.913   3.215  1.6513 -0.5928 -0.4176
 2864TIP3    H230152   1.487   3.989   3.345 -2.2277 -0.4287  0.0681
 2865TIP3   OH230153   4.132   0.683   2.200 -0.2263  0.3284 -0.0123
 2865TIP3    H130154   4.144   0.705   2.108  0.1028  0.0739 -0.0278
 2865TIP3    H230155   4.062   0.743   2.230 -0.3799  0.3617 -0.4393
 2866TIP3   OH230156   5.273   0.061   8.564 -0.5787  0.0543 -0.5291
 2866TIP3    H130157   5.189   0.078   8.608  0.2337  0.9842  0.7369
 2866TIP3    H230158   5.272  -0.033   8.545 -1.3587 -0.2012  0.6734
 2867TIP3   OH230159   4.838   5.732   8.257 -0.3297 -0.1652  0.2485
 2867TIP3    H130160   4.932   5.743   8.271 -0.2890  1.9315 -1.2796
 2867TIP3    H230161   4.804   5.821   8.247 -2.3792 -0.9107  0.0475
 2868TIP3   OH230162   4.383   6.467   1.129 -0.7861  0.3489 -0.6130
 2868TIP3    H130163   4.315   6.482   1.194 -1.4314 -2.5251 -0.5027
 2868TIP3    H230164   4.453   6.422   1.176 -0.3827  0.0498 -1.4637
 2869TIP3   OH230165   0.101   6.542   1.999  0.4464  0.5837 -0.6489
 2869TIP3    H130166   0.060   6.456   2.008  0.8881  0.4423  0.0689
 2869TIP3    H230167   0.063   6.579   1.919 -1.5245  0.6949  0.2854
 2870TIP3   OH230168   6.141   1.130   2.813 -0.0734 -0.3332  0.2545
 2870TIP3    H130169   6.092   1.076   2.875 -0.0302 -0.3498  0.2743
 2870TIP3    H230170   6.161   1.069   2.741 -1.5553  0.0795 -0.5599
 2871TIP3   OH230171   1.812   2.154   0.330 -0.4037 -0.1351 -0.2777
 2871TIP3    H130172   1.737   2.182   0.383 -0.3302  0.0199 -0.2527
 2871TIP3    H230173   1.888   2.187   0.378 -0.3976  1.3686 -1.2606
 2872TIP3   OH230174   2.239   5.384   7.821  0.4408  0.4065 -0.1441
 2872TIP3    H130175   2.268   5.475   7.821  0.6624  0.3486  1.0414
 2872TIP3    H230176   2.147   5.388   7.795  0.3991  0.9786  0.0776
 2873TIP3   OH230177   3.115   0.464   1.867 -0.0525 -0.3554  0.7992
 2873TIP3    H130178   3.134   0.426   1.781  1.0747  0.6759  0.5662
 2873TIP3    H230179   3.143   0.397   1.930  0.3077 -0.6137  0.3699
 2874TIP3   OH230180   0.326   0.847   7.111  0.0152 -0.0646  0.4161
 2874TIP3    H130181   0.378   0.910   7.061  1.5130  0.6716  2.7596
 2874TIP3    H230182   0.387   0.811   7.175 -1.3443 -2.3809  0.5245
 2875TIP3   OH230183   5.669   1.077   2.875  1.5919 -0.1997 -0.3522
 2875TIP3    H130184   5.728   1.152   2.864 -0.0657  1.1252 -0.8227
 2875TIP3    H230185   5.593   1.114   2.920 -0.6156 -0.7794 -3.2750
 2876TIP3   OH230186   0.245   2.668   0.363 -0.9719 -0.1494  0.5931
 2876TIP3    H130187   0.285   2.581   0.373 -1.3306 -0.2666  1.0264
 2876TIP3    H230188   0.227   2.697   0.452  0.9910  1.2611  0.6130
 2877TIP3   OH230189   3.991   6.269   7.442 -0.6559  0.2847 -0.6313
 2877TIP3    H130190   4.012   6.221   7.362  0.8779 -0.4655  0.1875
 2877TIP3    H230191   4.075   6.285   7.484 -1.4113  0.7715  0.7824
 2878TIP3   OH230192   4.008   2.265   1.859  0.2620 -0.0372  0.1133
 2878TIP3    H130193   3.955   2.243   1.782  1.0661  0.4611 -0.5968
 2878TIP3    H230194   3.991   2.193   1.921  1.5569 -1.8519 -1.5068
 2879TIP3   OH230195   6.078   2.809   2.778  0.0188 -0.0178  0.4318
 2879TIP3    H130196   6.019   2.803   2.703  2.1381 -0.5706 -1.2966
 2879TIP3    H230197   6.126   2.891   2.764  1.4798 -0.8605  0.3286
 2880TIP3   OH230198   5.429   4.829   7.829  0.0992  0.2585  0.2225
 2880TIP3    H130199   5.413   4.923   7.816  1.7980  0.5649  0.0545
 2880TIP3    H230200   5.380   4.787   7.759 -0.4470  1.0410  0.1184
 2881TIP3   OH230201   4.926   5.302   2.611  0.0762 -0.3229  0.1942
 2881TIP3    H130202   4.962   5.314   2.523  0.6065  2.2327  0.6649
 2881TIP3    H230203   5.000   5.317   2.670 -0.2870 -1.9381  1.1152
 2882TIP3   OH230204   3.734   1.697   0.218  0.5774  0.2060  0.4790
 2882TIP3    H130205   3.705   1.788   0.219  0.6835  0.2746 -0.9383
 2882TIP3    H230206   3.829   1.701   0.211  0.7573 -0.0319  2.3510
 2883TIP3   OH230207   6.478   1.093   0.147  0.2661 -0.2301 -0.5269
 2883TIP3    H130208   6.428   1.174   0.161  0.0363 -0.4863  0.2194
 2883TIP3    H230209   6.411   1.026   0.134  0.4542 -0.3259 -1.0302
 2884TIP3   OH230210   5.993   5.594   7.546  0.1309 -0.1234 -0.3368
 2884TIP3    H130211   5.980   5.544   7.466 -0.4114 -0.6355  0.0583
 2884TIP3    H230212   5.939   5.672   7.534 -0.8560 -0.7396 -0.0139
 2885TIP3   OH230213   0.726   4.080   3.092 -0.0353  0.0197  0.1975
 2885TIP3    H130214   0.725   4.100   3.185  1.1215 -0.5045  0.3300
 2885TIP3    H230215   0.806   4.029   3.078 -1.5280 -2.2840 -0.5800
 2886TIP3   OH230216   2.742   4.738   0.952  0.0822  0.5561  0.2072
 2886TIP3    H130217   2.820   4.781   0.915  0.7415 -0.6695  0.1017
 2886TIP3    H230218   2.773   4.698   1.033 -0.0895 -1.0587 -0.4889
 2887TIP3   OH230219   4.179   5.735   0.882 -0.3370 -0.0578  0.0298
 2887TIP3    H130220   4.175   5.824   0.918 -1.3058 -0.6627  1.4863
 2887TIP3    H230221   4.266   5.704   0.905 -0.4732  0.0419  0.6864
 2888TIP3   OH230222   0.641   3.815   7.840 -0.0495 -0.2679  0.2264
 2888TIP3    H130223   0.653   3.775   7.926  0.6296 -1.2272 -0.2922
 2888TIP3    H230224   0.722   3.796   7.793  0.1992  1.5385 -0.1433
 2889TIP3   OH230225   2.591   2.818   0.937 -0.2912 -0.0601 -0.1073
 2889TIP3    H130226   2.620   2.737   0.894  1.5601  0.9035 -0.8032
 2889TIP3    H230227   2.556   2.871   0.865  0.1206  0.4321  0.0543
 2890TIP3   OH230228   1.330   6.556   1.744  0.3016 -0.3068 -0.0099
 2890TIP3    H130229   1.417   6.519   1.732  0.1917 -0.3237 -0.8301
 2890TIP3    H230230   1.343   6.632   1.799  0.4699 -1.8536  2.2208
 2891TIP3   OH230231   2.272   3.783   2.285 -0.1118  0.0311  0.2615
 2891TIP3    H130232   2.353   3.823   2.319 -0.4339  1.5772 -0.6708
 2891TIP3    H230233   2.288   3.689   2.291  0.8664  0.2710  2.1726
 2892TIP3   OH230234   5.478   0.845   0.206  0.6407 -0.3769  0.4901
 2892TIP3    H130235   5.436   0.761   0.190 -0.9699  0.3310  0.8768
 2892TIP3    H230236   5.430   0.883   0.280 -0.3341  1.9578 -1.2319
 2893TIP3   OH230237   1.127   0.704   0.409  0.1654  0.7911 -0.0021
 2893TIP3    H130238   1.202   0.653   0.377  0.7035  1.5072  0.0933
 2893TIP3    H230239   1.124   0.686   0.503 -0.2076  0.2297 -0.1165
 2894TIP3   OH230240   5.519   0.227   7.540  0.5308  0.3343 -0.1023
 2894TIP3    H130241   5.515   0.138   7.503  0.0363  0.3761 -0.1605
 2894TIP3    H230242   5.453   0.227   7.609  1.6152  0.1832  0.9712
 2895TIP3   OH230243   1.504   4.814   2.423  0.4647  0.1908  0.0856
 2895TIP3    H130244   1.482   4.829   2.515 -1.4701 -0.9770 -0.1148
 2895TIP3    H230245   1.578   4.754   2.426  0.1729 -0.1516  0.9107
 2896TIP3   OH230246   1.887   3.919   0.295  0.2144  0.4747  0.2841
 2896TIP3    H130247   1.851   3.945   0.210 -0.5424 -1.9512 -0.2105
 2896TIP3    H230248   1.955   3.984   0.312  1.2024  0.4131 -2.7444
 2897TIP3   OH230249   5.501   1.561   0.312 -0.5402  0.0050  0.4113
 2897TIP3    H130250   5.552   1.490   0.353  0.4483  0.2459 -0.3588
 2897TIP3    H230251   5.411   1.529   0.313 -0.0649 -1.4717 -0.3306
 2898TIP3   OH230252   2.266   6.530   8.258  0.2174  0.5633 -0.0731
 2898TIP3    H130253   2.257   6.438   8.282  0.2009 -0.1866 -2.6598
 2898TIP3    H230254   2.231   6.578   8.333 -0.4978 -1.5357  1.0207
 2899TIP3   OH230255   0.278   4.735   2.922 -0.1688  0.3367  0.1368
 2899TIP3    H130256   0.344   4.762   2.987  1.4957 -1.0958 -0.8742
 2899TIP3    H230257   0.272   4.640   2.932 -1.5595  0.3599 -0.3158
 2900TIP3   OH230258   3.708   4.326   8.112  0.0456  0.1324 -0.0909
 2900TIP3    H130259   3.786   4.347   8.061  0.2532 -1.6903 -0.6159
 2900TIP3    H230260   3.723   4.367   8.197  1.7824 -0.5141 -0.0442
 2901TIP3   OH230261   6.507   0.009   8.009 -0.2008 -0.3066 -0.2537
 2901TIP3    H130262   6.427   0.016   8.062 -0.5454  1.2223 -0.9473
 2901TIP3    H230263   6.514   0.092   7.963  0.3919 -1.3858 -2.2219
 2902TIP3   OH230264   1.290   1.017   2.568 -0.2003  0.1751 -0.3928
 2902TIP3    H130265   1.298   0.987   2.658 -1.2797 -2.4845 -1.0928
 2902TIP3    H230266   1.200   0.996   2.543  0.8673 -1.9497 -2.9420
 2903TIP3   OH230267   2.888   4.681   1.779 -0.1646  0.2876  0.1265
 2903TIP3    H130268   2.838   4.603   1.803 -0.2528  0.0916 -0.6451
 2903TIP3    H230269   2.949   4.650   1.712  0.2296  0.7547  0.2694
 2904TIP3   OH230270   4.623   1.952   2.428 -0.7709 -0.2386  0.2569
 2904TIP3    H130271   4.597   2.029   2.377 -1.3452  0.4621  1.5611
 2904TIP3    H230272   4.652   1.987   2.512  1.1780 -1.2851  0.0703
 2905TIP3   OH230273   2.559   0.450   1.504 -0.0782  0.2012  0.0280
 2905TIP3    H130274   2.490   0.485   1.561 -0.0962  0.9731 -0.4511
 2905TIP3    H230275   2.512   0.418   1.427 -0.2166 -2.2110  1.0228
 2906TIP3   OH230276   2.553   6.287   1.818  0.0622 -0.3072 -0.0001
 2906TIP3    H130277   2.464   6.315   1.796 -0.1698 -0.5857  0.5815
 2906TIP3    H230278   2.608   6.357   1.784 -0.3280 -0.4296 -0.9212
 2907TIP3   OH230279   3.136   4.416   3.143 -0.0053 -0.5738 -0.5083
 2907TIP3    H130280   3.052   4.377   3.168  0.1044 -0.7936 -0.4769
 2907TIP3    H230281   3.112   4.490   3.087 -0.2991  0.6022  1.1094
 2908TIP3   OH230282   2.313   6.062   7.522 -0.1275 -0.4924 -0.4117
 2908TIP3    H130283   2.302   6.144   7.570  0.2260 -0.6330 -0.0771
 2908TIP3    H230284   2.270   6.076   7.438 -1.3646 -0.4795  0.2101
 2909TIP3   OH230285   4.608   3.381   8.669  0.2231 -0.3787  0.6532
 2909TIP3    H130286   4.565   3.440   8.608 -1.0128 -0.7481  1.1319
 2909TIP3    H230287   4.620   3.433   8.748 -2.1061 -1.0799  1.5547
 2910TIP3   OH230288   5.315   1.839   2.554 -0.2562  0.0298 -0.1123
 2910TIP3    H130289   5.384   1.884   2.504 -0.1672  1.0817  0.9121
 2910TIP3    H230290   5.346   1.840   2.644 -1.3153 -0.0466  0.2703
 2911TIP3   OH230291   4.346   6.217   3.048  0.4346  0.0776 -0.0088
 2911TIP3    H130292   4.441   6.204   3.037  1.0217  0.4250  3.4279
 2911TIP3    H230293   4.313   6.130   3.072  0.0135  0.1092 -0.4747
 2912TIP3   OH230294   4.901   3.689   2.843  1.0516 -0.1348  0.1214
 2912TIP3    H130295   4.896   3.732   2.928 -1.4884 -0.1817  0.0669
 2912TIP3    H230296   4.964   3.741   2.793  2.6180 -0.1368  2.0043
 2913TIP3   OH230297   5.183   5.579   2.967  0.3985 -0.3932  0.8993
 2913TIP3    H130298   5.148   5.585   3.056  0.2152  1.4472  0.7464
 2913TIP3    H230299   5.186   5.670   2.936 -0.7069 -1.0548 -1.4254
 2914TIP3   OH230300   3.335   5.461   0.343 -0.2605  0.2664  0.4356
 2914TIP3    H130301   3.402   5.396   0.321  0.8205  1.3537  0.3533
 2914TIP3    H230302   3.265   5.447   0.280 -0.0368 -0.7902  0.4120
 2915TIP3   OH230303   0.481   3.510   1.864  0.0615  0.3161  0.2282
 2915TIP3    H130304   0.468   3.580   1.928  1.8156  0.5416  0.3908
 2915TIP3    H230305   0.520   3.554   1.788 -2.0612  0.0723 -1.0837
 2916TIP3   OH230306   0.088   6.321   1.264  0.4377  0.1049 -0.1150
 2916TIP3    H130307   0.145   6.320   1.187  0.6463 -1.4147  0.0312
 2916TIP3    H230308   0.148   6.329   1.338  0.4772 -1.2243  0.0232
 2917TIP3   OH230309   0.937   4.118   2.406 -0.2533 -0.4344 -0.2411
 2917TIP3    H130310   0.982   4.040   2.373 -0.3814 -0.3558 -0.6113
 2917TIP3    H230311   1.007   4.179   2.427 -0.1058 -0.9506  0.8574
 2918TIP3   OH230312   4.036   6.721   1.098 -0.2556  0.0503 -0.2450
 2918TIP3    H130313   3.995   6.746   1.015  2.0696 -3.1114 -2.6330
 2918TIP3    H230314   4.125   6.754   1.093  0.0763 -0.6223  0.7426
 2919TIP3   OH230315   0.679   1.062   1.728  0.1799  0.2644 -0.3975
 2919TIP3    H130316   0.596   1.106   1.748  0.6829  1.1769 -0.2818
 2919TIP3    H230317   0.663   0.970   1.751 -0.6326  0.5201  0.1068
 2920TIP3   OH230318   2.301   1.757   0.326 -0.1918  0.1180 -0.2399
 2920TIP3    H130319   2.248   1.686   0.362 -0.1131  0.6252  0.9289
 2920TIP3    H230320   2.237   1.820   0.293 -0.3039  0.2091  0.1426
 2921TIP3   OH230321   5.500   0.002   7.851 -0.1222 -0.1322 -0.0612
 2921TIP3    H130322   5.442  -0.065   7.886 -1.7658  1.3621  0.2192
 2921TIP3    H230323   5.441   0.070   7.817  1.4573  0.6653 -1.3679
 2922TIP3   OH230324   4.160   0.107   2.063  0.3888 -0.1496 -0.4095
 2922TIP3    H130325   4.206   0.054   2.127  0.4205  1.3516  0.8780
 2922TIP3    H230326   4.227   0.165   2.027 -0.0020  0.3161 -0.3994
 2923TIP3   OH230327   3.332   2.004   1.729  0.2865 -0.0039  0.2592
 2923TIP3    H130328   3.381   1.970   1.803  1.9279 -0.4371 -0.9854
 2923TIP3    H230329   3.271   1.933   1.706 -1.2421  0.6488  1.9851
 2924TIP3   OH230330   2.151   5.310   0.308 -0.7241 -0.0554 -0.4637
 2924TIP3    H130331   2.242   5.290   0.285 -1.0603 -0.2511 -1.7000
 2924TIP3    H230332   2.158   5.374   0.378  0.3659 -0.2425 -0.3754
 2925TIP3   OH230333   4.036   6.043   2.949 -0.7470 -0.1600  0.1283
 2925TIP3    H130334   4.095   6.000   3.011 -0.2629  0.5318  0.1655
 2925TIP3    H230335   3.965   6.077   3.002 -0.8307 -0.4085  0.1754
 2926TIP3   OH230336   2.349   5.992   2.736 -0.3725 -0.0030  0.7517
 2926TIP3    H130337   2.269   6.042   2.719 -0.4004 -0.4353 -0.4631
 2926TIP3    H230338   2.331   5.905   2.700  0.9392  0.1346 -0.3161
 2927TIP3   OH230339   6.450   2.506   8.588 -0.7314  0.0555 -0.2914
 2927TIP3    H130340   6.387   2.544   8.527 -2.2342 -1.2471  0.3806
 2927TIP3    H230341   6.532   2.505   8.540 -1.1604  1.9026 -1.1644
 2928TIP3   OH230342   5.087   6.154   2.478 -0.0804  0.4634  0.3757
 2928TIP3    H130343   5.154   6.102   2.523  0.8834  0.4869 -0.9754
 2928TIP3    H230344   5.127   6.240   2.467  1.7801 -0.6768 -4.5720
 2929TIP3   OH230345   1.715   5.383   8.783  0.2612  0.5056 -0.6633
 2929TIP3    H130346   1.804   5.396   8.749  0.9181 -0.0657  0.7409
 2929TIP3    H230347   1.725   5.311   8.846 -1.2566  0.2654 -0.6736
 2930TIP3   OH230348   2.994   4.473   0.823 -0.0217 -0.3360 -0.1418
 2930TIP3    H130349   2.980   4.565   0.848 -0.5103 -0.2350 -0.7525
 2930TIP3    H230350   2.959   4.467   0.734 -2.4776 -1.7457  0.8275
 2931TIP3   OH230351   5.132   6.565   3.408 -0.3784  0.3028 -0.6911
 2931TIP3    H130352   5.115   6.659   3.404 -1.0086  0.1474 -1.9877
 2931TIP3    H230353   5.210   6.552   3.355  1.6335  0.4633  2.0077
 2932TIP3   OH230354   1.280   5.855   8.531  0.1313  0.3859 -0.1992
 2932TIP3    H130355   1.231   5.774   8.544  0.2881  0.1250 -1.1432
 2932TIP3    H230356   1.331   5.840   8.451  1.5636  0.7475  0.6145
 2933TIP3   OH230357   0.434   3.846   3.368  0.3649 -0.0437 -0.4057
 2933TIP3    H130358   0.460   3.927   3.412  1.7865 -0.6745 -0.0130
 2933TIP3    H230359   0.344   3.831   3.396  0.1563  1.2697 -0.3007
 2934TIP3   OH230360   5.854   3.339   7.663  0.8631 -0.5365 -0.1436
 2934TIP3    H130361   5.834   3.320   7.755 -0.9955  1.8112  0.0504
 2934TIP3    H230362   5.925   3.403   7.666  0.5487 -0.1755 -0.3075
 2935TIP3   OH230363   2.209   0.657   0.536  0.4848  0.4100  0.0677
 2935TIP3    H130364   2.249   0.743   0.547  0.0755  0.3302  2.7292
 2935TIP3    H230365   2.124   0.675   0.494  0.4820  1.2881  0.4364
 2936TIP3   OH230366   1.365   1.177   2.333  0.5089  0.1007 -0.0426
 2936TIP3    H130367   1.370   1.182   2.429  1.9663  0.8356 -0.1388
 2936TIP3    H230368   1.284   1.223   2.312  1.5153  2.3196  0.6944
 2937TIP3   OH230369   4.716   4.212   0.164 -0.0107  0.0606 -0.4231
 2937TIP3    H130370   4.683   4.257   0.242 -0.0254 -1.9826  0.8525
 2937TIP3    H230371   4.637   4.180   0.120  0.0544 -0.0985 -0.4236
 2938TIP3   OH230372   1.428   0.905   1.315 -0.2792 -0.3125  0.5633
 2938TIP3    H130373   1.500   0.892   1.377 -0.6009 -0.9832  0.8104
 2938TIP3    H230374   1.352   0.866   1.359 -0.9505  0.9664  0.6021
 2939TIP3   OH230375   1.086   4.179   1.013 -0.6595 -0.3087  0.2318
 2939TIP3    H130376   1.086   4.134   0.928  2.2504  1.4453 -0.8298
 2939TIP3    H230377   1.147   4.129   1.067 -0.1658  0.3078  0.2504
 2940TIP3   OH230378   3.915   4.270   1.867 -0.0800  0.1681  0.0022
 2940TIP3    H130379   4.003   4.231   1.869 -0.4217 -0.6313 -0.1403
 2940TIP3    H230380   3.910   4.312   1.781 -0.3333 -1.0121 -0.5880
 2941TIP3   OH230381   2.301   2.297   3.174 -0.1352  0.6005  0.3451
 2941TIP3    H130382   2.287   2.216   3.223  1.5507  1.3372  2.1563
 2941TIP3    H230383   2.222   2.348   3.190 -0.9342 -0.3962 -0.2844
 2942TIP3   OH230384   3.122   0.700   2.934  0.0346  0.0082 -0.4138
 2942TIP3    H130385   3.217   0.712   2.926  0.3021  0.1549  2.0284
 2942TIP3    H230386   3.094   0.771   2.992 -1.2512 -1.0630  0.3477
 2943TIP3   OH230387   3.106   1.192   0.906  0.1951 -0.2131 -0.0274
 2943TIP3    H130388   3.064   1.106   0.902 -1.5836  0.6419 -1.9211
 2943TIP3    H230389   3.067   1.235   0.982 -1.7177  0.1651 -1.1431
 2944TIP3   OH230390   1.329   0.461   7.708  0.8537 -0.1101 -0.3707
 2944TIP3    H130391   1.365   0.412   7.634  0.7368 -1.4079  0.4114
 2944TIP3    H230392   1.360   0.551   7.694  0.8338 -0.3281 -1.9821
 2945TIP3   OH230393   4.988   6.360   7.294  0.3542  0.3560 -0.3422
 2945TIP3    H130394   5.012   6.277   7.333  0.3383  0.4115 -0.2140
 2945TIP3    H230395   4.894   6.368   7.310  0.4332  0.5945  0.0185
 2946TIP3   OH230396   6.598   5.060   1.201  0.0835 -0.0474 -0.7368
 2946TIP3    H130397   6.692   5.073   1.200  0.0919  0.7747  2.1935
 2946TIP3    H230398   6.561   5.148   1.215 -0.7935 -0.7839  2.3917
 2947TIP3   OH230399   5.470   4.895   2.623  0.5845  0.7434  0.0771
 2947TIP3    H130400   5.392   4.873   2.571  2.0017  0.3810 -2.0499
 2947TIP3    H230401   5.482   4.989   2.609 -0.4486  1.1913  1.9064
 2948TIP3   OH230402   5.844   0.139   0.068  0.8278 -0.2878  0.2412
 2948TIP3    H130403   5.773   0.181   0.019 -0.6124 -2.1368  0.5984
 2948TIP3    H230404   5.839   0.178   0.156 -1.3802 -1.9972  0.9782
 2949TIP3   OH230405   6.429   3.335   0.592 -0.4366 -0.3342 -0.1446
 2949TIP3    H130406   6.434   3.270   0.521 -0.8360 -0.2201 -0.2801
 2949TIP3    H230407   6.337   3.362   0.593 -0.0478  1.1485 -0.9243
 2950TIP3   OH230408   6.220   4.590   0.414 -0.3168 -0.2253 -0.3726
 2950TIP3    H130409   6.266   4.537   0.479 -1.4703  0.2768  0.8973
 2950TIP3    H230410   6.142   4.539   0.393 -0.2528 -0.1020 -0.9197
 2951TIP3   OH230411   6.524   2.439   0.586  0.1913 -0.1052  0.5362
 2951TIP3    H130412   6.450   2.383   0.612 -1.4134  2.3631  1.7062
 2951TIP3    H230413   6.507   2.458   0.494 -0.6221  0.3781  0.7723
 2952TIP3   OH230414   3.227   5.904   8.799  0.2617 -0.2746 -0.3094
 2952TIP3    H130415   3.244   5.810   8.798  1.6639 -0.0479 -1.4116
 2952TIP3    H230416   3.203   5.925   8.709  0.2408  0.4603 -0.1404
 2953TIP3   OH230417   3.067   6.226   2.819 -0.5601 -0.3530  0.5471
 2953TIP3    H130418   3.025   6.212   2.903 -2.3531  0.6958 -0.1268
 2953TIP3    H230419   3.002   6.273   2.767  1.5544  1.6454 -0.4546
 2954TIP3   OH230420   1.526   2.816   1.209  0.3581  0.2343  0.2351
 2954TIP3    H130421   1.519   2.745   1.144  0.8942  0.2882  0.1168
 2954TIP3    H230422   1.567   2.774   1.285 -0.0205  0.2381  0.4449
 2955TIP3   OH230423   1.903   3.264   1.113 -0.7414 -0.0071 -0.0331
 2955TIP3    H130424   1.912   3.169   1.112 -1.4248 -0.1510  2.3860
 2955TIP3    H230425   1.822   3.281   1.066 -0.3568 -0.5411 -0.9291
 2956TIP3   OH230426   2.896   2.678   1.707  0.6416 -0.1555 -0.4323
 2956TIP3    H130427   2.974   2.718   1.668  1.6675 -2.2397 -0.6340
 2956TIP3    H230428   2.914   2.676   1.801  0.9605 -0.8587 -0.5024
 2957TIP3   OH230429   0.536   5.296   1.167 -0.1472  0.2254  0.1919
 2957TIP3    H130430   0.591   5.327   1.095 -1.4787  0.4667 -0.7726
 2957TIP3    H230431   0.525   5.202   1.150  0.9451 -0.0832  1.0828
 2958TIP3   OH230432   3.352   5.517   2.145 -0.2034  0.2774 -0.2635
 2958TIP3    H130433   3.434   5.469   2.144  0.2153  0.9910 -0.7608
 2958TIP3    H230434   3.378   5.609   2.154 -0.9582  0.4872 -0.1579
 2959TIP3   OH230435   6.069   3.302   2.058 -0.3437  0.0418 -0.2230
 2959TIP3    H130436   6.135   3.281   2.123  1.1472 -0.5230 -1.8547
 2959TIP3    H230437   6.098   3.385   2.020 -1.2909  0.4546 -0.1002
 2960TIP3   OH230438   3.471   5.985   8.067 -0.2272 -0.2975  0.3723
 2960TIP3    H130439   3.501   5.927   7.997  0.8051  1.4573 -0.7349
 2960TIP3    H230440   3.407   6.042   8.023 -0.0644  0.3968  1.0299
 2961TIP3   OH230441   6.697   3.570   1.117  0.0808  0.2971 -0.7180
 2961TIP3    H130442   6.709   3.476   1.131  1.4488  0.5096 -0.3114
 2961TIP3    H230443   6.662   3.602   1.200  3.1355  0.6921  0.5635
 2962TIP3   OH230444   3.090   0.234   1.679  0.1394 -0.2252  0.4888
 2962TIP3    H130445   3.150   0.160   1.682  1.3676  0.7472  0.7360
 2962TIP3    H230446   3.016   0.208   1.734 -0.6255 -2.2205 -1.3455
 2963TIP3   OH230447   4.306   4.561   8.168  0.4999 -0.2375  0.1771
 2963TIP3    H130448   4.349   4.608   8.096 -1.8775  2.0079  0.0597
 2963TIP3    H230449   4.233   4.515   8.126  0.3380 -0.6143  0.8649
 2964TIP3   OH230450   1.754   4.818   1.309 -0.4647  0.3611 -0.6885
 2964TIP3    H130451   1.724   4.817   1.219 -0.6050 -1.2098 -0.6544
 2964TIP3    H230452   1.674   4.824   1.361 -0.3409  2.2489 -0.6388
 2965TIP3   OH230453   3.159   3.766   1.292 -0.4658  0.0299 -0.3080
 2965TIP3    H130454   3.222   3.782   1.221  2.0289  0.0444  1.7480
 2965TIP3    H230455   3.147   3.671   1.292  0.3657 -0.0888 -0.1310
 2966TIP3   OH230456   1.008   5.304   0.879 -0.4764  0.0068 -0.0039
 2966TIP3    H130457   0.989   5.279   0.788  0.1292  0.0009 -0.1365
 2966TIP3    H230458   0.973   5.232   0.932 -0.3134 -0.2742 -0.2729
 2967TIP3   OH230459   3.279   6.324   7.505  0.2749 -0.4469  0.6507
 2967TIP3    H130460   3.365   6.361   7.486  0.1171  0.1465  1.0562
 2967TIP3    H230461   3.297   6.232   7.525  0.8949 -0.1853  1.3413
 2968TIP3   OH230462   4.541   1.174   8.510 -0.2440  0.0488 -0.4309
 2968TIP3    H130463   4.488   1.109   8.555  0.8322 -1.0417 -0.6956
 2968TIP3    H230464   4.626   1.170   8.553 -0.4168  2.0131  0.2265
 2969TIP3   OH230465   4.706   3.070   1.445  0.2368 -0.6981  0.0113
 2969TIP3    H130466   4.756   3.007   1.394  0.4843  0.5762 -1.3921
 2969TIP3    H230467   4.652   3.116   1.381 -0.9474 -0.3788  1.1758
 2970TIP3   OH230468   4.518   5.714   2.311  0.6420 -0.0484 -0.0469
 2970TIP3    H130469   4.505   5.622   2.284 -0.6781  0.2583 -0.5423
 2970TIP3    H230470   4.516   5.763   2.228  0.7500  0.4913  0.2674
 2971TIP3   OH230471   3.495   1.270   7.717 -0.7394 -0.5307  0.1632
 2971TIP3    H130472   3.503   1.174   7.714 -2.1884 -0.6615 -0.3684
 2971TIP3    H230473   3.552   1.301   7.647  2.0253 -0.7754  2.1548
 2972TIP3   OH230474   3.307   6.562   1.505 -0.3495 -0.3313 -0.2037
 2972TIP3    H130475   3.222   6.523   1.523 -0.2834  0.0005  0.9372
 2972TIP3    H230476   3.369   6.511   1.556 -0.1716  0.7936  0.7564
 2973TIP3   OH230477   5.763   6.543   0.576  0.6013 -0.4442  0.5100
 2973TIP3    H130478   5.671   6.543   0.605  0.9881  0.1081  1.8143
 2973TIP3    H230479   5.773   6.461   0.528 -1.3735  0.8293 -2.4015
 2974TIP3   OH230480   3.441   6.451   0.836  0.7044 -0.3054 -0.3868
 2974TIP3    H130481   3.483   6.532   0.809  1.4283 -0.3997  0.4168
 2974TIP3    H230482   3.350   6.461   0.809  0.7326  0.8749 -0.0873
 2975TIP3   OH230483   3.651   6.580   8.571 -0.4757  0.6335  0.3349
 2975TIP3    H130484   3.577   6.570   8.631  1.1426  0.1302  2.3771
 2975TIP3    H230485   3.686   6.491   8.562  0.6971  1.0607  0.5363
 2976TIP3   OH230486   3.692   0.478   3.137 -0.0044 -0.2254  0.2391
 2976TIP3    H130487   3.767   0.515   3.091 -1.6582  1.0410 -1.6247
 2976TIP3    H230488   3.674   0.395   3.092  0.7266 -0.9522  1.2307
 2977TIP3   OH230489   6.100   3.234   8.806 -0.1457  0.1740  0.4555
 2977TIP3    H130490   6.108   3.326   8.783  2.1741 -0.1193 -0.2030
 2977TIP3    H230491   6.064   3.193   8.727 -0.1457  0.3824  0.3450
 2978TIP3   OH230492   4.678   0.857   8.358  0.2139  0.2810  0.0164
 2978TIP3    H130493   4.630   0.896   8.285  0.9724  3.7989  1.2176
 2978TIP3    H230494   4.769   0.883   8.345  0.6234 -0.3425  1.4119
 2979TIP3   OH230495   2.726   2.589   8.595  0.0155 -0.3311 -0.6809
 2979TIP3    H130496   2.640   2.608   8.632  0.2882 -1.0391  0.3733
 2979TIP3    H230497   2.714   2.596   8.501 -1.4391 -1.3609 -0.5976
 2980TIP3   OH230498   2.532   4.775   7.662  0.1355  0.0362 -0.1156
 2980TIP3    H130499   2.625   4.792   7.646 -0.1024 -0.0410 -1.7755
 2980TIP3    H230500   2.487   4.827   7.596 -0.9857 -0.1808  0.4657
 2981TIP3   OH230501   2.640   5.720   2.618  0.0419  0.0969 -0.9766
 2981TIP3    H130502   2.666   5.804   2.581  1.7508  0.9148  1.8019
 2981TIP3    H230503   2.676   5.720   2.706 -2.6202 -2.2602  0.2819
 2982TIP3   OH230504   3.827   1.081   7.796 -0.3673  0.4795  0.8554
 2982TIP3    H130505   3.875   1.037   7.726 -1.5351 -0.9278  0.9106
 2982TIP3    H230506   3.842   1.174   7.780  1.7099  0.1155  0.4203
 2983TIP3   OH230507   6.310   2.451   0.934 -0.2333  0.1696 -0.5829
 2983TIP3    H130508   6.307   2.439   0.839 -1.2714  0.2764 -0.5770
 2983TIP3    H230509   6.342   2.367   0.967  1.3663  0.5357 -1.0780
 2984TIP3   OH230510   1.090   5.417   8.800  0.8477 -0.3476 -0.4428
 2984TIP3    H130511   1.040   5.477   8.855  0.5513  0.6772 -1.7909
 2984TIP3    H230512   1.165   5.391   8.855  2.1616  2.9165 -0.4737
 2985TIP3   OH230513   1.406   2.524   7.617 -0.1907  0.1692  0.1645
 2985TIP3    H130514   1.452   2.609   7.615  1.2362 -0.5850 -1.4718
 2985TIP3    H230515   1.338   2.532   7.551  0.4465 -0.1953 -0.5534
 2986TIP3   OH230516   2.790   6.689   2.512  0.0351 -0.5121  0.8731
 2986TIP3    H130517   2.777   6.761   2.450 -1.4423 -0.4004  1.2677
 2986TIP3    H230518   2.852   6.724   2.576  1.0833 -0.4066 -0.1820
 2987TIP3   OH230519   4.926   5.236   1.519 -0.2618  0.1538  0.8355
 2987TIP3    H130520   5.017   5.208   1.510  0.4178  2.4872 -0.2339
 2987TIP3    H230521   4.932   5.323   1.558 -2.0600  0.3440  0.7491
 2988TIP3   OH230522   3.565   1.387   8.601 -0.2059 -0.1731 -0.6818
 2988TIP3    H130523   3.635   1.323   8.594  1.4428  1.4103  0.3788
 2988TIP3    H230524   3.582   1.432   8.684 -2.4007  0.3844 -0.4725
 2989TIP3   OH230525   5.141   1.141   8.091 -0.1336  0.2269  0.0885
 2989TIP3    H130526   5.203   1.123   8.020  2.2679  1.1195  1.8520
 2989TIP3    H230527   5.066   1.084   8.072  0.6179  0.0675 -2.8486
 2990TIP3   OH230528   6.172   3.724   6.951  0.2482 -0.3616  0.3032
 2990TIP3    H130529   6.113   3.789   6.990 -0.1130 -0.8956  0.6578
 2990TIP3    H230530   6.166   3.739   6.857  1.8158  1.5526  0.4511
 2991TIP3   OH230531   3.691   4.111   0.041  0.4899  0.7964  0.3952
 2991TIP3    H130532   3.720   4.200   0.059  0.2657  0.6737  1.4552
 2991TIP3    H230533   3.731   4.058   0.110  0.5239  0.0919 -0.1511
 2992TIP3   OH230534   0.032   6.531   2.588 -0.2981 -0.2410  0.0141
 2992TIP3    H130535   0.105   6.469   2.584  0.7236  0.9213 -0.1888
 2992TIP3    H230536   0.058   6.602   2.529 -1.8164 -0.0007 -0.4156
 2993TIP3   OH230537   2.867   3.360   1.995 -0.2538  0.3631 -0.0855
 2993TIP3    H130538   2.894   3.273   2.024 -1.7058 -0.4390 -1.0317
 2993TIP3    H230539   2.933   3.419   2.032  1.1366 -1.1940  0.0284
 2994TIP3   OH230540   4.375   5.288   1.191 -0.2812 -0.1025 -1.0480
 2994TIP3    H130541   4.341   5.376   1.171 -0.5011  0.3296  1.0302
 2994TIP3    H230542   4.348   5.235   1.115 -2.0508  1.1375 -1.3649
 2995TIP3   OH230543   1.169   5.251   7.772 -0.4347 -0.3998  0.5307
 2995TIP3    H130544   1.123   5.207   7.843 -0.5253  1.5459  1.7477
 2995TIP3    H230545   1.107   5.315   7.738  0.3596  0.2377  0.2261
 2996TIP3   OH230546   1.644   1.194   2.277  0.0641 -0.3751 -0.4168
 2996TIP3    H130547   1.557   1.155   2.279  0.6934 -1.8473 -0.7252
 2996TIP3    H230548   1.676   1.186   2.367 -0.8433  1.9718  0.1857
 2997TIP3   OH230549   6.510   6.710   8.466  0.1283  0.4869  0.4067
 2997TIP3    H130550   6.577   6.733   8.402  2.1981 -1.6410  1.6692
 2997TIP3    H230551   6.557   6.663   8.535 -2.5773 -0.6186  1.6430
 2998TIP3   OH230552   0.485   5.366   0.379 -0.0870  0.1682 -0.2934
 2998TIP3    H130553   0.424   5.374   0.453 -0.1647  0.4413 -0.3826
 2998TIP3    H230554   0.493   5.272   0.363  0.3719  0.0791  0.4246
 2999TIP3   OH230555   1.295   3.606   7.630 -0.1081  0.0020  0.6413
 2999TIP3    H130556   1.349   3.658   7.689 -0.4813 -0.6325  1.5626
 2999TIP3    H230557   1.312   3.515   7.655 -0.6620 -0.2519  0.1257
 3000TIP3   OH230558   1.365   4.621   1.247 -0.1245  0.3598  0.1068
 3000TIP3    H130559   1.306   4.665   1.308 -2.8073 -0.7876 -1.4683
 3000TIP3    H230560   1.334   4.531   1.244  0.6511  0.0973 -2.0179
 3001TIP3   OH230561   0.772   6.532   7.799  0.5069  0.2660 -0.4808
 3001TIP3    H130562   0.830   6.474   7.848 -1.1079 -0.2500  0.8843
 3001TIP3    H230563   0.832   6.592   7.753  2.1116 -0.2026  0.9026
 3002TIP3   OH230564   3.872   2.273   0.624  0.1911 -0.0348  0.4012
 3002TIP3    H130565   3.943   2.252   0.684  0.6962  0.4001 -0.0285
 3002TIP3    H230566   3.826   2.190   0.610  0.3830 -0.2421  0.9751
 3003TIP3   OH230567   0.716   5.052   8.311  0.0846  0.4757  0.4943
 3003TIP3    H130568   0.636   5.036   8.260  0.9200 -2.0351 -0.1752
 3003TIP3    H230569   0.748   5.136   8.280 -1.0899  0.4465 -0.9027
 3004TIP3   OH230570   6.494   1.733   0.238 -0.5036 -0.0875 -0.1818
 3004TIP3    H130571   6.563   1.738   0.304 -0.0854  2.8815 -0.6967
 3004TIP3    H230572   6.413   1.748   0.286 -0.3601  0.3978 -0.0797
 3005TIP3   OH230573   3.537   3.906   1.664  0.0829 -0.1324  0.3137
 3005TIP3    H130574   3.491   3.915   1.747 -1.0536  1.4809 -0.4524
 3005TIP3    H230575   3.594   3.983   1.660 -2.3077  1.6884 -1.8141
 3006TIP3   OH230576   0.738   4.382   1.232 -0.0573  0.3174 -0.2631
 3006TIP3    H130577   0.649   4.364   1.201 -0.0672  1.7245 -1.1665
 3006TIP3    H230578   0.733   4.370   1.327 -0.9906 -0.4389 -0.3914
 3007TIP3   OH230579   6.193   0.967   0.915  0.4670  0.3335  0.7847
 3007TIP3    H130580   6.287   0.960   0.902  0.5134 -2.5081  2.0158
 3007TIP3    H230581   6.182   1.043   0.973  1.6840  2.2229 -1.2690
 3008TIP3   OH230582   1.598   6.629   7.935 -0.7019 -0.1529  0.1519
 3008TIP3    H130583   1.620   6.536   7.938  0.6461  0.1418  0.1681
 3008TIP3    H230584   1.588   6.649   7.842 -0.1879 -0.1519  0.0925
 3009TIP3   OH230585   5.090   3.121   1.848  0.5359 -0.3436  0.0939
 3009TIP3    H130586   5.062   3.088   1.933  0.7108 -1.4212 -0.2521
 3009TIP3    H230587   5.154   3.189   1.868  1.0255 -1.0062  0.8137
 3010TIP3   OH230588   5.283   6.125   2.064  0.5741 -0.2155  0.6244
 3010TIP3    H130589   5.282   6.185   1.990  1.2248 -1.8851 -0.8145
 3010TIP3    H230590   5.356   6.154   2.119  1.5818 -0.3164 -0.6187
 3011TIP3   OH230591   1.358   4.000   1.026  0.7221 -0.2626  0.1350
 3011TIP3    H130592   1.369   4.052   0.947 -0.7678  0.3165  0.2704
 3011TIP3    H230593   1.353   4.066   1.096 -1.4924 -0.5218  0.2734
 3012TIP3   OH230594   4.683   4.893   3.506 -0.1723 -0.4846  0.0482
 3012TIP3    H130595   4.629   4.870   3.430  0.2136  0.1298 -0.4205
 3012TIP3    H230596   4.756   4.832   3.503 -1.1458 -1.7743  1.0709
 3013TIP3   OH230597   4.955   4.396   0.187 -0.5420  0.0350  0.2920
 3013TIP3    H130598   4.934   4.471   0.131 -0.1687 -1.2671 -1.6855
 3013TIP3    H230599   4.880   4.338   0.178  1.0826 -1.8920 -1.9786
 3014TIP3   OH230600   5.766   0.452   0.238  0.8385  0.3987  0.2264
 3014TIP3    H130601   5.791   0.377   0.292  0.8326 -0.0589 -0.3966
 3014TIP3    H230602   5.841   0.467   0.181  0.9251  1.0076  0.4964
 3015TIP3   OH230603   2.281   1.878   2.729 -0.1537 -0.2966  0.5870
 3015TIP3    H130604   2.254   1.809   2.668  0.3445  0.8745 -1.0280
 3015TIP3    H230605   2.218   1.873   2.801 -1.6316 -0.8427 -0.6909
 3016TIP3   OH230606   2.015   1.769   2.246 -0.2422 -0.3465 -0.6213
 3016TIP3    H130607   2.022   1.797   2.154 -0.0601 -0.1590 -0.5518
 3016TIP3    H230608   2.103   1.738   2.268 -0.3017 -0.4504 -0.5274
 3017TIP3   OH230609   3.420   2.404   3.205 -0.5461  0.4308  0.8202
 3017TIP3    H130610   3.337   2.373   3.168 -0.1369 -0.7823  0.8461
 3017TIP3    H230611   3.400   2.490   3.240 -1.3667  0.9133 -0.7233
 3018TIP3   OH230612   6.190   2.311   8.206  0.4940 -0.4604 -0.7188
 3018TIP3    H130613   6.247   2.310   8.283  0.7731  0.0011 -0.9195
 3018TIP3    H230614   6.102   2.302   8.243  0.7140 -1.6372 -0.4412
 3019TIP3   OH230615   2.767   5.326   0.543 -0.8921  0.7450 -0.0393
 3019TIP3    H130616   2.742   5.234   0.552  0.5330  0.2840 -0.5211
 3019TIP3    H230617   2.704   5.362   0.481 -1.1407 -0.0373 -0.2494
 3020TIP3   OH230618   0.825   4.385   0.840 -0.2232 -0.3602  0.9447
 3020TIP3    H130619   0.814   4.290   0.848 -0.5924 -0.3099  1.0590
 3020TIP3    H230620   0.919   4.397   0.828 -0.2693 -0.8070  0.0582
 3021TIP3   OH230621   1.821   3.968   7.654  0.0571 -0.7253  0.1581
 3021TIP3    H130622   1.907   3.975   7.694 -0.3484  1.4641  0.7782
 3021TIP3    H230623   1.760   3.978   7.727 -0.7616 -2.3603 -0.2513
 3022TIP3   OH230624   0.593   1.785   0.251  0.8036 -0.3197 -0.5190
 3022TIP3    H130625   0.638   1.745   0.177 -0.5209 -2.2842 -0.3466
 3022TIP3    H230626   0.516   1.730   0.265  0.7234  0.2848  1.9853
 3023TIP3   OH230627   0.336   3.567   7.980 -0.7863 -0.2881  0.8254
 3023TIP3    H130628   0.247   3.567   8.016 -1.2992 -0.0706 -0.3903
 3023TIP3    H230629   0.386   3.513   8.040 -1.6447 -0.0640  1.7645
 3024TIP3   OH230630   6.122   0.089   0.668  0.0451  0.3915  0.4208
 3024TIP3    H130631   6.181   0.164   0.669 -0.0621  0.5000 -0.5124
 3024TIP3    H230632   6.036   0.126   0.687  0.2006  0.2925  1.3672
 3025TIP3   OH230633   5.932   2.483   7.704  0.0594 -0.1207 -0.0924
 3025TIP3    H130634   5.912   2.536   7.627 -2.1481 -1.8748 -0.8256
 3025TIP3    H230635   6.020   2.449   7.686 -0.4513 -0.6056 -1.9515
 3026TIP3   OH230636   1.291   0.113   8.363  0.6783  0.1963  0.4089
 3026TIP3    H130637   1.312   0.122   8.456 -0.0455 -0.7623  0.6853
 3026TIP3    H230638   1.204   0.072   8.362  0.8557 -0.1807 -0.6870
 3027TIP3   OH230639   1.497   6.568   0.965 -0.0073  0.2937 -0.3193
 3027TIP3    H130640   1.452   6.652   0.956  3.3671  2.6439  2.2171
 3027TIP3    H230641   1.483   6.542   1.056 -0.6477 -1.7939 -0.9420
 3028TIP3   OH230642   3.687   6.348   0.938  0.0865 -0.0202  0.2837
 3028TIP3    H130643   3.597   6.370   0.916 -1.1839 -1.8643  3.0346
 3028TIP3    H230644   3.715   6.418   0.997  0.3154  0.3043 -0.2015
 3029TIP3   OH230645   5.721   1.948   0.160  0.0251 -0.5219 -0.8077
 3029TIP3    H130646   5.712   1.952   0.255  0.4962 -2.1346 -0.6730
 3029TIP3    H230647   5.653   1.886   0.132  1.2805 -1.7338 -1.2736
 3030TIP3   OH230648   6.354   0.330   1.804  0.3316 -0.4753 -0.3579
 3030TIP3    H130649   6.443   0.312   1.832  0.1287  0.7086  1.1474
 3030TIP3    H230650   6.307   0.354   1.884 -0.4082  2.6151 -1.5639
 3031TIP3   OH230651   0.647   4.329   2.140  0.1675  0.4838 -0.1757
 3031TIP3    H130652   0.742   4.341   2.137  0.3635 -1.0767 -1.1038
 3031TIP3    H230653   0.631   4.252   2.086 -1.5479  0.1538  0.7586
 3032TIP3   OH230654   2.735   0.038   3.181  0.8847 -0.3862  0.1723
 3032TIP3    H130655   2.651  -0.008   3.184  0.8235 -0.3741 -0.9310
 3032TIP3    H230656   2.712   0.130   3.185  0.7754 -0.3528 -0.9396
 3033TIP3   OH230657   0.380   4.522   8.342 -0.2835 -0.3171  0.5333
 3033TIP3    H130658   0.297   4.569   8.336  0.1492  0.3509 -0.5794
 3033TIP3    H230659   0.444   4.589   8.368 -0.2439 -1.0292  2.3908
 3034TIP3   OH230660   4.707   1.815   1.291 -0.0860  0.0044  0.4414
 3034TIP3    H130661   4.698   1.764   1.210  1.9494 -0.0808  0.2238
 3034TIP3    H230662   4.777   1.772   1.339  2.5287  3.1164 -0.2385
 3035TIP3   OH230663   0.138   3.701   2.176  0.3648 -0.2367 -0.5338
 3035TIP3    H130664   0.224   3.669   2.151  0.2828  0.1262 -1.2886
 3035TIP3    H230665   0.079   3.670   2.108  0.1535  0.8027 -0.8378
 3036TIP3   OH230666   6.364   0.316   3.056  0.0218  0.1521  0.9150
 3036TIP3    H130667   6.413   0.236   3.038 -0.5907  0.0120 -0.2395
 3036TIP3    H230668   6.364   0.324   3.151 -0.4132 -1.5407  1.0824
 3037TIP3   OH230669   6.002   1.829   1.052 -0.0603 -0.5710  0.7939
 3037TIP3    H130670   5.923   1.848   1.103 -0.3115  0.0807  0.1594
 3037TIP3    H230671   5.975   1.836   0.961  0.4858 -1.3603  0.5624
 3038TIP3   OH230672   2.754   2.888   2.281  0.7250  0.0409  0.0375
 3038TIP3    H130673   2.736   2.910   2.372  0.5988  2.5347 -0.5119
 3038TIP3    H230674   2.850   2.878   2.277  0.7262 -0.1238  0.4473
 3039TIP3   OH230675   2.576   3.215   0.687 -0.0004  0.3195  0.1696
 3039TIP3    H130676   2.513   3.268   0.639  0.2897  0.1811 -0.3727
 3039TIP3    H230677   2.659   3.264   0.682 -0.3122  1.0898  1.8923
 3040TIP3   OH230678   1.787   5.010   7.603 -0.0269 -0.4413  0.2486
 3040TIP3    H130679   1.754   5.059   7.528 -0.6977  0.3251  1.0160
 3040TIP3    H230680   1.881   5.030   7.606 -0.1333  0.1232  0.0380
 3041TIP3   OH230681   0.568   3.327   2.434 -0.4593  0.5836  0.6703
 3041TIP3    H130682   0.517   3.408   2.432 -0.2683  0.6998 -1.4650
 3041TIP3    H230683   0.643   3.349   2.490 -0.5721  1.8044  0.3876
 3042TIP3   OH230684   4.503   2.983   1.810 -0.3319  0.7246 -0.1764
 3042TIP3    H130685   4.590   2.943   1.809 -0.2698  0.8406 -1.2926
 3042TIP3    H230686   4.453   2.933   1.745 -1.4115  0.0198  1.1555
 3043TIP3   OH230687   2.225   6.494   2.467 -0.3655  0.0470  0.2628
 3043TIP3    H130688   2.165   6.551   2.514 -1.7077  0.3383 -1.6692
 3043TIP3    H230689   2.169   6.441   2.410  1.0307 -1.4947  0.2172
 3044TIP3   OH230690   1.063   4.094   2.958 -0.0037  0.1294  0.1032
 3044TIP3    H130691   1.036   4.007   2.986  1.1434 -0.3057 -0.1124
 3044TIP3    H230692   1.035   4.100   2.867  2.4743 -1.1612 -0.8205
 3045TIP3   OH230693   3.901   1.163   8.051  0.3440  0.2391 -0.2908
 3045TIP3    H130694   3.825   1.137   7.998  0.2576 -0.1524  0.0227
 3045TIP3    H230695   3.924   1.084   8.100  1.3385  0.1689 -0.8488
 3046TIP3   OH230696   3.696   0.044   8.528 -0.0216  0.0201  0.1130
 3046TIP3    H130697   3.654  -0.039   8.548 -0.0538 -0.0422 -0.1950
 3046TIP3    H230698   3.712   0.040   8.433  0.8741 -0.0541  0.2592
 3047TIP3   OH230699   1.545   0.556   7.420 -0.4027  0.5306  0.3452
 3047TIP3    H130700   1.504   0.550   7.333  0.5113  2.0129 -0.2234
 3047TIP3    H230701   1.593   0.639   7.418 -0.0320  0.3883  2.1386
 3048TIP3   OH230702   0.508   4.654   0.368  0.6041  0.3805 -0.7502
 3048TIP3    H130703   0.535   4.570   0.330  1.4998  0.3149 -0.0188
 3048TIP3    H230704   0.580   4.713   0.346  0.7648  0.5323  0.1485
 3049TIP3   OH230705   5.291   5.947   0.298 -0.6791 -0.5349 -1.0545
 3049TIP3    H130706   5.332   5.899   0.370 -1.7412  0.8753  0.5581
 3049TIP3    H230707   5.329   5.909   0.219 -0.7160 -3.3300  0.1571
 3050TIP3   OH230708   6.161   0.259   0.977 -0.1667 -1.0985  0.5240
 3050TIP3    H130709   6.198   0.184   0.931  1.7602  0.1108 -0.0334
 3050TIP3    H230710   6.174   0.240   1.069  2.3446 -0.5661  0.3453
 3051TIP3   OH230711   0.449   0.041   2.818  0.0253 -0.0657 -0.1896
 3051TIP3    H130712   0.504   0.100   2.870 -0.8022  1.3539 -0.8759
 3051TIP3    H230713   0.371   0.092   2.798 -1.0542 -1.6620 -0.2043
 3052TIP3   OH230714   3.856   4.781   7.982 -0.6639 -0.3960 -0.4499
 3052TIP3    H130715   3.798   4.855   7.998  2.3051  2.5041 -1.9154
 3052TIP3    H230716   3.828   4.746   7.898 -0.9395  0.2956 -0.6546
 3053TIP3   OH230717   4.659   3.509   1.097 -0.1030  0.1424 -0.0747
 3053TIP3    H130718   4.669   3.596   1.137  0.8023  0.0434 -0.0674
 3053TIP3    H230719   4.744   3.468   1.108 -0.2330 -0.3778 -0.9634
 3054TIP3   OH230720   5.215   6.522   2.229  0.6851 -0.1749 -0.3258
 3054TIP3    H130721   5.296   6.502   2.182  1.1248 -0.1852  0.4091
 3054TIP3    H230722   5.225   6.476   2.313  0.4606  0.8406  0.2670
 3055TIP3   OH230723   1.727   2.977   2.281  0.2924 -0.2868 -0.2506
 3055TIP3    H130724   1.656   3.040   2.296 -0.1837 -1.0088  0.6431
 3055TIP3    H230725   1.690   2.893   2.310  1.5876 -0.6391  0.4390
 3056TIP3   OH230726   0.668   5.829   0.762 -1.1682 -0.0312 -0.6520
 3056TIP3    H130727   0.657   5.922   0.779  1.3763  0.3803 -0.9794
 3056TIP3    H230728   0.672   5.789   0.848 -0.8087  0.3514 -0.4897
 3057TIP3   OH230729   3.027   6.707   8.461  0.0892  0.3720 -0.3459
 3057TIP3    H130730   3.120   6.726   8.450 -0.3928  2.4836 -1.3380
 3057TIP3    H230731   3.024   6.619   8.499  2.5897  1.4723  2.8977
 3058TIP3   OH230732   6.447   2.420   7.888 -0.6700  0.2651  0.0045
 3058TIP3    H130733   6.423   2.331   7.862  3.3030 -0.5703 -1.4676
 3058TIP3    H230734   6.416   2.475   7.816 -1.8320 -0.1147  0.2027
 3059TIP3   OH230735   6.631   2.703   7.782  0.3023 -0.3177  0.6519
 3059TIP3    H130736   6.555   2.644   7.780 -2.0430  2.4801 -0.4989
 3059TIP3    H230737   6.673   2.690   7.697  0.6701 -1.2795  0.9630
 3060TIP3   OH230738   1.865   5.286   8.373  0.5518  0.4974  0.1190
 3060TIP3    H130739   1.820   5.370   8.357 -0.2871  0.4686  1.9999
 3060TIP3    H230740   1.793   5.223   8.382  1.0644  0.0312  1.0248
 3061TIP3   OH230741   5.016   0.111   0.763  0.1235  0.2975 -0.0286
 3061TIP3    H130742   4.994   0.056   0.837 -0.6514  0.6084 -0.0207
 3061TIP3    H230743   5.055   0.051   0.699  0.2643 -0.0666  0.3967
 3062TIP3   OH230744   1.897   0.131   2.058 -0.0573  0.5508  0.1838
 3062TIP3    H130745   1.985   0.151   2.090 -0.2828  0.2995  0.9819
 3062TIP3    H230746   1.840   0.190   2.108 -0.5894 -1.0081  1.5319
 3063TIP3   OH230747   5.100   5.592   0.742 -0.4362 -1.0327  0.0335
 3063TIP3    H130748   5.030   5.567   0.681 -1.8587  2.4215  0.0668
 3063TIP3    H230749   5.179   5.596   0.687 -1.2172 -0.3048 -1.0711
 3064TIP3   OH230750   4.204   0.250   8.440  0.1375 -0.0356  0.1146
 3064TIP3    H130751   4.157   0.317   8.491  0.4953  0.6205 -0.3884
 3064TIP3    H230752   4.155   0.170   8.455 -0.9694  0.5660 -0.1219
 3065TIP3   OH230753   6.330   6.524   1.209  0.4501  0.1321  0.5816
 3065TIP3    H130754   6.257   6.466   1.186  0.9746 -1.9162  3.5451
 3065TIP3    H230755   6.404   6.490   1.159 -0.1426  1.0280 -0.9763
 3066TIP3   OH230756   4.825   6.771   8.648  0.6234 -0.2568 -0.3378
 3066TIP3    H130757   4.790   6.683   8.634 -0.5640 -0.0412  0.9863
 3066TIP3    H230758   4.885   6.761   8.722 -0.3908  0.1964  0.5914
 3067TIP3   OH230759   2.820   0.625   1.489  0.4372  0.1832 -0.4729
 3067TIP3    H130760   2.811   0.530   1.482  2.1825 -0.3234  2.4742
 3067TIP3    H230761   2.733   0.658   1.466 -0.9327 -2.3187  0.6135
 3068TIP3   OH230762   0.271   1.117   8.593  0.5998 -0.3491 -0.2550
 3068TIP3    H130763   0.285   1.196   8.646 -0.7325  0.0388 -0.4409
 3068TIP3    H230764   0.192   1.136   8.543 -0.1370 -2.0665  0.2070
 3069TIP3   OH230765   6.422   1.132   1.859 -0.1693  0.3841  0.1023
 3069TIP3    H130766   6.383   1.180   1.933 -2.5992 -0.6857 -0.3986
 3069TIP3    H230767   6.348   1.098   1.811  1.4172 -0.5262 -1.8274
 3070TIP3   OH230768   5.349   4.297   1.937  0.5033  0.0549 -0.4189
 3070TIP3    H130769   5.317   4.388   1.937  0.1345 -0.0319  1.4360
 3070TIP3    H230770   5.386   4.285   1.850 -0.2248  1.7114 -1.0083
 3071TIP3   OH230771   6.693   5.074   8.706  0.3219 -0.7096 -0.0883
 3071TIP3    H130772   6.653   4.991   8.733 -1.7157  0.2115 -0.0662
 3071TIP3    H230773   6.619   5.134   8.697  1.8386  1.5153  1.2909
 3072TIP3   OH230774   5.075   0.416   2.717 -0.1818  0.5050  0.0158
 3072TIP3    H130775   4.986   0.451   2.718 -0.2586  0.3296 -0.4083
 3072TIP3    H230776   5.123   0.477   2.662 -0.1830  0.2659 -0.2542
 3073TIP3   OH230777   3.984   6.173   3.301 -0.6529 -1.0390  0.4120
 3073TIP3    H130778   3.957   6.254   3.345  0.4394 -1.0305  1.1157
 3073TIP3    H230779   3.937   6.174   3.217 -1.3765 -0.1483  0.8147
 3074TIP3   OH230780   4.727   1.942   7.247  0.0392 -0.3436  0.2659
 3074TIP3    H130781   4.719   2.033   7.274 -0.0354 -0.3073  0.1211
 3074TIP3    H230782   4.647   1.925   7.197 -0.1377 -0.6040  0.6309
 3075TIP3   OH230783   3.659   0.449   8.588  0.4509 -0.3653  0.1055
 3075TIP3    H130784   3.689   0.518   8.528 -0.1133  0.2544  0.5396
 3075TIP3    H230785   3.570   0.430   8.560  0.1963 -0.0949  0.7411
 3076TIP3   OH230786   3.607   5.965   7.280  0.1090  0.0966 -0.0766
 3076TIP3    H130787   3.531   5.983   7.224  0.8915 -0.0574 -1.2342
 3076TIP3    H230788   3.638   6.051   7.308  0.5676  0.2843 -1.0977
 3077TIP3   OH230789   0.691   2.051   0.167 -0.1485  0.4380 -0.1617
 3077TIP3    H130790   0.653   1.966   0.192  0.2585 -0.1099 -1.3142
 3077TIP3    H230791   0.621   2.095   0.118  0.8084 -0.8798 -2.9382
 3078TIP3   OH230792   0.813   1.792   1.600  0.5121 -0.1914 -0.6218
 3078TIP3    H130793   0.828   1.876   1.556  0.8866 -1.5471 -3.2421
 3078TIP3    H230794   0.749   1.747   1.546  0.7556 -1.8542  0.3980
 3079TIP3   OH230795   0.221   2.377   2.345  0.0154 -0.1159  0.5151
 3079TIP3    H130796   0.227   2.340   2.433 -1.4316 -0.0678  0.6496
 3079TIP3    H230797   0.309   2.409   2.327  0.7984 -1.7818  1.2070
 3080TIP3   OH230798   3.382   3.192   0.454  0.4840  0.1158 -0.7456
 3080TIP3    H130799   3.442   3.224   0.386  0.9456  0.2146 -0.2999
 3080TIP3    H230800   3.414   3.232   0.535  0.1120 -0.2296 -0.4218
 3081TIP3   OH230801   0.122   0.570   1.874 -0.3732  0.5669 -0.4489
 3081TIP3    H130802   0.205   0.613   1.894  0.9930 -1.6687 -0.9371
 3081TIP3    H230803   0.055   0.637   1.890  1.5661  2.7208 -0.8964
 3082TIP3   OH230804   4.322   4.788   7.990  0.0370  0.2001  0.0555
 3082TIP3    H130805   4.347   4.778   7.898 -2.2051 -0.2371 -0.5804
 3082TIP3    H230806   4.358   4.872   8.017 -1.4474  1.6075 -2.0593
 3083TIP3   OH230807   2.404   2.017   7.310 -0.3270 -0.1527 -0.6544
 3083TIP3    H130808   2.398   2.060   7.225 -0.4010  0.2683 -0.4444
 3083TIP3    H230809   2.327   2.048   7.358 -1.1628 -1.6434 -0.9846
 3084TIP3   OH230810   4.320   5.343   7.626  0.2999 -0.2960 -0.0282
 3084TIP3    H130811   4.413   5.322   7.622  0.3515 -0.2153  0.6337
 3084TIP3    H230812   4.293   5.351   7.535  0.9750 -0.1683 -0.2189
 3085TIP3   OH230813   2.918   1.836   2.958 -0.3198 -0.8360 -0.2578
 3085TIP3    H130814   2.902   1.931   2.959 -0.1043 -0.7638  2.2352
 3085TIP3    H230815   3.013   1.828   2.956 -0.2859 -0.9387  1.0395
 3086TIP3   OH230816   3.673   3.030   8.715 -0.0848 -0.0317 -0.1079
 3086TIP3    H130817   3.627   2.978   8.781 -0.1155 -0.0452 -0.1401
 3086TIP3    H230818   3.762   3.037   8.749 -0.2956  0.6155  0.3182
 3087TIP3   OH230819   3.579   3.790   0.273  0.2167 -0.2642  0.2244
 3087TIP3    H130820   3.587   3.832   0.359  3.9403  0.2392 -0.1905
 3087TIP3    H230821   3.588   3.861   0.210  1.2132 -0.9986 -0.5071
 3088TIP3   OH230822   4.763   4.047   1.227  0.4406 -0.1366 -0.1578
 3088TIP3    H130823   4.734   4.039   1.318 -1.8995  1.1176 -0.7148
 3088TIP3    H230824   4.784   4.139   1.216 -0.7090  0.0254 -1.2335
 3089TIP3   OH230825   5.626   1.859   3.306  0.5258 -0.1902 -0.4975
 3089TIP3    H130826   5.538   1.824   3.320  0.6158  0.2389  1.4549
 3089TIP3    H230827   5.623   1.947   3.343  1.9269 -0.3863  0.1489
 3090TIP3   OH230828   0.146   1.608   8.805 -0.3512  0.1424 -0.3728
 3090TIP3    H130829   0.166   1.550   8.879  0.7309  0.0026 -0.7545
 3090TIP3    H230830   0.228   1.656   8.790 -0.0292 -0.9515 -2.4765
 3091TIP3   OH230831   2.801   1.057   3.564  0.1668  0.0683 -0.1828
 3091TIP3    H130832   2.757   1.113   3.500  0.4526  0.6728  0.1415
 3091TIP3    H230833   2.879   1.107   3.590 -1.0920  0.8953  2.3120
 3092TIP3   OH230834   4.901   1.926   2.333 -0.0282  0.3861  0.2153
 3092TIP3    H130835   4.874   1.880   2.413 -1.8069  0.4773 -0.2949
 3092TIP3    H230836   4.827   1.984   2.313 -0.3474 -0.7864 -2.3598
 3093TIP3   OH230837   1.085   0.597   8.368 -0.2354  0.5013  0.4605
 3093TIP3    H130838   1.178   0.617   8.373 -0.0942  0.0408 -0.2968
 3093TIP3    H230839   1.071   0.565   8.279 -0.9000 -0.5593  0.9266
 3094TIP3   OH230840   1.354   3.819   2.831  0.6285 -0.0980 -0.4755
 3094TIP3    H130841   1.337   3.911   2.810 -1.0088 -0.0546  0.7747
 3094TIP3    H230842   1.432   3.821   2.886 -0.2561  0.7689  0.8244
 3095TIP3   OH230843   1.000   2.858   2.596  0.0539  0.0634 -0.0126
 3095TIP3    H130844   0.906   2.840   2.585  0.4321 -0.5713 -3.4712
 3095TIP3    H230845   1.043   2.776   2.571  1.6157  0.0900  2.2403
 3096TIP3   OH230846   3.434   0.483   2.982 -0.4601  0.1717 -0.1129
 3096TIP3    H130847   3.359   0.427   3.005  0.4680 -0.9176  0.3690
 3096TIP3    H230848   3.461   0.521   3.066 -1.2954  1.6733 -0.4826
 3097TIP3   OH230849   1.246   2.025   0.567  0.0010 -0.7274 -0.4864
 3097TIP3    H130850   1.174   2.007   0.628 -0.5999  0.2545 -0.8651
 3097TIP3    H230851   1.323   2.033   0.622 -0.5322  0.1161  0.1607
 3098TIP3   OH230852   5.633   1.450   8.801 -0.3178 -0.4766 -0.0396
 3098TIP3    H130853   5.616   1.412   8.887  0.8032  1.6637  1.2185
 3098TIP3    H230854   5.575   1.526   8.796  0.3956  0.0444 -0.6950
 3099TIP3   OH230855   4.213   1.858   1.222  0.2589  0.0897 -0.0025
 3099TIP3    H130856   4.175   1.771   1.235 -0.0741  0.2128 -0.1664
 3099TIP3    H230857   4.294   1.856   1.274 -1.1615  0.6728  2.4310
 3100TIP3   OH230858   3.296   2.052   7.914  0.4942  0.5211 -0.0167
 3100TIP3    H130859   3.223   2.093   7.866  0.6397  0.2311 -0.4908
 3100TIP3    H230860   3.325   1.981   7.857  0.1510 -0.3442  0.8595
 3101TIP3   OH230861   4.805   1.252   2.436 -0.9030 -0.5710 -0.1135
 3101TIP3    H130862   4.765   1.180   2.388 -0.9537 -1.5938  1.4083
 3101TIP3    H230863   4.731   1.297   2.478 -0.6969 -0.8884  0.6000
 3102TIP3   OH230864   4.490   4.544   2.995 -0.2088 -0.0628 -0.5125
 3102TIP3    H130865   4.565   4.593   3.030  0.1204 -0.7897 -0.1698
 3102TIP3    H230866   4.430   4.611   2.963  0.5992  0.5322 -0.8085
 3103TIP3   OH230867   0.022   4.252   0.737  0.1638  0.6484  0.0316
 3103TIP3    H130868  -0.073   4.244   0.732  0.0754  0.4454  1.6024
 3103TIP3    H230869   0.053   4.163   0.752  0.5288  0.8500  0.4787
 3104TIP3   OH230870   5.622   3.097   1.641 -0.2874  0.3038 -0.3719
 3104TIP3    H130871   5.552   3.093   1.705 -0.0679 -1.2061 -0.1750
 3104TIP3    H230872   5.640   3.005   1.620  0.1700  0.7297 -2.0182
 3105TIP3   OH230873   3.130   1.111   2.706  0.3719 -0.4993 -0.1678
 3105TIP3    H130874   3.095   1.023   2.721 -0.1554 -0.0139  1.7216
 3105TIP3    H230875   3.074   1.168   2.758  1.5418  0.7946 -0.2818
 3106TIP3   OH230876   4.215   0.127   1.315 -0.0268  0.3832 -0.1766
 3106TIP3    H130877   4.272   0.054   1.288  2.1641  2.2782 -0.9931
 3106TIP3    H230878   4.130   0.086   1.331  0.3396 -1.9653 -3.3068
 3107TIP3   OH230879   4.223   1.527   8.335  0.0552 -0.3385  0.1648
 3107TIP3    H130880   4.281   1.603   8.334 -2.2378  1.6957  3.1567
 3107TIP3    H230881   4.259   1.469   8.403  0.3999 -0.7216 -0.3377
 3108TIP3   OH230882   5.731   6.507   2.282 -0.0543  0.2869  0.1928
 3108TIP3    H130883   5.784   6.476   2.208 -0.5964  0.5314 -0.2995
 3108TIP3    H230884   5.794   6.515   2.354  0.7030  1.1558 -0.5389
 3109TIP3   OH230885   4.135   6.553   2.654 -1.0664  0.0540 -0.4077
 3109TIP3    H130886   4.077   6.493   2.607 -1.9364 -0.2880  1.0401
 3109TIP3    H230887   4.087   6.576   2.734  1.3100 -1.4262  1.6092
 3110TIP3   OH230888   5.563   3.554   1.286  0.2423  0.1589 -0.1204
 3110TIP3    H130889   5.493   3.614   1.259  0.3240 -0.6814 -2.3625
 3110TIP3    H230890   5.570   3.568   1.381 -1.8776  1.3997 -0.0726
 3111TIP3   OH230891   5.090   1.716   2.799 -0.9511 -0.1725  0.1411
 3111TIP3    H130892   5.108   1.789   2.858 -2.5650 -0.6423  1.2926
 3111TIP3    H230893   4.996   1.723   2.780 -0.6042 -0.3916 -1.9262
 3112TIP3   OH230894   1.555   3.741   7.294 -0.6857 -0.0422  0.8750
 3112TIP3    H130895   1.584   3.716   7.206 -1.6906 -0.0313  0.5263
 3112TIP3    H230896   1.461   3.726   7.293 -0.7235  0.0513  1.9270
 3113TIP3   OH230897   0.129   4.940   2.816 -0.2301 -0.4282  0.4512
 3113TIP3    H130898   0.083   4.857   2.806  1.3061 -1.4357  1.1720
 3113TIP3    H230899   0.203   4.919   2.874  0.7874  1.2064 -0.1730
 3114TIP3   OH230900   4.451   1.055   2.585 -0.2276  0.4642  0.3096
 3114TIP3    H130901   4.501   0.986   2.629 -3.0103 -1.7480  0.2842
 3114TIP3    H230902   4.465   1.039   2.492 -2.4806 -1.5711  0.2127
 3115TIP3   OH230903   1.995   2.137   1.684 -0.1393  0.4604  0.3212
 3115TIP3    H130904   1.939   2.064   1.712 -2.3128  1.6016 -0.8162
 3115TIP3    H230905   1.993   2.198   1.758  1.1062 -0.2843  0.9927
 3116TIP3   OH230906   1.098   3.603   7.414  0.5113  0.3617  0.1458
 3116TIP3    H130907   1.073   3.511   7.429  2.2177  0.0091  1.0369
 3116TIP3    H230908   1.156   3.624   7.487 -0.1214  2.2888  0.1432
 3117TIP3   OH230909   3.370   6.350   7.804 -0.2176  0.4256 -0.3936
 3117TIP3    H130910   3.442   6.340   7.867 -0.4665  2.3862  0.2632
 3117TIP3    H230911   3.291   6.341   7.856 -0.4564 -0.1984 -0.8489
 3118TIP3   OH230912   0.910   4.492   2.684 -0.2138  0.1309  0.3011
 3118TIP3    H130913   0.971   4.439   2.632  0.3073 -1.2366  2.1746
 3118TIP3    H230914   0.844   4.521   2.621  0.4448 -1.3178 -1.1372
 3119TIP3   OH230915   6.056   6.787   1.329 -0.4182  0.0811  0.1965
 3119TIP3    H130916   6.035   6.735   1.252  0.3085  1.8999 -1.2972
 3119TIP3    H230917   6.120   6.851   1.298 -0.5969  1.2824  2.1616
 3120TIP3   OH230918   6.093   2.790   8.632 -0.0282 -0.2617  0.5058
 3120TIP3    H130919   6.037   2.802   8.555 -0.5808 -2.2051  0.5559
 3120TIP3    H230920   6.034   2.804   8.706  0.2000  0.3379  0.5770
 3121TIP3   OH230921   1.095   6.142   0.385  0.3872  0.0693 -0.0731
 3121TIP3    H130922   1.023   6.081   0.402  0.4082  0.5408  2.0602
 3121TIP3    H230923   1.063   6.198   0.314 -0.7110 -0.7147 -0.2279
 3122TIP3   OH230924   4.523   4.883   8.523  0.5785  0.0144  0.4249
 3122TIP3    H130925   4.509   4.840   8.439  0.0579 -1.2992  1.1489
 3122TIP3    H230926   4.581   4.957   8.504 -1.0919  0.9482 -1.4049
 3123TIP3   OH230927   2.063   4.135   1.227 -0.0556 -0.0373  0.4568
 3123TIP3    H130928   2.066   4.040   1.236  1.1590 -0.0958 -0.3857
 3123TIP3    H230929   2.135   4.167   1.281 -0.4914  0.4202  0.7842
 3124TIP3   OH230930   0.899   3.889   0.070 -0.1448  0.2973 -0.1807
 3124TIP3    H130931   0.977   3.851   0.111  0.5653 -1.1872 -2.6961
 3124TIP3    H230932   0.928   3.974   0.038 -0.0385  0.4554  0.3340
 3125TIP3   OH230933   4.934   5.378   8.361  0.2913 -0.2500 -0.2193
 3125TIP3    H130934   4.845   5.398   8.388  0.6753  1.8520 -0.3831
 3125TIP3    H230935   4.930   5.372   8.266  0.4002  0.2050 -0.2507
 3126TIP3   OH230936   1.466   3.148   0.338 -0.0448 -0.0127 -0.4730
 3126TIP3    H130937   1.463   3.188   0.425 -1.1770  0.6728 -0.8023
 3126TIP3    H230938   1.519   3.069   0.349 -0.7378 -0.3016  0.9923
 3127TIP3   OH230939   2.598   4.159   7.494 -0.0873 -0.3637 -0.0032
 3127TIP3    H130940   2.588   4.224   7.424  0.0743 -0.2922  0.0396
 3127TIP3    H230941   2.517   4.108   7.490 -1.0109  0.9381  1.0935
 3128TIP3   OH230942   1.970   0.317   0.063  0.3076 -0.4627 -0.0015
 3128TIP3    H130943   1.898   0.371   0.096 -0.4967 -1.6721  0.2577
 3128TIP3    H230944   2.048   0.369   0.082 -0.4586  0.7357 -0.0107
 3129TIP3   OH230945   3.277   5.390   7.876  0.2215 -0.2912 -0.1761
 3129TIP3    H130946   3.327   5.308   7.873 -1.0926 -1.1415  0.2853
 3129TIP3    H230947   3.191   5.366   7.842 -0.1737  0.9233 -0.0499
 3130TIP3   OH230948   2.442   1.588   7.918 -0.2843 -0.2339 -0.0896
 3130TIP3    H130949   2.354   1.550   7.920 -0.0392 -0.7963  0.1687
 3130TIP3    H230950   2.492   1.536   7.980  0.0806  0.4735  0.2186
 3131TIP3   OH230951   0.014   4.120   8.287  0.1354 -0.5983 -0.1740
 3131TIP3    H130952  -0.036   4.064   8.227  0.3955 -0.8696 -0.1383
 3131TIP3    H230953   0.082   4.160   8.233 -1.3409  1.3962 -0.7007
 3132TIP3   OH230954   3.506   5.075   2.916  0.5442  0.6998 -0.5972
 3132TIP3    H130955   3.563   5.111   2.848  0.9418 -0.8597 -1.1514
 3132TIP3    H230956   3.422   5.061   2.873  0.3960  0.9339 -0.3904
 3133TIP3   OH230957   5.435   4.903   3.232  0.0152  0.6606 -0.0331
 3133TIP3    H130958   5.349   4.866   3.211  0.3365 -0.2557  0.1972
 3133TIP3    H230959   5.449   4.971   3.167  0.3793 -1.1476 -1.9311
 3134TIP3   OH230960   5.603   6.662   2.471  0.1046 -0.5078 -0.5189
 3134TIP3    H130961   5.568   6.746   2.441 -1.2037 -0.3915  1.1961
 3134TIP3    H230962   5.616   6.612   2.390  1.7154  1.5883 -1.6436
 3135TIP3   OH230963   0.401   2.404   0.888  0.0893 -0.5980  0.1220
 3135TIP3    H130964   0.486   2.396   0.844  0.3697 -0.5005  0.6420
 3135TIP3    H230965   0.377   2.496   0.877  0.7167 -0.2895  1.1717
 3136TIP3   OH230966   1.911   3.168   2.190  0.4194 -0.8710 -0.0600
 3136TIP3    H130967   1.989   3.111   2.191 -0.6559 -2.4093  0.5746
 3136TIP3    H230968   1.841   3.112   2.157 -0.4904  0.4088 -0.3605
 3137TIP3   OH230969   3.629   4.990   2.089  0.4612  0.5569 -0.0089
 3137TIP3    H130970   3.623   5.085   2.086  2.0604  0.7035  0.4366
 3137TIP3    H230971   3.620   4.968   2.181  0.8145  0.3418 -0.0242
 3138TIP3   OH230972   5.967   0.809   8.762  0.5902  0.2287 -0.0431
 3138TIP3    H130973   5.899   0.804   8.829  0.7010  0.4974  0.0890
 3138TIP3    H230974   5.928   0.768   8.685 -0.5684  2.3793 -0.6685
 3139TIP3   OH230975   0.312   0.997   0.602 -0.0597  0.2629  0.0800
 3139TIP3    H130976   0.248   1.050   0.554 -1.7389 -1.0660  0.7425
 3139TIP3    H230977   0.325   0.919   0.548  2.2522  1.1781 -0.8033
 3140TIP3   OH230978   0.043   2.678   1.851 -0.0306 -0.0917  0.1463
 3140TIP3    H130979  -0.015   2.752   1.869 -1.4951 -0.5130 -2.3372
 3140TIP3    H230980   0.107   2.713   1.789  1.9480  0.1319  2.1965
 3141TIP3   OH230981   3.055   0.252   8.167 -0.0058 -0.1714 -0.5628
 3141TIP3    H130982   3.046   0.163   8.135  0.5786 -0.6452  0.5352
 3141TIP3    H230983   3.131   0.249   8.226  0.0928  1.0723 -0.5948
 3142TIP3   OH230984   0.811   3.673   1.784  0.5173  0.5885  0.1282
 3142TIP3    H130985   0.819   3.590   1.830  2.0106 -0.1480 -1.3543
 3142TIP3    H230986   0.725   3.669   1.742 -0.1642  0.5818  1.4719
 3143TIP3   OH230987   6.384   4.392   8.311 -0.1002  0.3500  0.5328
 3143TIP3    H130988   6.462   4.360   8.356 -0.8766 -0.4650  1.3435
 3143TIP3    H230989   6.414   4.412   8.222  1.6280  2.7354  1.5610
 3144TIP3   OH230990   2.208   3.559   0.408  0.6559 -0.4785  0.0182
 3144TIP3    H130991   2.142   3.628   0.405  1.0165 -0.1382 -0.1478
 3144TIP3    H230992   2.284   3.596   0.364  1.5548 -0.2387  1.7010
 3145TIP3   OH230993   4.294   1.126   0.400 -0.4352  0.0081  0.0485
 3145TIP3    H130994   4.213   1.173   0.380 -0.9982  0.3166  2.6294
 3145TIP3    H230995   4.354   1.193   0.431 -0.3159 -0.6072  1.2035
 3146TIP3   OH230996   1.975   1.349   0.891  0.2767  0.2472  0.0671
 3146TIP3    H130997   1.890   1.382   0.923  0.0165  0.2739 -0.6350
 3146TIP3    H230998   2.003   1.415   0.828 -0.2213 -0.8324 -1.3146
 3147TIP3   OH230999   4.296   4.606   1.266  0.0485  0.1327  0.0845
 3147TIP3    H131000   4.259   4.627   1.181  0.3123  0.4917  0.0572
 3147TIP3    H231001   4.238   4.650   1.329  1.6142  2.5631 -0.0348
 3148TIP3   OH231002   5.324   2.720   2.804  0.3921 -0.5589 -0.0242
 3148TIP3    H131003   5.316   2.799   2.859 -0.2128 -0.9709  0.5041
 3148TIP3    H231004   5.294   2.649   2.861  1.8318 -1.3132 -0.1748
 3149TIP3   OH231005   3.539   2.705   2.913 -0.2037 -0.1546 -0.1956
 3149TIP3    H131006   3.616   2.649   2.904  0.0793  0.3469 -0.9853
 3149TIP3    H231007   3.494   2.699   2.829 -0.6933  0.0486  0.0425
 3150TIP3   OH231008   6.499   4.702   2.624  0.0406  0.4220  0.3112
 3150TIP3    H131009   6.586   4.662   2.637 -0.2680  0.2275  1.9670
 3150TIP3    H231010   6.452   4.684   2.705 -1.1786  1.5213 -0.1226
 3151TIP3   OH231011   6.647   6.236   1.368  0.1729  0.2510  0.8289
 3151TIP3    H131012   6.736   6.261   1.343  1.5493 -1.1544  3.8127
 3151TIP3    H231013   6.637   6.147   1.334 -1.8177  1.6906 -3.0448
 3152TIP3   OH231014   0.783   5.018   2.101  0.4950  0.4267  0.2774
 3152TIP3    H131015   0.845   4.946   2.090  0.3010  0.4281 -0.9717
 3152TIP3    H231016   0.827   5.094   2.062 -0.0314  0.5689 -0.0467
 3153TIP3   OH231017   3.049   5.406   0.996  0.5608  0.1237  0.3591
 3153TIP3    H131018   3.067   5.349   0.921 -1.2842 -0.5874  0.4012
 3153TIP3    H231019   2.991   5.473   0.961  1.7056  1.2795  0.6093
 3154TIP3   OH231020   3.831   5.530   7.988 -0.3231  0.1052 -0.4782
 3154TIP3    H131021   3.805   5.462   7.926 -0.5425 -2.0180  1.7678
 3154TIP3    H231022   3.749   5.556   8.030 -0.1192  1.1630 -0.7074
 3155TIP3   OH231023   3.691   2.591   1.579 -0.4651 -0.1908 -0.0392
 3155TIP3    H131024   3.723   2.629   1.497  0.7481 -0.7734  0.1403
 3155TIP3    H231025   3.686   2.497   1.561 -0.2521 -0.3131  0.5351
 3156TIP3   OH231026   0.993   1.461   2.357  0.4616  0.7130 -0.3485
 3156TIP3    H131027   1.033   1.469   2.443  0.2829  1.7691 -0.3432
 3156TIP3    H231028   0.983   1.367   2.343  1.7745  0.4822  0.1761
 3157TIP3   OH231029   1.055   0.832   7.064 -0.4973 -0.4717  0.2676
 3157TIP3    H131030   0.996   0.806   7.135  1.3082  0.2030  2.0959
 3157TIP3    H231031   1.129   0.772   7.072 -0.0666 -0.1025 -0.8054
 3158TIP3   OH231032   3.696   0.116   1.300 -0.3236  0.7857 -0.2855
 3158TIP3    H131033   3.727   0.203   1.323 -0.2565  0.7945 -0.4074
 3158TIP3    H231034   3.612   0.108   1.345  0.4776  0.2224  1.1856
 3159TIP3   OH231035   2.155   4.240   2.535  0.3058  0.2055 -0.0352
 3159TIP3    H131036   2.083   4.252   2.473 -0.6971 -0.5783  0.9327
 3159TIP3    H231037   2.114   4.203   2.613  1.3319  2.0405  1.4935
 3160TIP3   OH231038   1.902   2.116   1.293  0.0152  0.6077  0.4683
 3160TIP3    H131039   1.940   2.186   1.345 -0.7621  0.1341  1.7066
 3160TIP3    H231040   1.864   2.056   1.357  0.5248 -0.8720 -0.5682
 3161TIP3   OH231041   6.236   6.174   8.533 -0.4119  0.1512 -0.5229
 3161TIP3    H131042   6.157   6.226   8.549 -0.4616 -0.1228  0.1701
 3161TIP3    H231043   6.205   6.094   8.492 -0.6070 -0.3431  0.5596
 3162TIP3   OH231044   4.123   5.137   1.923  0.4688 -0.2447  0.0376
 3162TIP3    H131045   4.116   5.094   1.838 -1.2818 -0.2419  0.1269
 3162TIP3    H231046   4.035   5.172   1.939  1.0086  0.5726  1.4259
 3163TIP3   OH231047   0.840   4.641   0.395 -0.2940  0.1275 -0.5110
 3163TIP3    H131048   0.905   4.570   0.396 -0.9036 -0.4401  0.2809
 3163TIP3    H231049   0.882   4.711   0.345 -0.6173 -1.6528 -3.5314
 3164TIP3   OH231050   4.857   4.340   7.463  0.7709 -0.1793 -0.2919
 3164TIP3    H131051   4.787   4.388   7.508 -0.6278 -1.9952 -0.4121
 3164TIP3    H231052   4.911   4.304   7.533  1.2012  0.6315 -0.1889
 3165TIP3   OH231053   4.539   1.505   1.369 -0.0433 -0.2338 -0.2035
 3165TIP3    H131054   4.540   1.601   1.373  0.0763 -0.2566  0.5015
 3165TIP3    H231055   4.456   1.483   1.328 -0.6437  0.1496  0.7601
 3166TIP3   OH231056   5.776   3.798   2.325 -0.5398  0.0629 -0.3499
 3166TIP3    H131057   5.851   3.853   2.348  1.1579 -1.1727 -2.5947
 3166TIP3    H231058   5.715   3.811   2.397  2.0662  0.6627  1.9409
 3167TIP3   OH231059   6.010   1.712   7.388  0.3555  0.2634  0.3479
 3167TIP3    H131060   6.058   1.754   7.317  2.7098  0.1511  1.7643
 3167TIP3    H231061   6.072   1.651   7.427 -1.0246 -0.0850  2.1582
 3168TIP3   OH231062   2.861   2.125   2.556  0.7886  0.4452  0.5678
 3168TIP3    H131063   2.771   2.104   2.580  0.7442  1.1764  1.0723
 3168TIP3    H231064   2.872   2.217   2.580  1.6411  0.3954  0.4172
 3169TIP3   OH231065   0.152   2.810   7.672  0.2967 -0.4690  0.5399
 3169TIP3    H131066   0.188   2.858   7.597 -0.0359 -2.2376 -0.8383
 3169TIP3    H231067   0.092   2.746   7.633 -0.3015 -1.1038  2.3724
 3170TIP3   OH231068   4.749   2.419   8.030 -0.6829 -0.2356 -0.1432
 3170TIP3    H131069   4.811   2.407   8.102  1.4454 -0.9791 -1.9736
 3170TIP3    H231070   4.723   2.330   8.006  0.5645 -0.2147 -1.7971
 3171TIP3   OH231071   2.638   3.287   1.719  0.0544  0.3106 -0.2218
 3171TIP3    H131072   2.706   3.354   1.719  0.8319 -0.4229  1.3668
 3171TIP3    H231073   2.573   3.318   1.781  0.0554 -0.0472 -0.0370
 3172TIP3   OH231074   2.666   5.869   1.853 -0.2505  0.1437 -0.4889
 3172TIP3    H131075   2.728   5.846   1.922 -2.1577  0.3986  1.4218
 3172TIP3    H231076   2.617   5.789   1.837  1.1118 -0.3339 -2.6891
 3173TIP3   OH231077   0.611   2.524   1.551  0.4329 -0.3850 -0.1578
 3173TIP3    H131078   0.668   2.585   1.597  1.1007  0.4747 -2.0013
 3173TIP3    H231079   0.669   2.454   1.522 -0.1162 -1.3161  0.9218
 3174TIP3   OH231080   6.202   0.180   1.244 -0.1872  0.1185  0.2719
 3174TIP3    H131081   6.288   0.222   1.236 -0.2012  0.1538  0.3066
 3174TIP3    H231082   6.153   0.238   1.302 -0.8709  1.1435 -1.2487
 3175TIP3   OH231083   6.315   2.029   8.785 -0.9531  0.2871  0.5000
 3175TIP3    H131084   6.243   2.080   8.822 -1.7063 -1.8512  2.2688
 3175TIP3    H231085   6.386   2.039   8.849 -1.3680 -1.3586  1.2839
 3176TIP3   OH231086   6.030   5.273   0.413 -0.4144 -0.2785  0.2642
 3176TIP3    H131087   5.941   5.303   0.393 -0.6173 -2.1481 -2.1019
 3176TIP3    H231088   6.047   5.205   0.348  2.6170 -0.2763  0.9327
 3177TIP3   OH231089   1.253   4.103   8.310  0.2172 -0.2130  0.2105
 3177TIP3    H131090   1.232   4.010   8.317  2.0582 -0.6679  0.1438
 3177TIP3    H231091   1.171   4.144   8.283 -0.5258 -1.8605 -0.1624
 3178TIP3   OH231092   3.809   6.580   1.083 -0.4628  0.3797 -0.2009
 3178TIP3    H131093   3.766   6.665   1.083  0.8430  1.0892  1.0487
 3178TIP3    H231094   3.900   6.599   1.061 -0.0659 -0.6279  0.4857
 3179TIP3   OH231095   2.575   6.783   1.062 -0.4251  0.0450  0.4136
 3179TIP3    H131096   2.501   6.764   1.005  0.2245 -1.2949 -0.0218
 3179TIP3    H231097   2.544   6.853   1.119 -0.6646  2.5443 -2.4807
 3180TIP3   OH231098   2.063   1.159   8.173 -0.1244  0.3021 -0.1183
 3180TIP3    H131099   2.087   1.151   8.266  2.5453  1.0232 -0.6598
 3180TIP3    H231100   2.141   1.132   8.126 -1.5092 -0.2680 -2.2057
 3181TIP3   OH231101   4.387   5.046   0.316  0.3046 -0.1644 -0.1366
 3181TIP3    H131102   4.401   5.121   0.374 -0.1110  1.9134 -2.4902
 3181TIP3    H231103   4.475   5.020   0.288  0.4160  1.5156 -1.5892
 3182TIP3   OH231104   0.559   3.098   3.003 -0.2983  0.1691 -0.0564
 3182TIP3    H131105   0.549   3.046   3.082  1.3687 -0.0643  0.0371
 3182TIP3    H231106   0.469   3.117   2.975 -0.9171  0.0144  1.7103
 3183TIP3   OH231107   0.790   1.211   8.676 -0.0775 -0.1959  0.2077
 3183TIP3    H131108   0.797   1.220   8.581 -0.2020  0.7953  0.2783
 3183TIP3    H231109   0.869   1.163   8.702  0.7762  0.9351 -0.2277
 3184TIP3   OH231110   5.090   0.153   0.406  0.3287 -0.3136  0.3861
 3184TIP3    H131111   5.180   0.130   0.430  0.8929  2.6181  1.5580
 3184TIP3    H231112   5.100   0.217   0.335 -0.9731 -1.6282 -1.0384
 3185TIP3   OH231113   0.153   4.719   8.314  0.0165 -0.4084  0.1287
 3185TIP3    H131114   0.062   4.688   8.319 -0.1986  0.2812  0.7179
 3185TIP3    H231115   0.148   4.810   8.343  0.5871  0.2651 -1.7295
 3186TIP3   OH231116   3.158   1.017   1.837  0.2433 -0.3509  0.3362
 3186TIP3    H131117   3.253   1.003   1.832  0.1651 -1.1517  0.8921
 3186TIP3    H231118   3.133   0.983   1.923 -0.4028  0.8254  0.6312
 3187TIP3   OH231119   2.116   5.553   1.052 -0.1499 -0.1468 -0.4145
 3187TIP3    H131120   2.045   5.491   1.070 -1.0668  0.7263 -0.8933
 3187TIP3    H231121   2.105   5.575   0.959  1.2235 -0.5671 -0.6887
 3188TIP3   OH231122   4.106   4.015   8.019 -0.5080  0.0049 -0.9902
 3188TIP3    H131123   4.102   3.991   8.112 -1.3165  0.2128 -0.9660
 3188TIP3    H231124   4.071   3.939   7.973 -0.6040  0.1102 -1.0906
 3189TIP3   OH231125   4.304   1.286   8.495  0.4698  0.4373 -0.6894
 3189TIP3    H131126   4.389   1.250   8.469 -0.5426 -2.2984 -0.5393
 3189TIP3    H231127   4.303   1.278   8.591  0.2988  1.1100 -0.6310
 3190TIP3   OH231128   2.653   1.847   7.893  0.7142  0.5275  0.1802
 3190TIP3    H131129   2.569   1.829   7.936 -0.1159  1.3750 -1.0223
 3190TIP3    H231130   2.701   1.764   7.899 -0.3528 -0.0926  0.5588
 3191TIP3   OH231131   2.263   2.036   2.987 -0.4747 -0.1226  0.1940
 3191TIP3    H131132   2.351   2.010   2.959 -0.1282 -0.5949  1.5935
 3191TIP3    H231133   2.257   2.002   3.076 -2.1641 -0.2677  0.0411
 3192TIP3   OH231134   6.481   4.842   2.331  0.1045 -0.5769  0.4690
 3192TIP3    H131135   6.478   4.797   2.416  0.8491 -0.2968  0.6635
 3192TIP3    H231136   6.551   4.798   2.283  0.0851 -0.3533  0.2314
 3193TIP3   OH231137   6.617   2.613   2.093  0.1188  0.1582 -0.2307
 3193TIP3    H131138   6.566   2.604   2.174 -2.1982 -0.5296 -1.6720
 3193TIP3    H231139   6.594   2.699   2.059 -0.2438 -0.2424 -1.0107
 3194TIP3   OH231140   5.431   1.944   7.125 -0.3559  0.2093  0.2649
 3194TIP3    H131141   5.526   1.952   7.129 -0.3044  0.1369 -0.5847
 3194TIP3    H231142   5.399   2.034   7.128 -0.2886  0.2120  1.0270
 3195TIP3   OH231143   1.404   5.393   1.488  0.7154  0.3662 -0.0912
 3195TIP3    H131144   1.431   5.302   1.498 -0.1747  0.2601  1.6798
 3195TIP3    H231145   1.356   5.395   1.406 -0.5083 -1.1045  0.5463
 3196TIP3   OH231146   5.019   3.445   8.466 -0.1156 -0.2951  0.1182
 3196TIP3    H131147   5.104   3.407   8.445 -0.5026 -2.3306  1.9587
 3196TIP3    H231148   4.956   3.395   8.414 -0.3189  0.5569 -0.4908
 3197TIP3   OH231149   5.393   1.414   0.699  0.6924  0.0148  0.1382
 3197TIP3    H131150   5.299   1.433   0.705  0.1797 -2.3289  0.3753
 3197TIP3    H231151   5.407   1.391   0.608  1.8147  3.5685 -0.7593
 3198TIP3   OH231152   4.534   6.060   3.287 -0.3461  0.6667 -0.3383
 3198TIP3    H131153   4.497   5.978   3.321  2.7378 -0.5080  0.5115
 3198TIP3    H231154   4.519   6.123   3.356 -0.6708  0.2013  0.0239
 3199TIP3   OH231155   6.389   5.616   2.480  0.4744 -0.5967 -0.0064
 3199TIP3    H131156   6.459   5.590   2.541  1.6980 -1.5970 -1.7698
 3199TIP3    H231157   6.386   5.546   2.415 -1.6545 -0.1740 -0.4370
 3200TIP3   OH231158   2.083   5.953   0.846  0.0653 -0.0481  0.0275
 3200TIP3    H131159   2.136   6.025   0.880  1.1261 -0.4851 -0.6447
 3200TIP3    H231160   2.118   5.875   0.891  0.3039 -0.3989 -0.7451
 3201TIP3   OH231161   1.101   5.918   7.966 -0.0266 -0.7002 -0.1875
 3201TIP3    H131162   1.083   5.921   7.872 -0.4988  0.1572 -0.0776
 3201TIP3    H231163   1.177   5.975   7.978 -1.3198  1.0224  0.2265
 3202TIP3   OH231164   5.407   4.517   2.569  0.9081  0.3179 -0.5015
 3202TIP3    H131165   5.423   4.423   2.569 -0.1512  0.1094 -1.8101
 3202TIP3    H231166   5.311   4.525   2.571  0.9660  1.3516 -1.0994
 3203TIP3   OH231167   6.599   4.399   2.095  0.5103  0.0361  0.1000
 3203TIP3    H131168   6.518   4.431   2.135  0.3961  1.9264 -1.4831
 3203TIP3    H231169   6.653   4.371   2.169 -0.2074  2.1135  1.4980
 3204TIP3   OH231170   3.094   5.499   2.606 -0.7083 -0.2338  0.1970
 3204TIP3    H131171   3.136   5.417   2.633  0.4648  0.4510  0.5394
 3204TIP3    H231172   3.018   5.507   2.663 -0.4062 -0.7163  0.6741
 3205TIP3   OH231173   2.340   2.193   2.439  0.1370 -0.1494 -0.0388
 3205TIP3    H131174   2.338   2.208   2.533  0.5276 -0.3082 -0.0017
 3205TIP3    H231175   2.422   2.233   2.410 -0.6770  1.2036 -0.5497
 3206TIP3   OH231176   3.091   5.334   1.565  0.0208 -0.3766  0.4289
 3206TIP3    H131177   3.115   5.299   1.479  1.4864  2.7883 -0.5707
 3206TIP3    H231178   3.029   5.404   1.546  0.4448  0.4400  1.9236
 3207TIP3   OH231179   4.200   2.845   1.918  0.1074  0.0440 -0.0056
 3207TIP3    H131180   4.169   2.917   1.864 -0.8291 -0.7689 -0.5795
 3207TIP3    H231181   4.187   2.767   1.864  0.0689 -0.6767  1.0171
 3208TIP3   OH231182   6.254   3.354   0.979 -0.5413  0.2835 -0.1187
 3208TIP3    H131183   6.252   3.310   1.064 -0.1218  1.7030  0.6555
 3208TIP3    H231184   6.163   3.381   0.964 -0.4918  0.6554  0.2305
 3209TIP3   OH231185   5.623   4.769   8.295 -0.9607  0.0519  0.4695
 3209TIP3    H131186   5.552   4.712   8.267  0.4596 -1.6807  0.1779
 3209TIP3    H231187   5.671   4.718   8.360  1.1818  0.2993 -0.7914
 3210TIP3   OH231188   5.966   1.196   0.294 -0.2630  0.5319  0.1046
 3210TIP3    H131189   5.995   1.163   0.209  1.8061  1.0654  0.5340
 3210TIP3    H231190   5.982   1.124   0.354  0.6708  0.9887  0.4250
 3211TIP3   OH231191   5.526   2.719   1.877  0.2190 -0.1650 -0.3287
 3211TIP3    H131192   5.467   2.663   1.827  0.0644 -1.1804  0.9460
 3211TIP3    H231193   5.581   2.762   1.810 -0.0304 -1.3983 -1.3670
 3212TIP3   OH231194   1.738   0.967   8.604 -0.7429  0.3269  0.4173
 3212TIP3    H131195   1.650   0.990   8.632 -0.4825  2.2141 -0.1239
 3212TIP3    H231196   1.793   0.984   8.680 -0.7496 -0.0828  0.5136
 3213TIP3   OH231197   1.872   4.349   1.232  0.5920  0.7268  0.0645
 3213TIP3    H131198   1.915   4.266   1.211  1.4094  0.8869  0.9932
 3213TIP3    H231199   1.900   4.409   1.163 -0.3464  0.1310 -0.8467
 3214TIP3   OH231200   2.316   0.099   8.424 -0.8136  0.1649  0.5075
 3214TIP3    H131201   2.308   0.026   8.486  0.7908 -0.1765  0.3591
 3214TIP3    H231202   2.369   0.164   8.471  1.6626 -0.6862 -0.9256
 3215TIP3   OH231203   2.586   1.709   7.365  0.3981 -0.0770 -0.4917
 3215TIP3    H131204   2.518   1.687   7.302  2.3119 -0.9336 -2.3619
 3215TIP3    H231205   2.634   1.627   7.379  2.2161  0.8990 -0.7277
 3216TIP3   OH231206   4.280   2.621   0.111 -0.4571 -0.3164 -0.3922
 3216TIP3    H131207   4.354   2.663   0.068 -0.8939  1.4756  0.4822
 3216TIP3    H231208   4.317   2.547   0.159  0.5664 -0.1541 -0.9223
 3217TIP3   OH231209   3.637   4.327   1.080 -0.5025  0.0918  0.7624
 3217TIP3    H131210   3.635   4.391   1.151 -0.1130  1.1660 -0.1580
 3217TIP3    H231211   3.714   4.274   1.099 -0.2701  0.5135  1.0372
 3218TIP3   OH231212   1.139   2.198   7.742  0.6639 -0.2412 -0.4349
 3218TIP3    H131213   1.127   2.266   7.675  0.1738 -1.1675 -1.3298
 3218TIP3    H231214   1.225   2.161   7.723 -0.1979 -1.7157 -1.7613
 3219TIP3   OH231215   3.657   2.577   0.713 -0.1813 -0.2814  0.2061
 3219TIP3    H131216   3.715   2.579   0.637 -0.3670  0.7796  0.0768
 3219TIP3    H231217   3.589   2.513   0.690  0.0422 -0.3418 -0.3057
 3220TIP3   OH231218   0.031   2.636   1.077  0.0283  0.2565  0.8145
 3220TIP3    H131219   0.086   2.661   1.003 -1.3996  1.3339  0.0744
 3220TIP3    H231220   0.091   2.594   1.138  1.0953 -1.6871 -1.3779
 3221TIP3   OH231221   5.658   5.586   7.452  0.8662 -0.3717  0.1178
 3221TIP3    H131222   5.565   5.581   7.430  0.9135  0.8051 -0.4422
 3221TIP3    H231223   5.660   5.642   7.530  1.1989  1.0074 -0.8331
 3222TIP3   OH231224   3.960   0.566   1.212 -0.4335 -0.0428 -0.0425
 3222TIP3    H131225   3.895   0.515   1.260  0.4832 -1.6290 -0.4099
 3222TIP3    H231226   4.044   0.526   1.234  0.0613 -0.5752 -2.6058
 3223TIP3   OH231227   1.906   0.406   2.690 -0.0068  0.3847 -0.1064
 3223TIP3    H131228   1.975   0.466   2.720 -0.1057  0.8141 -0.7165
 3223TIP3    H231229   1.847   0.397   2.765 -0.8323  2.2770 -0.4665
 3224TIP3   OH231230   2.729   2.465   1.296 -0.3647 -0.2104  0.0707
 3224TIP3    H131231   2.772   2.539   1.339 -0.4838 -0.5148  0.7297
 3224TIP3    H231232   2.640   2.496   1.278 -0.4232 -0.1976  0.3701
 3225TIP3   OH231233   0.716   3.742   3.383 -0.0462 -0.9475  0.6352
 3225TIP3    H131234   0.629   3.781   3.377  0.0989 -0.7194 -0.1115
 3225TIP3    H231235   0.711   3.662   3.331 -0.3388 -1.9606  2.1578
 3226TIP3   OH231236   2.818   6.519   1.497  0.5177 -0.8521 -0.1175
 3226TIP3    H131237   2.764   6.465   1.439  1.1299 -3.5727  1.6756
 3226TIP3    H231238   2.765   6.529   1.576  1.5754 -1.3437  0.6672
 3227TIP3   OH231239   5.149   6.697   7.592  1.0097  0.1465 -0.4008
 3227TIP3    H131240   5.134   6.766   7.657  1.7718  0.1895 -0.2719
 3227TIP3    H231241   5.122   6.737   7.509 -1.9083 -0.5488  0.0789
 3228TIP3   OH231242   2.319   3.261   0.066 -0.0787  0.3968 -0.2849
 3228TIP3    H131243   2.385   3.253   0.135 -1.0189  2.4474  0.9418
 3228TIP3    H231244   2.370   3.275  -0.014  1.0008  0.4065  0.3776
 3229TIP3   OH231245   2.791   1.680   1.726 -0.5618 -0.4065 -0.2291
 3229TIP3    H131246   2.815   1.628   1.803  0.9212 -1.5945 -1.4429
 3229TIP3    H231247   2.867   1.736   1.710 -0.3627 -1.0218 -1.5226
 3230TIP3   OH231248   3.558   4.870   0.708 -0.0736  0.1991  0.2940
 3230TIP3    H131249   3.579   4.783   0.674  0.1479  0.6104 -0.6515
 3230TIP3    H231250   3.632   4.925   0.681  0.9105  0.2401  2.7983
 3231TIP3   OH231251   1.710   0.999   8.232  0.1889  0.7004 -0.2450
 3231TIP3    H131252   1.737   1.060   8.164  0.8069  1.2018  0.4370
 3231TIP3    H231253   1.621   1.025   8.255  0.1811  0.8720 -0.4742
 3232TIP3   OH231254   1.115   1.022   0.362  0.1502 -0.0189  0.0774
 3232TIP3    H131255   1.137   0.928   0.361  1.6461  0.2968 -0.2791
 3232TIP3    H231256   1.141   1.052   0.275 -2.8144  0.2428 -0.8010
 3233TIP3   OH231257   3.415   6.632   2.301  0.4444  0.0879 -0.0908
 3233TIP3    H131258   3.460   6.567   2.355  0.7975  0.2139 -0.2275
 3233TIP3    H231259   3.328   6.641   2.340  0.4916 -0.2593  0.0965
 3234TIP3   OH231260   5.004   5.979   1.023 -0.2707 -0.2831  0.1083
 3234TIP3    H131261   5.086   5.940   1.054  1.1241  2.2595 -0.1608
 3234TIP3    H231262   5.012   5.976   0.928  1.3204  3.1857 -0.0235
 3235TIP3   OH231263   0.219   2.166   0.947 -0.0231 -0.1381  0.2174
 3235TIP3    H131264   0.254   2.247   0.983 -0.0166 -0.0642  0.0474
 3235TIP3    H231265   0.241   2.099   1.011  0.6497 -0.1332 -0.0017
 3236TIP3   OH231266   5.322   5.804   2.897  0.6630 -0.2864  0.2301
 3236TIP3    H131267   5.408   5.771   2.923  1.0378 -0.4035 -1.1330
 3236TIP3    H231268   5.332   5.899   2.896  1.1550 -0.3442 -1.1814
 3237TIP3   OH231269   5.680   3.729   8.808  0.5032 -0.1641  0.4097
 3237TIP3    H131270   5.717   3.653   8.764  1.1648  0.0010  0.6756
 3237TIP3    H231271   5.592   3.700   8.834  0.5517 -0.6568  0.0447
 3238TIP3   OH231272   1.991   4.699   1.206  0.3267 -0.1042  0.1578
 3238TIP3    H131273   1.965   4.644   1.132  0.6563 -0.4967  0.3293
 3238TIP3    H231274   1.934   4.669   1.278  1.0909 -0.8239  0.4798
 3239TIP3   OH231275   1.454   1.226   0.492  0.0955  0.4234  0.6051
 3239TIP3    H131276   1.477   1.139   0.458 -1.8667 -0.0220  0.2495
 3239TIP3    H231277   1.532   1.279   0.478  0.6525 -0.7514 -1.1055
 3240TIP3   OH231278   3.660   3.221   0.422 -0.1426  0.8375  0.4410
 3240TIP3    H131279   3.668   3.301   0.473  0.9067  0.2593  1.2144
 3240TIP3    H231280   3.746   3.179   0.429 -0.4936 -0.0689 -0.4344
 3241TIP3   OH231281   2.367   0.620   1.585  0.6034  0.1411  0.0069
 3241TIP3    H131282   2.440   0.682   1.580 -0.5723  1.5828  0.0475
 3241TIP3    H231283   2.325   0.640   1.669 -1.1572  0.8986 -1.0083
 3242TIP3   OH231284   2.185   1.142   8.732  0.1354  0.2941  0.0041
 3242TIP3    H131285   2.227   1.069   8.685  0.7828  0.2932  0.5693
 3242TIP3    H231286   2.214   1.220   8.686  1.5243  0.3591  0.9334
 3243TIP3   OH231287   4.309   3.449   2.440  0.1174 -0.2901 -0.1728
 3243TIP3    H131288   4.339   3.359   2.432  0.9157 -0.0423 -0.0128
 3243TIP3    H231289   4.214   3.443   2.431  0.1018 -1.2200  0.4735
 3244TIP3   OH231290   3.156   2.142   0.549  0.3396  0.0918  0.2686
 3244TIP3    H131291   3.112   2.223   0.575 -0.6638  0.5020 -2.3159
 3244TIP3    H231292   3.114   2.074   0.602 -0.4344  0.9920  0.8524
 3245TIP3   OH231293   4.547   4.763   8.227 -0.2152  0.0866  0.1249
 3245TIP3    H131294   4.480   4.695   8.223  0.4306 -0.5964  0.7455
 3245TIP3    H231295   4.605   4.743   8.153 -0.7713  0.7809 -0.5195
 3246TIP3   OH231296   4.758   5.290   0.190 -0.3429 -0.2436  0.1220
 3246TIP3    H131297   4.740   5.290   0.096  1.6058  1.2547 -0.3153
 3246TIP3    H231298   4.702   5.360   0.224  0.2269  0.4086 -0.2472
 3247TIP3   OH231299   0.726   1.781   8.686  0.3375 -0.0571  0.3775
 3247TIP3    H131300   0.639   1.821   8.690  0.2804 -0.1167 -0.1652
 3247TIP3    H231301   0.708   1.687   8.683  0.3122 -0.0457 -1.6625
 3248TIP3   OH231302   2.144   0.963   1.114 -0.1360 -0.0203  0.2422
 3248TIP3    H131303   2.069   1.022   1.115  0.2301  0.4529  0.2405
 3248TIP3    H231304   2.117   0.890   1.057 -0.4035  0.3888 -0.1588
 3249TIP3   OH231305   4.942   6.683   2.091  0.0488  0.0547  0.2072
 3249TIP3    H131306   4.966   6.713   2.179  1.7368  2.4643 -0.9462
 3249TIP3    H231307   4.994   6.603   2.078 -0.5132 -0.5534  1.4781
 3250TIP3   OH231308   1.376   6.281   3.113 -0.7359  0.1250  0.5578
 3250TIP3    H131309   1.291   6.267   3.073 -0.9013 -2.6779  1.6295
 3250TIP3    H231310   1.360   6.342   3.185 -1.2842  1.6332 -0.8016
 3251TIP3   OH231311   0.902   6.665   1.151  0.0842 -0.2672  0.2661
 3251TIP3    H131312   0.897   6.654   1.246  0.3664  1.6599  0.5449
 3251TIP3    H231313   0.817   6.635   1.119 -1.8857  3.2325  1.6690
 3252TIP3   OH231314   3.607   3.759   8.608  0.0632  0.2800 -0.1885
 3252TIP3    H131315   3.682   3.740   8.552  0.1678  1.2699 -0.4096
 3252TIP3    H231316   3.532   3.721   8.561 -0.0390  2.1601 -1.6891
 3253TIP3   OH231317   0.265   3.703   0.769  0.8986 -0.8489  0.9359
 3253TIP3    H131318   0.177   3.704   0.731  1.1937 -0.3267  0.2336
 3253TIP3    H231319   0.311   3.634   0.721  1.7891  0.9337 -0.9557
 3254TIP3   OH231320   2.259   2.626   2.501  0.0397  0.0986  0.1625
 3254TIP3    H131321   2.276   2.660   2.413 -1.5075 -0.1239 -0.2644
 3254TIP3    H231322   2.180   2.672   2.529 -0.0611 -0.5689  1.0218
 3255TIP3   OH231323   3.872   3.721   8.669 -0.1028 -0.4352  0.3404
 3255TIP3    H131324   3.917   3.678   8.742  0.1128 -1.7802 -0.5378
 3255TIP3    H231325   3.783   3.686   8.673 -0.0090 -0.7513 -0.1975
 3256TIP3   OH231326   4.554   0.892   2.930 -0.0270  0.5833 -0.1036
 3256TIP3    H131327   4.611   0.908   2.855 -1.7456  1.8312 -1.2180
 3256TIP3    H231328   4.535   0.979   2.965 -1.2202  0.1902  0.2655
 3257TIP3   OH231329   6.122   2.276   1.190 -0.4859  0.1384  0.3251
 3257TIP3    H131330   6.112   2.190   1.230 -0.8929  0.0273 -0.0217
 3257TIP3    H231331   6.048   2.285   1.131  0.1095  0.3042 -0.4141
 3258TIP3   OH231332   1.262   1.245   7.542  0.5107 -0.2134 -0.0838
 3258TIP3    H131333   1.353   1.218   7.542  0.3819 -0.8565  2.0336
 3258TIP3    H231334   1.247   1.283   7.455  2.0516 -2.4435 -1.4010
 3259TIP3   OH231335   5.376   5.127   8.724  0.2632 -0.4387  0.3672
 3259TIP3    H131336   5.397   5.096   8.636  2.2833 -0.0886  0.6876
 3259TIP3    H231337   5.343   5.216   8.711  0.6090 -0.3664 -0.0289
 3260TIP3   OH231338   5.136   4.806   1.896  0.3348  0.2577  0.2541
 3260TIP3    H131339   5.132   4.902   1.895  0.5747  0.2683  0.2683
 3260TIP3    H231340   5.223   4.785   1.863  0.5258  0.0605  0.8745
 3261TIP3   OH231341   4.792   2.019   0.957  0.1297 -0.0320  1.1489
 3261TIP3    H131342   4.767   2.109   0.939  0.1724 -0.0583  0.9532
 3261TIP3    H231343   4.718   1.982   1.005  0.7676  0.5703  2.6751
 3262TIP3   OH231344   6.234   4.773   1.194  0.5132  0.3320  0.1261
 3262TIP3    H131345   6.175   4.836   1.153  0.4528  0.4799  0.4379
 3262TIP3    H231346   6.300   4.827   1.237  1.2599  0.1657 -0.7667
 3263TIP3   OH231347   2.212   6.484   0.681 -0.2654 -0.1631  0.1029
 3263TIP3    H131348   2.211   6.438   0.598  0.8588  0.6635 -0.3940
 3263TIP3    H231349   2.156   6.561   0.667 -1.4776 -0.9211  0.6717
 3264TIP3   OH231350   0.456   4.211   0.628  0.6125 -0.3652  0.1101
 3264TIP3    H131351   0.497   4.207   0.541  0.5555  1.2925 -0.0228
 3264TIP3    H231352   0.495   4.288   0.669  1.4334 -1.6962  2.0045
 3265TIP3   OH231353   1.307   4.529   6.800 -0.1743 -0.5666  0.0124
 3265TIP3    H131354   1.287   4.532   6.894  0.7735 -1.2203  0.2496
 3265TIP3    H231355   1.245   4.590   6.760 -0.2907  0.0639  1.1187
 3266TIP3   OH231356   1.114   3.203   8.144  0.1207  0.4333  0.1220
 3266TIP3    H131357   1.117   3.107   8.146  1.0456  0.4610  0.7451
 3266TIP3    H231358   1.205   3.230   8.158  0.0980  1.3927 -1.4210
 3267TIP3   OH231359   2.325   2.270   0.359  0.0918 -0.1752 -0.4450
 3267TIP3    H131360   2.343   2.340   0.296  1.0216  0.2393  0.2624
 3267TIP3    H231361   2.397   2.208   0.348  1.0705  0.6135  1.1819
 3268TIP3   OH231362   1.536   0.869   0.961 -0.0003 -0.4751  0.0172
 3268TIP3    H131363   1.606   0.862   0.896 -0.9033  0.8057 -1.1683
 3268TIP3    H231364   1.564   0.941   1.018 -0.1145 -0.2909 -0.1575
 3269TIP3   OH231365   1.566   3.952   7.475 -0.0378  0.0544  0.4100
 3269TIP3    H131366   1.574   3.881   7.411 -1.0830 -1.6655  2.0651
 3269TIP3    H231367   1.619   3.923   7.549  0.0349  1.3200  0.8705
 3270TIP3   OH231368   2.562   3.298   0.174 -0.0444 -0.1334 -0.0069
 3270TIP3    H131369   2.550   3.386   0.209 -1.1003 -0.9152  1.7148
 3270TIP3    H231370   2.611   3.311   0.093  0.2853  1.9814  0.4766
 3271TIP3   OH231371   0.975   1.328   7.908 -0.2325 -0.0087 -0.1086
 3271TIP3    H131372   0.972   1.366   7.996  0.6685  0.7776 -0.4079
 3271TIP3    H231373   0.885   1.336   7.876  0.1824  3.4854 -0.7899
 3272TIP3   OH231374   1.766   5.950   0.409  0.1064 -0.0528  0.4169
 3272TIP3    H131375   1.782   5.889   0.337  1.4445 -2.4340  2.5444
 3272TIP3    H231376   1.849   5.995   0.421 -0.6471  1.7137 -0.6235
 3273TIP3   OH231377   1.199   5.187   0.704  0.2935  0.1243  0.0662
 3273TIP3    H131378   1.159   5.259   0.752 -0.9366  0.2381 -1.0840
 3273TIP3    H231379   1.205   5.116   0.768  0.2090  0.7813  0.8207
 3274TIP3   OH231380   5.185   3.833   7.418 -0.3974  0.1841 -0.0539
 3274TIP3    H131381   5.113   3.775   7.393 -1.3223  1.8163 -1.3172
 3274TIP3    H231382   5.185   3.902   7.352  2.1128  0.4406  0.1361
 3275TIP3   OH231383   0.133   6.041   0.780  0.0192  0.4869 -0.0874
 3275TIP3    H131384   0.150   5.950   0.805  3.1447  0.9552 -0.0757
 3275TIP3    H231385   0.160   6.045   0.688  1.0895  1.6489  0.2595
 3276TIP3   OH231386   6.251   0.947   2.645  0.4429  0.1368  0.3535
 3276TIP3    H131387   6.271   0.881   2.578 -3.4766  0.0250 -0.9355
 3276TIP3    H231388   6.233   0.896   2.724 -0.2835 -0.1968 -0.0183
 3277TIP3   OH231389   0.519   6.600   2.237 -0.3532 -0.2354  0.1503
 3277TIP3    H131390   0.453   6.540   2.201 -0.1041 -0.1970 -0.3788
 3277TIP3    H231391   0.540   6.659   2.164  1.3866 -1.2065 -0.1902
 3278TIP3   OH231392   6.640   1.203   1.729 -0.1747 -0.0227 -0.0410
 3278TIP3    H131393   6.647   1.152   1.648 -2.0090 -0.4460  0.0375
 3278TIP3    H231394   6.555   1.181   1.765  0.0423  1.1871  1.3317
 3279TIP3   OH231395   2.341   1.087   8.183 -0.2272  0.2901 -0.1285
 3279TIP3    H131396   2.367   1.162   8.236  0.5130  0.1941 -0.3544
 3279TIP3    H231397   2.395   1.092   8.104  0.0229 -0.6174 -0.0328
 3280TIP3   OH231398   4.242   2.001   8.438  0.7531 -0.3531 -0.1946
 3280TIP3    H131399   4.293   2.034   8.364  2.3621 -1.0576  0.5638
 3280TIP3    H231400   4.199   2.079   8.474  0.9469  0.1881 -1.1011
 3281TIP3   OH231401   0.666   4.560   1.574 -0.1160  0.0127 -0.3227
 3281TIP3    H131402   0.729   4.488   1.567  1.2005  0.8805  1.5794
 3281TIP3    H231403   0.701   4.628   1.517 -0.1192 -0.0416 -0.3890
 3282TIP3   OH231404   4.678   2.070   1.451 -0.5988 -0.9761 -0.3329
 3282TIP3    H131405   4.690   1.987   1.404  0.9094 -0.5548 -0.7561
 3282TIP3    H231406   4.759   2.118   1.435 -0.4900 -0.3436  1.8125
 3283TIP3   OH231407   0.268   2.581   3.249  0.5510 -0.2918 -0.3177
 3283TIP3    H131408   0.231   2.506   3.296 -0.1065  0.0388 -0.2841
 3283TIP3    H231409   0.244   2.567   3.158  1.0278 -0.4691 -0.4167
 3284TIP3   OH231410   3.054   4.552   8.342 -1.3416  0.4857 -0.0394
 3284TIP3    H131411   3.087   4.617   8.280 -0.6570  0.5309  0.3647
 3284TIP3    H231412   3.007   4.603   8.408 -3.7380  0.3151 -1.4751
 3285TIP3   OH231413   2.387   1.797   7.606 -0.4008 -0.3552 -0.4492
 3285TIP3    H131414   2.450   1.725   7.599  0.8188  0.8256 -2.5307
 3285TIP3    H231415   2.303   1.758   7.579 -0.0142 -1.2786 -0.3662
 3286TIP3   OH231416   3.851   4.195   1.192  0.2657 -0.1584  0.1076
 3286TIP3    H131417   3.804   4.213   1.274 -0.6576 -1.7231 -0.0464
 3286TIP3    H231418   3.943   4.199   1.217  0.3395  4.7213  0.0741
 3287TIP3   OH231419   6.533   5.134   3.121 -0.3354  0.3707 -0.2744
 3287TIP3    H131420   6.615   5.113   3.165 -0.6214 -0.8583 -0.3067
 3287TIP3    H231421   6.510   5.055   3.073 -1.0952  1.0020 -0.9767
 3288TIP3   OH231422   3.289   4.175   1.737 -0.5715 -0.7650 -0.5988
 3288TIP3    H131423   3.303   4.093   1.785  2.2351 -0.8748 -1.4463
 3288TIP3    H231424   3.216   4.217   1.783  1.0259 -1.4689  2.9629
 3289TIP3   OH231425   1.668   2.042   7.921  0.2603  1.1323  0.1754
 3289TIP3    H131426   1.646   2.044   7.828  0.1807 -0.0014  0.1519
 3289TIP3    H231427   1.589   2.073   7.965 -0.0597  0.7212 -0.0952
 3290TIP3   OH231428   1.834   0.690   8.429  0.3330  0.1458 -0.2447
 3290TIP3    H131429   1.746   0.671   8.396 -0.3597 -2.5386  2.6184
 3290TIP3    H231430   1.891   0.628   8.385  0.3551  0.1768 -0.2607
 3291TIP3   OH231431   1.868   3.515   0.704 -0.7622  0.2056  0.1178
 3291TIP3    H131432   1.926   3.557   0.640  1.2201 -0.5251  1.3541
 3291TIP3    H231433   1.816   3.453   0.652 -1.2078  1.5895 -1.1722
 3292TIP3   OH231434   0.173   0.955   0.115  0.4870 -0.8298  0.6224
 3292TIP3    H131435   0.103   0.997   0.165  0.8982  0.2942  0.2897
 3292TIP3    H231436   0.150   0.863   0.114 -0.1823 -0.6898  1.8223
 3293TIP3   OH231437   5.216   4.704   2.755 -0.6621  0.5253 -0.2642
 3293TIP3    H131438   5.168   4.740   2.681  0.1031  0.3845 -0.8404
 3293TIP3    H231439   5.199   4.610   2.753 -0.7372  0.5372 -0.1898
 3294TIP3   OH231440   4.984   0.856   1.950  0.3799 -0.0818 -0.2098
 3294TIP3    H131441   5.008   0.922   2.014  0.6472  0.0348 -0.4263
 3294TIP3    H231442   4.945   0.905   1.878 -0.1779 -0.2374 -0.0214
 3295TIP3   OH231443   2.581   1.075   8.533  0.2796  0.0076  0.4383
 3295TIP3    H131444   2.515   1.039   8.593  0.6293  0.1901  0.9428
 3295TIP3    H231445   2.533   1.137   8.479 -0.2437 -0.8816 -0.1435
 3296TIP3   OH231446   6.551   2.654   1.000  0.4196  0.1220  0.1981
 3296TIP3    H131447   6.645   2.664   1.012  0.5305 -0.3879 -0.2344
 3296TIP3    H231448   6.533   2.563   1.020  0.1837 -0.0441 -0.7434
 3297TIP3   OH231449   2.867   4.409   1.368 -0.4515 -0.3353 -0.3939
 3297TIP3    H131450   2.772   4.404   1.369 -0.5559  1.1870  0.3310
 3297TIP3    H231451   2.896   4.317   1.372 -1.8887 -0.7789  1.6892
 3298TIP3   OH231452   2.969   3.981   0.806 -0.1629  0.0850  0.3504
 3298TIP3    H131453   3.016   4.061   0.783 -0.3051 -0.0945 -0.5872
 3298TIP3    H231454   2.939   3.946   0.723 -0.2465 -0.8611  0.7678
 3299TIP3   OH231455   6.761   0.068   2.117 -0.0608  0.1717 -0.1082
 3299TIP3    H131456   6.717  -0.016   2.108 -1.5971  0.6768  1.8075
 3299TIP3    H231457   6.847   0.047   2.153  1.3571 -0.8123 -3.5993
 3300TIP3   OH231458   2.993   5.620   2.942  0.1093 -0.0305  0.3185
 3300TIP3    H131459   3.024   5.710   2.949 -0.2899  0.1948 -0.7264
 3300TIP3    H231460   3.056   5.569   2.994  1.7467  0.5269 -1.0282
 3301TIP3   OH231461   0.643   1.023   0.598  0.0836  0.0799  0.2899
 3301TIP3    H131462   0.555   0.999   0.568  0.0949 -0.7042  0.8275
 3301TIP3    H231463   0.694   1.033   0.518  0.3352 -2.8317 -0.0255
 3302TIP3   OH231464   5.449   5.646   0.023  0.3065 -0.1408  0.8296
 3302TIP3    H131465   5.469   5.573  -0.035  1.1383  0.0516  0.8674
 3302TIP3    H231466   5.534   5.682   0.048  0.0126 -0.5739  2.6236
 3303TIP3   OH231467   3.622   4.969   0.377 -0.6347 -0.0672  0.7445
 3303TIP3    H131468   3.692   5.008   0.325 -1.8624 -0.0378 -0.9825
 3303TIP3    H231469   3.613   4.880   0.342 -0.9901 -0.3123  1.4323
 3304TIP3   OH231470   3.814   5.886   3.085  0.4679  0.3688 -0.0179
 3304TIP3    H131471   3.806   5.816   3.020  0.3161  1.7389 -1.5287
 3304TIP3    H231472   3.776   5.963   3.042 -0.2683  1.1753  1.9553
 3305TIP3   OH231473   6.071   2.547   0.452 -0.1978 -0.3902 -0.1336
 3305TIP3    H131474   6.000   2.605   0.427  0.2688  0.5900  0.7596
 3305TIP3    H231475   6.128   2.544   0.374 -1.5080 -1.7115 -1.0918
 3306TIP3   OH231476   5.353   4.172   7.027 -0.2209  0.0046  0.0607
 3306TIP3    H131477   5.318   4.256   6.999 -0.5339 -0.1055  0.1161
 3306TIP3    H231478   5.437   4.164   6.982 -0.4220  0.1229 -0.3329
 3307TIP3   OH231479   5.889   2.660   1.890  0.0309  0.7862 -0.0109
 3307TIP3    H131480   5.861   2.687   1.802  0.7824  0.9825 -0.1982
 3307TIP3    H231481   5.971   2.708   1.904  0.7420 -0.4455  0.1604
 3308TIP3   OH231482   0.884   4.627   1.421  0.1830 -0.3591 -0.2720
 3308TIP3    H131483   0.844   4.706   1.384  2.1868  0.8133 -0.0916
 3308TIP3    H231484   0.893   4.568   1.346 -0.7609 -0.1749 -0.5400
 3309TIP3   OH231485   6.144   3.611   8.455  0.2426  0.4140 -0.1291
 3309TIP3    H131486   6.237   3.592   8.441  0.5801  1.3303  0.7129
 3309TIP3    H231487   6.134   3.702   8.429 -0.8400 -0.1795 -1.9425
 3310TIP3   OH231488   4.483   4.622   8.642  0.1038  0.6062 -0.6729
 3310TIP3    H131489   4.414   4.555   8.642  0.7561 -0.0812 -1.3223
 3310TIP3    H231490   4.445   4.695   8.594 -0.1338  0.1830 -1.1350
 3311TIP3   OH231491   5.725   4.292   0.165  0.1446 -0.1156 -0.2850
 3311TIP3    H131492   5.684   4.307   0.250  1.4859 -0.5543  0.4537
 3311TIP3    H231493   5.805   4.244   0.184  0.3334 -0.4770 -1.8264
 3312TIP3   OH231494   5.364   1.393   8.342  0.6090  0.1886 -0.4276
 3312TIP3    H131495   5.434   1.391   8.408 -0.1822 -0.4818  0.4297
 3312TIP3    H231496   5.302   1.326   8.372 -0.2005  0.4922 -1.3860
 3313TIP3   OH231497   1.221   6.743   0.897 -0.1405 -0.2591 -0.2392
 3313TIP3    H131498   1.184   6.660   0.927 -1.2462  0.5924  0.8371
 3313TIP3    H231499   1.226   6.797   0.975  1.8242  0.2594 -0.6741
 3314TIP3   OH231500   4.435   0.821   0.971  0.2317  0.1336  0.1982
 3314TIP3    H131501   4.478   0.904   0.991  0.7279 -0.6164  2.5718
 3314TIP3    H231502   4.405   0.788   1.056  1.0034 -2.6032 -0.4744
 3315TIP3   OH231503   0.866   2.999   7.385  0.1517  0.4188 -0.4876
 3315TIP3    H131504   0.887   2.998   7.292  0.1381 -1.8612 -0.5225
 3315TIP3    H231505   0.945   3.032   7.427  0.6514  0.1855 -1.2199
 3316TIP3   OH231506   2.849   0.366   0.924 -0.1537  0.3501  0.3113
 3316TIP3    H131507   2.892   0.375   1.010 -1.2169 -0.2544  0.9265
 3316TIP3    H231508   2.769   0.318   0.943  0.0208 -0.5640 -1.1702
 3317TIP3   OH231509   5.676   2.053   1.596 -0.2870 -0.3395  0.4311
 3317TIP3    H131510   5.610   1.983   1.598 -0.6815  0.0335  0.8917
 3317TIP3    H231511   5.687   2.073   1.503 -0.8944 -0.3475  0.3535
 3318TIP3   OH231512   6.081   1.714   2.521  0.0765  0.9357 -0.1849
 3318TIP3    H131513   6.119   1.740   2.437  0.6068  1.3436  0.1816
 3318TIP3    H231514   6.123   1.630   2.542  0.9006  1.4635  0.2973
 3319TIP3   OH231515   5.877   1.871   2.836 -0.1672  0.4077  0.5777
 3319TIP3    H131516   5.952   1.919   2.869  1.7806 -2.3277  0.5120
 3319TIP3    H231517   5.819   1.861   2.911  0.3980  1.0168  1.1029
 3320TIP3   OH231518   6.120   1.807   2.204  0.9016 -0.1339 -0.0825
 3320TIP3    H131519   6.029   1.783   2.184  0.8628  0.4608 -0.6639
 3320TIP3    H231520   6.172   1.740   2.159  0.7490 -1.8436  2.1342
 3321TIP3   OH231521   0.144   5.279   2.946  0.2030 -0.3555 -0.1893
 3321TIP3    H131522   0.183   5.218   3.009  0.3248 -1.8696 -1.6578
 3321TIP3    H231523   0.175   5.248   2.861 -3.0776 -0.8305 -1.3329
 3322TIP3   OH231524   1.439   6.779   1.178  0.1683 -0.4701 -0.3078
 3322TIP3    H131525   1.421   6.796   1.270 -0.0315 -1.0008 -0.2416
 3322TIP3    H231526   1.414   6.859   1.133 -1.1170 -0.7032 -0.0564
 3323TIP3   OH231527   1.433   0.832   0.341 -1.0206  0.2020 -0.7716
 3323TIP3    H131528   1.381   0.840   0.421 -1.9697  1.9204 -1.5135
 3323TIP3    H231529   1.449   0.738   0.333  0.2029  0.0623  2.0805
 3324TIP3   OH231530   3.016   3.559   7.438  0.2001  0.6623  0.1936
 3324TIP3    H131531   3.077   3.494   7.401  0.9730  0.9468  0.9132
 3324TIP3    H231532   2.929   3.523   7.422  0.5765  0.0706 -0.5518
 3325TIP3   OH231533   0.036   1.340   8.015  0.1374  0.1743  0.0429
 3325TIP3    H131534   0.077   1.342   7.928  0.3503 -0.1784  0.1309
 3325TIP3    H231535  -0.058   1.346   7.997  0.1566 -0.2991 -0.2442
 3326TIP3   OH231536   5.771   2.048   8.338  0.2326  0.0168  0.3037
 3326TIP3    H131537   5.740   2.077   8.424 -1.2766 -0.8585  0.0869
 3326TIP3    H231538   5.738   1.959   8.330  1.9492 -0.5902 -0.4279
 3327TIP3   OH231539   6.683   5.757   2.083 -0.5456  0.5620 -0.2120
 3327TIP3    H131540   6.588   5.744   2.084 -0.6425  1.2707  0.5198
 3327TIP3    H231541   6.710   5.745   2.174 -0.2203  2.2652 -0.0479
 3328TIP3   OH231542   0.042   6.452   2.290 -0.0355  0.1900  0.8446
 3328TIP3    H131543  -0.006   6.447   2.373 -1.7389  0.8827 -0.0330
 3328TIP3    H231544   0.104   6.380   2.293  0.3219  0.5231  2.9393
 3329TIP3   OH231545   4.402   2.977   7.684  0.2546  0.2141 -0.2279
 3329TIP3    H131546   4.452   2.964   7.603 -1.3728  1.3318 -1.4730
 3329TIP3    H231547   4.467   2.967   7.754  1.7200 -0.7643 -1.6468
 3330TIP3   OH231548   5.120   6.302   3.508  0.1377 -0.3603  0.3351
 3330TIP3    H131549   5.108   6.393   3.480 -1.7663 -0.9184 -0.8531
 3330TIP3    H231550   5.214   6.295   3.526  0.4733  1.6020 -0.3645
 3331TIP3   OH231551   1.472   3.741   1.059 -0.3449 -0.2645  0.2350
 3331TIP3    H131552   1.447   3.824   1.019 -1.8534 -1.1703 -0.8473
 3331TIP3    H231553   1.555   3.718   1.018  0.0987  0.7147  0.5718
 3332TIP3   OH231554   3.988   5.210   0.817 -0.5362  0.2811 -0.0027
 3332TIP3    H131555   3.903   5.249   0.836 -0.8007  1.3770 -2.9404
 3332TIP3    H231556   4.047   5.284   0.804  1.0247 -0.4530  2.1820
 3333TIP3   OH231557   0.598   4.369   1.798  0.2035 -0.0216 -0.2525
 3333TIP3    H131558   0.669   4.328   1.846 -0.6745 -1.7173 -0.3360
 3333TIP3    H231559   0.642   4.426   1.734  1.5188 -1.5502 -0.7737
 3334TIP3   OH231560   5.109   4.949   7.773  0.1680  0.0583  0.5805
 3334TIP3    H131561   5.054   5.025   7.752 -1.1572 -1.2677 -1.0755
 3334TIP3    H231562   5.192   4.967   7.730 -0.4651  0.1604 -0.6371
 3335TIP3   OH231563   6.325   0.201   1.523  0.5077  0.1496 -0.4592
 3335TIP3    H131564   6.298   0.156   1.603  1.1103 -0.2854 -0.4885
 3335TIP3    H231565   6.392   0.143   1.485 -0.3140 -0.0497 -1.6827
 3336TIP3   OH231566   2.767   1.169   0.441  0.5752 -0.2798 -0.2118
 3336TIP3    H131567   2.809   1.114   0.507 -1.2110  0.4536  1.6572
 3336TIP3    H231568   2.734   1.245   0.490 -0.9043  0.2561 -1.9202
 3337TIP3   OH231569   0.605   0.012   0.905  0.0553 -0.5028 -0.2201
 3337TIP3    H131570   0.602  -0.015   0.813  0.9885 -0.1128 -0.3772
 3337TIP3    H231571   0.566   0.099   0.906 -0.9741 -0.9501 -0.0566
 3338TIP3   OH231572   3.369   3.219   2.985 -0.0176 -0.0350  0.5369
 3338TIP3    H131573   3.423   3.141   2.968 -1.1343 -0.8318  0.5006
 3338TIP3    H231574   3.394   3.281   2.918 -0.0021 -0.8561 -0.2351
 3339TIP3   OH231575   5.952   5.932   7.919 -0.1020  0.1908  0.1220
 3339TIP3    H131576   5.930   5.930   8.012  1.9745 -1.7002  0.6773
 3339TIP3    H231577   5.912   6.012   7.886 -0.1550  1.3764  2.8291
 3340TIP3   OH231578   1.502   6.733   2.919  0.5006 -0.1631  0.3571
 3340TIP3    H131579   1.412   6.764   2.910  0.1235 -1.4005 -0.4777
 3340TIP3    H231580   1.548   6.805   2.962 -0.9703  0.3244  1.1820
 3341TIP3   OH231581   1.980   4.995   6.920  0.3958  0.2770  0.8878
 3341TIP3    H131582   1.898   5.028   6.957 -0.7906 -0.4076 -1.0009
 3341TIP3    H231583   1.994   4.911   6.963 -0.1865  0.1558  0.8494
 3342TIP3   OH231584   6.792   0.982   2.279  0.5128  0.3897  0.2000
 3342TIP3    H131585   6.726   0.991   2.348  0.5220  1.7647  0.0442
 3342TIP3    H231586   6.741   0.973   2.199  0.5054  0.6329  0.1763
 3343TIP3   OH231587   2.795   4.799   7.638 -0.0248  0.0721 -0.1375
 3343TIP3    H131588   2.875   4.769   7.594  0.4679  0.8598  0.1802
 3343TIP3    H231589   2.824   4.875   7.688 -1.0743  0.6335 -0.3595
 3344TIP3   OH231590   4.483   6.167   0.726 -0.1456  0.3315 -0.1624
 3344TIP3    H131591   4.445   6.106   0.662 -0.4345  2.3461 -2.0048
 3344TIP3    H231592   4.577   6.148   0.725  0.1131  1.3864 -2.4924
 3345TIP3   OH231593   1.419   4.326   0.977 -0.0044 -0.1566 -0.5350
 3345TIP3    H131594   1.393   4.284   1.059  1.0385  0.1542 -0.0201
 3345TIP3    H231595   1.380   4.272   0.908 -0.4975 -0.6981  0.1590
 3346TIP3   OH231596   4.163   5.310   0.349 -0.6446  0.4138 -0.4084
 3346TIP3    H131597   4.101   5.348   0.412  0.8969  0.3308  1.2394
 3346TIP3    H231598   4.249   5.322   0.389  0.4906  0.8641 -2.7904
 3347TIP3   OH231599   1.883   3.249   2.524  0.0145  0.1972 -0.2958
 3347TIP3    H131600   1.948   3.318   2.510  1.1726 -0.1654  2.6449
 3347TIP3    H231601   1.923   3.171   2.483 -0.3350  0.7611 -1.7658
 3348TIP3   OH231602   4.619   6.047   3.034 -0.8720 -0.2220 -0.1190
 3348TIP3    H131603   4.603   5.963   2.991 -0.3659  0.4648 -1.7504
 3348TIP3    H231604   4.571   6.042   3.116  0.2046 -2.5997  0.4546
 3349TIP3   OH231605   5.606   3.112   1.326  0.1619 -0.2060  0.0783
 3349TIP3    H131606   5.695   3.112   1.362  0.6557  1.3909 -1.0146
 3349TIP3    H231607   5.611   3.174   1.253 -2.3124  1.3775  1.1360
 3350TIP3   OH231608   4.282   0.807   7.131 -0.2386 -0.1370 -0.2495
 3350TIP3    H131609   4.339   0.857   7.073 -0.0496 -1.6290 -1.3956
 3350TIP3    H231610   4.232   0.874   7.179  1.1160  1.1615 -0.5695
 3351TIP3   OH231611   1.384   4.444   7.725 -0.1258  0.2819  0.7714
 3351TIP3    H131612   1.452   4.417   7.663 -0.2442 -0.8837  1.1257
 3351TIP3    H231613   1.327   4.501   7.674 -0.8587 -1.5247 -0.5635
 3352TIP3   OH231614   0.657   1.917   0.498  0.1606  0.6423  0.1352
 3352TIP3    H131615   0.677   2.010   0.497 -0.3043  0.7406 -0.5986
 3352TIP3    H231616   0.645   1.893   0.406  0.5416 -0.2037  0.2884
 3353TIP3   OH231617   1.990   1.268   7.794  0.2122  0.0267  0.1576
 3353TIP3    H131618   1.935   1.345   7.783  1.2104  0.5219 -1.7806
 3353TIP3    H231619   2.044   1.265   7.715  1.0698 -1.9664  0.7500
 3354TIP3   OH231620   0.075   0.817   1.605  0.5007  0.7069  0.2613
 3354TIP3    H131621   0.141   0.781   1.545  0.8211 -2.3547  2.2000
 3354TIP3    H231622   0.125   0.872   1.665  1.3136 -1.2185  1.4331
 3355TIP3   OH231623   5.100   5.877   8.323  0.2085  0.1219  0.4154
 3355TIP3    H131624   5.159   5.819   8.371  0.8552 -0.3925 -0.9429
 3355TIP3    H231625   5.159   5.934   8.273 -0.4385  0.9738  0.6018
 3356TIP3   OH231626   5.750   6.621   1.158 -0.0087 -0.0383  0.1683
 3356TIP3    H131627   5.659   6.644   1.177  0.3058 -0.3021  2.2117
 3356TIP3    H231628   5.790   6.702   1.125 -0.5169  0.5863  1.0792
 3357TIP3   OH231629   2.421   4.992   2.338 -0.8569  0.1000 -0.0243
 3357TIP3    H131630   2.408   4.926   2.405  1.2577 -1.5289 -1.0964
 3357TIP3    H231631   2.489   5.050   2.374 -0.5146 -0.1237 -0.3045
 3358TIP3   OH231632   3.808   2.510   2.305  0.2026  0.2054  0.6152
 3358TIP3    H131633   3.891   2.478   2.269  0.0095 -1.1793  1.3681
 3358TIP3    H231634   3.794   2.458   2.384 -1.7754 -0.1330  0.0878
 3359TIP3   OH231635   5.491   2.962   2.279 -0.3809  0.3421  0.1446
 3359TIP3    H131636   5.533   3.043   2.307  3.2524 -0.6086 -1.7981
 3359TIP3    H231637   5.502   2.961   2.184 -0.8614 -2.1161  0.0362
 3360TIP3   OH231638   5.790   6.093   0.689  0.5793 -0.1072  0.6232
 3360TIP3    H131639   5.885   6.108   0.684  0.8462  0.2485  3.9844
 3360TIP3    H231640   5.782   6.007   0.731 -0.5863 -0.1402  0.3563
 3361TIP3   OH231641   2.852   0.023   8.286 -0.0436 -0.5492 -0.4625
 3361TIP3    H131642   2.897  -0.017   8.361 -0.1465  0.2388  0.0277
 3361TIP3    H231643   2.919   0.027   8.218  0.3549 -0.3002 -0.0621
 3362TIP3   OH231644   3.284   3.652   7.209  0.4235 -0.1334  0.1614
 3362TIP3    H131645   3.327   3.578   7.253  0.9589  1.5857  2.7457
 3362TIP3    H231646   3.200   3.662   7.254 -0.1996  0.0679 -1.0175
 3363TIP3   OH231647   5.396   2.528   1.705  0.1584 -0.2187  0.7060
 3363TIP3    H131648   5.424   2.438   1.718 -1.1155 -0.8344 -0.5149
 3363TIP3    H231649   5.392   2.538   1.610 -0.5143  0.8506  0.8246
 3364TIP3   OH231650   2.358   2.197   8.127 -0.1170 -0.2684  0.9706
 3364TIP3    H131651   2.419   2.124   8.127 -1.2375 -1.2577 -0.4673
 3364TIP3    H231652   2.367   2.236   8.040 -2.1086 -0.9654  0.4165
 3365TIP3   OH231653   0.815   0.535   1.056 -0.3729 -0.1689  0.4559
 3365TIP3    H131654   0.795   0.503   0.968 -0.4842  2.7444 -0.6574
 3365TIP3    H231655   0.910   0.527   1.063 -0.0942  1.4676 -0.7984
 3366TIP3   OH231656   3.474   1.753   8.344 -0.2599  0.4890  0.3638
 3366TIP3    H131657   3.492   1.767   8.437  0.0189  1.6233  0.1585
 3366TIP3    H231658   3.560   1.732   8.306 -0.4572 -0.4909  0.4385
 3367TIP3   OH231659   4.023   6.612   1.929  0.3886 -0.5696  0.3168
 3367TIP3    H131660   3.990   6.702   1.928 -2.2271 -1.4425  0.6493
 3367TIP3    H231661   3.978   6.569   1.857  2.1881 -1.4765 -0.3223
 3368TIP3   OH231662   5.278   3.111   1.143 -0.7053  0.4490 -0.5694
 3368TIP3    H131663   5.203   3.127   1.086 -1.6036 -1.5456 -0.0061
 3368TIP3    H231664   5.293   3.196   1.185 -1.9218  1.1764 -1.5060
 3369TIP3   OH231665   4.967   1.284   0.273 -0.3167 -0.1524 -0.3823
 3369TIP3    H131666   5.055   1.319   0.259  0.3222 -2.0151 -1.4844
 3369TIP3    H231667   4.982   1.196   0.309 -1.7785  0.0455  0.7984
 3370TIP3   OH231668   3.402   4.744   7.167 -0.8855  0.1200 -0.2324
 3370TIP3    H131669   3.336   4.711   7.105 -0.6415  0.3967 -0.6475
 3370TIP3    H231670   3.412   4.836   7.143 -1.0502  0.3198  0.4570
 3371TIP3   OH231671   1.207   1.752   2.421 -0.0318  0.3201  0.4949
 3371TIP3    H131672   1.172   1.758   2.510  0.8793  1.1270  0.8168
 3371TIP3    H231673   1.145   1.803   2.368 -0.0127  0.7356  0.8569
 3372TIP3   OH231674   0.133   4.839   2.136  0.0920 -0.2690  0.0754
 3372TIP3    H131675   0.041   4.815   2.151 -0.4644  0.8454 -1.3165
 3372TIP3    H231676   0.138   4.931   2.163  0.5489 -0.0307 -0.8113
 3373TIP3   OH231677   4.695   5.960   0.431 -0.5152  0.1062 -0.4419
 3373TIP3    H131678   4.697   5.864   0.420 -0.4341 -0.1398  1.4993
 3373TIP3    H231679   4.766   5.991   0.374 -0.3342 -1.0137 -0.8665
 3374TIP3   OH231680   6.308   2.628   1.128 -0.0247  0.0644 -0.2696
 3374TIP3    H131681   6.396   2.643   1.093  0.1784 -1.3919 -0.4662
 3374TIP3    H231682   6.267   2.569   1.064 -2.2845  3.0252 -1.8195
 3375TIP3   OH231683   4.889   4.313   8.119 -0.8311 -0.3845  0.3429
 3375TIP3    H131684   4.914   4.389   8.171  0.9962 -0.6336 -0.0941
 3375TIP3    H231685   4.924   4.331   8.032 -0.7551 -1.5243  0.1229
 3376TIP3   OH231686   4.449   0.500   1.352 -0.0959  0.1685 -0.4829
 3376TIP3    H131687   4.488   0.426   1.306  0.3924  0.5989 -0.7681
 3376TIP3    H231688   4.509   0.519   1.424  0.5607  1.2179 -1.2790
 3377TIP3   OH231689   5.446   4.560   1.906  0.3764 -0.5151  0.0242
 3377TIP3    H131690   5.415   4.607   1.828 -1.5603  0.0717  1.0720
 3377TIP3    H231691   5.518   4.506   1.875 -0.2800 -0.2286 -2.1489
 3378TIP3   OH231692   3.513   4.007   1.036 -0.2410 -0.1625  0.4022
 3378TIP3    H131693   3.547   4.080   1.087 -2.2544  2.4752 -1.7755
 3378TIP3    H231694   3.468   4.047   0.962 -1.0399 -3.6508 -1.2220
 3379TIP3   OH231695   6.205   2.746   0.845  0.5051  0.1300  0.8826
 3379TIP3    H131696   6.245   2.789   0.920  0.7011  1.1544  0.1950
 3379TIP3    H231697   6.270   2.751   0.775 -1.0501  2.6095 -0.5326
 3380TIP3   OH231698   0.031   1.941   2.395 -0.3993  0.1150 -0.0032
 3380TIP3    H131699   0.001   2.022   2.437 -0.7309  0.0300 -0.0743
 3380TIP3    H231700   0.003   1.950   2.304 -2.7181 -1.1791  0.5109
 3381TIP3   OH231701   5.686   1.506   8.353 -0.2523 -0.1024  0.3891
 3381TIP3    H131702   5.652   1.585   8.394  0.0645 -0.1472  0.7470
 3381TIP3    H231703   5.658   1.435   8.411 -0.2525 -0.2204  0.2465
 3382TIP3   OH231704   2.081   3.947   2.169  0.2391  0.3055 -0.2999
 3382TIP3    H131705   2.126   3.881   2.222 -0.0688 -0.8481 -1.4209
 3382TIP3    H231706   2.150   4.006   2.141  0.3866  1.0359  1.4762
 3383TIP3   OH231707   3.374   3.697   8.231  0.1573 -0.4704 -0.4646
 3383TIP3    H131708   3.420   3.659   8.156 -1.3062 -0.0872 -1.6212
 3383TIP3    H231709   3.298   3.741   8.192 -1.5356 -1.5858  1.3639
 3384TIP3   OH231710   0.551   6.103   2.143 -0.5164  0.0881  0.2048
 3384TIP3    H131711   0.590   6.190   2.157 -0.8437  0.3694 -0.5671
 3384TIP3    H231712   0.550   6.092   2.048 -0.4182 -0.7958  0.2953
 3385TIP3   OH231713   4.969   6.051   2.994  0.0459 -0.9509  0.1827
 3385TIP3    H131714   5.016   6.035   3.076 -0.9572  0.1233  0.9857
 3385TIP3    H231715   4.920   5.970   2.978 -0.6766 -0.7455  1.2841
 3386TIP3   OH231716   6.342   5.629   0.036 -0.1418 -0.7432 -0.2923
 3386TIP3    H131717   6.436   5.608   0.040  0.2501  0.5397 -1.7179
 3386TIP3    H231718   6.301   5.562   0.090  1.6773 -0.7164  1.2435
 3387TIP3   OH231719   4.209   1.114   7.756 -0.1435  0.1645 -0.2580
 3387TIP3    H131720   4.167   1.188   7.800  0.0109  0.6361 -0.8911
 3387TIP3    H231721   4.151   1.094   7.683 -0.7365 -1.0384  0.5205
 3388TIP3   OH231722   0.894   1.213   1.676 -0.1138 -0.0840 -0.3522
 3388TIP3    H131723   0.821   1.151   1.675  0.0996 -0.4168  1.2328
 3388TIP3    H231724   0.963   1.169   1.626  0.1408 -1.3174  1.0004
 3389TIP3   OH231725   0.837   5.941   8.596  0.4588 -0.2302 -0.5439
 3389TIP3    H131726   0.837   5.858   8.643  0.8744  0.4590  0.7059
 3389TIP3    H231727   0.879   6.003   8.655 -1.2343  1.2464 -0.7866
 3390TIP3   OH231728   3.899   5.089   7.479 -0.7828 -0.0446  0.3771
 3390TIP3    H131729   3.834   5.101   7.410 -0.7224  0.3665  0.3910
 3390TIP3    H231730   3.869   5.011   7.526 -2.3436  1.2088  1.5681
 3391TIP3   OH231731   6.806   4.296   1.915  0.2942 -0.3537  0.0948
 3391TIP3    H131732   6.750   4.302   1.993  1.6899 -2.2726  1.3502
 3391TIP3    H231733   6.861   4.375   1.919  0.8573 -0.7824  1.5203
 3392TIP3   OH231734   0.221   6.359   3.314  0.4062 -0.4763  0.1596
 3392TIP3    H131735   0.254   6.270   3.300  2.3489  0.3488 -0.7614
 3392TIP3    H231736   0.267   6.390   3.392  1.8304  0.6533 -1.0824
 3393TIP3   OH231737   0.380   4.394   1.480  0.1762 -0.1811 -0.5833
 3393TIP3    H131738   0.383   4.474   1.532  0.6032 -0.7312  0.2731
 3393TIP3    H231739   0.344   4.421   1.396 -0.5341  0.7362 -0.0025
 3394TIP3   OH231740   3.484   4.111   7.405  0.2178 -0.2505 -0.4028
 3394TIP3    H131741   3.526   4.197   7.391  2.4063 -1.1002  0.5793
 3394TIP3    H231742   3.516   4.058   7.332 -0.0085 -0.6326 -0.2215
 3395TIP3   OH231743   1.899   6.715   7.724 -0.1557 -0.2239 -0.4328
 3395TIP3    H131744   1.867   6.796   7.764 -1.3377 -1.9101  2.3317
 3395TIP3    H231745   1.983   6.739   7.685  0.8982  1.7990  2.6925
 3396TIP3   OH231746   1.085   2.153   8.610 -0.0048 -0.6044  0.2817
 3396TIP3    H131747   1.089   2.245   8.635  1.3801 -0.4443 -0.4231
 3396TIP3    H231748   1.013   2.117   8.662 -1.8039  1.2539 -0.7923
 3397TIP3   OH231749   2.783   2.839   0.333  0.6194  0.2706  0.4498
 3397TIP3    H131750   2.860   2.829   0.278  0.6705  2.0410  0.1412
 3397TIP3    H231751   2.719   2.885   0.279 -1.3642 -2.6059  0.1160
 3398TIP3   OH231752   2.889   3.179   1.415 -0.2119  0.0227  0.5124
 3398TIP3    H131753   2.857   3.200   1.327 -0.8864  0.8202  0.9442
 3398TIP3    H231754   2.835   3.231   1.474  1.9298  1.5094  1.2784
 3399TIP3   OH231755   0.493   3.852   0.887  0.3942 -0.4443 -0.5964
 3399TIP3    H131756   0.542   3.770   0.890  0.3668 -0.4410  0.2376
 3399TIP3    H231757   0.402   3.826   0.878  0.4019 -0.5078 -0.5006
 3400TIP3   OH231758   0.033   1.090   8.147 -0.4046  0.7152 -0.0178
 3400TIP3    H131759   0.127   1.078   8.134 -0.5410  0.3399 -0.7083
 3400TIP3    H231760   0.010   1.167   8.096 -0.8805 -0.5635 -1.8239
 3401TIP3   OH231761   6.174   3.973   1.801 -0.3302  0.7024 -0.4911
 3401TIP3    H131762   6.236   3.920   1.850 -0.7110 -1.5388 -2.2663
 3401TIP3    H231763   6.168   4.055   1.850  1.0056 -0.5219  1.8752
 3402TIP3   OH231764   6.159   3.316   6.962 -0.7672  0.0599  0.2551
 3402TIP3    H131765   6.139   3.262   7.039 -1.5141  1.8527  1.4038
 3402TIP3    H231766   6.131   3.404   6.988  1.6784  1.2923 -0.9843
 3403TIP3   OH231767   1.179   1.677   0.654 -0.1632 -0.6522  0.2584
 3403TIP3    H131768   1.253   1.714   0.703 -0.4928 -0.0608  0.3096
 3403TIP3    H231769   1.217   1.651   0.570  0.2320 -0.9197  0.5164
 3404TIP3   OH231770   1.957   5.546   8.684 -0.3358  0.3834 -0.2600
 3404TIP3    H131771   1.977   5.496   8.763  1.6289  0.0315 -0.9185
 3404TIP3    H231772   1.885   5.603   8.709 -1.0075 -1.0457  1.2204
 3405TIP3   OH231773   1.318   5.687   0.417  0.5583  0.0912 -0.4632
 3405TIP3    H131774   1.378   5.615   0.435 -0.4239 -0.4983  0.6353
 3405TIP3    H231775   1.307   5.686   0.322  1.1159 -0.7470 -0.5299
 3406TIP3   OH231776   1.279   2.988   0.580  0.1423  0.1656  0.1641
 3406TIP3    H131777   1.198   2.981   0.630  0.0605  0.0207  0.0114
 3406TIP3    H231778   1.278   2.913   0.521  0.7771 -0.2997  0.7227
 3407TIP3   OH231779   5.734   5.038   0.560 -0.2609  0.3306 -0.6733
 3407TIP3    H131780   5.824   5.011   0.579  0.6931  1.9859 -2.4735
 3407TIP3    H231781   5.698   4.967   0.507  0.3927  0.1795 -0.9205
 3408TIP3   OH231782   1.614   3.562   8.166 -0.8469 -0.4874  0.3923
 3408TIP3    H131783   1.679   3.499   8.196 -0.2714 -1.2172 -2.1552
 3408TIP3    H231784   1.532   3.533   8.206  0.2085  0.1820  3.2953
 3409TIP3   OH231785   4.497   2.424   8.433  0.3342 -0.0604 -0.2551
 3409TIP3    H131786   4.408   2.389   8.426  0.0915  0.3425  0.6877
 3409TIP3    H231787   4.513   2.465   8.348 -0.3749 -0.1466 -0.4380
 3410TIP3   OH231788   3.038   4.492   2.133 -0.5525 -0.0173 -0.4475
 3410TIP3    H131789   2.999   4.424   2.079  1.6262 -2.8890  1.2876
 3410TIP3    H231790   3.106   4.531   2.078 -1.0675 -0.0123 -1.0899
 3411TIP3   OH231791   3.599   6.613   8.300  0.0223  0.1805  0.0320
 3411TIP3    H131792   3.691   6.631   8.319  0.3144 -1.7774  0.7364
 3411TIP3    H231793   3.564   6.580   8.383 -1.7236  2.2273  0.1805
 3412TIP3   OH231794   5.562   1.205   2.063 -0.2600 -0.3103 -0.0134
 3412TIP3    H131795   5.602   1.145   1.999 -0.0109  0.8675 -0.9988
 3412TIP3    H231796   5.485   1.157   2.095 -0.6005 -0.8071 -1.4845
 3413TIP3   OH231797   2.931   6.185   0.409 -0.7299 -0.3946 -0.0056
 3413TIP3    H131798   2.976   6.246   0.351  1.3040 -1.3111  0.5309
 3413TIP3    H231799   2.926   6.232   0.493  3.2024 -1.7292  1.1911
 3414TIP3   OH231800   6.147   2.550   7.482  0.0818 -0.3519 -0.4158
 3414TIP3    H131801   6.057   2.580   7.488 -0.0369 -0.7211 -0.3547
 3414TIP3    H231802   6.143   2.472   7.427  0.2325 -0.9306  0.3908
 3415TIP3   OH231803   1.590   1.416   2.980 -0.6386  0.7126 -0.3878
 3415TIP3    H131804   1.684   1.434   2.972 -0.3463 -0.4886  0.2110
 3415TIP3    H231805   1.564   1.459   3.061 -0.2494 -0.2948  0.2874
 3416TIP3   OH231806   1.263   6.630   7.788 -0.4468 -0.4268  0.4334
 3416TIP3    H131807   1.243   6.622   7.695 -2.5607  1.7243  0.6118
 3416TIP3    H231808   1.313   6.711   7.795 -2.4879  0.8413  1.3499
 3417TIP3   OH231809   3.496   0.622   0.282 -0.1470 -0.2201 -0.1200
 3417TIP3    H131810   3.417   0.576   0.311 -0.0360 -1.4696 -1.6846
 3417TIP3    H231811   3.510   0.591   0.192  0.4077  2.2738 -0.9764
 3418TIP3   OH231812   3.885   3.045   0.129  0.4929  0.6941  0.1051
 3418TIP3    H131813   3.935   2.964   0.118 -0.5202  0.2148 -1.2603
 3418TIP3    H231814   3.809   3.019   0.182  1.0443  1.1568  1.1515
 3419TIP3   OH231815   5.555   4.189   8.149  0.3665  0.4472 -0.5785
 3419TIP3    H131816   5.546   4.106   8.103 -2.4751  1.1649 -1.5461
 3419TIP3    H231817   5.596   4.248   8.085  0.7304  0.2448 -0.5309
 3420TIP3   OH231818   0.286   3.341   8.183 -0.4259  0.6740 -0.0016
 3420TIP3    H131819   0.236   3.263   8.205 -1.5397  1.8224  1.7633
 3420TIP3    H231820   0.348   3.311   8.115 -2.0657 -1.2553 -0.7544
 3421TIP3   OH231821   3.987   0.435   8.012  0.0247 -0.6021 -0.2085
 3421TIP3    H131822   4.056   0.440   7.946  0.8003  2.4633  0.6356
 3421TIP3    H231823   3.905   0.436   7.962  0.6068  1.1237 -1.2268
 3422TIP3   OH231824   0.301   4.817   0.283  0.5439 -0.3619  0.0627
 3422TIP3    H131825   0.356   4.742   0.308 -1.6783 -2.2213 -0.2456
 3422TIP3    H231826   0.233   4.779   0.228 -2.1961  1.3960  1.9689
 3423TIP3   OH231827   3.186   4.382   0.034 -0.1758 -0.4421  0.5077
 3423TIP3    H131828   3.230   4.361   0.117 -1.0678  1.7388  1.6287
 3423TIP3    H231829   3.117   4.317   0.026  1.1189 -1.8571  0.4441
 3424TIP3   OH231830   0.473   0.408   2.852 -0.3200  0.0303  0.7178
 3424TIP3    H131831   0.391   0.369   2.825  0.9135 -0.6541 -2.4162
 3424TIP3    H231832   0.514   0.343   2.908 -1.8956  0.4648  2.4919
 3425TIP3   OH231833   0.897   0.949   1.948 -0.4427 -1.0705 -0.4600
 3425TIP3    H131834   0.901   1.045   1.941 -0.8740 -1.0440 -0.4010
 3425TIP3    H231835   0.818   0.926   1.899  0.6080 -1.5567 -2.0191
 3426TIP3   OH231836   0.430   2.247   1.509 -0.5493  0.4775 -1.0194
 3426TIP3    H131837   0.337   2.230   1.525 -0.8749  1.4650 -1.7523
 3426TIP3    H231838   0.436   2.343   1.505  0.8319  0.5296  0.8971
 3427TIP3   OH231839   5.367   1.447   1.130 -0.3049  0.3830  0.8271
 3427TIP3    H131840   5.310   1.408   1.196 -0.8104 -0.2708  0.0153
 3427TIP3    H231841   5.370   1.384   1.059  1.0035  0.6471  0.6059
 3428TIP3   OH231842   4.184   6.326   2.480  0.4300 -0.4546 -0.1346
 3428TIP3    H131843   4.249   6.351   2.547 -0.3325  0.4800  0.2812
 3428TIP3    H231844   4.232   6.331   2.398  0.9553  0.0107  0.1858
 3429TIP3   OH231845   3.563   1.323   2.542 -0.3672 -0.6106 -0.2051
 3429TIP3    H131846   3.601   1.245   2.581 -1.1457  0.0114  1.9525
 3429TIP3    H231847   3.470   1.302   2.532 -0.3532 -0.3998 -0.7873
 3430TIP3   OH231848   4.773   1.659   0.192  0.1072 -0.0483 -0.1927
 3430TIP3    H131849   4.825   1.579   0.191 -0.6326 -0.5486 -0.0294
 3430TIP3    H231850   4.764   1.681   0.285  0.0755  0.0649 -0.2217
 3431TIP3   OH231851   6.072   0.101   3.132 -0.4930  0.1685 -0.5497
 3431TIP3    H131852   5.976   0.095   3.137 -0.5850  0.5126 -1.7400
 3431TIP3    H231853   6.093   0.180   3.182 -0.8367  0.1337 -0.3478
 3432TIP3   OH231854   2.864   6.276   0.905  0.4311 -0.2947 -0.3592
 3432TIP3    H131855   2.892   6.238   0.988  0.6074  1.5739  0.4765
 3432TIP3    H231856   2.839   6.200   0.851 -0.6648 -1.5076  1.7301
 3433TIP3   OH231857   4.653   2.195   7.336 -0.0090 -0.1978 -0.1394
 3433TIP3    H131858   4.590   2.233   7.275 -1.4408  1.0877  2.0133
 3433TIP3    H231859   4.701   2.270   7.372  0.8600 -0.9265  0.2693
 3434TIP3   OH231860   2.979   0.878   2.733 -0.1908 -0.0914  0.2704
 3434TIP3    H131861   3.009   0.864   2.822 -2.1565 -0.2191  0.9682
 3434TIP3    H231862   2.908   0.814   2.721 -1.2590  1.2122 -0.6790
 3435TIP3   OH231863   0.071   5.066   1.281  0.1863 -0.3043  0.1304
 3435TIP3    H131864   0.026   5.060   1.365 -1.6120 -0.4694 -0.8056
 3435TIP3    H231865   0.118   5.149   1.285 -2.3072  1.1938  0.1799
 3436TIP3   OH231866   2.219   5.568   8.603  0.1441  0.5315  0.0461
 3436TIP3    H131867   2.245   5.485   8.643 -0.4532  0.2156 -0.2243
 3436TIP3    H231868   2.131   5.584   8.636  0.5837  1.5205  0.8265
 3437TIP3   OH231869   5.175   5.128   1.486  0.1857  0.0723 -0.0325
 3437TIP3    H131870   5.148   5.133   1.394  0.1883 -1.0210 -0.1100
 3437TIP3    H231871   5.154   5.038   1.512 -0.1620  0.4883  1.1555
 3438TIP3   OH231872   4.657   5.300   1.822 -0.2066 -0.1799 -0.0888
 3438TIP3    H131873   4.668   5.237   1.751 -0.0863 -0.2555 -0.0029
 3438TIP3    H231874   4.714   5.373   1.799 -1.5630  0.6182 -1.0169
 3439TIP3   OH231875   1.401   1.646   1.197 -0.0852  0.7699  0.6426
 3439TIP3    H131876   1.338   1.713   1.170 -2.1028 -0.6650  1.5552
 3439TIP3    H231877   1.360   1.563   1.175  2.1065 -0.2486  0.0583
 3440TIP3   OH231878   6.646   1.806   8.429  0.3118 -0.3714 -0.0965
 3440TIP3    H131879   6.731   1.847   8.412 -0.2373  1.2700  0.9309
 3440TIP3    H231880   6.593   1.875   8.468 -1.4012 -1.4700 -0.3885
 3441TIP3   OH231881   5.790   5.181   7.320 -0.1690  0.5308  0.4156
 3441TIP3    H131882   5.860   5.118   7.334  1.3373  2.3352  1.6503
 3441TIP3    H231883   5.728   5.164   7.391 -2.2939 -2.5219 -1.9253
 3442TIP3   OH231884   3.342   4.470   0.508 -0.4648  0.3757 -0.2371
 3442TIP3    H131885   3.364   4.533   0.440  0.8908  0.8821  0.6217
 3442TIP3    H231886   3.393   4.392   0.485 -0.1996  0.4621  0.0439
 3443TIP3   OH231887   2.478   0.466   8.379 -0.1696  0.3737  0.6789
 3443TIP3    H131888   2.385   0.488   8.382 -0.1513  0.7137 -0.6888
 3443TIP3    H231889   2.480   0.371   8.390 -0.7233  0.3040  0.2423
 3444TIP3   OH231890   5.558   6.024   3.264  0.1018 -0.7329  0.7022
 3444TIP3    H131891   5.634   6.071   3.228 -0.1361 -2.2103 -2.0039
 3444TIP3    H231892   5.558   6.047   3.357  2.4847  1.1485  0.3550
 3445TIP3   OH231893   5.994   1.891   0.059 -0.0787  0.3108  0.4631
 3445TIP3    H131894   5.900   1.898   0.073 -0.1868  0.0097 -0.0731
 3445TIP3    H231895   6.017   1.804   0.092 -0.0427  0.2682  0.3286
 3446TIP3   OH231896   2.889   6.710   8.752  0.6620 -0.0604  0.3478
 3446TIP3    H131897   2.894   6.747   8.840  0.1094  2.2822 -0.5491
 3446TIP3    H231898   2.974   6.729   8.713  0.4608  0.0597 -0.0418
 3447TIP3   OH231899   1.907   4.603   2.129  0.0037  0.1642  0.0174
 3447TIP3    H131900   1.911   4.547   2.052 -0.9038  1.9953 -1.4376
 3447TIP3    H231901   1.830   4.574   2.177 -0.8157  0.5507 -1.0501
 3448TIP3   OH231902   0.392   3.664   2.096  0.7522 -0.3656  0.1228
 3448TIP3    H131903   0.433   3.674   2.182 -1.0325  2.0582  0.8201
 3448TIP3    H231904   0.419   3.742   2.048  0.0873 -0.6758 -0.7708
 3449TIP3   OH231905   5.386   2.866   1.261 -0.2523  0.0866 -0.0088
 3449TIP3    H131906   5.431   2.910   1.334 -1.8079  1.3519  0.2319
 3449TIP3    H231907   5.364   2.937   1.201 -0.1634 -0.7795 -1.0833
 3450TIP3   OH231908   2.457   1.630   8.372  0.3331 -0.1238  0.2515
 3450TIP3    H131909   2.419   1.693   8.432  0.0884  1.0124 -1.0463
 3450TIP3    H231910   2.385   1.602   8.316  0.4835 -1.4193  0.6621
 3451TIP3   OH231911   3.536   3.958   0.492  0.2103  0.2112 -0.0290
 3451TIP3    H131912   3.521   3.878   0.542  1.7695  0.0497  0.2281
 3451TIP3    H231913   3.542   4.027   0.558 -1.2489  0.5889 -0.2561
 3452TIP3   OH231914   5.174   0.810   0.798  0.6696  0.5057  0.5608
 3452TIP3    H131915   5.217   0.896   0.799 -0.7831  1.2722 -0.0984
 3452TIP3    H231916   5.144   0.799   0.708  0.0179 -0.2753  0.8648
 3453TIP3   OH231917   2.840   3.470   8.299  0.1424  0.3017 -0.3210
 3453TIP3    H131918   2.833   3.447   8.207  1.8440 -0.3611 -0.3166
 3453TIP3    H231919   2.760   3.519   8.318  0.4221  1.7404 -2.5031
 3454TIP3   OH231920   4.262   6.574   2.922 -0.0377 -0.1210 -0.1742
 3454TIP3    H131921   4.315   6.654   2.920 -0.3639  0.1919  1.6354
 3454TIP3    H231922   4.294   6.522   2.849  0.0028  1.7722 -1.5776
 3455TIP3   OH231923   0.087   5.371   8.059  0.3909 -0.2438 -0.8268
 3455TIP3    H131924   0.023   5.307   8.027 -0.2157  0.7384 -1.6556
 3455TIP3    H231925   0.108   5.424   7.981  1.7632 -0.1799 -0.4265
 3456TIP3   OH231926   1.351   6.276   2.429 -0.3754 -0.4220 -0.1505
 3456TIP3    H131927   1.446   6.269   2.438 -0.6167 -1.7407  2.1106
 3456TIP3    H231928   1.321   6.185   2.425 -1.5929 -0.0260 -0.2428
 3457TIP3   OH231929   4.540   6.080   8.785  0.3905 -0.4267 -0.2006
 3457TIP3    H131930   4.579   6.122   8.861  1.5634  1.9371 -1.9913
 3457TIP3    H231931   4.606   6.017   8.756  0.7803  0.0632 -0.3835
 3458TIP3   OH231932   0.141   0.505   7.836  0.2084  0.0630 -0.1684
 3458TIP3    H131933   0.161   0.448   7.761 -0.4112 -0.8125  0.3144
 3458TIP3    H231934   0.058   0.547   7.812  1.3814  1.9741 -1.1846
 3459TIP3   OH231935   3.004   0.091   2.382 -0.4700 -0.3885  0.4368
 3459TIP3    H131936   3.004   0.076   2.477 -1.8623  1.0743  0.7150
 3459TIP3    H231937   3.073   0.034   2.349  0.1580 -0.8221  2.3474
 3460TIP3   OH231938   2.599   2.412   2.775  0.4604  0.0047 -0.3944
 3460TIP3    H131939   2.646   2.329   2.778 -1.0336 -0.8687  2.5534
 3460TIP3    H231940   2.524   2.399   2.833  1.3006  4.0887  1.9831
 3461TIP3   OH231941   1.002   4.138   1.537  0.3704 -0.0499 -0.3401
 3461TIP3    H131942   1.067   4.081   1.576  0.3615 -0.5964 -1.1053
 3461TIP3    H231943   0.931   4.079   1.511 -0.0963  0.4413 -0.1994
 3462TIP3   OH231944   6.633   5.430   8.584 -0.2073 -0.4189 -0.5824
 3462TIP3    H131945   6.668   5.370   8.518  0.3452 -0.9216  0.1441
 3462TIP3    H231946   6.628   5.514   8.540  2.2934 -0.2235 -0.6662
 3463TIP3   OH231947   1.926   2.226   0.073  0.1113 -0.2478  0.0545
 3463TIP3    H131948   1.901   2.246   0.163  1.3679 -0.3415  0.4403
 3463TIP3    H231949   1.932   2.130   0.071 -1.8692 -0.4197 -0.6967
 3464TIP3   OH231950   0.784   2.110   1.775 -0.3879 -0.6036  0.1763
 3464TIP3    H131951   0.694   2.079   1.781 -1.2445  1.1239 -2.2969
 3464TIP3    H231952   0.785   2.192   1.823 -0.0706 -0.7000  0.3384
 3465TIP3   OH231953   1.415   2.398   7.322 -0.1034 -0.1049 -0.0058
 3465TIP3    H131954   1.472   2.474   7.325  0.9036 -0.8089 -0.7759
 3465TIP3    H231955   1.340   2.422   7.378  0.1732  1.4397 -0.2543
 3466TIP3   OH231956   2.859   0.721   0.438 -0.4508 -0.5152  0.5552
 3466TIP3    H131957   2.900   0.808   0.435 -1.5142 -0.0234 -0.4426
 3466TIP3    H231958   2.914   0.667   0.382  0.1443 -0.4670  1.0770
 3467TIP3   OH231959   3.024   2.732   0.240  0.2217 -0.1560 -0.2639
 3467TIP3    H131960   3.079   2.810   0.235 -2.8946  2.1640 -1.6291
 3467TIP3    H231961   3.035   2.689   0.155 -0.3217  0.5315 -0.6937
 3468TIP3   OH231962   2.985   0.283   0.148  0.0930 -0.0541 -0.2599
 3468TIP3    H131963   2.962   0.298   0.240  1.2526  0.5706 -0.0452
 3468TIP3    H231964   2.901   0.274   0.103 -0.5163  0.6088  0.7073
 3469TIP3   OH231965   5.001   1.423   7.749 -0.1469 -0.3834  0.2098
 3469TIP3    H131966   5.085   1.384   7.726 -0.4410 -1.7268  1.2776
 3469TIP3    H231967   5.003   1.511   7.710  1.7910 -0.3384  0.3442
 3470TIP3   OH231968   5.247   5.827   1.143 -0.5891 -0.3398 -0.2011
 3470TIP3    H131969   5.286   5.741   1.130  0.1145 -0.0744  0.0984
 3470TIP3    H231970   5.310   5.874   1.197  0.0884  1.0934 -2.1130
 3471TIP3   OH231971   5.387   6.568   2.690  0.0781 -0.0306  0.4253
 3471TIP3    H131972   5.418   6.576   2.600  0.5990 -0.4802  0.5600
 3471TIP3    H231973   5.418   6.482   2.718  0.6705  0.4579  1.3205
 3472TIP3   OH231974   2.605   2.274   1.558 -0.4565 -0.0170  0.2416
 3472TIP3    H131975   2.559   2.305   1.480  2.0353  1.9518 -0.6242
 3472TIP3    H231976   2.629   2.354   1.605  1.2628 -0.9569  1.0731
 3473TIP3   OH231977   1.835   1.432   0.251  0.1150  0.0483 -0.0659
 3473TIP3    H131978   1.901   1.365   0.263 -1.9678 -1.8724  1.4431
 3473TIP3    H231979   1.755   1.384   0.231 -0.8715  2.2699 -1.9719
 3474TIP3   OH231980   6.068   4.000   2.087 -0.1524  0.5419  0.1798
 3474TIP3    H131981   6.037   3.969   2.172 -0.3107  0.5460  0.1240
 3474TIP3    H231982   6.002   4.063   2.058 -0.1728  0.4349 -0.0107
 3475TIP3   OH231983   1.259   2.315   1.324  0.5821 -0.2536 -0.0540
 3475TIP3    H131984   1.313   2.236   1.314  2.5516  1.0443 -0.2176
 3475TIP3    H231985   1.318   2.387   1.304 -0.5466  1.4236  2.1669
 3476TIP3   OH231986   5.173   0.101   2.531 -0.0941  0.2090  0.3692
 3476TIP3    H131987   5.158   0.034   2.464 -0.6571 -0.5342  1.2059
 3476TIP3    H231988   5.087   0.113   2.573  0.0918  1.1705  0.4921
 3477TIP3   OH231989   4.771   6.507   1.066  0.1687  0.4521  0.6492
 3477TIP3    H131990   4.721   6.468   1.137 -1.1305 -0.0557 -0.4931
 3477TIP3    H231991   4.811   6.432   1.021  1.4917  0.8064  1.1584
 3478TIP3   OH231992   1.620   0.537   1.255 -0.2353 -0.0667 -0.2609
 3478TIP3    H131993   1.650   0.477   1.187 -1.7771 -1.3859  0.1391
 3478TIP3    H231994   1.568   0.602   1.209  1.0684  0.7309 -0.6458
 3479TIP3   OH231995   1.203   1.360   2.184 -0.7740  0.0485 -0.2047
 3479TIP3    H131996   1.115   1.387   2.212 -0.2660  1.8122 -0.2314
 3479TIP3    H231997   1.262   1.422   2.225  0.4256 -0.6818 -0.7682
 3480TIP3   OH231998   5.498   6.632   3.063 -0.3935  0.1000 -0.4367
 3480TIP3    H131999   5.495   6.722   3.096  0.4070  0.1101 -0.3679
 3480TIP3    H232000   5.587   6.602   3.082 -1.4744 -1.7893  2.4186
 3481TIP3   OH232001   4.860   0.376   8.599 -0.1747 -0.1072 -0.0934
 3481TIP3    H132002   4.828   0.337   8.680  0.1039  2.9875  1.6741
 3481TIP3    H232003   4.809   0.457   8.590 -1.5104 -1.1668 -4.1116
 3482TIP3   OH232004   1.101   3.631   0.656 -0.0457  0.2779  0.2303
 3482TIP3    H132005   1.044   3.669   0.723  1.1475  2.2088  0.2482
 3482TIP3    H232006   1.108   3.700   0.590  0.7283 -0.6639 -0.6994
 3483TIP3   OH232007   5.588   0.226   1.977  0.1134  0.3451  0.2971
 3483TIP3    H132008   5.521   0.276   1.931  0.7239  0.9736  0.0751
 3483TIP3    H232009   5.645   0.292   2.016  1.5243 -0.1302 -0.8488
 3484TIP3   OH232010   6.770   1.070   0.216  0.6354 -0.2474  0.2984
 3484TIP3    H132011   6.773   1.148   0.272  2.4915 -0.4840  0.5765
 3484TIP3    H232012   6.698   1.087   0.156  0.7849  1.5396  0.5656
 3485TIP3   OH232013   6.273   4.238   0.888 -0.0692  1.0438  0.4537
 3485TIP3    H132014   6.295   4.188   0.810  0.4558  1.8533  0.0746
 3485TIP3    H232015   6.339   4.211   0.953 -0.0967  0.8629  0.4055
 3486TIP3   OH232016   4.546   1.812   0.553 -0.5533  0.2024  0.2552
 3486TIP3    H132017   4.640   1.797   0.549 -0.7493 -1.1516  0.1067
 3486TIP3    H232018   4.521   1.786   0.642 -1.1290 -1.9445 -0.4630
 3487TIP3   OH232019   3.630   0.505   0.049  0.1592 -0.2055 -0.1300
 3487TIP3    H132020   3.639   0.548  -0.036 -1.6726  1.8715  0.6304
 3487TIP3    H232021   3.563   0.438   0.035 -1.0959  0.9960 -0.0892
 3488TIP3   OH232022   3.846   2.831   0.992  0.5798 -0.4301 -0.5903
 3488TIP3    H132023   3.783   2.832   0.920  0.1745 -1.8625 -0.2787
 3488TIP3    H232024   3.872   2.739   1.000  4.2511  0.3089 -2.0322
 3489TIP3   OH232025   6.315   4.626   8.445 -0.9779 -0.1409 -0.1484
 3489TIP3    H132026   6.223   4.638   8.420 -1.1973 -0.2858  0.5732
 3489TIP3    H232027   6.345   4.554   8.390 -1.7220 -1.0774  0.6209
 3490TIP3   OH232028   2.551   2.713   8.095 -0.7016 -0.0907  0.2310
 3490TIP3    H132029   2.541   2.628   8.138 -1.3005 -0.5388 -0.7616
 3490TIP3    H232030   2.578   2.691   8.006 -2.3489  0.6751 -0.5006
 3491TIP3   OH232031   0.649   6.240   0.969 -0.1775 -0.3054 -0.2481
 3491TIP3    H132032   0.639   6.330   0.938 -3.2370 -0.6452 -0.5525
 3491TIP3    H232033   0.709   6.199   0.906 -0.1343  1.0554 -1.1275
 3492TIP3   OH232034   2.280   6.345   7.618 -0.6912 -0.2865 -0.8075
 3492TIP3    H132035   2.369   6.366   7.646 -0.4262 -1.7533 -0.4352
 3492TIP3    H232036   2.258   6.413   7.555 -0.3183  1.6342  1.0012
 3493TIP3   OH232037   1.011   2.742   0.829  0.1236 -0.3026  0.3285
 3493TIP3    H132038   1.106   2.735   0.817  0.2508  1.4190  0.0456
 3493TIP3    H232039   0.974   2.699   0.752  0.6979 -0.1382 -0.0455
 3494TIP3   OH232040   6.491   4.210   0.131  0.1054  0.0162 -0.3089
 3494TIP3    H132041   6.584   4.235   0.132 -0.1293  0.8969  0.3748
 3494TIP3    H232042   6.462   4.223   0.221 -1.0368  1.0957 -0.8117
 3495TIP3   OH232043   1.740   3.039   8.261 -0.2559  0.5251  0.1628
 3495TIP3    H132044   1.694   3.017   8.180 -0.4400  1.0146  0.1295
 3495TIP3    H232045   1.771   2.955   8.295  0.5371  0.3887 -0.8421
 3496TIP3   OH232046   1.092   2.682   0.312  0.1261 -0.0227 -0.2579
 3496TIP3    H132047   1.104   2.709   0.220 -1.1514  0.0387 -0.4165
 3496TIP3    H232048   1.110   2.588   0.311 -1.0861 -0.2630 -0.8221
 3497TIP3   OH232049   0.655   1.145   0.106  0.2609 -0.5496  0.0081
 3497TIP3    H132050   0.573   1.094   0.099 -0.4464  0.6705 -1.0543
 3497TIP3    H232051   0.678   1.165   0.015  1.1831  0.0135  0.3569
 3498TIP3   OH232052   5.569   6.357   3.232 -0.0508  0.7040 -0.4035
 3498TIP3    H132053   5.605   6.445   3.219  0.8625  0.4751  0.4879
 3498TIP3    H232054   5.643   6.298   3.218 -0.8411 -0.0064 -1.8295
 3499TIP3   OH232055   1.845   0.147   7.866 -0.1097  0.1961  0.0872
 3499TIP3    H132056   1.753   0.171   7.849 -0.6302 -2.1255 -0.7066
 3499TIP3    H232057   1.842   0.100   7.949  0.2554 -0.3788 -0.2185
 3500TIP3   OH232058   0.500   0.408   0.744 -0.4526  0.5315 -0.3339
 3500TIP3    H132059   0.496   0.356   0.823 -0.5458 -2.1286 -1.9722
 3500TIP3    H232060   0.413   0.448   0.737  0.3022  2.8509  2.0755
 3501TIP3   OH232061   1.278   3.797   2.288 -0.8094  0.3164  0.0466
 3501TIP3    H132062   1.186   3.770   2.295 -0.2898 -1.8538 -0.5636
 3501TIP3    H232063   1.286   3.834   2.201 -0.9284 -0.3464 -0.2537
 3502TIP3   OH232064   5.707   5.414   8.361 -0.1360  0.0858  0.1404
 3502TIP3    H132065   5.764   5.436   8.288 -1.4324 -1.4115 -1.4299
 3502TIP3    H232066   5.755   5.348   8.410  0.1791  0.0710 -0.1815
 3503TIP3   OH232067   1.833   4.226   0.714  0.1834 -0.4873 -0.0888
 3503TIP3    H132068   1.798   4.209   0.627 -0.8966 -0.1770  0.2791
 3503TIP3    H232069   1.766   4.277   0.758  0.5984 -0.8617  1.0208
 3504TIP3   OH232070   3.980   3.295   7.565 -0.3528  0.3471  0.0043
 3504TIP3    H132071   3.901   3.344   7.590  0.8295  1.4643  1.7043
 3504TIP3    H232072   4.018   3.346   7.493  0.3300  1.4558  1.1009
 3505TIP3   OH232073   1.831   4.885   2.409 -0.1940 -0.7116 -0.3650
 3505TIP3    H132074   1.909   4.940   2.401 -1.9730  1.7907 -1.8491
 3505TIP3    H232075   1.806   4.865   2.319 -1.5221 -1.0724  0.0647
 3506TIP3   OH232076   4.113   4.356   1.598  0.2860 -0.0901  0.2944
 3506TIP3    H132077   4.195   4.395   1.567  0.7680 -0.6282  0.8797
 3506TIP3    H232078   4.073   4.423   1.653  0.9502 -0.2878  1.0254
 3507TIP3   OH232079   4.096   1.364   8.156  0.3387  0.1893 -0.4739
 3507TIP3    H132080   4.043   1.304   8.209 -0.2317  1.2402  0.1707
 3507TIP3    H232081   4.158   1.401   8.218  1.9240 -1.0720 -1.2324
 3508TIP3   OH232082   5.464   3.995   7.949  0.3700 -0.0468 -0.6430
 3508TIP3    H132083   5.415   3.993   7.867 -4.0256  2.2446  1.5639
 3508TIP3    H232084   5.429   3.923   8.000 -0.6567  1.4368  0.8784
 3509TIP3   OH232085   1.223   3.192   1.916  0.4356  0.5747  0.4809
 3509TIP3    H132086   1.165   3.127   1.877  2.5384 -0.7660 -0.5684
 3509TIP3    H232087   1.218   3.267   1.856  1.7159 -0.5233 -1.0913
 3510TIP3   OH232088   3.980   3.214   7.897 -0.5220  0.1874  0.4104
 3510TIP3    H132089   4.005   3.124   7.920 -1.4852  0.0009  0.7505
 3510TIP3    H232090   3.995   3.219   7.803 -0.2665 -0.2615  0.4231
 3511TIP3   OH232091   3.877   3.551   1.416  0.1636 -0.1565 -0.3789
 3511TIP3    H132092   3.820   3.477   1.437 -0.7842  0.3299 -1.1759
 3511TIP3    H232093   3.817   3.622   1.392  1.0968  0.1681 -1.9152
 3512TIP3   OH232094   2.263   3.628   8.106  0.5434  0.3161 -0.5078
 3512TIP3    H132095   2.301   3.547   8.072  1.4302  0.0362  1.0437
 3512TIP3    H232096   2.324   3.696   8.079  0.1590  0.3761 -1.2287
 3513TIP3   OH232097   5.443   4.423   0.549  0.3581  0.4110 -0.1408
 3513TIP3    H132098   5.491   4.484   0.606  1.0860 -0.5737  0.3361
 3513TIP3    H232099   5.441   4.341   0.599  2.0359 -0.8310 -1.9635
 3514TIP3   OH232100   2.459   5.295   1.683  0.2478  0.0698 -0.3926
 3514TIP3    H132101   2.370   5.302   1.719  0.3589 -2.1285  0.4265
 3514TIP3    H232102   2.483   5.204   1.696  2.1841  0.3392 -1.7338
 3515TIP3   OH232103   4.033   4.610   1.437  0.1285  0.4049  0.3618
 3515TIP3    H132104   4.006   4.633   1.526 -0.1770 -0.0687  0.3926
 3515TIP3    H232105   3.956   4.627   1.383  0.3699  0.8672  0.1542
 3516TIP3   OH232106   2.994   2.369   1.354 -0.2437  1.0975  0.2845
 3516TIP3    H132107   2.971   2.277   1.364  0.9449  0.7462 -0.0981
 3516TIP3    H232108   2.918   2.408   1.311 -0.3544  0.0850 -0.4707
 3517TIP3   OH232109   2.822   5.823   8.467  0.3410  0.0598  0.1003
 3517TIP3    H132110   2.885   5.770   8.419  0.0232  0.7438 -1.1187
 3517TIP3    H232111   2.780   5.761   8.527  1.3197 -0.6492  0.0771
 3518TIP3   OH232112   1.152   5.688   2.530 -0.3399 -0.6582 -0.0529
 3518TIP3    H132113   1.107   5.772   2.534  0.2201 -0.2534 -1.4622
 3518TIP3    H232114   1.185   5.683   2.440  1.7191 -1.2839  0.6751
 3519TIP3   OH232115   5.250   3.322   1.942  0.0421 -0.6763 -0.1913
 3519TIP3    H132116   5.243   3.414   1.968 -2.5907 -0.3586 -1.6552
 3519TIP3    H232117   5.313   3.322   1.870  1.3174 -0.3148  0.9010
 3520TIP3   OH232118   6.124   5.278   7.429 -0.0259  0.3140 -0.1561
 3520TIP3    H132119   6.061   5.328   7.377 -1.7694 -0.1805  1.3479
 3520TIP3    H232120   6.071   5.240   7.500  1.8707 -0.7050  0.7915
 3521TIP3   OH232121   3.040   6.485   1.167 -0.1740  0.3060 -0.2092
 3521TIP3    H132122   2.985   6.563   1.158 -0.9420  0.0012  1.3798
 3521TIP3    H232123   3.058   6.457   1.077 -1.0545  1.5138 -0.7831
 3522TIP3   OH232124   1.814   5.347   7.441 -0.3181  0.5085  0.0227
 3522TIP3    H132125   1.791   5.266   7.396 -1.5588  0.3178  0.9347
 3522TIP3    H232126   1.740   5.406   7.423 -0.5480  0.6245  1.2745
 3523TIP3   OH232127   6.287   6.244   3.243 -0.0220  0.0477 -0.1150
 3523TIP3    H132128   6.345   6.169   3.260 -0.5098 -0.4677 -0.6711
 3523TIP3    H232129   6.344   6.320   3.253  0.3930 -0.3717  0.8420
 3524TIP3   OH232130   1.927   4.386   8.239 -0.6611 -0.0311 -0.3750
 3524TIP3    H132131   1.962   4.297   8.245  0.7381  0.5248  0.1156
 3524TIP3    H232132   1.941   4.423   8.326  0.6363  1.3277 -1.1297
 3525TIP3   OH232133   5.903   5.229   8.468 -0.2274 -0.1257 -0.1233
 3525TIP3    H132134   5.953   5.150   8.446  0.8682  0.3930  0.3953
 3525TIP3    H232135   5.837   5.198   8.531  0.9459 -0.4648  1.0013
 3526TIP3   OH232136   6.174   4.434   8.088 -0.3303 -0.2733 -0.3475
 3526TIP3    H132137   6.123   4.366   8.131  0.0653 -0.1177  0.3948
 3526TIP3    H232138   6.253   4.389   8.057 -1.4659 -0.8037 -2.6979
 3527TIP3   OH232139   5.682   5.687   2.497  0.1326  0.0258  0.1611
 3527TIP3    H132140   5.746   5.619   2.479 -0.8399 -0.6220 -1.0893
 3527TIP3    H232141   5.677   5.737   2.415 -0.0165  0.8756  0.6755
 3528TIP3   OH232142   0.460   0.101   0.164 -0.2795  0.2610 -0.0132
 3528TIP3    H132143   0.367   0.120   0.176 -0.1599  1.4842 -0.8204
 3528TIP3    H232144   0.465   0.005   0.161 -1.7308  0.1838 -1.5610
 3529TIP3   OH232145   2.996   1.437   0.603 -0.3786  0.6123  0.3975
 3529TIP3    H132146   3.033   1.437   0.514 -0.0856  0.7753  0.5191
 3529TIP3    H232147   3.068   1.464   0.659  0.4050 -2.4654  1.0840
 3530TIP3   OH232148   4.337   3.610   0.413  0.4443 -0.4095  0.6178
 3530TIP3    H132149   4.348   3.527   0.461 -0.6714 -1.6243 -1.1015
 3530TIP3    H232150   4.421   3.655   0.425  0.5635 -1.0800  2.8242
 3531TIP3   OH232151   2.246   6.631   8.000  0.2859 -0.1824 -0.1037
 3531TIP3    H132152   2.202   6.551   7.971  0.7912 -0.4672 -0.0856
 3531TIP3    H232153   2.269   6.614   8.091 -1.5395  0.8138  0.5967
 3532TIP3   OH232154   6.577   3.012   2.247  0.0060  0.0424 -0.1595
 3532TIP3    H132155   6.530   2.957   2.184  0.5630  1.0363 -1.4933
 3532TIP3    H232156   6.669   2.990   2.234  0.0954 -0.1063  0.6782
 3533TIP3   OH232157   2.397   6.288   0.284 -0.4630  0.0203 -0.2114
 3533TIP3    H132158   2.442   6.291   0.199 -0.3738  0.6271 -0.1464
 3533TIP3    H232159   2.353   6.203   0.285  0.2432 -0.3540 -0.5001
 3534TIP3   OH232160   4.557   3.243   1.280  0.2569  0.0485  0.7284
 3534TIP3    H132161   4.612   3.233   1.202 -1.8104  1.0946 -0.9585
 3534TIP3    H232162   4.559   3.337   1.299  0.6181 -0.1716  1.9024
 3535TIP3   OH232163   2.795   0.142   2.812  0.8214 -0.0483  0.2389
 3535TIP3    H132164   2.729   0.211   2.804 -0.2148 -1.0709 -0.3248
 3535TIP3    H232165   2.777   0.100   2.896  0.2075 -0.8628 -0.2895
 3536TIP3   OH232166   4.147   1.141   1.371  0.1943  0.2671  0.0325
 3536TIP3    H132167   4.100   1.164   1.291  0.6564  0.5454 -0.1645
 3536TIP3    H232168   4.079   1.109   1.431 -0.3894  1.5621  0.0896
 3537TIP3   OH232169   3.815   4.866   1.625  0.7118  0.7525  0.1449
 3537TIP3    H132170   3.888   4.896   1.570  0.1280  2.2934  0.1606
 3537TIP3    H232171   3.833   4.906   1.711 -0.4480  1.6672 -0.0174
 3538TIP3   OH232172   6.660   3.178   2.838  0.1454 -0.1612 -0.8522
 3538TIP3    H132173   6.751   3.152   2.825  0.1581 -0.0505 -0.9855
 3538TIP3    H232174   6.660   3.225   2.922  0.6725  2.0044 -1.9766
 3539TIP3   OH232175   5.933   6.470   1.598 -0.3971  0.4326 -0.7791
 3539TIP3    H132176   5.857   6.413   1.605  0.2244 -0.1966  2.1677
 3539TIP3    H232177   5.898   6.558   1.616 -0.6591  0.3824 -1.0270
 3540TIP3   OH232178   4.157   1.058   2.250 -0.1839  0.5147 -0.2050
 3540TIP3    H132179   4.151   1.145   2.291 -1.6941  0.7693 -0.8964
 3540TIP3    H232180   4.083   1.009   2.286  0.7126 -0.5437  0.2487
 3541TIP3   OH232181   6.450   6.124   2.318 -0.1675  0.0914 -0.0961
 3541TIP3    H132182   6.408   6.038   2.327  0.5802 -0.3828 -0.9450
 3541TIP3    H232183   6.536   6.112   2.360  1.0261 -0.4174 -2.4954
 3542TIP3   OH232184   5.314   3.583   2.021 -0.1893  0.3746 -0.1944
 3542TIP3    H132185   5.343   3.670   1.992  0.3046 -0.6977 -3.3521
 3542TIP3    H232186   5.219   3.587   2.016 -0.2170  0.9788  0.5834
 3543TIP3   OH232187   3.284   3.632   2.429 -0.1858 -0.1038  0.7392
 3543TIP3    H132188   3.228   3.689   2.376  0.4970 -0.2865 -0.2160
 3543TIP3    H232189   3.236   3.620   2.511 -0.7803  1.0663  0.5858
 3544TIP3   OH232190   1.325   0.783   7.506  0.1848 -0.2895  0.1486
 3544TIP3    H132191   1.293   0.861   7.551  2.1568  1.3164 -1.0266
 3544TIP3    H232192   1.288   0.789   7.418 -0.4619 -1.2545  0.3409
 3545TIP3   OH232193   2.212   2.037   7.751  0.0677 -0.1704  0.8601
 3545TIP3    H132194   2.280   1.983   7.712  0.0328 -0.6742  1.4865
 3545TIP3    H232195   2.160   1.976   7.804 -0.2262  0.3976  1.2379
 3546TIP3   OH232196   6.678   0.606   7.793 -0.0710  0.5218  0.1967
 3546TIP3    H132197   6.681   0.584   7.699  1.2034 -1.5584  0.6597
 3546TIP3    H232198   6.620   0.682   7.798  3.1147  3.5070 -2.7936
 3547TIP3   OH232199   4.363   0.450   7.628 -0.3998  0.1301  0.3022
 3547TIP3    H132200   4.397   0.361   7.620  0.3734  0.3750  0.7818
 3547TIP3    H232201   4.424   0.494   7.687  0.1753  1.4623 -1.2285
 3548TIP3   OH232202   1.774   2.860   1.649 -0.2906  0.3984 -0.0244
 3548TIP3    H132203   1.751   2.904   1.731 -0.7130  0.7683 -0.3429
 3548TIP3    H232204   1.869   2.846   1.656 -0.5543 -1.0033  1.2217
 3549TIP3   OH232205   1.268   5.346   7.043  0.0523 -0.5805 -0.2265
 3549TIP3    H132206   1.248   5.438   7.026  1.5889  0.1568  1.6426
 3549TIP3    H232207   1.328   5.321   6.973 -0.1662 -0.0985 -0.5922
 3550TIP3   OH232208   3.981   1.911   0.818 -0.3501  0.2217  0.3138
 3550TIP3    H132209   4.016   1.822   0.809  3.0172  1.2898  1.4718
 3550TIP3    H232210   3.982   1.927   0.913 -0.4053  1.6612  0.0877
 3551TIP3   OH232211   2.054   0.744   0.920 -0.3751 -0.3734  0.0879
 3551TIP3    H132212   1.990   0.725   0.851  1.0064 -2.3671 -0.7377
 3551TIP3    H232213   2.099   0.661   0.934  2.0756  0.9658  0.5857
 3552TIP3   OH232214   3.934   5.433   1.218 -0.1324  0.3301  0.0256
 3552TIP3    H132215   3.940   5.519   1.259 -0.9044  0.7128 -0.6169
 3552TIP3    H232216   4.007   5.431   1.157 -0.2541  0.6391 -0.1362
 3553TIP3   OH232217   2.532   3.842   1.392  0.0498 -0.0548  0.2044
 3553TIP3    H132218   2.590   3.817   1.320  1.6546 -1.9110  2.0522
 3553TIP3    H232219   2.445   3.815   1.362  0.5410 -0.0829 -1.3180
 3554TIP3   OH232220   5.504   2.748   2.601  0.4481  0.0195 -0.5241
 3554TIP3    H132221   5.496   2.693   2.523  0.7601  0.3820 -0.8103
 3554TIP3    H232222   5.423   2.731   2.650  0.4305 -0.5068 -0.7292
 3555TIP3   OH232223   0.247   5.254   8.443  0.5537  0.0057  0.7882
 3555TIP3    H132224   0.261   5.185   8.378 -1.3507 -0.5968  0.9603
 3555TIP3    H232225   0.252   5.336   8.394 -0.5454 -0.4282 -0.0871
 3556TIP3   OH232226   3.694   5.413   1.725 -0.2571  0.1221  0.0439
 3556TIP3    H132227   3.708   5.494   1.676  0.8448  0.8249  1.4583
 3556TIP3    H232228   3.763   5.354   1.696  0.8422  0.7914  1.2353
 3557TIP3   OH232229   2.692   0.977   7.848  0.3725  0.1103  0.5717
 3557TIP3    H132230   2.748   0.905   7.876 -0.2251 -0.1861  1.0210
 3557TIP3    H232231   2.752   1.038   7.805  0.7593 -1.0321 -0.5633
 3558TIP3   OH232232   0.898   4.875   8.765  0.8103  0.8784  0.2004
 3558TIP3    H132233   0.941   4.834   8.690 -1.3448  0.9644 -1.1609
 3558TIP3    H232234   0.913   4.969   8.753  1.6762  0.8110  0.6864
 3559TIP3   OH232235   2.607   0.324   2.708  0.5168 -0.7277  0.7604
 3559TIP3    H132236   2.539   0.275   2.662  0.0217  0.9424 -0.4215
 3559TIP3    H232237   2.566   0.409   2.726  1.6417 -0.3990  1.8339
 3560TIP3   OH232238   5.605   5.556   1.692  0.3761 -0.6828 -0.3153
 3560TIP3    H132239   5.554   5.540   1.771  0.8018 -0.5934 -0.0150
 3560TIP3    H232240   5.648   5.641   1.708  0.8000 -0.8668 -0.4590
 3561TIP3   OH232241   5.082   3.706   8.367 -0.5605 -0.8649  0.2946
 3561TIP3    H132242   5.056   3.649   8.439  1.4998 -0.4535  1.4304
 3561TIP3    H232243   5.167   3.742   8.393 -0.6309  0.8027 -1.4890
 3562TIP3   OH232244   2.817   5.977   7.524 -0.5541 -0.0682  0.0025
 3562TIP3    H132245   2.751   5.975   7.454 -0.6224  0.5782  0.0483
 3562TIP3    H232246   2.801   6.059   7.570 -1.5192 -1.1952  1.7715
 3563TIP3   OH232247   2.058   6.068   8.364 -0.7405  0.7467 -0.0209
 3563TIP3    H132248   2.051   6.131   8.436  1.4692  2.2114 -0.9777
 3563TIP3    H232249   2.042   6.120   8.285  0.5338  0.0047 -0.8002
 3564TIP3   OH232250   0.674   3.516   8.285 -0.3423 -0.0404 -0.6409
 3564TIP3    H132251   0.619   3.459   8.337 -0.3598  0.1069 -0.4952
 3564TIP3    H232252   0.754   3.526   8.337  0.1965 -0.9804 -1.2678
 3565TIP3   OH232253   2.085   2.282   0.490 -0.0298 -0.0113 -0.2377
 3565TIP3    H132254   2.159   2.284   0.430 -1.0629  0.6430 -1.5409
 3565TIP3    H232255   2.085   2.193   0.526  2.4064  0.4815  1.1590
 3566TIP3   OH232256   0.461   6.512   8.596  0.0006  0.0224 -0.1032
 3566TIP3    H132257   0.514   6.589   8.618 -1.1031  0.2014  2.1982
 3566TIP3    H232258   0.497   6.443   8.651 -0.8656 -0.3669 -0.0191
 3567TIP3   OH232259   0.415   4.728   1.186 -0.3207 -0.4597  0.4839
 3567TIP3    H132260   0.356   4.655   1.203 -0.1413 -0.6456  0.3151
 3567TIP3    H232261   0.372   4.803   1.227  0.2713 -0.9556  2.1047
 3568TIP3   OH232262   3.773   6.327   8.578 -0.0431 -0.1600  0.2716
 3568TIP3    H132263   3.755   6.246   8.625  1.9965  0.6504  2.7042
 3568TIP3    H232264   3.868   6.325   8.564 -0.1862  1.0980 -1.0697
 3569TIP3   OH232265   3.256   0.262   1.196 -0.4677  0.1779  0.7295
 3569TIP3    H132266   3.338   0.214   1.186 -1.2005 -1.0762  0.4545
 3569TIP3    H232267   3.239   0.262   1.290 -0.9292 -0.9634  0.6636
 3570TIP3   OH232268   0.434   0.044   0.521 -0.4960  0.1949  0.0818
 3570TIP3    H132269   0.386  -0.036   0.545 -1.2515  0.3543 -0.8531
 3570TIP3    H232270   0.526   0.016   0.516 -0.6665 -0.4565  0.4236
 3571TIP3   OH232271   5.045   0.650   2.159 -0.1056 -0.0271  0.4326
 3571TIP3    H132272   5.021   0.741   2.175  1.2209  0.8061 -1.8171
 3571TIP3    H232273   5.023   0.635   2.067  0.5203 -1.7178  0.5160
 3572TIP3   OH232274   2.848   6.050   0.762  0.0711 -0.2084  0.4581
 3572TIP3    H132275   2.821   6.029   0.673 -1.1757 -0.6647  0.9253
 3572TIP3    H232276   2.922   5.991   0.778 -0.7741 -1.3505  0.2969
 3573TIP3   OH232277   6.698   0.366   1.296 -0.1488  0.1021 -0.7532
 3573TIP3    H132278   6.687   0.429   1.224 -1.7271 -0.2165 -0.8374
 3573TIP3    H232279   6.768   0.308   1.267  0.3436  0.9467 -1.3087
 3574TIP3   OH232280   5.850   5.300   0.779 -0.3006 -0.1629  0.3503
 3574TIP3    H132281   5.812   5.284   0.866 -3.5646 -1.2081 -1.1190
 3574TIP3    H232282   5.808   5.381   0.749 -0.2442 -0.5231 -0.7540
 3575TIP3   OH232283   1.100   4.381   7.260 -0.1950 -0.2558  0.3974
 3575TIP3    H132284   1.132   4.421   7.341  0.4677  1.3908 -0.6298
 3575TIP3    H232285   1.051   4.304   7.289  0.3422  0.0844  2.3311
 3576TIP3   OH232286   2.732   3.904   7.658 -0.0330 -0.0075  0.0687
 3576TIP3    H132287   2.710   3.954   7.736 -0.4714  0.3976 -0.3081
 3576TIP3    H232288   2.825   3.886   7.666 -0.1114 -0.1264  0.7730
 3577TIP3   OH232289   5.282   2.840   7.325  1.0968 -0.4560 -0.0034
 3577TIP3    H132290   5.362   2.819   7.276 -0.1615  1.6843 -3.3313
 3577TIP3    H232291   5.285   2.935   7.335 -1.4159 -0.2228 -1.0046
 3578TIP3   OH232292   1.660   2.140   1.872 -0.1657 -0.2215 -0.6946
 3578TIP3    H132293   1.613   2.085   1.809  0.5786 -0.6568 -0.8806
 3578TIP3    H232294   1.706   2.077   1.929 -0.0032  0.1892 -0.3708
 3579TIP3   OH232295   6.304   3.435   3.100  0.8109 -0.1477 -0.2774
 3579TIP3    H132296   6.234   3.373   3.082  0.0291  1.3270 -2.7989
 3579TIP3    H232297   6.385   3.387   3.082  0.3498 -1.0774  0.0877
 3580TIP3   OH232298   0.768   0.533   2.345 -0.2290  0.2473 -0.1291
 3580TIP3    H132299   0.727   0.498   2.266 -0.9652 -1.0618  0.7986
 3580TIP3    H232300   0.722   0.615   2.362 -0.6010  0.1404 -0.6147
 3581TIP3   OH232301   1.378   2.699   8.008 -0.1979  0.5576 -0.4502
 3581TIP3    H132302   1.404   2.621   7.960 -1.4008 -0.7769  0.9638
 3581TIP3    H232303   1.439   2.704   8.081 -0.1587  0.9324 -0.5039
 3582TIP3   OH232304   3.216   5.197   0.057  0.1578 -0.3311  0.7849
 3582TIP3    H132305   3.216   5.249  -0.023  0.6327  0.0262  1.0109
 3582TIP3    H232306   3.307   5.172   0.069 -0.2039 -2.0458  0.1560
 3583TIP3   OH232307   6.053   2.790   2.259  0.1226  0.0490  0.6329
 3583TIP3    H132308   5.959   2.808   2.266  0.0289 -0.3344  0.4008
 3583TIP3    H232309   6.086   2.859   2.201 -0.0103  0.2031  0.7397
 3584TIP3   OH232310   6.584   2.982   0.776 -0.3133 -0.0404  0.3023
 3584TIP3    H132311   6.511   2.986   0.837 -0.3605 -2.0843  0.4430
 3584TIP3    H232312   6.543   2.979   0.690 -0.4382 -1.4032  0.3905
 3585TIP3   OH232313   5.273   1.930   3.074  0.6741  0.4429  0.4011
 3585TIP3    H132314   5.292   2.023   3.064  0.0502  0.4593 -0.8039
 3585TIP3    H232315   5.186   1.928   3.114  0.3518  0.3934 -0.2860
 3586TIP3   OH232316   4.426   4.266   1.927 -0.1263 -0.0693  0.1837
 3586TIP3    H132317   4.393   4.180   1.904 -0.2604 -0.2411  0.9769
 3586TIP3    H232318   4.466   4.300   1.847 -0.5276 -0.6541 -0.2630
 3587TIP3   OH232319   4.925   2.367   2.923  0.2688  0.9562  0.4711
 3587TIP3    H132320   4.892   2.294   2.975  0.8837  1.0162  0.9588
 3587TIP3    H232321   5.017   2.375   2.949  0.2350  1.8411  0.3525
 3588TIP3   OH232322   6.669   6.634   2.122 -0.3529 -0.1398 -0.0458
 3588TIP3    H132323   6.673   6.571   2.050  0.0605  2.2798 -2.2811
 3588TIP3    H232324   6.756   6.630   2.162  0.1908  0.0824 -1.1666
 3589TIP3   OH232325   1.199   1.773   1.057  0.3257 -0.0048  0.0170
 3589TIP3    H132326   1.239   1.785   0.972 -1.1251  0.7154 -0.6093
 3589TIP3    H232327   1.181   1.861   1.088 -0.5773 -0.2799  0.3373
 3590TIP3   OH232328   4.934   6.350   0.893  0.0610 -0.0221  0.3522
 3590TIP3    H132329   5.012   6.382   0.939 -0.2887  0.6335  0.5044
 3590TIP3    H232330   4.948   6.375   0.801  0.6790 -1.1770  0.1129
 3591TIP3   OH232331   0.985   0.119   2.629  0.0363 -0.0910 -0.7638
 3591TIP3    H132332   0.953   0.209   2.627 -0.3080 -0.2168 -0.9824
 3591TIP3    H232333   1.078   0.125   2.611  0.3048  0.3574  0.6204
 3592TIP3   OH232334   6.564   0.045   1.556 -0.5859  0.2599  0.1705
 3592TIP3    H132335   6.531  -0.028   1.504 -1.7121  0.1150  1.0434
 3592TIP3    H232336   6.548   0.019   1.646  0.6162  0.8414  0.5667
 3593TIP3   OH232337   4.702   6.536   8.236  0.6084 -0.2985  0.1500
 3593TIP3    H132338   4.789   6.563   8.205  0.5518 -0.1080  0.1526
 3593TIP3    H232339   4.655   6.619   8.249  0.4035 -0.4025  0.0796
 3594TIP3   OH232340   4.393   0.982   8.633 -0.0009 -0.2647  0.2364
 3594TIP3    H132341   4.303   1.011   8.648  0.0784 -0.2589  0.7152
 3594TIP3    H232342   4.389   0.887   8.643  0.0812 -0.2474  0.4302
 3595TIP3   OH232343   4.743   6.391   0.602 -0.1021  0.0062 -0.3610
 3595TIP3    H132344   4.766   6.313   0.652 -0.2511 -1.0635 -1.8774
 3595TIP3    H232345   4.827   6.428   0.575 -0.0322  0.3340  0.2974
 3596TIP3   OH232346   3.943   2.718   8.161 -0.0509  0.2554  0.9050
 3596TIP3    H132347   3.997   2.751   8.233 -0.9512 -0.0983  1.7600
 3596TIP3    H232348   3.864   2.771   8.164  0.3386  0.9629 -0.5263
 3597TIP3   OH232349   2.651   2.679   2.791 -0.4173  0.3812  0.5428
 3597TIP3    H132350   2.633   2.586   2.776 -1.2437  0.7856 -1.1703
 3597TIP3    H232351   2.747   2.686   2.788 -0.2237 -0.6672  2.5772
 3598TIP3   OH232352   2.343   1.369   2.403 -0.1641  0.1750  0.4776
 3598TIP3    H132353   2.353   1.338   2.313  1.2903 -1.6945  1.2071
 3598TIP3    H232354   2.431   1.397   2.429 -0.3871 -0.0823  1.5804
 3599TIP3   OH232355   2.475   0.022   0.363 -0.0229 -0.3626  0.5761
 3599TIP3    H132356   2.465  -0.051   0.301  1.5889 -1.1011  1.1275
 3599TIP3    H232357   2.435  -0.010   0.444  0.4130 -0.5157  0.7309
 3600TIP3   OH232358   5.991   0.516   0.062  0.2657 -0.0455 -0.7842
 3600TIP3    H132359   6.038   0.541  -0.019  0.6098  1.1905 -0.2367
 3600TIP3    H232360   6.032   0.434   0.089 -0.4089 -0.9267 -2.2859
 3601TIP3   OH232361   0.757   0.846   0.778 -0.0758  0.2790  0.1779
 3601TIP3    H132362   0.807   0.913   0.824  0.2957  0.3297 -0.2862
 3601TIP3    H232363   0.749   0.880   0.689  0.2740 -0.3722 -0.1120
 3602TIP3   OH232364   1.279   3.560   1.412  1.0436 -0.5545 -0.8412
 3602TIP3    H132365   1.236   3.474   1.412  0.6105 -0.3797  0.8779
 3602TIP3    H232366   1.371   3.541   1.428  1.1928 -0.7583 -1.8423
 3603TIP3   OH232367   1.110   2.349   1.640  0.1727  0.0335  0.1089
 3603TIP3    H132368   1.159   2.410   1.695 -0.0498 -0.6532  1.0921
 3603TIP3    H232369   1.177   2.291   1.603  0.4595  1.2728 -1.3793
 3604TIP3   OH232370   2.312   1.726   3.085 -0.1731  0.6153 -0.0606
 3604TIP3    H132371   2.306   1.657   3.151 -0.5887  0.5957 -0.1123
 3604TIP3    H232372   2.278   1.686   3.005  1.7044  0.1752 -0.6811
 3605TIP3   OH232373   5.116   6.132   0.156  0.3835 -0.0981  0.2024
 3605TIP3    H132374   5.181   6.201   0.141  1.7490 -1.6999 -1.7299
 3605TIP3    H232375   5.167   6.059   0.193 -0.7943 -0.5587  0.9783
 3606TIP3   OH232376   0.185   6.169   0.058  0.1939  0.2235 -0.1580
 3606TIP3    H132377   0.133   6.247   0.036  0.8074  0.1023 -2.2801
 3606TIP3    H232378   0.133   6.096   0.023  0.1018 -0.2369  0.9231
 3607TIP3   OH232379   5.075   0.093   8.756  0.2938 -0.2497  0.2181
 3607TIP3    H132380   5.100   0.181   8.783 -0.4161  0.3149 -0.9250
 3607TIP3    H232381   5.020   0.061   8.828 -0.6178  0.7831 -0.0119
 3608TIP3   OH232382   1.264   0.676   1.917  0.5217  0.4605 -0.0060
 3608TIP3    H132383   1.327   0.612   1.951  1.6088  0.0251 -2.6427
 3608TIP3    H232384   1.308   0.760   1.927  0.5226  0.4272  0.3022
 3609TIP3   OH232385   6.619   5.996   1.214  0.3353 -0.0277 -0.3389
 3609TIP3    H132386   6.681   5.969   1.146 -0.5332  1.5967 -1.8596
 3609TIP3    H232387   6.533   5.977   1.176 -0.1579 -1.1359  1.2440
 3610TIP3   OH232388   0.600   1.801   2.518  0.0070  0.0862 -0.7973
 3610TIP3    H132389   0.597   1.711   2.552  0.9060  0.6813  0.9693
 3610TIP3    H232390   0.522   1.808   2.463 -0.5832 -1.4986 -0.2351
 3611TIP3   OH232391   2.437   3.750   0.772  0.1623  0.0078  0.2319
 3611TIP3    H132392   2.384   3.778   0.697 -0.3222  1.0210  0.9291
 3611TIP3    H232393   2.431   3.654   0.771  0.2670 -0.0042 -1.0925
 3612TIP3   OH232394   2.410   1.619   7.184  0.1857  0.5404 -0.1753
 3612TIP3    H132395   2.420   1.550   7.119 -0.7854 -0.3408  0.5639
 3612TIP3    H232396   2.376   1.694   7.136 -1.5067 -0.4229 -0.5378
 3613TIP3   OH232397   1.647   5.246   0.407 -0.5437 -0.5844  0.7322
 3613TIP3    H132398   1.610   5.195   0.479  1.2727 -1.7511  0.9010
 3613TIP3    H232399   1.742   5.238   0.417 -0.2179 -0.2391 -1.4157
 3614TIP3   OH232400   3.994   1.738   0.126  0.2873  0.3170 -0.3442
 3614TIP3    H132401   4.055   1.685   0.076  0.3434 -0.8631  0.9362
 3614TIP3    H232402   4.009   1.828   0.095  1.2557 -0.2034 -1.4403
 3615TIP3   OH232403   2.070   0.517   1.316  0.0639  0.0821  0.2170
 3615TIP3    H132404   2.013   0.509   1.239 -0.2740 -0.1218  0.4858
 3615TIP3    H232405   2.041   0.447   1.374  1.3832 -0.7796 -0.1430
 3616TIP3   OH232406   5.074   6.270   6.845 -0.2553  0.1800 -0.2170
 3616TIP3    H132407   5.001   6.267   6.908 -1.7629 -1.0432 -1.9351
 3616TIP3    H232408   5.153   6.263   6.899 -1.3656  1.6336  1.7221
 3617TIP3   OH232409   3.346   3.801   1.100  0.7812  0.4415 -0.5025
 3617TIP3    H132410   3.398   3.881   1.090  1.9899  0.0693  1.9495
 3617TIP3    H232411   3.327   3.773   1.011 -0.4406  3.8964 -1.5166
 3618TIP3   OH232412   4.127   4.435   2.546  0.1890 -0.0482  0.3961
 3618TIP3    H132413   4.095   4.488   2.473 -0.5698  1.4123  1.7265
 3618TIP3    H232414   4.217   4.413   2.522  0.5852  1.9847 -0.1960
 3619TIP3   OH232415   1.529   3.258   1.878  0.6478 -0.1478  0.2547
 3619TIP3    H132416   1.439   3.254   1.844  1.0601  1.2634 -1.1361
 3619TIP3    H232417   1.519   3.274   1.971 -0.5385 -1.8937  0.4693
 3620TIP3   OH232418   2.372   5.857   0.900  0.8653  0.5377  0.0332
 3620TIP3    H132419   2.362   5.952   0.910  3.1468  1.2533 -3.0293
 3620TIP3    H232420   2.466   5.842   0.910  0.4217 -1.6696  1.6422
 3621TIP3   OH232421   1.808   0.020   2.673 -0.4406  0.2122 -0.2683
 3621TIP3    H132422   1.823   0.053   2.762 -1.1187 -0.3077  0.0466
 3621TIP3    H232423   1.771  -0.067   2.686  0.0392 -0.1181 -1.0769
 3622TIP3   OH232424   3.267   1.170   1.216 -0.6436  0.2489 -0.2462
 3622TIP3    H132425   3.206   1.228   1.262 -0.4213 -0.3571  0.8319
 3622TIP3    H232426   3.298   1.109   1.283 -1.2697 -1.4576 -1.4333
 3623TIP3   OH232427   2.809   5.775   2.316  0.3420  0.2028  0.4677
 3623TIP3    H132428   2.782   5.846   2.374 -1.1851  1.5533 -1.7441
 3623TIP3    H232429   2.905   5.776   2.320  0.4589  3.2897 -0.3868
 3624TIP3   OH232430   4.714   4.794   7.527  0.1195 -0.1080 -0.0828
 3624TIP3    H132431   4.690   4.736   7.455  1.2741 -0.9981  0.2345
 3624TIP3    H232432   4.793   4.839   7.496  1.2458 -1.2764  1.0058
 3625TIP3   OH232433   6.252   6.164   0.959  0.1373 -0.6850 -0.4750
 3625TIP3    H132434   6.283   6.127   0.877 -0.3509 -2.0532 -0.0633
 3625TIP3    H232435   6.185   6.228   0.933 -0.8501 -1.9308 -1.1255
 3626TIP3   OH232436   4.764   4.214   2.318 -0.1145 -0.4052 -0.0755
 3626TIP3    H132437   4.795   4.219   2.409 -1.0003  1.0631  0.1802
 3626TIP3    H232438   4.777   4.122   2.293  1.0080 -0.6351  1.2128
 3627TIP3   OH232439   6.498   1.988   0.184  0.3592 -0.3515 -0.3830
 3627TIP3    H132440   6.538   1.904   0.160  0.9097 -0.0431 -0.5579
 3627TIP3    H232441   6.483   1.981   0.279  1.0024 -0.4063 -0.2772
 3628TIP3   OH232442   1.107   0.663   3.247  0.3058 -0.3392  0.3317
 3628TIP3    H132443   1.082   0.593   3.187  0.7297  2.0744 -2.8873
 3628TIP3    H232444   1.201   0.675   3.233  0.1505  1.1831  0.4495
 3629TIP3   OH232445   4.816   6.731   1.569 -0.4828 -0.5527  0.2762
 3629TIP3    H132446   4.868   6.735   1.649 -0.6514  1.7033  0.3414
 3629TIP3    H232447   4.882   6.732   1.499 -0.3552 -1.8963  0.3545
 3630TIP3   OH232448   2.521   4.977   3.269  0.1525 -0.3005  0.1026
 3630TIP3    H132449   2.569   5.050   3.307 -1.3223  0.0944  1.2837
 3630TIP3    H232450   2.581   4.903   3.275  0.3541 -0.0157  2.3195
 3631TIP3   OH232451   2.912   5.614   0.878 -0.5751 -0.3445  0.0615
 3631TIP3    H132452   2.967   5.691   0.860  0.9335 -1.0421  1.4324
 3631TIP3    H232453   2.843   5.619   0.812 -0.7492  2.3732  0.3099
 3632TIP3   OH232454   1.066   3.714   1.698 -0.0946 -0.1964  0.4072
 3632TIP3    H132455   0.984   3.690   1.741 -0.0036  1.2541  1.4593
 3632TIP3    H232456   1.133   3.708   1.766  0.1225  1.7222  0.4367
 3633TIP3   OH232457   4.027   3.401   2.335  0.2374 -0.1575 -1.2055
 3633TIP3    H132458   4.066   3.346   2.267 -0.7951  0.1757 -2.1105
 3633TIP3    H232459   3.933   3.385   2.328  0.0154  0.8302 -0.7095
 3634TIP3   OH232460   5.253   6.125   8.704  0.0855  0.2955 -0.0348
 3634TIP3    H132461   5.182   6.182   8.734 -0.6757 -0.8245  0.3496
 3634TIP3    H232462   5.233   6.040   8.741  1.8409  0.0170  0.3968
 3635TIP3   OH232463   2.653   5.535   1.012  0.1492  0.0428 -0.3464
 3635TIP3    H132464   2.729   5.572   0.967  0.1694  0.2717 -0.1245
 3635TIP3    H232465   2.660   5.441   0.997  1.7112 -0.1930  1.5648
 3636TIP3   OH232466   5.400   1.732   2.906  0.6034 -0.3959  0.1074
 3636TIP3    H132467   5.454   1.774   2.839 -0.8452  0.6455 -0.4345
 3636TIP3    H232468   5.359   1.804   2.953 -1.5756 -1.1448 -0.5441
 3637TIP3   OH232469   0.562   1.110   8.051  0.1261 -0.5320  0.2705
 3637TIP3    H132470   0.599   1.037   8.101  0.0553 -0.7566 -0.0018
 3637TIP3    H232471   0.470   1.112   8.076  0.0350 -0.8052 -0.0410
 3638TIP3   OH232472   3.949   1.644   2.394 -0.3714  0.7318  0.4874
 3638TIP3    H132473   4.010   1.600   2.453 -0.4680 -1.1169 -0.7164
 3638TIP3    H232474   3.870   1.656   2.446 -0.3543 -0.6066  0.8444
 3639TIP3   OH232475   4.750   2.886   2.072  0.1982 -0.2879  0.3836
 3639TIP3    H132476   4.710   2.911   2.156  0.9035  0.2775  0.5510
 3639TIP3    H232477   4.756   2.790   2.077 -1.1709 -0.3978  0.3345
 3640TIP3   OH232478   0.973   1.639   8.191  0.0198 -0.5436 -0.1390
 3640TIP3    H132479   0.932   1.622   8.276 -2.0202 -0.8948 -1.1229
 3640TIP3    H232480   0.960   1.733   8.177  0.9826 -0.3429  0.2087
 3641TIP3   OH232481   5.804   6.232   2.915 -0.2166  0.3852 -0.5898
 3641TIP3    H132482   5.819   6.174   2.840 -1.0538  0.5614 -0.9059
 3641TIP3    H232483   5.877   6.294   2.912  0.8875 -0.8176 -0.0487
 3642TIP3   OH232484   1.719   4.581   0.835 -0.1861 -0.7131  0.1490
 3642TIP3    H132485   1.626   4.577   0.855 -0.4948  1.7629 -0.3955
 3642TIP3    H232486   1.732   4.517   0.765 -1.1533 -2.0525  1.1387
 3643TIP3   OH232487   3.158   2.017   8.784 -0.7637  0.0303  0.8913
 3643TIP3    H132488   3.225   1.972   8.734  0.0156 -0.7792  2.5780
 3643TIP3    H232489   3.126   2.085   8.725 -0.5562 -1.4298 -1.0001
 3644TIP3   OH232490   2.360   4.170   6.986  0.2662 -0.2643  0.0543
 3644TIP3    H132491   2.406   4.096   7.026  1.5816  0.1572 -0.6210
 3644TIP3    H232492   2.397   4.247   7.030 -1.8521  0.0027  1.5245
 3645TIP3   OH232493   2.485   4.994   1.038  0.8914  0.5505  0.2249
 3645TIP3    H132494   2.438   5.067   1.080  0.3593  0.1835  0.2896
 3645TIP3    H232495   2.416   4.943   0.995  1.4662  1.1797 -1.5443
 3646TIP3   OH232496   4.294   2.941   8.720  0.6114 -0.2648  0.5835
 3646TIP3    H132497   4.330   2.959   8.633 -1.1973  0.0675 -0.1292
 3646TIP3    H232498   4.360   2.885   8.762  2.3866  1.0834 -0.2856
 3647TIP3   OH232499   0.229   0.446   1.306 -0.1606  0.3481 -0.3127
 3647TIP3    H132500   0.223   0.380   1.237 -1.0073  0.6062 -0.4944
 3647TIP3    H232501   0.312   0.427   1.350  0.8256  0.7128 -1.9399
 3648TIP3   OH232502   5.993   6.409   2.831  0.1138 -0.4179  0.1043
 3648TIP3    H132503   6.088   6.400   2.829  0.5562  2.4957  1.7111
 3648TIP3    H232504   5.977   6.499   2.805 -2.2589 -0.9012 -0.3344
 3649TIP3   OH232505   6.169   1.841   7.217 -0.8978 -0.1093  0.0269
 3649TIP3    H132506   6.166   1.934   7.194 -1.1529 -0.1711 -0.2070
 3649TIP3    H232507   6.259   1.815   7.201 -1.3253 -0.4447 -2.1455
 3650TIP3   OH232508   4.742   0.676   7.629 -0.1482  1.7760 -0.2143
 3650TIP3    H132509   4.683   0.678   7.554 -1.3496  1.8715  0.7122
 3650TIP3    H232510   4.688   0.646   7.702  1.3891  0.0544  0.2848
 3651TIP3   OH232511   3.935   4.268   7.948  0.6342  0.0152 -0.7709
 3651TIP3    H132512   3.990   4.203   7.991 -1.6621 -1.8128 -0.4229
 3651TIP3    H232513   3.970   4.274   7.859  1.1633 -1.3782 -0.6739
 3652TIP3   OH232514   3.922   4.727   0.622  0.6971  0.1938 -0.4325
 3652TIP3    H132515   3.954   4.812   0.594  1.5951 -0.3801 -1.2007
 3652TIP3    H232516   3.998   4.669   0.615  0.4250 -0.4287  1.2335
 3653TIP3   OH232517   2.016   1.184   1.394 -0.2690  0.3021  0.3800
 3653TIP3    H132518   2.065   1.194   1.476 -0.0343  0.0994  0.2659
 3653TIP3    H232519   2.002   1.090   1.385  0.3222  0.2536 -0.1625
 3654TIP3   OH232520   1.203   6.491   8.393 -0.0142 -0.0826  0.1740
 3654TIP3    H132521   1.222   6.489   8.300 -1.0955  0.6670 -0.0833
 3654TIP3    H232522   1.287   6.511   8.435  0.4635 -0.3745 -0.6297
 3655TIP3   OH232523   5.655   5.402   3.381  0.1000 -0.3937  0.2223
 3655TIP3    H132524   5.684   5.311   3.378  1.5234  0.0740 -1.5810
 3655TIP3    H232525   5.601   5.407   3.460  0.5457 -2.6210  0.7335
 3656TIP3   OH232526   4.909   3.048   2.407  0.3884 -0.6048  0.0325
 3656TIP3    H132527   4.825   3.003   2.409  0.6125 -1.0014  0.7337
 3656TIP3    H232528   4.932   3.059   2.499 -0.2111  1.9952 -0.0438
 3657TIP3   OH232529   4.293   2.915   0.720 -0.4700  0.1602 -0.7426
 3657TIP3    H132530   4.293   2.823   0.693  1.3203  0.0903 -0.6461
 3657TIP3    H232531   4.217   2.924   0.777  0.8295 -2.0253  1.5515
 3658TIP3   OH232532   5.000   4.249   2.107 -0.0345  0.0106 -0.9737
 3658TIP3    H132533   4.932   4.313   2.124 -0.7519 -0.5936 -1.5140
 3658TIP3    H232534   5.039   4.231   2.192  0.8290  1.8474 -0.9173
 3659TIP3   OH232535   4.571   0.031   2.245  0.2008 -0.5969  0.1720
 3659TIP3    H132536   4.484  -0.009   2.241 -0.5613  0.8328  1.7142
 3659TIP3    H232537   4.601   0.030   2.154 -2.6065  1.3537 -0.9125
 3660TIP3   OH232538   2.503   2.473   8.234  0.1353  0.4323 -0.3415
 3660TIP3    H132539   2.459   2.445   8.314 -0.0407  0.2445 -0.5046
 3660TIP3    H232540   2.572   2.408   8.221 -1.4454 -1.0875 -1.7616
 3661TIP3   OH232541   6.225   4.848   2.846 -0.2377  0.5480 -0.5510
 3661TIP3    H132542   6.302   4.791   2.845  0.4950  1.5165 -0.5530
 3661TIP3    H232543   6.184   4.829   2.931  2.2861  2.9116  1.3860
 3662TIP3   OH232544   0.945   2.026   0.616  0.7217 -0.1532  0.5852
 3662TIP3    H132545   0.908   2.085   0.681  2.5046  0.8899  0.7415
 3662TIP3    H232546   0.909   2.056   0.533  1.2985  0.9547  0.7074
 3663TIP3   OH232547   0.237   4.476   1.226  0.1114 -0.1800  0.8640
 3663TIP3    H132548   0.161   4.432   1.262  0.8882 -1.6284  0.7968
 3663TIP3    H232549   0.201   4.540   1.164 -1.0336 -0.9186  0.7501
 3664TIP3   OH232550   0.288   5.458   8.232 -0.2048 -0.3405  0.2473
 3664TIP3    H132551   0.379   5.477   8.207 -0.1407  1.3517  1.5653
 3664TIP3    H232552   0.240   5.454   8.149  0.5706  1.7291 -0.3590
 3665TIP3   OH232553   2.958   3.798   8.455 -0.1775  0.2372  0.0265
 3665TIP3    H132554   3.041   3.757   8.481  0.7889  1.8888 -0.3178
 3665TIP3    H232555   2.896   3.725   8.452  1.1997 -1.0192  0.5041
 3666TIP3   OH232556   2.555   6.337   8.344 -0.0533 -0.4231 -0.7544
 3666TIP3    H132557   2.650   6.339   8.358 -0.3390 -1.0114  1.5971
 3666TIP3    H232558   2.528   6.429   8.349 -0.0399 -0.5062  2.4729
 3667TIP3   OH232559   6.511   5.259   2.902 -0.3994  0.2871  0.2390
 3667TIP3    H132560   6.524   5.222   2.989 -0.7594 -0.5755 -0.0658
 3667TIP3    H232561   6.548   5.195   2.842 -0.3127  0.7936 -0.2599
 3668TIP3   OH232562   5.235   6.287   1.603  0.2865  0.5624  0.2371
 3668TIP3    H132563   5.232   6.346   1.527 -0.8508 -1.2175 -1.1871
 3668TIP3    H232564   5.281   6.210   1.570  0.4490  0.0573  1.6190
 3669TIP3   OH232565   2.480   4.894   1.440  0.4352 -0.0518 -0.2804
 3669TIP3    H132566   2.467   4.969   1.381  0.2551 -0.7318 -1.1212
 3669TIP3    H232567   2.532   4.929   1.512 -2.2428  1.6861  0.9424
 3670TIP3   OH232568   2.536   5.379   2.608 -0.1334  0.1675 -0.1617
 3670TIP3    H132569   2.599   5.429   2.661 -1.5336 -0.2911  2.0867
 3670TIP3    H232570   2.474   5.445   2.577  0.0767  0.3055 -0.2868
 3671TIP3   OH232571   4.930   1.978   7.473 -0.0528  0.1027  0.1225
 3671TIP3    H132572   4.926   1.944   7.384 -0.7344  1.3966 -0.3622
 3671TIP3    H232573   4.860   2.043   7.477 -0.5722 -0.5092  1.8532
 3672TIP3   OH232574   1.482   2.975   8.407 -0.0723  0.2296 -0.1465
 3672TIP3    H132575   1.499   2.943   8.495  1.2297 -1.0077 -0.7990
 3672TIP3    H232576   1.563   3.021   8.382 -0.0093 -0.3529 -1.0642
 3673TIP3   OH232577   4.374   5.434   2.484 -0.1744 -0.2112 -0.1002
 3673TIP3    H132578   4.361   5.408   2.392  1.8605 -1.4766 -0.0999
 3673TIP3    H232579   4.468   5.454   2.490  0.1932 -2.1363  2.1246
 3674TIP3   OH232580   0.330   2.542   8.578 -0.6360  0.2755 -0.9036
 3674TIP3    H132581   0.311   2.507   8.491  2.9598  0.2435 -1.8527
 3674TIP3    H232582   0.307   2.635   8.572 -3.8594 -0.4025 -0.5769
 3675TIP3   OH232583   2.814   3.658   0.247  0.4106 -0.1283 -0.1202
 3675TIP3    H132584   2.845   3.568   0.239 -0.5921 -0.5249  0.4021
 3675TIP3    H232585   2.720   3.651   0.264  0.6856  0.9265  2.2829
 3676TIP3   OH232586   4.621   2.208   8.305 -0.0242 -0.3982 -0.1821
 3676TIP3    H132587   4.711   2.188   8.332  0.9192  1.1789 -1.9553
 3676TIP3    H232588   4.598   2.286   8.355 -0.3108 -0.6343  0.0567
 3677TIP3   OH232589   4.202   4.272   7.813 -0.2375 -0.4443  0.4009
 3677TIP3    H132590   4.237   4.195   7.859 -0.7818  0.3746  2.2733
 3677TIP3    H232591   4.153   4.235   7.739 -1.4097 -2.0147  1.8766
 3678TIP3   OH232592   0.691   6.468   1.269 -0.0795 -0.3736  0.5488
 3678TIP3    H132593   0.602   6.464   1.302 -1.1421 -2.1268 -2.1661
 3678TIP3    H232594   0.747   6.458   1.347 -2.2303 -0.1270  2.1996
 3679TIP3   OH232595   1.779   4.038   8.230 -0.4759 -0.0673  0.8715
 3679TIP3    H132596   1.875   4.047   8.231 -0.3978 -0.8006  1.0337
 3679TIP3    H232597   1.754   4.044   8.322 -0.3472 -1.9582  1.0716
 3680TIP3   OH232598   2.232   2.523   1.650 -0.5216 -0.5800 -0.2073
 3680TIP3    H132599   2.156   2.577   1.671 -0.5903 -0.2347 -1.2904
 3680TIP3    H232600   2.267   2.560   1.569  1.1839 -0.3357  0.5964
 3681TIP3   OH232601   3.408   1.891   1.112  0.3366  0.4729 -0.1437
 3681TIP3    H132602   3.384   1.866   1.023  0.6126  2.9631 -1.0195
 3681TIP3    H232603   3.501   1.915   1.105  1.3449 -2.4433  1.6270
 3682TIP3   OH232604   1.886   0.025   0.091 -0.3678  0.2238  0.1058
 3682TIP3    H132605   1.902   0.015   0.185 -0.1987 -0.6734 -0.0089
 3682TIP3    H232606   1.935   0.103   0.066  1.0029 -0.4954  0.4482
 3683TIP3   OH232607   6.132   0.164   8.644  0.0385  0.0381  0.0449
 3683TIP3    H132608   6.120   0.080   8.689  0.4241  0.6944  1.4187
 3683TIP3    H232609   6.059   0.168   8.582 -0.7624 -0.7236  0.8972
 3684TIP3   OH232610   5.671   2.778   1.651 -0.0925  0.2762  0.8275
 3684TIP3    H132611   5.752   2.816   1.616  0.0420 -0.6723  0.0598
 3684TIP3    H232612   5.667   2.690   1.613 -1.0322 -0.0234  1.5653
 3685TIP3   OH232613   0.776   3.504   0.711 -0.1286 -0.0712  0.2965
 3685TIP3    H132614   0.743   3.523   0.624 -0.3573  1.1144  0.6190
 3685TIP3    H232615   0.781   3.409   0.716  0.0241 -0.1451 -1.0531
 3686TIP3   OH232616   3.705   0.682   0.683  0.0160 -0.0895 -0.1703
 3686TIP3    H132617   3.627   0.706   0.733 -0.1485  0.2441 -0.5825
 3686TIP3    H232618   3.761   0.637   0.746 -0.5227 -0.3572  0.1223
 3687TIP3   OH232619   3.419   6.596   8.062 -0.2293 -0.1593 -0.2499
 3687TIP3    H132620   3.462   6.633   8.139  0.2400  0.4837 -0.8115
 3687TIP3    H232621   3.477   6.525   8.034  0.2441  0.4161 -0.7421
 3688TIP3   OH232622   1.641   6.328   0.471 -0.3332  0.3097  0.0160
 3688TIP3    H132623   1.680   6.412   0.445 -0.6323  0.5447  0.3245
 3688TIP3    H232624   1.704   6.262   0.440 -0.5088  0.5955 -1.0063
 3689TIP3   OH232625   3.260   2.385   0.426 -0.5398 -0.2617  0.1765
 3689TIP3    H132626   3.259   2.330   0.348 -1.4245 -0.3474  0.2293
 3689TIP3    H232627   3.168   2.386   0.454 -0.1303 -0.7666  1.5902
 3690TIP3   OH232628   3.777   5.666   7.660 -0.4351  0.1565  0.0025
 3690TIP3    H132629   3.804   5.743   7.610 -0.2079 -0.2805 -0.5605
 3690TIP3    H232630   3.835   5.665   7.736 -0.7259  0.7806  0.2360
 3691TIP3   OH232631   0.718   2.811   1.459  0.2094  0.0582  0.3268
 3691TIP3    H132632   0.725   2.906   1.455  1.7534 -0.0487 -0.1023
 3691TIP3    H232633   0.775   2.785   1.532 -1.1949 -0.4640  1.2741
 3692TIP3   OH232634   1.053   5.916   7.700 -0.1929 -0.1923  0.2226
 3692TIP3    H132635   1.076   5.824   7.688  1.1333  0.2299 -0.7480
 3692TIP3    H232636   1.091   5.960   7.624  0.5919  1.3913  1.4699
 3693TIP3   OH232637   0.873   0.922   6.878 -0.1093  0.8970 -0.1919
 3693TIP3    H132638   0.915   0.924   6.792  0.9264 -1.3973  0.1838
 3693TIP3    H232639   0.945   0.905   6.939 -1.3785 -4.1416  0.3937
 3694TIP3   OH232640   2.661   6.468   0.188 -0.3836  0.1411  0.2601
 3694TIP3    H132641   2.729   6.409   0.154 -0.6629 -0.9481  1.5311
 3694TIP3    H232642   2.698   6.506   0.267 -0.8613  0.3775  0.3758
 3695TIP3   OH232643   2.672   4.868   8.439  0.3167 -0.0269  0.8297
 3695TIP3    H132644   2.730   4.888   8.366 -0.2155  0.1988  0.4558
 3695TIP3    H232645   2.624   4.789   8.411 -0.2469  0.3489  0.7123
 3696TIP3   OH232646   6.240   2.283   2.608  0.3443  0.2806 -0.0632
 3696TIP3    H132647   6.202   2.249   2.689  0.4439  0.1143 -0.0879
 3696TIP3    H232648   6.167   2.329   2.566  0.5965  1.4555  0.7214
 3697TIP3   OH232649   4.467   2.329   1.571 -0.5427  0.1726  0.6831
 3697TIP3    H132650   4.432   2.416   1.553  1.3297  0.6343 -1.1485
 3697TIP3    H232651   4.495   2.333   1.662 -3.0643  0.4921  1.5128
 3698TIP3   OH232652   2.425   3.352   0.507  0.7949 -0.7310  0.0108
 3698TIP3    H132653   2.455   3.437   0.475 -3.9868  2.1802  2.1614
 3698TIP3    H232654   2.371   3.317   0.436 -0.5143  0.0881  0.5790
 3699TIP3   OH232655   3.761   3.261   3.147  0.5074 -0.2574 -0.3219
 3699TIP3    H132656   3.671   3.245   3.175  0.2942 -0.2340 -0.9940
 3699TIP3    H232657   3.785   3.343   3.189 -1.0687  1.7546 -3.0525
 3700TIP3   OH232658   0.142   5.579   7.868 -0.0845  0.3203 -0.6709
 3700TIP3    H132659   0.195   5.657   7.852 -0.3907  0.5142 -0.7603
 3700TIP3    H232660   0.052   5.609   7.858 -0.3940  0.6831  2.3226
 3701TIP3   OH232661   1.223   2.016   8.447 -0.5570 -0.0407  0.2398
 3701TIP3    H132662   1.292   2.082   8.453  0.3482 -0.9562  0.3575
 3701TIP3    H232663   1.159   2.042   8.513 -0.1129  0.5986  0.4330
 3702TIP3   OH232664   6.438   4.156   1.084 -0.1557  0.1239 -0.2899
 3702TIP3    H132665   6.455   4.071   1.044 -0.9645 -0.2456  0.1162
 3702TIP3    H232666   6.479   4.151   1.170 -1.8317 -0.5896  0.4995
 3703TIP3   OH232667   6.262   1.658   8.135 -0.0328 -0.0951 -0.0639
 3703TIP3    H132668   6.261   1.754   8.131 -0.5131 -0.1162 -0.6450
 3703TIP3    H232669   6.319   1.638   8.209 -1.7823  0.7011  1.6287
 3704TIP3   OH232670   3.240   2.413   8.482  0.0118 -0.8438  0.4825
 3704TIP3    H132671   3.266   2.366   8.562  0.8833 -0.2013  0.6015
 3704TIP3    H232672   3.159   2.458   8.507 -0.0581 -1.1411  0.8114
 3705TIP3   OH232673   5.382   0.047   8.237 -0.3504 -0.1419 -0.9631
 3705TIP3    H132674   5.444   0.108   8.277  0.2243 -2.6173  2.3169
 3705TIP3    H232675   5.297   0.072   8.273 -0.5626  0.3338 -1.7624
 3706TIP3   OH232676   0.939   3.555   2.411  0.2027 -0.6131  0.3039
 3706TIP3    H132677   0.907   3.492   2.347 -0.4888  1.1069 -1.1238
 3706TIP3    H232678   1.034   3.560   2.394  0.1349 -0.7048 -0.1138
 3707TIP3   OH232679   5.054   4.865   0.181 -0.0988  0.2238 -0.1553
 3707TIP3    H132680   5.101   4.828   0.255 -0.7961  0.2805  0.3202
 3707TIP3    H232681   4.980   4.806   0.167 -0.6297  0.8577 -0.0590
 3708TIP3   OH232682   1.999   4.049   0.851  0.3134 -0.1040  0.0300
 3708TIP3    H132683   1.932   4.094   0.799  0.1754 -1.0907 -0.6658
 3708TIP3    H232684   1.951   3.978   0.894  0.4980  0.4787  1.2478
 3709TIP3   OH232685   3.832   5.369   7.327 -0.5002 -0.0476 -0.3195
 3709TIP3    H132686   3.815   5.314   7.250 -0.9503  0.2190 -0.4153
 3709TIP3    H232687   3.823   5.459   7.295  1.0164  0.1228 -0.3441
 3710TIP3   OH232688   2.019   3.544   2.929 -0.1221 -0.0906  0.7809
 3710TIP3    H132689   2.114   3.536   2.923 -0.0190  1.2216  0.1384
 3710TIP3    H232690   1.988   3.456   2.952  0.9715 -1.4693 -2.4424
 3711TIP3   OH232691   1.929   2.708   1.229  0.5217  0.3418  0.6796
 3711TIP3    H132692   1.860   2.676   1.170  0.2202 -1.2599  1.8291
 3711TIP3    H232693   1.994   2.746   1.170 -0.9977  1.2525 -0.4831
 3712TIP3   OH232694   2.713   0.548   8.349 -0.4782 -0.3295 -0.2916
 3712TIP3    H132695   2.628   0.503   8.353 -1.2795  1.1837  0.7400
 3712TIP3    H232696   2.725   0.566   8.256 -2.4383  1.4199 -0.2927
 3713TIP3   OH232697   3.136   1.390   8.629 -0.2673 -0.3208  0.3502
 3713TIP3    H132698   3.176   1.311   8.591 -1.6627 -1.1351  0.4790
 3713TIP3    H232699   3.042   1.374   8.621 -0.5888  1.7724 -0.4854
 3714TIP3   OH232700   4.208   4.721   1.011  0.0562  0.0374  0.2717
 3714TIP3    H132701   4.154   4.655   0.968  0.2161  0.5743 -0.7776
 3714TIP3    H232702   4.229   4.783   0.942  0.0730  1.0861  1.1921
 3715TIP3   OH232703   2.550   4.681   1.157 -0.6214  0.3677  0.0532
 3715TIP3    H132704   2.621   4.635   1.113 -2.0812 -2.4903  0.4910
 3715TIP3    H232705   2.539   4.762   1.106  1.7387  0.0886 -1.0440
 3716TIP3   OH232706   1.608   5.061   7.800  0.5624 -0.2562 -0.0969
 3716TIP3    H132707   1.687   5.048   7.748 -0.4585 -0.8470 -1.5435
 3716TIP3    H232708   1.579   5.149   7.778  0.6044 -0.1768  0.1567
 3717TIP3   OH232709   5.244   6.071   8.189  0.3466  0.2879  0.0815
 3717TIP3    H132710   5.219   6.119   8.110 -0.4775  0.8035  0.6345
 3717TIP3    H232711   5.213   6.126   8.261 -1.0684 -1.2725  0.7337
 3718TIP3   OH232712   5.316   6.332   2.451  0.4315 -0.3183  0.3785
 3718TIP3    H132713   5.384   6.314   2.386 -0.2557  1.8516 -1.0604
 3718TIP3    H232714   5.359   6.322   2.535  1.5627 -2.4759 -0.3912
 3719TIP3   OH232715   3.358   0.591   0.606 -0.3684 -0.2551 -0.1730
 3719TIP3    H132716   3.400   0.676   0.617 -0.3885 -0.2552 -0.0941
 3719TIP3    H232717   3.399   0.535   0.671 -1.5047  0.1256  0.9090
 3720TIP3   OH232718   3.925   2.059   0.335  0.2963  0.1578 -0.2472
 3720TIP3    H132719   3.962   2.023   0.415  0.7901  3.3942  1.1412
 3720TIP3    H232720   3.982   2.027   0.265  2.4125  0.5117  1.2101
 3721TIP3   OH232721   2.067   1.359   2.275 -0.4744 -0.7116 -0.2068
 3721TIP3    H132722   2.108   1.290   2.327  0.2102  0.4024  0.7849
 3721TIP3    H232723   2.018   1.411   2.338 -1.3965 -0.5652 -1.0185
 3722TIP3   OH232724   2.760   3.783   8.762  0.2129 -0.2907  0.4106
 3722TIP3    H132725   2.701   3.743   8.826  0.0338 -0.1277  0.3486
 3722TIP3    H232726   2.711   3.858   8.727 -0.1951 -1.1109 -0.8461
 3723TIP3   OH232727   5.566   4.482   2.336  0.0125  0.0271 -0.1006
 3723TIP3    H132728   5.519   4.486   2.419  0.8175  1.5774  0.3195
 3723TIP3    H232729   5.504   4.515   2.271 -0.2312 -0.0809  0.0775
 3724TIP3   OH232730   3.368   3.540   2.073  0.5791  0.4143 -0.1441
 3724TIP3    H132731   3.422   3.589   2.011 -0.4694  1.6955 -0.0753
 3724TIP3    H232732   3.351   3.602   2.144  0.2824 -0.4706  0.5705
 3725TIP3   OH232733   5.176   0.306   1.926  0.2404 -0.1004 -0.7608
 3725TIP3    H132734   5.172   0.375   1.993 -1.4909 -1.2843  0.4506
 3725TIP3    H232735   5.104   0.328   1.866 -1.2953 -1.5897  0.4568
 3726TIP3   OH232736   5.439   5.438   7.630 -0.3838  0.7113  0.5995
 3726TIP3    H132737   5.451   5.390   7.711 -0.3838  1.5219  1.0867
 3726TIP3    H232738   5.385   5.514   7.654 -0.3951  0.9571 -0.1551
 3727TIP3   OH232739   6.459   4.231   2.316 -0.5742  0.0506  0.5476
 3727TIP3    H132740   6.468   4.138   2.292  1.2383  0.2484  0.3716
 3727TIP3    H232741   6.433   4.274   2.234 -0.0679 -0.1061  0.3026
 3728TIP3   OH232742   6.144   6.282   2.005 -0.3236  0.1171  0.6709
 3728TIP3    H132743   6.234   6.251   2.005 -0.0839  0.7045 -1.0962
 3728TIP3    H232744   6.095   6.213   2.050  0.5368 -1.7718 -1.1279
 3729TIP3   OH232745   2.514   2.519   2.541  0.6352  0.2276  0.0696
 3729TIP3    H132746   2.530   2.483   2.629  0.0772  1.8065  0.8613
 3729TIP3    H232747   2.419   2.517   2.532  0.6438  0.8000 -0.1628
 3730TIP3   OH232748   5.499   3.717   0.370  0.7703 -0.1595  0.0847
 3730TIP3    H132749   5.456   3.632   0.377  3.9419 -1.8549  1.0769
 3730TIP3    H232750   5.539   3.716   0.283 -0.9021  1.3042 -0.7548
 3731TIP3   OH232751   0.150   5.264   0.213 -0.5031 -0.2114 -0.2267
 3731TIP3    H132752   0.109   5.178   0.201 -1.7477  0.3222  0.0443
 3731TIP3    H232753   0.179   5.289   0.126 -0.7241 -0.6204 -0.4216
 3732TIP3   OH232754   5.654   1.006   3.442  0.9416  0.5279  0.1275
 3732TIP3    H132755   5.624   0.931   3.494  1.1734 -0.0689 -0.5786
 3732TIP3    H232756   5.653   0.974   3.351  0.8503  1.4485 -0.2055
 3733TIP3   OH232757   3.639   1.467   0.373 -0.2464  0.5337  0.2568
 3733TIP3    H132758   3.655   1.558   0.351  2.2511  0.6948  2.2501
 3733TIP3    H232759   3.610   1.427   0.291 -1.9505  3.1607 -0.5511
 3734TIP3   OH232760   3.622   4.587   7.162 -0.2230  0.1631 -0.1538
 3734TIP3    H132761   3.532   4.620   7.166 -0.0487  0.7468 -0.8124
 3734TIP3    H232762   3.675   4.664   7.182  0.1345 -0.1535  0.1108
 3735TIP3   OH232763   1.196   3.689   3.026 -0.3024 -0.7041 -0.1209
 3735TIP3    H132764   1.127   3.725   3.082 -0.5251 -2.1017  0.5407
 3735TIP3    H232765   1.239   3.766   2.989 -1.1517  0.2236  0.7533
 3736TIP3   OH232766   0.557   4.915   1.505  0.1303  0.3995  0.4113
 3736TIP3    H132767   0.634   4.903   1.451 -0.1000  2.3131 -0.4341
 3736TIP3    H232768   0.483   4.901   1.445 -0.1449  3.9152 -0.3164
 3737TIP3   OH232769   6.250   2.031   3.363  0.0445  0.3565  0.1427
 3737TIP3    H132770   6.155   2.023   3.352 -0.5204 -0.4564  4.0732
 3737TIP3    H232771   6.285   1.948   3.332 -1.1380 -1.1244  2.4358
 3738TIP3   OH232772   6.347   2.250   2.274 -0.0754  0.0246  0.0424
 3738TIP3    H132773   6.284   2.198   2.224 -0.8393  0.7483  0.2223
 3738TIP3    H232774   6.298   2.329   2.299  1.2799  1.2522 -0.9792
 3739TIP3   OH232775   1.955   0.402   8.599 -0.1620  0.9401  0.1846
 3739TIP3    H132776   1.910   0.483   8.623 -2.4147 -0.2239  0.1134
 3739TIP3    H232777   1.967   0.355   8.682 -0.8426  0.3899 -0.0221
 3740TIP3   OH232778   4.480   3.639   7.782  0.2140 -0.2409  0.0439
 3740TIP3    H132779   4.499   3.556   7.737 -0.5988 -0.0044 -0.7721
 3740TIP3    H232780   4.490   3.706   7.714 -1.4320  0.0892  0.1005
 3741TIP3   OH232781   0.264   6.715   8.577  0.3009  0.8902 -0.6953
 3741TIP3    H132782   0.177   6.710   8.617  0.8939 -0.0512  0.5673
 3741TIP3    H232783   0.295   6.625   8.576  1.2593  1.2125 -1.1517
 3742TIP3   OH232784   3.872   1.755   0.539  0.0697 -0.9269 -0.0064
 3742TIP3    H132785   3.785   1.770   0.503  0.1679 -0.5325 -0.0765
 3742TIP3    H232786   3.860   1.682   0.601 -0.0967 -1.6203 -0.8351
 3743TIP3   OH232787   1.607   3.990   2.791  0.0676 -0.0928  0.4880
 3743TIP3    H132788   1.697   3.964   2.773 -0.3537 -1.8754  0.8197
 3743TIP3    H232789   1.603   3.996   2.887 -0.9017 -3.1555  0.7544
 3744TIP3   OH232790   2.192   5.648   0.800 -0.4505 -0.4930  0.5950
 3744TIP3    H132791   2.143   5.672   0.721  1.3798 -0.9164 -0.7575
 3744TIP3    H232792   2.259   5.716   0.807  0.6617 -1.5524  0.5880
 3745TIP3   OH232793   3.591   0.794   2.630 -0.4021 -0.0800  0.5650
 3745TIP3    H132794   3.575   0.705   2.599 -0.8764 -0.8823  2.8590
 3745TIP3    H232795   3.675   0.789   2.676  0.4735  1.1281 -0.8417
 3746TIP3   OH232796   0.159   2.305   1.515  0.1685  0.2258 -0.3463
 3746TIP3    H132797   0.105   2.370   1.559  1.7719  0.9566  0.6270
 3746TIP3    H232798   0.119   2.296   1.428 -0.4872  2.0263 -0.2800
 3747TIP3   OH232799   4.471   5.404   1.647 -0.0039 -0.1277 -0.2379
 3747TIP3    H132800   4.541   5.469   1.640 -1.8283  1.8744 -0.9488
 3747TIP3    H232801   4.505   5.339   1.709  3.0412 -0.0769 -1.6898
 3748TIP3   OH232802   0.675   0.154   1.390 -1.0421 -0.5085  0.0174
 3748TIP3    H132803   0.735   0.167   1.317 -2.9771  1.4869 -1.3212
 3748TIP3    H232804   0.653   0.061   1.387 -0.6329 -0.5827 -1.5910
 3749TIP3   OH232805   3.000   5.396   1.281 -0.7597  0.3330  0.2255
 3749TIP3    H132806   2.998   5.374   1.188  0.2824 -0.2428  0.3190
 3749TIP3    H232807   3.048   5.323   1.321 -1.0899  0.6381  1.1928
 3750TIP3   OH232808   4.731   4.484   2.693 -0.1679  0.5024 -0.5387
 3750TIP3    H132809   4.776   4.544   2.634 -0.3343  1.3964  0.2134
 3750TIP3    H232810   4.744   4.522   2.780  0.2823 -0.9076  0.0402
 3751TIP3   OH232811   0.585   4.140   1.334  0.7468  0.2617 -0.2370
 3751TIP3    H132812   0.534   4.113   1.258 -0.6993  1.2160  0.3670
 3751TIP3    H232813   0.522   4.182   1.393  1.9862  0.3273  1.1153
 3752TIP3   OH232814   3.390   6.355   0.245  0.0590 -0.1200 -0.1748
 3752TIP3    H132815   3.464   6.410   0.218  1.3181 -0.9264  1.4599
 3752TIP3    H232816   3.341   6.409   0.307 -0.3504  0.1702 -0.7439
 3753TIP3   OH232817   0.040   5.971   8.707  0.0366 -0.1698 -0.3766
 3753TIP3    H132818  -0.049   5.978   8.742  0.7124  0.5512  1.2872
 3753TIP3    H232819   0.040   5.888   8.659 -1.3716 -0.4476  0.0359
 3754TIP3   OH232820   0.568   4.647   8.523  0.3551 -0.0320 -0.4761
 3754TIP3    H132821   0.531   4.733   8.539  1.4039  0.2156  0.7778
 3754TIP3    H232822   0.658   4.653   8.553  0.5745 -1.4554 -0.7472
 3755TIP3   OH232823   6.152   5.004   8.804 -0.1627 -0.3583 -0.3277
 3755TIP3    H132824   6.084   4.954   8.848  0.0993  0.7630  1.4405
 3755TIP3    H232825   6.233   4.978   8.847 -0.0174  1.5392  0.6806
 3756TIP3   OH232826   0.236   2.754   0.898 -0.3344  0.3634  0.1471
 3756TIP3    H132827   0.261   2.824   0.958 -0.5896  1.2416 -0.7335
 3756TIP3    H232828   0.309   2.748   0.837 -0.1447 -0.4121  0.4447
 3757TIP3   OH232829   4.866   5.888   1.457 -0.4502 -0.0981 -0.3571
 3757TIP3    H132830   4.917   5.856   1.382  1.3714  0.9738  0.3374
 3757TIP3    H232831   4.931   5.929   1.514 -1.9231 -0.0280  1.3672
 3758TIP3   OH232832   1.711   1.054   1.374  0.3018 -0.1371  0.2412
 3758TIP3    H132833   1.788   0.998   1.368  0.0590 -0.2862 -2.4578
 3758TIP3    H232834   1.698   1.088   1.286 -2.4427  0.2818  0.7112
 3759TIP3   OH232835   4.476   1.310   1.734 -0.0542  1.0948  0.0061
 3759TIP3    H132836   4.515   1.396   1.743 -0.6478  1.3920 -0.2256
 3759TIP3    H232837   4.405   1.322   1.671  0.8514  0.1220 -1.2574
 3760TIP3   OH232838   2.392   4.402   8.796 -0.1156  0.0459  0.4301
 3760TIP3    H132839   2.382   4.463   8.869  2.2997  0.4500  0.4998
 3760TIP3    H232840   2.303   4.378   8.773 -1.0428  1.7723  1.9410
 3761TIP3   OH232841   4.096   4.910   2.405 -0.3254  0.0742  0.5674
 3761TIP3    H132842   4.141   4.864   2.476  1.7718  1.1061 -0.0280
 3761TIP3    H232843   4.140   4.994   2.399 -0.7329  0.1855 -1.6929
 3762TIP3   OH232844   1.566   6.445   1.847 -0.2250 -0.4577 -0.2098
 3762TIP3    H132845   1.652   6.462   1.807 -0.4535  0.1992 -0.4374
 3762TIP3    H232846   1.565   6.350   1.862  0.6197 -0.4516 -0.0234
 3763TIP3   OH232847   6.352   6.183   1.757  0.3115 -0.4808 -0.2338
 3763TIP3    H132848   6.371   6.170   1.850  0.9471  1.7394  0.0067
 3763TIP3    H232849   6.294   6.259   1.755 -0.0885 -0.7944 -1.6315
 3764TIP3   OH232850   0.855   0.879   2.248  0.0097 -0.0044 -0.4868
 3764TIP3    H132851   0.787   0.835   2.299 -0.9763  2.0371  0.0427
 3764TIP3    H232852   0.822   0.878   2.158 -0.4864  0.5153 -0.3152
 3765TIP3   OH232853   4.332   4.488   1.523  0.1876 -0.0027  0.5956
 3765TIP3    H132854   4.330   4.514   1.431  0.6800  2.0917  1.1206
 3765TIP3    H232855   4.378   4.559   1.567  1.5784 -1.8243  2.2346
 3766TIP3   OH232856   4.194   2.920   2.315 -0.3155  0.0071  0.2125
 3766TIP3    H132857   4.114   2.876   2.286  0.3423 -1.8407  1.0888
 3766TIP3    H232858   4.265   2.876   2.268  0.3052  0.6847  0.4952
 3767TIP3   OH232859   2.369   5.907   1.747 -0.1092  0.0992 -0.3509
 3767TIP3    H132860   2.429   5.964   1.700  1.9632 -0.5060  1.4003
 3767TIP3    H232861   2.406   5.901   1.835 -1.5501 -2.0581  0.1860
 3768TIP3   OH232862   0.828   5.168   3.196  0.3328  0.3869 -0.1224
 3768TIP3    H132863   0.894   5.177   3.265 -0.0970  1.4100  0.1670
 3768TIP3    H232864   0.876   5.132   3.122  1.2199  1.0772  0.1015
 3769TIP3   OH232865   5.531   0.693   3.064  0.6246  0.4749 -0.0173
 3769TIP3    H132866   5.537   0.672   3.157  0.4778 -1.0821 -0.3372
 3769TIP3    H232867   5.509   0.786   3.062 -0.3743  0.3075  1.5214
 3770TIP3   OH232868   6.468   0.771   7.814 -0.3957 -0.4036  0.1104
 3770TIP3    H132869   6.394   0.750   7.756 -1.4720  1.6708  0.6560
 3770TIP3    H232870   6.445   0.730   7.897  0.2969 -1.8466 -0.3639
 3771TIP3   OH232871   4.828   5.853   3.252  0.7027 -0.2555  0.1700
 3771TIP3    H132872   4.911   5.808   3.236  0.1907 -1.6505  1.2668
 3771TIP3    H232873   4.791   5.866   3.164  0.9333 -1.9103 -0.2097
 3772TIP3   OH232874   4.727   4.781   7.920  0.5757  0.5506 -0.5778
 3772TIP3    H132875   4.679   4.841   7.977  1.1106  1.3857 -0.9841
 3772TIP3    H232876   4.659   4.730   7.876  0.0480  1.6391 -1.0717
 3773TIP3   OH232877   5.273   3.690   7.750 -0.7188  0.5423  0.3669
 3773TIP3    H132878   5.325   3.614   7.723 -0.1575  0.3491  1.8993
 3773TIP3    H232879   5.186   3.674   7.713 -0.6756 -0.9803  0.8467
 3774TIP3   OH232880   3.088   1.519   0.344 -0.3240  0.6396 -0.0131
 3774TIP3    H132881   3.025   1.578   0.303 -1.0550 -0.5404 -0.6554
 3774TIP3    H232882   3.120   1.464   0.272  0.5287  0.4196  0.5225
 3775TIP3   OH232883   5.065   5.714   1.959  0.4455 -0.8910 -0.0422
 3775TIP3    H132884   5.129   5.780   1.932  1.0057 -0.6911  1.6842
 3775TIP3    H232885   5.103   5.631   1.930  1.3316 -0.7397  0.6492
 3776TIP3   OH232886   0.887   0.223   7.900  0.4214 -0.1133  0.1795
 3776TIP3    H132887   0.823   0.206   7.831  0.8302 -0.0976 -0.2081
 3776TIP3    H232888   0.962   0.168   7.878  0.4412 -0.3334  0.7771
 3777TIP3   OH232889   1.706   0.265   8.260 -0.4312  0.1331  0.6190
 3777TIP3    H132890   1.800   0.274   8.275 -0.2189 -0.3745 -0.3037
 3777TIP3    H232891   1.683   0.180   8.298 -0.3488 -0.1095  0.1356
 3778TIP3   OH232892   5.718   5.268   1.777 -0.6050 -0.0255  0.1932
 3778TIP3    H132893   5.712   5.242   1.869  0.3920 -2.4410 -0.3385
 3778TIP3    H232894   5.745   5.360   1.779 -2.3805  0.5287  2.2701
 3779TIP3   OH232895   1.475   0.104   3.181  0.0698 -0.4880 -0.1271
 3779TIP3    H132896   1.395   0.151   3.205  0.8612  0.4689  0.7601
 3779TIP3    H232897   1.527   0.167   3.132  0.7702 -0.7051  0.3073
 3780TIP3   OH232898   3.092   3.856   8.738 -0.7143  0.3285 -0.2304
 3780TIP3    H132899   3.161   3.910   8.698  0.2576 -0.6655  0.0496
 3780TIP3    H232900   3.011   3.888   8.700 -0.0675  1.3017 -0.8383
 3781TIP3   OH232901   0.262   4.261   2.610  0.6718 -0.0526 -0.0047
 3781TIP3    H132902   0.235   4.174   2.641  0.8755  0.1522  0.7572
 3781TIP3    H232903   0.331   4.288   2.671 -0.7162  1.4875  0.9600
 3782TIP3   OH232904   1.764   0.606   3.320  0.2587 -0.0879 -0.0479
 3782TIP3    H132905   1.807   0.524   3.344 -1.7165 -2.3673 -3.4750
 3782TIP3    H232906   1.720   0.635   3.400  1.4004 -2.0948  1.3807
 3783TIP3   OH232907   4.769   3.679   0.345  0.1117  0.4491 -0.2616
 3783TIP3    H132908   4.719   3.741   0.398  0.6314  0.8833 -0.2776
 3783TIP3    H232909   4.803   3.616   0.409 -1.1128 -0.3259 -0.3352
 3784TIP3   OH232910   1.224   0.913   7.317  0.4333  0.2122 -0.0995
 3784TIP3    H132911   1.255   0.865   7.240  0.7557  1.4787 -0.7857
 3784TIP3    H232912   1.215   1.003   7.287  1.7895  0.9975  1.6645
 3785TIP3   OH232913   2.685   5.301   7.446 -0.0301 -0.3510  0.5422
 3785TIP3    H132914   2.755   5.280   7.384 -1.6289  0.0740 -1.5261
 3785TIP3    H232915   2.617   5.236   7.428 -1.0866  0.6307  0.8582
 3786TIP3   OH232916   5.470   0.854   2.776 -0.2278  0.1730  0.0460
 3786TIP3    H132917   5.460   0.863   2.870 -0.1457 -1.0688  0.1838
 3786TIP3    H232918   5.493   0.942   2.746 -1.3954  0.8438  1.0188
 3787TIP3   OH232919   2.748   5.468   1.865 -0.4946 -0.2489 -0.7643
 3787TIP3    H132920   2.756   5.480   1.959 -0.3019 -0.9913 -0.6761
 3787TIP3    H232921   2.808   5.396   1.844  0.4619  0.7689 -1.6699
 3788TIP3   OH232922   2.207   0.408   8.141  0.3520  0.2181 -0.1173
 3788TIP3    H132923   2.212   0.482   8.081 -0.4090 -0.2354 -0.7559
 3788TIP3    H232924   2.282   0.353   8.116 -0.7839 -0.6923 -1.6692
 3789TIP3   OH232925   2.089   3.325   3.217 -0.1435 -0.2908  0.0445
 3789TIP3    H132926   2.061   3.240   3.183 -1.7197  0.2560 -0.0936
 3789TIP3    H232927   2.008   3.373   3.231  0.6396  0.6564  1.5724
 3790TIP3   OH232928   4.904   5.671   7.892  0.0628 -0.4467 -0.1272
 3790TIP3    H132929   4.987   5.710   7.865  0.6046 -1.2087  0.3923
 3790TIP3    H232930   4.926   5.617   7.968 -1.0385 -0.0570  0.5080
 3791TIP3   OH232931   0.358   4.656   0.892 -0.3877  0.1370 -0.7908
 3791TIP3    H132932   0.350   4.718   0.965 -0.4504  2.0382 -2.3204
 3791TIP3    H232933   0.447   4.623   0.898 -0.7838 -0.7138  0.8513
 3792TIP3   OH232934   3.760   3.275   8.058 -0.3073  0.3029  0.1223
 3792TIP3    H132935   3.680   3.233   8.027 -0.6478  1.1109 -0.0989
 3792TIP3    H232936   3.830   3.235   8.007 -0.5189 -0.6554  0.5550
 3793TIP3   OH232937   5.252   2.997   8.338 -0.0397  0.1156  0.2756
 3793TIP3    H132938   5.165   2.987   8.299  0.5256 -1.4508 -0.6736
 3793TIP3    H232939   5.239   2.976   8.431 -0.5484 -0.8776 -0.0008
 3794TIP3   OH232940   5.615   6.578   8.533 -0.3719  0.6194 -0.2397
 3794TIP3    H132941   5.596   6.484   8.544 -0.6929  0.7053 -0.0430
 3794TIP3    H232942   5.667   6.601   8.610  1.3755  0.1729 -1.2372
 3795TIP3   OH232943   1.525   6.525   0.145 -0.4344 -0.0421 -0.1037
 3795TIP3    H132944   1.533   6.613   0.183 -1.7090 -0.1859  0.5775
 3795TIP3    H232945   1.529   6.466   0.221  0.6165 -0.5998 -0.5757
 3796TIP3   OH232946   3.050   4.933   7.986 -0.1244 -0.5420 -0.2191
 3796TIP3    H132947   3.139   4.944   7.955 -0.0018 -1.1579 -0.1002
 3796TIP3    H232948   3.029   5.015   8.030  0.7189 -0.7461  0.5741
 3797TIP3   OH232949   0.427   1.566   0.185 -0.1442 -0.3470 -0.4749
 3797TIP3    H132950   0.499   1.507   0.208 -0.2638 -0.0942  0.5856
 3797TIP3    H232951   0.363   1.554   0.255  0.8750  2.8153  1.1760
 3798TIP3   OH232952   4.330   5.323   7.900  0.1589 -0.2645 -0.2474
 3798TIP3    H132953   4.407   5.297   7.850  1.4105  1.1243  0.8545
 3798TIP3    H232954   4.266   5.349   7.834  1.0790 -0.2993 -1.1738
 3799TIP3   OH232955   6.231   3.178   2.301 -0.8455  0.1359  0.1864
 3799TIP3    H132956   6.190   3.130   2.373 -1.0777  1.6394  1.0841
 3799TIP3    H232957   6.322   3.189   2.328 -0.4887 -0.7819 -0.5602
 3800TIP3   OH232958   2.692   5.437   8.305 -0.1502 -0.8901  0.1979
 3800TIP3    H132959   2.626   5.403   8.366  0.2574  0.4591  1.4435
 3800TIP3    H232960   2.748   5.362   8.287 -0.7452 -1.5132  0.8630
 3801TIP3   OH232961   5.454   0.214   0.828 -0.0436 -0.3714  0.3422
 3801TIP3    H132962   5.452   0.289   0.887 -2.3086 -1.1785  1.3853
 3801TIP3    H232963   5.374   0.222   0.776 -0.2171 -1.9422  0.3273
 3802TIP3   OH232964   5.431   3.658   1.713  0.1799  0.6748 -0.7068
 3802TIP3    H132965   5.371   3.711   1.765  0.2505 -0.5795  0.7068
 3802TIP3    H232966   5.496   3.720   1.680 -1.7736  2.0686 -2.2089
 3803TIP3   OH232967   1.757   6.525   0.015  0.3882 -0.0529 -0.3668
 3803TIP3    H132968   1.675   6.529   0.065  0.7142  1.0202  0.1004
 3803TIP3    H232969   1.811   6.594   0.053  0.4976  1.1001 -2.4928
 3804TIP3   OH232970   2.302   3.109   2.131  0.2258 -0.0978  0.2057
 3804TIP3    H132971   2.382   3.059   2.146  0.0240 -1.0162 -1.5763
 3804TIP3    H232972   2.261   3.115   2.218  1.4030 -1.0235  0.8531
 3805TIP3   OH232973   2.437   2.235   8.647  0.5623  0.1676 -0.2767
 3805TIP3    H132974   2.510   2.206   8.593  0.2293  0.0960 -0.6914
 3805TIP3    H232975   2.478   2.270   8.726  1.1013  1.1514 -0.9821
 3806TIP3   OH232976   5.106   2.163   1.213 -0.8357  0.2015 -0.1081
 3806TIP3    H132977   5.065   2.080   1.190  1.8047 -1.0369 -0.7327
 3806TIP3    H232978   5.063   2.190   1.294 -1.2560 -2.1610  0.5151
 3807TIP3   OH232979   4.135   0.271   2.419  0.1405 -0.5159  0.0896
 3807TIP3    H132980   4.127   0.182   2.454  2.4759 -0.6477  0.4638
 3807TIP3    H232981   4.221   0.272   2.377 -0.2579  1.3023 -0.7422
 3808TIP3   OH232982   4.134   0.963   0.549 -0.1573 -0.3569  0.4311
 3808TIP3    H132983   4.182   0.994   0.473 -0.6469 -1.4506 -0.3564
 3808TIP3    H232984   4.164   1.019   0.621 -0.6853  1.6069 -0.7955
 3809TIP3   OH232985   5.480   4.274   7.781 -0.3215 -0.2703 -0.2017
 3809TIP3    H132986   5.512   4.206   7.721  0.8678  1.1667 -1.2822
 3809TIP3    H232987   5.547   4.280   7.848  0.9441  1.5439 -1.5209
 3810TIP3   OH232988   0.752   5.626   2.456  0.5931  0.3375 -0.4175
 3810TIP3    H132989   0.781   5.713   2.428 -0.6809  0.5420 -1.1894
 3810TIP3    H232990   0.811   5.565   2.412 -0.4690  0.7131 -2.5198
 3811TIP3   OH232991   0.857   3.606   1.277  0.1663  0.5912  0.1567
 3811TIP3    H132992   0.917   3.661   1.327  0.9818  0.1085 -0.2742
 3811TIP3    H232993   0.814   3.666   1.215 -1.1160  1.2676  1.6204
 3812TIP3   OH232994   6.677   6.700   2.773 -0.1683 -0.1685 -0.1558
 3812TIP3    H132995   6.703   6.616   2.734 -1.7874 -0.6478 -0.2759
 3812TIP3    H232996   6.676   6.761   2.699 -1.5925 -0.6933 -0.6069
 3813TIP3   OH232997   3.285   0.284   2.060 -0.3485  0.6654 -0.4490
 3813TIP3    H132998   3.353   0.308   2.123 -0.8606  2.2550 -0.4708
 3813TIP3    H232999   3.251   0.201   2.093  0.3166  0.7961  0.6094
 3814TIP3   OH233000   3.076   6.006   1.054 -0.3942 -0.6103  0.0538
 3814TIP3    H133001   3.100   5.962   1.136  1.1887 -0.1890 -0.1480
 3814TIP3    H233002   3.156   6.051   1.027 -1.1099 -0.1252 -1.3417
 3815TIP3   OH233003   5.455   6.636   2.099  0.7126 -0.0104 -0.5338
 3815TIP3    H133004   5.493   6.714   2.139  0.1180  0.5067 -0.9584
 3815TIP3    H233005   5.526   6.598   2.048  0.9315  0.4107 -0.5470
 3816TIP3   OH233006   2.091   5.192   8.224  0.1532  0.2316 -0.6561
 3816TIP3    H133007   2.006   5.221   8.255 -0.8726 -3.4471  0.5262
 3816TIP3    H233008   2.073   5.150   8.140  0.6095 -1.1362 -0.1085
 3817TIP3   OH233009   2.351   5.788   7.575 -0.6958  0.5708  0.2940
 3817TIP3    H133010   2.438   5.751   7.557 -0.8739 -0.0648  0.6969
 3817TIP3    H233011   2.349   5.870   7.525 -0.9852 -0.8380 -2.1492
 3818TIP3   OH233012   2.107   2.696   0.155 -0.7744 -0.2946 -0.5507
 3818TIP3    H133013   2.155   2.736   0.083  0.6532 -0.5364  0.2242
 3818TIP3    H233014   2.118   2.757   0.228  1.4130 -1.9364  0.6458
 3819TIP3   OH233015   6.329   5.880   0.195  0.6496 -0.2275 -0.5733
 3819TIP3    H133016   6.411   5.833   0.178  0.6183 -1.7811  2.8344
 3819TIP3    H233017   6.262   5.828   0.149  1.3639  0.3560 -2.3470
 3820TIP3   OH233018   1.641   2.467   0.269  0.2348 -0.2304  0.0043
 3820TIP3    H133019   1.676   2.418   0.343  0.5607  0.2546  0.1786
 3820TIP3    H233020   1.684   2.553   0.275  1.1142 -0.5416 -1.3864
 3821TIP3   OH233021   4.262   4.812   0.731  0.5135 -0.2793  0.3233
 3821TIP3    H133022   4.261   4.838   0.639  0.1206  2.0815  0.9200
 3821TIP3    H233023   4.216   4.729   0.734 -0.6389  0.2527 -1.4466
 3822TIP3   OH233024   1.387   4.242   1.556 -0.0019  0.7190  0.6845
 3822TIP3    H133025   1.463   4.298   1.542 -1.6438  2.6946 -0.7876
 3822TIP3    H233026   1.355   4.222   1.468 -0.8516 -0.5730  1.2635
 3823TIP3   OH233027   5.140   6.231   2.846  0.1644 -0.1735 -0.3210
 3823TIP3    H133028   5.201   6.218   2.919 -0.1390  0.6947  0.0970
 3823TIP3    H233029   5.059   6.188   2.874  0.5001 -1.1179 -0.7753
 3824TIP3   OH233030   3.153   4.048   1.537 -0.4714 -0.1412 -0.3273
 3824TIP3    H133031   3.192   4.109   1.599 -0.8083  0.5794 -0.8053
 3824TIP3    H233032   3.191   3.964   1.559  0.0201  0.2424  0.3370
 3825TIP3   OH233033   6.253   6.634   8.662 -0.0129 -0.1943  0.8397
 3825TIP3    H133034   6.178   6.661   8.714  0.0222 -0.6180  1.1226
 3825TIP3    H233035   6.216   6.579   8.592  0.0192 -0.3185  0.9188
 3826TIP3   OH233036   3.660   5.748   8.433  0.2671  0.4704 -0.5020
 3826TIP3    H133037   3.733   5.688   8.418  1.5359  1.4700  1.2507
 3826TIP3    H233038   3.683   5.827   8.385  1.2755  1.4175  1.4165
 3827TIP3   OH233039   6.093   3.352   8.096  0.0680 -0.1751  0.3208
 3827TIP3    H133040   6.183   3.381   8.081  0.1916 -0.5296  0.3705
 3827TIP3    H233041   6.045   3.432   8.116  0.3692  0.0166  0.2829
 3828TIP3   OH233042   4.416   0.153   1.524 -0.0061 -0.0527  0.0929
 3828TIP3    H133043   4.321   0.160   1.508 -0.1975 -0.3879  1.0405
 3828TIP3    H233044   4.447   0.095   1.455 -0.5359 -0.1839 -0.0462
 3829TIP3   OH233045   2.051   5.047   2.118  0.0709  0.4321  0.8232
 3829TIP3    H133046   2.088   5.124   2.162 -0.2970  0.5510  0.9316
 3829TIP3    H233047   1.956   5.060   2.123  0.0081  1.1347 -1.2161
 3830TIP3   OH233048   0.421   0.620   2.587 -0.1625 -0.4858  0.7735
 3830TIP3    H133049   0.334   0.624   2.626  0.2851  0.4296  1.7150
 3830TIP3    H233050   0.436   0.708   2.554 -0.2512 -1.0575 -0.9251
 3831TIP3   OH233051   4.349   1.756   8.356 -0.1030  0.1166  0.1724
 3831TIP3    H133052   4.293   1.818   8.404 -0.6676  0.6095 -1.0490
 3831TIP3    H233053   4.434   1.762   8.399 -0.6523  0.3091  1.2769
 3832TIP3   OH233054   3.015   4.453   7.882 -0.1236  0.6659  0.2009
 3832TIP3    H133055   3.027   4.385   7.816 -0.6448 -0.7897  1.5377
 3832TIP3    H233056   2.930   4.492   7.863 -0.9435 -0.7367  0.8090
 3833TIP3   OH233057   3.482   3.717   7.004 -0.6873  0.3092  0.0903
 3833TIP3    H133058   3.560   3.663   7.020  1.8971  3.6572 -0.0048
 3833TIP3    H233059   3.425   3.699   7.079  1.0419 -0.8707  1.2157
 3834TIP3   OH233060   4.217   4.419   2.806 -0.5848 -0.1961  0.2939
 3834TIP3    H133061   4.268   4.498   2.788 -1.7218  0.7621  1.1066
 3834TIP3    H233062   4.165   4.406   2.726  1.0889 -1.3618 -0.6647
 3835TIP3   OH233063   5.082   1.971   2.588 -0.4365  0.4320  0.0526
 3835TIP3    H133064   5.003   1.923   2.613  0.2456 -0.9848 -0.3984
 3835TIP3    H233065   5.153   1.908   2.600  0.4248  1.1289 -1.1657
 3836TIP3   OH233066   5.738   5.476   1.272 -0.1851  0.2514 -0.1595
 3836TIP3    H133067   5.779   5.466   1.358  1.3022  1.7356 -0.6444
 3836TIP3    H233068   5.727   5.571   1.262  0.4682  0.1801 -1.9420
 3837TIP3   OH233069   4.378   1.200   2.813 -0.1046  0.3508 -0.2577
 3837TIP3    H133070   4.440   1.144   2.860 -1.8512 -0.2856  1.4060
 3837TIP3    H233071   4.386   1.173   2.722  2.1030  0.3700 -0.1238
 3838TIP3   OH233072   3.407   5.896   1.546  0.2147 -0.0442  0.4270
 3838TIP3    H133073   3.486   5.873   1.498 -0.4855 -0.8285 -0.3649
 3838TIP3    H233074   3.435   5.968   1.604  1.6981 -0.8512  0.7697
 3839TIP3   OH233075   1.290   6.492   2.797  0.2147 -0.6287  0.5987
 3839TIP3    H133076   1.283   6.523   2.887 -0.2274 -1.7654  0.9773
 3839TIP3    H233077   1.341   6.560   2.752  0.6429 -0.1584  1.7486
 3840TIP3   OH233078   0.960   2.553   8.499 -0.1842  0.0625  0.0738
 3840TIP3    H133079   0.988   2.500   8.425 -0.4453  0.8302 -0.5996
 3840TIP3    H233080   0.924   2.632   8.459 -0.5669  0.3823  1.0158
 3841TIP3   OH233081   0.759   0.332   0.627 -0.3165  0.1548  0.0291
 3841TIP3    H133082   0.854   0.326   0.642 -0.2679  0.5289 -0.1354
 3841TIP3    H233083   0.725   0.367   0.709 -0.2898  0.2100  0.0168
 3842TIP3   OH233084   1.177   2.372   2.087  0.5057 -0.2906  0.0583
 3842TIP3    H133085   1.106   2.316   2.056  1.2929 -0.6450 -1.1338
 3842TIP3    H233086   1.169   2.368   2.183 -1.4512  0.1799 -0.0392
 3843TIP3   OH233087   2.324   5.894   8.014 -0.3725 -0.2962  0.1579
 3843TIP3    H133088   2.232   5.919   8.006 -0.0302  0.6850 -0.9680
 3843TIP3    H233089   2.359   5.901   7.925  1.1478  0.8193  0.7968
 3844TIP3   OH233090   4.046   4.849   1.208  0.1210  0.0728  0.5983
 3844TIP3    H133091   4.103   4.785   1.167 -1.3137 -1.4921  0.9323
 3844TIP3    H233092   4.043   4.922   1.146 -0.7124 -1.5380 -1.3778
 3845TIP3   OH233093   1.475   4.406   0.371 -0.2132 -0.2590  0.2561
 3845TIP3    H133094   1.564   4.441   0.378 -0.0362 -0.5202 -0.6553
 3845TIP3    H233095   1.441   4.443   0.290 -1.7462  1.6329  1.6574
 3846TIP3   OH233096   6.701   1.841   2.127 -0.1941 -0.0737 -0.2883
 3846TIP3    H133097   6.659   1.810   2.047 -1.6175 -0.7620  0.6937
 3846TIP3    H233098   6.768   1.775   2.145  1.3035  0.9533 -1.7782
 3847TIP3   OH233099   5.340   0.103   0.537 -0.0229  0.1988  0.0894
 3847TIP3    H133100   5.343   0.011   0.563  0.2078 -0.0571 -0.8366
 3847TIP3    H233101   5.364   0.103   0.445  0.9242  1.2981  0.3229
 3848TIP3   OH233102   5.934   1.734   0.787  0.5234  0.2004 -0.2003
 3848TIP3    H133103   5.919   1.641   0.775  0.6387  0.4220 -2.6998
 3848TIP3    H233104   5.858   1.776   0.747  1.3058  1.1787 -0.6955
 3849TIP3   OH233105   1.967   0.879   2.957 -0.2539  0.4116 -0.6628
 3849TIP3    H133106   1.907   0.932   3.009 -0.2623 -0.2001 -0.0324
 3849TIP3    H233107   2.032   0.942   2.924 -1.4362  1.1487 -1.6933
 3850TIP3   OH233108   2.258   1.770   1.865 -0.2072  0.5108 -0.1274
 3850TIP3    H133109   2.259   1.674   1.871 -0.4699  0.5739  1.3628
 3850TIP3    H233110   2.351   1.794   1.862 -0.0454  0.2826  1.8096
 3851TIP3   OH233111   2.842   1.747   1.090  0.2643 -0.3818 -0.0536
 3851TIP3    H133112   2.921   1.795   1.066  0.5345 -1.1282 -0.7036
 3851TIP3    H233113   2.806   1.715   1.007 -0.3053 -0.6910  0.2984
 3852TIP3   OH233114   5.531   1.754   0.099 -0.4368 -0.1778 -0.6510
 3852TIP3    H133115   5.441   1.741   0.068 -0.2604  0.9365 -1.6593
 3852TIP3    H233116   5.541   1.689   0.169 -2.0783 -0.1985 -0.4000
 3853TIP3   OH233117   6.226   0.053   2.368  0.2794 -0.1067  0.2214
 3853TIP3    H133118   6.177   0.063   2.287  1.9000 -1.2121 -0.9446
 3853TIP3    H233119   6.250  -0.039   2.372 -1.4114 -0.5497  2.9910
 3854TIP3   OH233120   5.656   0.147   8.335  0.0037 -0.3616  0.7463
 3854TIP3    H133121   5.657   0.243   8.324 -0.6939 -0.4323  0.0444
 3854TIP3    H233122   5.620   0.134   8.423 -1.4048 -0.0184  0.2379
 3855TIP3   OH233123   0.660   1.452   8.347  0.1419 -0.2731 -0.5907
 3855TIP3    H133124   0.614   1.380   8.390  1.3645 -0.5523  0.3103
 3855TIP3    H233125   0.710   1.494   8.417 -0.3238  1.3028 -1.1500
 3856TIP3   OH233126   3.722   5.406   1.408 -0.1852 -0.3707 -0.4723
 3856TIP3    H133127   3.712   5.316   1.440  0.2076 -0.1992  0.1409
 3856TIP3    H233128   3.772   5.396   1.327  1.2448 -0.6023  0.3953
 3857TIP3   OH233129   6.007   5.741   0.600 -1.2086 -0.2586 -0.5560
 3857TIP3    H133130   6.036   5.772   0.685 -1.3219 -0.6328 -0.3779
 3857TIP3    H233131   6.087   5.726   0.550 -1.0891 -1.2038 -0.0978
 3858TIP3   OH233132   2.172   5.767   8.281 -0.3022  0.2532 -0.1460
 3858TIP3    H133133   2.083   5.801   8.272 -0.8426 -0.8210  0.7904
 3858TIP3    H233134   2.164   5.673   8.263  0.5069  0.0263  0.5946
 3859TIP3   OH233135   5.523   0.543   0.312  0.2710  0.2994 -0.0288
 3859TIP3    H133136   5.610   0.520   0.279  0.6959  0.5279  0.8880
 3859TIP3    H233137   5.536   0.554   0.406 -0.4431  1.7372 -0.0750
 3860TIP3   OH233138   2.053   3.430   8.352 -0.3810 -0.5913  0.2081
 3860TIP3    H133139   2.008   3.391   8.426 -0.9448 -2.1092 -0.8704
 3860TIP3    H233140   1.982   3.458   8.293  0.0407 -1.7546 -0.8914
 3861TIP3   OH233141   5.171   3.733   8.656 -0.9331 -0.0703 -0.0152
 3861TIP3    H133142   5.229   3.799   8.694  0.1134 -0.9353 -0.0944
 3861TIP3    H233143   5.105   3.718   8.724  1.4314 -2.3043  2.0010
 3862TIP3   OH233144   4.678   0.491   8.308  0.7346  0.2170 -0.2663
 3862TIP3    H133145   4.717   0.409   8.278  0.2986 -0.2345  0.3928
 3862TIP3    H233146   4.604   0.465   8.362  1.1070  1.0258  0.6549
 3863TIP3   OH233147   0.492   5.550   8.567  1.1057 -0.2133  0.3596
 3863TIP3    H133148   0.483   5.564   8.473  1.1949 -1.8851  0.0741
 3863TIP3    H233149   0.479   5.456   8.579 -1.4162  0.2364  2.3041
 3864TIP3   OH233150   4.280   6.375   2.227 -0.4433  0.1307 -0.0823
 3864TIP3    H133151   4.212   6.443   2.234  1.1167  1.6421  1.2012
 3864TIP3    H233152   4.358   6.422   2.198  0.7897 -1.0160  1.2243
 3865TIP3   OH233153   5.859   4.690   1.979  0.9323  0.1450  0.6161
 3865TIP3    H133154   5.798   4.617   1.974  3.5471 -2.1388 -0.4315
 3865TIP3    H233155   5.847   4.738   1.897  0.9075 -0.6130  0.1743
 3866TIP3   OH233156   4.361   4.829   7.717 -0.6602  0.1483  0.1978
 3866TIP3    H133157   4.313   4.910   7.735  0.4176  0.6285  1.0424
 3866TIP3    H233158   4.312   4.787   7.646 -0.9012  1.8309 -0.6863
 3867TIP3   OH233159   6.606   2.164   0.655  0.0441 -0.1031  0.6286
 3867TIP3    H133160   6.603   2.260   0.646  0.3505 -0.0230  1.2810
 3867TIP3    H233161   6.575   2.148   0.744  2.4972 -0.3962  1.5070
 3868TIP3   OH233162   1.937   0.620   6.976 -0.3963 -0.4507 -0.3893
 3868TIP3    H133163   1.866   0.558   6.959 -1.5903  0.7864 -0.0364
 3868TIP3    H233164   1.906   0.674   7.048  0.2859  1.0509 -1.1667
 3869TIP3   OH233165   6.584   0.014   1.828 -0.3777  0.0123  0.2723
 3869TIP3    H133166   6.592   0.107   1.847  1.0750 -0.2098  0.8676
 3869TIP3    H233167   6.517  -0.018   1.888 -2.7291  1.0995 -1.6293
 3870TIP3   OH233168   5.504   6.589   1.669 -0.7516 -0.6545 -0.3215
 3870TIP3    H133169   5.414   6.572   1.696 -0.7850  0.2265  0.1712
 3870TIP3    H233170   5.558   6.555   1.740 -0.6795 -1.3427 -0.6980
 3871TIP3   OH233171   4.463   3.624   2.229 -0.4725 -0.1302  0.7614
 3871TIP3    H133172   4.531   3.567   2.265 -0.7898  0.3989  2.2793
 3871TIP3    H233173   4.383   3.596   2.273 -1.1440 -0.3157 -0.5280
 3872TIP3   OH233174   5.289   5.698   8.449  0.4913 -0.1951  0.1055
 3872TIP3    H133175   5.241   5.618   8.468 -0.1787  0.2850  0.4744
 3872TIP3    H233176   5.374   5.668   8.416  1.0092 -1.0742  2.0805
 3873TIP3   OH233177   4.945   1.930   1.655  0.2174  0.1270  0.1531
 3873TIP3    H133178   4.950   1.920   1.560  0.3717  0.8398  0.0812
 3873TIP3    H233179   5.009   1.998   1.675  1.0078 -0.8081  0.9069
 3874TIP3   OH233180   1.447   2.556   8.619 -0.1652 -0.4800  0.4578
 3874TIP3    H133181   1.479   2.490   8.680 -0.6416  0.9432  2.3262
 3874TIP3    H233182   1.526   2.598   8.585  0.2332 -2.8585 -1.8849
 3875TIP3   OH233183   0.148   3.244   7.616 -0.5022 -0.4082 -0.6323
 3875TIP3    H133184   0.179   3.330   7.645 -2.6167 -0.2372  1.3568
 3875TIP3    H233185   0.217   3.213   7.557  1.7294  1.3932  0.8501
 3876TIP3   OH233186   2.294   4.362   1.505  0.1652 -0.4815 -0.8941
 3876TIP3    H133187   2.203   4.354   1.476 -0.2568 -1.1336  0.5346
 3876TIP3    H233188   2.302   4.453   1.532 -0.4433 -0.7306  0.1554
 3877TIP3   OH233189   6.767   2.638   8.235 -0.0153  0.4080 -0.3690
 3877TIP3    H133190   6.862   2.641   8.226  0.0087 -0.4239 -0.4295
 3877TIP3    H233191   6.739   2.729   8.225  1.0194  1.1672  2.5695
 3878TIP3   OH233192   3.281   6.732   2.749 -0.1488 -0.1906  0.4719
 3878TIP3    H133193   3.264   6.641   2.776  0.5344 -1.0225 -1.7198
 3878TIP3    H233194   3.373   6.734   2.726 -0.5711  0.5655 -1.2789
 3879TIP3   OH233195   3.137   0.766   2.315 -0.2028 -0.2598 -0.3238
 3879TIP3    H133196   3.105   0.842   2.362 -0.1825 -1.0680  1.0619
 3879TIP3    H233197   3.099   0.691   2.362  2.5808 -1.2300  0.6254
 3880TIP3   OH233198   5.745   5.299   1.049 -0.6200  0.2921  0.1511
 3880TIP3    H133199   5.748   5.347   1.132 -1.4265  1.7232 -0.6212
 3880TIP3    H233200   5.653   5.302   1.022 -1.0114 -2.8912  0.7110
 3881TIP3   OH233201   5.324   1.675   8.314 -0.3928  0.0632 -0.6179
 3881TIP3    H133202   5.350   1.584   8.303  0.8849  0.5527 -2.0005
 3881TIP3    H233203   5.234   1.671   8.348  0.1486 -1.6912  0.7755
 3882TIP3   OH233204   0.788   5.932   1.191  0.6796  0.0696  0.3714
 3882TIP3    H133205   0.735   5.905   1.116  1.4047  1.1862 -0.5937
 3882TIP3    H233206   0.876   5.944   1.155  1.3876 -0.7481  1.7202
 3883TIP3   OH233207   1.825   5.917   2.344 -0.7258 -0.1672  0.0681
 3883TIP3    H133208   1.834   6.008   2.374  0.8024 -0.4283  0.4970
 3883TIP3    H233209   1.836   5.864   2.423 -2.1512 -0.7330 -0.0874
 3884TIP3   OH233210   2.496   1.402   0.571 -0.2460 -0.2592  0.2022
 3884TIP3    H133211   2.579   1.382   0.614  0.9130  4.3645  0.5979
 3884TIP3    H233212   2.517   1.409   0.478 -0.7656 -1.3163 -0.0130
 3885TIP3   OH233213   4.403   3.209   1.958  0.1763  0.1822 -0.1766
 3885TIP3    H133214   4.452   3.291   1.956 -0.1550  0.3737 -1.5679
 3885TIP3    H233215   4.458   3.147   1.908 -0.1593 -0.0944 -0.2074
 3886TIP3   OH233216   3.660   5.119   8.677  0.2212 -0.4559 -0.4566
 3886TIP3    H133217   3.632   5.052   8.614  0.0305 -0.3687 -0.4659
 3886TIP3    H233218   3.748   5.144   8.648 -0.2325  0.2587 -1.2542
 3887TIP3   OH233219   5.387   4.117   0.629 -0.0346 -0.1835 -0.1949
 3887TIP3    H133220   5.333   4.138   0.553 -0.8066 -0.9827  0.1175
 3887TIP3    H233221   5.434   4.037   0.604  0.6301  0.2157 -0.2676
 3888TIP3   OH233222   3.218   0.821   8.099 -0.2527 -0.2729 -0.2088
 3888TIP3    H133223   3.257   0.795   8.183 -3.0371  0.6709  1.4819
 3888TIP3    H233224   3.269   0.897   8.072  0.5262 -0.4301  0.7278
 3889TIP3   OH233225   0.929   6.723   8.808 -0.0162  0.6152  0.0788
 3889TIP3    H133226   0.925   6.659   8.878  3.7126 -0.2080 -0.2081
 3889TIP3    H233227   0.984   6.794   8.843 -1.4498  2.1736 -0.6823
 3890TIP3   OH233228   5.239   5.027   0.628 -0.4275 -0.4716 -0.1090
 3890TIP3    H133229   5.327   4.992   0.634  0.2203  1.2615  1.5467
 3890TIP3    H233230   5.182   4.950   0.636  0.9104 -1.4929 -0.0328
 3891TIP3   OH233231   6.436   4.274   3.350  0.1281 -0.1161 -0.0301
 3891TIP3    H133232   6.404   4.306   3.434 -0.2824 -1.3352  0.3110
 3891TIP3    H233233   6.470   4.187   3.369  1.9061  0.3776 -0.7629
 3892TIP3   OH233234   0.061   1.388   3.094 -0.0524 -0.2267 -0.8713
 3892TIP3    H133235   0.151   1.413   3.075 -0.3679  1.0883 -0.7386
 3892TIP3    H233236   0.008   1.436   3.030 -0.7978  0.7549  0.4289
 3893TIP3   OH233237   4.216   0.402   1.253 -0.3527 -0.1772 -0.7468
 3893TIP3    H133238   4.280   0.440   1.314 -1.2072 -0.7419  0.5456
 3893TIP3    H233239   4.229   0.308   1.260  1.1267 -0.2440 -3.2534
 3894TIP3   OH233240   0.638   6.064   0.346 -0.2588  0.0474 -0.1110
 3894TIP3    H133241   0.576   6.008   0.392 -1.3393  0.4533 -1.0107
 3894TIP3    H233242   0.588   6.100   0.272  0.8904  0.8366 -0.5467
 3895TIP3   OH233243   4.033   6.059   0.858 -0.6683  0.5493 -0.1122
 3895TIP3    H133244   3.958   6.105   0.819 -1.6179 -1.3566 -0.6672
 3895TIP3    H233245   3.997   6.017   0.936 -0.0308  0.0925 -0.0579
 3896TIP3   OH233246   0.273   5.341   0.578 -0.4259 -0.4718  0.6159
 3896TIP3    H133247   0.281   5.387   0.662  2.2751  0.1168  0.1482
 3896TIP3    H233248   0.242   5.254   0.601 -0.5515 -0.0619  2.1263
 3897TIP3   OH233249   6.181   6.392   1.762  0.3318 -0.3535  0.1063
 3897TIP3    H133250   6.146   6.366   1.848  1.2146  0.6508  0.8007
 3897TIP3    H233251   6.105   6.423   1.714 -0.0582 -0.1404  0.8367
 3898TIP3   OH233252   2.656   5.285   8.003 -0.4823  0.2858  0.8194
 3898TIP3    H133253   2.569   5.325   8.006 -0.5988  0.1784 -0.4488
 3898TIP3    H233254   2.714   5.357   7.976 -0.0999  0.4404  1.9786
 3899TIP3   OH233255   6.111   3.496   1.236 -0.0432  0.0013 -0.0362
 3899TIP3    H133256   6.053   3.505   1.312 -0.7306  0.4095 -0.6012
 3899TIP3    H233257   6.177   3.564   1.248 -0.2795  0.2099  0.0758
 3900TIP3   OH233258   1.218   2.570   1.456 -0.0471  0.2496 -0.2502
 3900TIP3    H133259   1.186   2.480   1.451  3.0291 -0.8861 -2.5600
 3900TIP3    H233260   1.294   2.565   1.514 -1.0351  1.9038  1.3242
 3901TIP3   OH233261   3.174   6.709   7.184 -0.2398 -0.0990  0.0685
 3901TIP3    H133262   3.243   6.665   7.234  0.6690 -0.0773 -1.1205
 3901TIP3    H233263   3.182   6.801   7.209 -0.4782 -0.2386  0.6626
 3902TIP3   OH233264   0.905   4.032   2.030  0.5238 -0.2948 -0.2195
 3902TIP3    H133265   0.979   4.088   2.052 -0.1586  0.5291  0.0058
 3902TIP3    H233266   0.865   4.011   2.115 -0.4675  0.6061 -0.4526
 3903TIP3   OH233267   3.360   3.577   1.685 -0.2625 -0.5891  0.4832
 3903TIP3    H133268   3.384   3.534   1.603 -1.3542 -2.4148  1.0632
 3903TIP3    H233269   3.331   3.664   1.659 -1.5863 -1.4909 -1.2126
 3904TIP3   OH233270   4.734   0.073   0.692 -0.9258 -0.1870 -0.2375
 3904TIP3    H133271   4.801   0.038   0.633  0.7297  0.2444  1.3277
 3904TIP3    H233272   4.731   0.010   0.764  0.1446  1.4052  1.2750
 3905TIP3   OH233273   4.607   6.178   0.204 -0.4369 -0.2729  0.0630
 3905TIP3    H133274   4.693   6.137   0.201 -0.0813  0.5048 -1.2638
 3905TIP3    H233275   4.620   6.259   0.253 -0.3481 -0.0431 -0.3331
 3906TIP3   OH233276   2.510   5.463   1.450 -0.7229  0.0482 -0.3510
 3906TIP3    H133277   2.520   5.557   1.442  2.8871 -0.2698 -1.6092
 3906TIP3    H233278   2.522   5.445   1.544  0.5139  0.7524 -0.3505
 3907TIP3   OH233279   5.264   4.034   0.845 -0.0567  0.3954  0.2184
 3907TIP3    H133280   5.323   4.064   0.777 -1.1631  0.9519 -0.5335
 3907TIP3    H233281   5.194   4.099   0.847 -0.7884 -0.3824  0.8830
 3908TIP3   OH233282   3.935   6.127   2.189 -0.0051  0.1805 -0.1660
 3908TIP3    H133283   4.012   6.157   2.140 -0.1027  1.0911  0.2144
 3908TIP3    H233284   3.890   6.207   2.214 -1.0720 -0.3471 -0.3511
 3909TIP3   OH233285   5.237   6.607   1.768 -0.3588  0.6315 -0.2122
 3909TIP3    H133286   5.169   6.587   1.833 -1.7034 -0.2340 -1.7781
 3909TIP3    H233287   5.273   6.691   1.795 -0.7112  0.1967  1.7454
 3910TIP3   OH233288   1.044   4.502   1.087  0.0685 -0.4022 -0.2293
 3910TIP3    H133289   1.137   4.523   1.080  0.0203 -0.1541 -0.1373
 3910TIP3    H233290   0.999   4.585   1.068 -0.1695 -0.8044 -1.4731
 3911TIP3   OH233291   2.321   1.009   1.942  0.2408  0.5147 -0.0422
 3911TIP3    H133292   2.296   1.050   2.025 -0.2161 -0.0912  0.1329
 3911TIP3    H233293   2.377   1.073   1.899  0.5131  0.8230  0.7530
 3912TIP3   OH233294   4.915   4.526   0.706 -0.0274 -0.1169 -0.0627
 3912TIP3    H133295   4.850   4.464   0.740  0.3232  0.2761  1.3990
 3912TIP3    H233296   4.872   4.565   0.630 -1.2525 -0.3328  0.4791
 3913TIP3   OH233297   6.767   5.810   7.863  0.7253 -0.0774 -0.4027
 3913TIP3    H133298   6.730   5.748   7.800  0.9198  0.1027 -0.6939
 3913TIP3    H233299   6.808   5.877   7.810 -0.6621  1.0473 -0.0997
 3914TIP3   OH233300   3.575   1.115   3.315  0.0948  0.0318 -0.1357
 3914TIP3    H133301   3.622   1.164   3.247  0.4686 -0.7555 -0.4632
 3914TIP3    H233302   3.497   1.167   3.332  1.1418  1.4599  0.5370
 3915TIP3   OH233303   1.961   6.193   1.001  0.1681 -0.1239  0.7687
 3915TIP3    H133304   1.887   6.225   0.950  0.5824 -0.3534  0.0161
 3915TIP3    H233305   1.930   6.111   1.040  0.0110 -0.2002  0.4830
 3916TIP3   OH233306   2.217   6.268   0.854 -0.0932  0.3810  0.0943
 3916TIP3    H133307   2.190   6.343   0.801  0.3835 -0.2456 -1.0732
 3916TIP3    H233308   2.145   6.256   0.916 -0.5699  1.2627 -0.2703
 3917TIP3   OH233309   6.543   2.013   8.546  0.7736 -0.0726  0.6851
 3917TIP3    H133310   6.466   1.977   8.591  1.6903 -2.6071  0.3828
 3917TIP3    H233311   6.605   2.032   8.616  0.6334 -0.0331  0.7983
 3918TIP3   OH233312   0.978   2.024   7.828  0.3197  0.1442 -0.3361
 3918TIP3    H133313   1.034   2.091   7.790  0.2028 -0.0215 -0.8089
 3918TIP3    H233314   1.034   1.946   7.835  0.8188  0.6116  1.3590
 3919TIP3   OH233315   2.886   6.337   1.733  0.4324  0.4033 -0.2163
 3919TIP3    H133316   2.978   6.356   1.749  0.6425  0.1631 -1.0739
 3919TIP3    H233317   2.839   6.416   1.760  0.6950 -0.1068  1.9235
 3920TIP3   OH233318   2.074   5.165   7.273 -0.0001  0.5209  0.6302
 3920TIP3    H133319   2.091   5.257   7.291 -3.1221  1.7891 -2.0129
 3920TIP3    H233320   2.030   5.133   7.352 -1.0295  2.0061  0.6873
 3921TIP3   OH233321   5.880   6.341   2.599 -0.3784  0.4800 -0.8662
 3921TIP3    H133322   5.921   6.410   2.546 -0.9517  0.7887 -0.9198
 3921TIP3    H233323   5.914   6.355   2.687 -0.2229  0.6158 -0.9472
 3922TIP3   OH233324   6.333   5.455   0.257  0.0570 -0.6216 -0.0394
 3922TIP3    H133325   6.374   5.460   0.343 -0.5139 -1.6895  0.3232
 3922TIP3    H233326   6.243   5.484   0.272  0.0427 -0.4983 -0.3495
 3923TIP3   OH233327   0.796   4.133   1.028 -0.2402  0.5677 -0.1767
 3923TIP3    H133328   0.701   4.137   1.021 -0.2966  0.6123  0.5944
 3923TIP3    H233329   0.815   4.044   1.057  0.0086  0.3192 -1.0588
 3924TIP3   OH233330   6.634   0.699   2.467  0.3532 -0.5553 -0.1607
 3924TIP3    H133331   6.679   0.641   2.529 -0.2508 -0.7670  0.0808
 3924TIP3    H233332   6.582   0.757   2.522 -0.6213 -1.1044 -0.4804
 3925TIP3   OH233333   3.321   5.516   1.615 -0.0678 -0.2999  0.5187
 3925TIP3    H133334   3.318   5.512   1.710  0.5050 -0.6624  0.5249
 3925TIP3    H233335   3.259   5.448   1.586  0.0047 -0.4126  0.6298
 3926TIP3   OH233336   2.920   0.575   8.756  0.0586 -0.0677  0.6231
 3926TIP3    H133337   2.914   0.623   8.673 -1.3807 -1.3385 -0.0616
 3926TIP3    H233338   2.851   0.613   8.811 -0.4685 -0.6917  0.4116
 3927TIP3   OH233339   5.737   4.291   2.258 -0.0178  0.1768 -0.0380
 3927TIP3    H133340   5.691   4.232   2.317 -0.6431 -0.8715 -1.5074
 3927TIP3    H233341   5.701   4.377   2.277 -0.8146 -0.2681  0.5324
 3928TIP3   OH233342   4.772   4.421   1.657 -0.3386  0.0333  0.1848
 3928TIP3    H133343   4.693   4.410   1.710  0.6576 -3.2960  1.2281
 3928TIP3    H233344   4.791   4.333   1.624  4.8344 -0.2766  2.9819
 3929TIP3   OH233345   2.426   2.775   2.650 -0.2287 -0.3821  0.4820
 3929TIP3    H133346   2.504   2.732   2.683  1.8829  1.7155 -1.4401
 3929TIP3    H233347   2.412   2.736   2.564 -1.0225 -0.3854  0.6038
 3930TIP3   OH233348   2.200   3.050   2.389 -0.3845 -0.7086  0.0546
 3930TIP3    H133349   2.106   3.032   2.398  0.0061 -2.3479  1.1917
 3930TIP3    H233350   2.234   3.045   2.478  0.9782 -1.2509 -0.4769
 3931TIP3   OH233351   3.161   5.772   8.544  0.1954 -0.2049 -0.4832
 3931TIP3    H133352   3.187   5.705   8.480  0.2217 -1.0272  0.3650
 3931TIP3    H233353   3.178   5.855   8.499  1.5976 -0.7395 -1.0318
 3932TIP3   OH233354   6.565   1.687   1.313  0.6607  0.5072  0.3814
 3932TIP3    H133355   6.638   1.642   1.270 -0.2308  0.1628 -0.8269
 3932TIP3    H233356   6.493   1.623   1.311 -0.1831  1.4507 -0.0250
 3933TIP3   OH233357   0.175   5.458   0.812  0.4074  0.0821 -0.1555
 3933TIP3    H133358   0.095   5.405   0.814 -0.1876  0.7693 -2.7143
 3933TIP3    H233359   0.236   5.412   0.870 -0.3567 -2.9338 -1.6074
 3934TIP3   OH233360   4.336   6.391   0.689  0.0610  0.8017  0.0289
 3934TIP3    H133361   4.409   6.453   0.695  1.6763 -1.0540  0.6669
 3934TIP3    H233362   4.376   6.305   0.704 -2.4792 -0.1988  1.8094
 3935TIP3   OH233363   0.112   1.344   2.807 -0.3654  0.3098  0.1541
 3935TIP3    H133364   0.165   1.295   2.871  0.9697  1.2398 -0.1880
 3935TIP3    H233365   0.176   1.376   2.743 -1.4922  0.6535 -0.8289
 3936TIP3   OH233366   4.201   4.895   8.633  0.4610 -0.2749  0.5335
 3936TIP3    H133367   4.249   4.916   8.553 -1.3531 -0.3105 -0.6252
 3936TIP3    H233368   4.247   4.943   8.702  1.3425  0.7537 -0.7275
 3937TIP3   OH233369   2.656   4.015   0.837  0.4958 -0.5227 -0.0598
 3937TIP3    H133370   2.705   3.939   0.804  0.1296 -0.5795 -0.4881
 3937TIP3    H233371   2.696   4.090   0.794  0.5254 -0.5197 -0.0273
 3938TIP3   OH233372   5.607   1.904   0.418 -0.0325  0.5330 -0.1468
 3938TIP3    H133373   5.517   1.927   0.396  0.1751  0.4718 -1.0935
 3938TIP3    H233374   5.605   1.809   0.431 -0.1524  0.5664  0.0815
 3939TIP3   OH233375   5.450   5.574   8.284  0.4549  0.1702  0.2524
 3939TIP3    H133376   5.526   5.517   8.276  0.3763  0.0828  0.1438
 3939TIP3    H233377   5.424   5.592   8.194 -0.5470 -0.9851  0.2925
 3940TIP3   OH233378   1.929   3.745   1.499 -1.0671  0.3638 -0.0370
 3940TIP3    H133379   1.980   3.688   1.556 -0.5076  1.4673  0.5828
 3940TIP3    H233380   1.890   3.810   1.557  0.5756  2.3134 -0.9968
 3941TIP3   OH233381   4.721   3.362   2.308  0.1974  0.2770  0.2160
 3941TIP3    H133382   4.678   3.283   2.276  0.4676  0.4917 -0.7121
 3941TIP3    H233383   4.793   3.377   2.246 -1.1104  2.3987 -0.9127
 3942TIP3   OH233384   5.335   1.064   0.791  0.0186 -0.1340 -0.8288
 3942TIP3    H133385   5.336   1.158   0.808  2.3763 -0.3207  0.4512
 3942TIP3    H233386   5.339   1.058   0.695  0.8623  1.1074 -0.9076
 3943TIP3   OH233387   0.082   2.426   2.617  0.2501 -0.0764  0.0295
 3943TIP3    H133388   0.028   2.478   2.557  0.0906 -0.1259  0.1305
 3943TIP3    H233389   0.043   2.442   2.703  0.3771 -0.1380  0.0976
 3944TIP3   OH233390   4.378   5.039   2.436  0.4075 -0.1024 -0.2579
 3944TIP3    H133391   4.409   5.124   2.466 -2.1614  0.3606  1.3857
 3944TIP3    H233392   4.371   5.047   2.341  0.2976  1.4797 -0.1341
 3945TIP3   OH233393   1.653   5.787   7.807  0.2115  0.2604 -0.1168
 3945TIP3    H133394   1.724   5.752   7.752 -0.0196  1.1854 -1.0272
 3945TIP3    H233395   1.613   5.855   7.754 -0.9008  0.2510  0.6869
 3946TIP3   OH233396   4.254   1.501   0.208 -0.3132  0.6128  0.4217
 3946TIP3    H133397   4.167   1.511   0.247  0.5347 -0.6400  2.9120
 3946TIP3    H233398   4.312   1.548   0.268  0.6863  2.2614 -1.7168
 3947TIP3   OH233399   5.002   1.968   7.899  0.5803 -0.4496  0.3439
 3947TIP3    H133400   5.040   1.950   7.813  0.7652  0.5316  0.2080
 3947TIP3    H233401   4.915   2.003   7.880  0.6999 -0.0390  0.5396
 3948TIP3   OH233402   2.825   3.461   0.887  0.5057  0.0567 -0.4785
 3948TIP3    H133403   2.735   3.445   0.917  0.6036  0.7486  0.2023
 3948TIP3    H233404   2.852   3.541   0.932  0.8509  0.8630 -2.0475
 3949TIP3   OH233405   2.525   2.836   2.959 -0.1769 -0.3897 -0.5151
 3949TIP3    H133406   2.589   2.782   2.913  1.6063  2.9092 -2.2538
 3949TIP3    H233407   2.440   2.797   2.938  0.9784 -2.6617 -1.2981
 3950TIP3   OH233408   6.357   2.922   1.831 -0.0038 -0.3758 -0.0287
 3950TIP3    H133409   6.287   2.963   1.780 -0.1004  0.6927  0.9388
 3950TIP3    H233410   6.401   2.864   1.768 -0.7650  0.1219 -1.0516
 3951TIP3   OH233411   3.771   0.530   0.940  0.1357  0.0434 -0.2501
 3951TIP3    H133412   3.819   0.607   0.971 -0.0336 -0.3148  0.9420
 3951TIP3    H233413   3.706   0.513   1.008 -1.9164  0.6692 -1.9444
 3952TIP3   OH233414   5.730   3.000   1.105 -0.0871  0.6489 -0.0675
 3952TIP3    H133415   5.645   3.004   1.149  0.2887  1.3084  0.6030
 3952TIP3    H233416   5.785   2.950   1.165 -0.2293 -0.5860 -0.9149
 3953TIP3   OH233417   2.021   3.847   1.247 -0.2125  0.4605  0.2079
 3953TIP3    H133418   1.940   3.863   1.198 -0.1209  2.5876  0.6581
 3953TIP3    H233419   1.993   3.793   1.322 -0.7617 -0.7686 -0.8409
 3954TIP3   OH233420   4.999   3.029   2.116  0.2407 -0.0459  0.1996
 3954TIP3    H133421   5.054   3.082   2.174  1.0132 -0.3193 -0.2594
 3954TIP3    H233422   4.913   3.028   2.158  0.7664 -0.1703  1.2976
 3955TIP3   OH233423   2.177   4.191   8.464  0.0091 -0.2978 -0.0311
 3955TIP3    H133424   2.194   4.284   8.479 -0.6260 -0.4679  2.0291
 3955TIP3    H233425   2.263   4.149   8.474  0.2222  0.0213 -0.5331
 3956TIP3   OH233426   6.033   6.128   2.487  0.3155 -0.1462  0.3628
 3956TIP3    H133427   5.978   6.182   2.545  0.9822 -0.3658  1.2093
 3956TIP3    H233428   6.087   6.192   2.440  0.4574 -0.0274  0.6891
 3957TIP3   OH233429   1.647   1.713   8.751 -0.6517 -0.0675 -0.2532
 3957TIP3    H133430   1.606   1.634   8.717 -0.7336  0.5816 -1.7544
 3957TIP3    H233431   1.575   1.776   8.760 -0.3541  0.3259 -0.5888
 3958TIP3   OH233432   6.105   0.655   3.424  0.4287  0.1210 -0.5952
 3958TIP3    H133433   6.035   0.654   3.489  2.2836  0.2989  1.5165
 3958TIP3    H233434   6.127   0.748   3.415  0.5736  0.0437 -1.0787
 3959TIP3   OH233435   5.193   2.542   1.003  0.1846  0.4338 -0.1730
 3959TIP3    H133436   5.235   2.494   1.075 -0.4114 -0.0865 -0.1642
 3959TIP3    H233437   5.137   2.606   1.048  0.4316  0.6619 -0.1842
 3960TIP3   OH233438   6.391   3.373   8.648  0.2471 -0.3577 -0.3003
 3960TIP3    H133439   6.326   3.440   8.672  1.2281  0.8262 -0.8369
 3960TIP3    H233440   6.350   3.325   8.577  0.3695  1.1125 -1.4074
 3961TIP3   OH233441   5.203   2.314   2.883 -0.4538 -0.4843  0.0863
 3961TIP3    H133442   5.263   2.271   2.944  0.8031 -0.5177 -1.1236
 3961TIP3    H233443   5.200   2.405   2.913 -1.0270 -0.8093  1.0635
 3962TIP3   OH233444   4.950   6.519   8.408  0.2977  0.0055 -0.0570
 3962TIP3    H133445   4.973   6.470   8.329 -0.0508 -0.0158 -0.1470
 3962TIP3    H233446   4.881   6.467   8.448  0.8755 -0.2876  0.5721
 3963TIP3   OH233447   4.093   1.781   2.208 -0.4229 -0.2496  0.0674
 3963TIP3    H133448   4.011   1.742   2.239 -1.2982  0.5942 -1.0878
 3963TIP3    H233449   4.162   1.732   2.253 -1.5600 -0.9417  1.1029
 3964TIP3   OH233450   4.470   6.178   2.388  0.5552  0.5010  0.2984
 3964TIP3    H133451   4.556   6.189   2.348  0.7382  0.7890  0.7585
 3964TIP3    H233452   4.463   6.252   2.449 -0.0931  0.5781  0.1313
 3965TIP3   OH233453   2.417   5.358   2.197  0.5527 -0.0964  0.2449
 3965TIP3    H133454   2.414   5.433   2.256  0.8744  0.5167 -0.4927
 3965TIP3    H233455   2.496   5.373   2.145  0.8146 -1.1390  0.3339
 3966TIP3   OH233456   5.680   3.706   0.660 -0.7406 -0.4687 -0.0014
 3966TIP3    H133457   5.659   3.794   0.628 -1.8073 -0.6854  0.0750
 3966TIP3    H233458   5.596   3.661   0.665 -0.4703 -0.8799  1.7797
 3967TIP3   OH233459   0.428   0.352   2.521  0.7542 -0.1231 -0.0483
 3967TIP3    H133460   0.498   0.327   2.582  0.1894  1.1191  1.1536
 3967TIP3    H233461   0.433   0.447   2.517 -1.9417  0.1721  1.4580
 3968TIP3   OH233462   3.695   2.833   0.118  0.2276 -0.3331  0.6716
 3968TIP3    H133463   3.615   2.791   0.151  0.9183 -0.2036  2.6098
 3968TIP3    H233464   3.751   2.760   0.091 -0.2109 -0.4568  0.0764
 3969TIP3   OH233465   4.401   5.579   1.963 -0.5905  0.5476  0.3631
 3969TIP3    H133466   4.409   5.665   2.003 -0.9460  1.1860 -0.8923
 3969TIP3    H233467   4.412   5.517   2.036  1.6324  1.5908  1.0025
 3970TIP3   OH233468   2.111   4.782   2.194 -0.1691  0.0006 -0.4621
 3970TIP3    H133469   2.027   4.740   2.180 -0.9334  0.5436  2.0325
 3970TIP3    H233470   2.111   4.858   2.135 -1.8381  0.5119  0.1583
 3971TIP3   OH233471   2.388   5.518   1.917 -0.8344 -0.1730  0.3381
 3971TIP3    H133472   2.301   5.554   1.902 -0.4612 -0.0104 -1.6701
 3971TIP3    H233473   2.376   5.423   1.917 -1.0849 -0.1421  0.6378
 3972TIP3   OH233474   5.685   3.844   1.383 -0.0649  0.2663  0.5750
 3972TIP3    H133475   5.638   3.798   1.452 -1.0994 -1.0115 -0.9156
 3972TIP3    H233476   5.776   3.843   1.411 -0.1668 -2.0118  0.9976
 3973TIP3   OH233477   4.700   5.038   0.012  0.6063  0.6479 -0.3614
 3973TIP3    H133478   4.723   5.130  -0.002  0.8523  0.5099 -0.8986
 3973TIP3    H233479   4.709   4.998  -0.074  2.9989 -0.4250  0.2981
 3974TIP3   OH233480   1.799   2.713   0.417 -0.6536  0.4966  0.1648
 3974TIP3    H133481   1.868   2.647   0.422 -1.0170  0.0768 -0.2501
 3974TIP3    H233482   1.779   2.733   0.508  0.8062  1.4730  0.3007
 3975TIP3   OH233483   4.191   2.717   8.041 -0.0079 -0.2809 -0.1149
 3975TIP3    H133484   4.206   2.623   8.032 -1.1472 -0.3676 -1.4040
 3975TIP3    H233485   4.100   2.723   8.071  0.0850  0.4154  0.0355
 3976TIP3   OH233486   6.386   2.888   0.987  0.4346  0.0887  0.0177
 3976TIP3    H133487   6.454   2.824   0.968  0.6940  0.5189 -0.5034
 3976TIP3    H233488   6.414   2.929   1.069  1.7763  1.5429 -1.1071
 3977TIP3   OH233489   3.256   2.215   2.336  0.7480 -0.1839 -0.2286
 3977TIP3    H133490   3.211   2.210   2.251  0.9895 -0.8235 -0.3281
 3977TIP3    H233491   3.248   2.127   2.372  0.4799  0.1371  0.5111
 3978TIP3   OH233492   6.466   2.435   0.308 -0.1841  0.1855 -0.2528
 3978TIP3    H133493   6.484   2.403   0.219 -0.9156  0.4786 -0.5154
 3978TIP3    H233494   6.414   2.515   0.294  2.1501  1.9209  0.3600
 3979TIP3   OH233495   5.931   0.464   3.368  0.1528 -0.3155 -0.2168
 3979TIP3    H133496   5.844   0.493   3.396 -0.5195 -0.2591 -2.2349
 3979TIP3    H233497   5.991   0.525   3.410 -0.9174  0.9013 -0.3914
 3980TIP3   OH233498   4.647   4.439   8.154  0.0381  0.2073  0.6075
 3980TIP3    H133499   4.640   4.509   8.219  1.7719 -0.4856  1.5964
 3980TIP3    H233500   4.737   4.444   8.123  0.5947 -2.2992  1.5877
 3981TIP3   OH233501   4.896   1.670   1.749  0.4008 -0.3760  0.3401
 3981TIP3    H133502   4.901   1.764   1.730  2.0655 -0.0921  1.8941
 3981TIP3    H233503   4.932   1.628   1.672 -0.0217  0.2620 -0.2239
 3982TIP3   OH233504   3.156   6.070   8.513 -0.7979 -0.0588 -1.0311
 3982TIP3    H133505   3.210   6.058   8.435 -0.5172 -0.5752 -0.7602
 3982TIP3    H233506   3.197   6.143   8.560 -0.6724 -0.0783 -1.1114
 3983TIP3   OH233507   0.130   5.986   2.345  0.6032 -0.2703  0.2043
 3983TIP3    H133508   0.216   5.947   2.332  0.8395  0.5790 -0.9422
 3983TIP3    H233509   0.141   6.077   2.317 -0.9525 -0.4343 -1.0495
 3984TIP3   OH233510   6.687   2.047   8.780 -0.4841  0.3908 -0.2204
 3984TIP3    H133511   6.606   2.075   8.823 -0.9030 -1.6590  0.4334
 3984TIP3    H233512   6.719   1.974   8.833  1.7846  1.0929 -0.5098
 3985TIP3   OH233513   1.483   1.497   8.023 -0.3085 -0.0387  0.4627
 3985TIP3    H133514   1.441   1.496   7.936 -0.3267 -1.3106  0.4771
 3985TIP3    H233515   1.414   1.527   8.082 -0.2932  0.8555  0.0489
 3986TIP3   OH233516   3.811   4.481   2.626 -0.2340 -0.4601  0.1559
 3986TIP3    H133517   3.886   4.422   2.634 -0.4511 -0.5177  2.0068
 3986TIP3    H233518   3.844   4.556   2.577  0.9938 -0.5570  0.8146
 3987TIP3   OH233519   3.672   0.924   8.452 -0.5583  0.0592  0.3401
 3987TIP3    H133520   3.719   1.007   8.447 -0.0733 -0.2078  0.4380
 3987TIP3    H233521   3.621   0.922   8.371 -0.3715  0.3303  0.2107
 3988TIP3   OH233522   4.299   2.464   0.362 -0.0422  0.1375  0.4245
 3988TIP3    H133523   4.387   2.457   0.325  0.0652  3.2813 -0.2014
 3988TIP3    H233524   4.309   2.438   0.453  1.7185  1.0164  0.5271
 3989TIP3   OH233525   2.893   1.871   1.931  0.0372 -0.0251 -0.2396
 3989TIP3    H133526   2.944   1.793   1.909 -1.8492 -1.2734 -0.3933
 3989TIP3    H233527   2.910   1.931   1.859  1.1977 -0.4345 -0.3313
 3990TIP3   OH233528   2.493   3.583   7.594 -0.1324  0.0147  0.1476
 3990TIP3    H133529   2.571   3.541   7.631  0.2980 -0.0838 -0.8350
 3990TIP3    H233530   2.438   3.511   7.564  0.2674  0.1157 -0.8643
 3991TIP3   OH233531   4.275   6.598   7.813  0.1060  0.2088  0.2430
 3991TIP3    H133532   4.198   6.545   7.791 -1.2203  2.2617 -0.3340
 3991TIP3    H233533   4.347   6.556   7.765 -1.2170 -0.0830 -1.6056
 3992TIP3   OH233534   0.249   6.062   2.021 -0.4448  0.2007  0.6354
 3992TIP3    H133535   0.339   6.068   1.991 -0.5628  1.9712  0.5193
 3992TIP3    H233536   0.233   5.968   2.032  0.8650 -0.2506 -0.9678
 3993TIP3   OH233537   6.578   1.866   2.534 -0.4330  0.2674  0.1621
 3993TIP3    H133538   6.532   1.943   2.501 -0.1904  0.1442 -0.4751
 3993TIP3    H233539   6.529   1.792   2.499 -1.0855  0.1063  1.3455
 3994TIP3   OH233540   1.827   4.558   8.752 -0.0299  0.0243 -0.3128
 3994TIP3    H133541   1.919   4.559   8.725 -0.0295 -0.2902 -0.3292
 3994TIP3    H233542   1.829   4.554   8.847  0.0382 -3.6869 -0.3329
 3995TIP3   OH233543   5.009   6.718   0.956 -0.7451 -0.2370  0.3661
 3995TIP3    H133544   5.040   6.760   1.036  1.5918 -0.8367 -0.1269
 3995TIP3    H233545   5.090   6.690   0.911 -2.0382 -1.4114 -1.3780
 3996TIP3   OH233546   1.250   0.355   7.942  0.3708  0.4337 -0.4025
 3996TIP3    H133547   1.325   0.362   8.001  1.8606 -2.0611 -1.7954
 3996TIP3    H233548   1.278   0.402   7.863 -0.8545  2.1364  0.1102
 3997TIP3   OH233549   3.643   2.335   1.447  0.4241 -0.3240 -0.1190
 3997TIP3    H133550   3.582   2.263   1.433  1.9713 -1.6283 -0.4642
 3997TIP3    H233551   3.724   2.306   1.405  1.9130  0.4065  2.0425
 3998TIP3   OH233552   0.832   5.701   8.740  0.1986 -0.1878 -0.1090
 3998TIP3    H133553   0.750   5.701   8.789 -0.4624  1.5892 -1.1191
 3998TIP3    H233554   0.901   5.700   8.807 -0.6512 -0.2359  0.7797
 3999TIP3   OH233555   5.747   3.991   8.791 -0.3352  0.1292  0.0812
 3999TIP3    H133556   5.813   3.995   8.722  0.7775  1.5589  1.1456
 3999TIP3    H233557   5.729   3.898   8.802  1.5850 -0.3212 -0.2083
 4000TIP3   OH233558   4.313   2.695   3.373 -0.0029  0.3458 -0.2501
 4000TIP3    H133559   4.286   2.671   3.461  0.2344  1.9601  0.3001
 4000TIP3    H233560   4.399   2.654   3.361 -0.2307 -0.2374  0.0894
 4001TIP3   OH233561   0.071   0.698   2.263  0.0154  0.5913 -0.6369
 4001TIP3    H133562   0.093   0.791   2.267  2.4543  0.0640 -0.1948
 4001TIP3    H233563  -0.004   0.689   2.321  0.5763  2.0929  0.3857
 4002TIP3   OH233564   5.610   4.197   8.656 -0.4886 -0.2960 -0.0444
 4002TIP3    H133565   5.653   4.143   8.723  0.8693 -0.0646 -0.6767
 4002TIP3    H233566   5.675   4.265   8.636 -1.7439  0.9544 -0.0171
 4003TIP3   OH233567   0.821   4.791   2.876 -0.0781  0.3558  0.3407
 4003TIP3    H133568   0.796   4.857   2.940  0.5447  0.9183  0.0189
 4003TIP3    H233569   0.892   4.832   2.826  0.0178 -0.3913 -0.1502
 4004TIP3   OH233570   1.190   0.705   7.815 -0.1284 -0.1933  0.5822
 4004TIP3    H133571   1.222   0.638   7.754  0.1408 -0.3691  0.9107
 4004TIP3    H233572   1.095   0.691   7.819 -0.0821 -0.5155  0.5968
 4005TIP3   OH233573   5.377   6.293   2.700  0.3628 -0.0193  0.4955
 4005TIP3    H133574   5.443   6.311   2.768  0.4407 -1.3347  0.7830
 4005TIP3    H233575   5.297   6.274   2.749  0.4975 -1.2913  0.2519
 4006TIP3   OH233576   5.910   2.179   2.550  0.2894  0.0451 -0.0049
 4006TIP3    H133577   5.917   2.191   2.644 -1.0813 -1.1165  0.2838
 4006TIP3    H233578   5.907   2.083   2.538  1.7090  0.1245 -1.3388
 4007TIP3   OH233579   4.370   3.656   7.168  0.6541 -0.4800 -0.5032
 4007TIP3    H133580   4.381   3.630   7.259 -3.2979 -0.4022  0.1561
 4007TIP3    H233581   4.372   3.752   7.170 -0.5687 -0.4478 -0.2675
 4008TIP3   OH233582   0.171   5.517   0.377  0.5703 -0.0193 -0.3532
 4008TIP3    H133583   0.195   5.437   0.424  0.1848  0.2291  0.2753
 4008TIP3    H233584   0.176   5.493   0.285 -0.3662 -1.0262 -0.1629
 4009TIP3   OH233585   2.570   1.401   0.306 -0.4007  0.1136 -0.3829
 4009TIP3    H133586   2.537   1.312   0.316  0.7534 -0.2393  0.5853
 4009TIP3    H233587   2.666   1.391   0.304 -0.2755  1.0637 -3.1888
 4010TIP3   OH233588   3.988   3.913   0.060  0.1453 -1.0572 -0.1444
 4010TIP3    H133589   3.926   3.881  -0.006  0.6375 -2.3194 -0.0344
 4010TIP3    H233590   4.075   3.897   0.021  0.4218 -0.8179  0.3625
 4011TIP3   OH233591   0.126   5.530   3.063  0.4447 -0.1203 -0.1034
 4011TIP3    H133592   0.137   5.449   3.013  1.3118  0.7995 -1.4869
 4011TIP3    H233593   0.136   5.599   2.997 -0.9418  1.0988  0.9236
 4012TIP3   OH233594   3.362   6.069   0.950  0.5022 -0.1078  0.3029
 4012TIP3    H133595   3.325   6.139   0.896 -1.8388 -0.5573  1.1728
 4012TIP3    H233596   3.442   6.106   0.986  0.9019  1.0172 -1.6286
 4013TIP3   OH233597   6.083   1.856   0.586 -0.4473 -0.6100  0.0616
 4013TIP3    H133598   6.057   1.942   0.553  1.3197  0.3073  0.8930
 4013TIP3    H233599   6.030   1.844   0.665 -1.2090 -0.6228 -0.4418
 4014TIP3   OH233600   5.962   4.663   2.908  0.0190 -0.0497  0.4826
 4014TIP3    H133601   6.013   4.702   2.980 -0.6442  0.6076  0.6125
 4014TIP3    H233602   5.963   4.569   2.927  0.1650  0.0764  1.1516
 4015TIP3   OH233603   5.496   2.318   0.765  0.5479  0.4865  0.4867
 4015TIP3    H133604   5.497   2.311   0.670 -0.0497 -1.4584  0.5710
 4015TIP3    H233605   5.411   2.357   0.786 -1.8435 -3.9741  0.3132
 4016TIP3   OH233606   0.630   1.865   0.768  0.2502  0.0702 -0.1554
 4016TIP3    H133607   0.695   1.818   0.819  0.9203  0.5826 -0.5215
 4016TIP3    H233608   0.672   1.882   0.684  0.2337  1.7622  0.1355
 4017TIP3   OH233609   1.015   1.223   0.964  0.5842  0.1351 -0.5699
 4017TIP3    H133610   1.002   1.128   0.962  1.7924 -0.0425 -1.3720
 4017TIP3    H233611   0.998   1.251   0.874  0.2023  0.6834 -0.3276
 4018TIP3   OH233612   6.721   4.779   2.804  0.4420  0.1905 -0.2883
 4018TIP3    H133613   6.654   4.833   2.845  0.0234 -0.7835  0.3571
 4018TIP3    H233614   6.676   4.697   2.781  1.0842  0.0578 -1.1226
 4019TIP3   OH233615   5.666   0.484   7.687  0.1342  0.3262  0.3536
 4019TIP3    H133616   5.706   0.557   7.734 -0.9827 -0.0474  2.0014
 4019TIP3    H233617   5.572   0.496   7.701 -0.2396  0.0572 -1.6628
 4020TIP3   OH233618   1.456   0.234   2.754 -0.0450 -0.1484  0.4054
 4020TIP3    H133619   1.478   0.327   2.755 -1.1350  0.1266  1.3214
 4020TIP3    H233620   1.515   0.194   2.817  2.5988 -0.6758 -2.2010
 4021TIP3   OH233621   2.328   6.798   1.970  0.2381 -0.3248  0.1462
 4021TIP3    H133622   2.344   6.890   1.993  0.1475 -0.1817 -0.3435
 4021TIP3    H233623   2.274   6.764   2.041  1.8246 -0.5365  1.3212
 4022TIP3   OH233624   5.917   4.923   8.099  0.1261  0.1505  0.1631
 4022TIP3    H133625   5.941   4.955   8.012 -0.7117 -0.2648 -0.2373
 4022TIP3    H233626   5.899   4.830   8.086 -1.2992  0.3485  0.4822
 4023TIP3   OH233627   0.626   4.553   0.946 -0.3082 -0.3204  0.3587
 4023TIP3    H133628   0.676   4.504   0.881  1.4175 -1.4487  2.3830
 4023TIP3    H233629   0.584   4.485   0.999 -1.1752  0.5401  0.8110
 4024TIP3   OH233630   5.546   1.543   1.316  0.1781 -0.5100 -0.0162
 4024TIP3    H133631   5.486   1.523   1.243  0.6936 -2.1818 -0.0322
 4024TIP3    H233632   5.575   1.457   1.346  1.3758  0.2305  1.0009
 4025TIP3   OH233633   1.834   3.028   1.334  0.1005 -0.2455 -0.2030
 4025TIP3    H133634   1.825   3.104   1.392  2.8384 -0.8845  1.2244
 4025TIP3    H233635   1.761   2.971   1.357  0.1051  0.3400  1.3655
 4026TIP3   OH233636   2.810   2.232   0.039  0.5974  0.4875 -0.0778
 4026TIP3    H133637   2.719   2.258   0.024  0.7215  0.5765 -0.7218
 4026TIP3    H233638   2.806   2.164   0.106  0.1789  1.4766  0.9196
 4027TIP3   OH233639   5.895   1.505   8.737  0.0550 -0.2840 -0.1755
 4027TIP3    H133640   5.957   1.556   8.789  0.1145  0.6577 -1.1196
 4027TIP3    H233641   5.823   1.486   8.797 -0.3268  1.5874  0.0259
 4028TIP3   OH233642   3.963   4.224   7.370 -0.2371 -0.2729 -0.6496
 4028TIP3    H133643   4.024   4.151   7.365 -0.6942 -0.8457  1.1615
 4028TIP3    H233644   4.017   4.299   7.396 -0.0931 -0.4870 -0.3226
 4029TIP3   OH233645   6.724   3.171   2.513 -0.5437 -0.1349 -0.6227
 4029TIP3    H133646   6.747   3.079   2.503 -1.6129 -0.6337  1.1589
 4029TIP3    H233647   6.715   3.203   2.424 -0.9228 -1.9516 -1.2748
 4030TIP3   OH233648   6.424   4.285   0.393  0.1462 -0.5630  0.8186
 4030TIP3    H133649   6.421   4.375   0.425  1.0257  0.2032 -1.1059
 4030TIP3    H233650   6.512   4.255   0.414 -0.4893 -1.4295  2.4626
 4031TIP3   OH233651   6.230   5.638   3.365  0.3705 -0.1339 -0.4037
 4031TIP3    H133652   6.203   5.650   3.274 -0.0914  0.7324 -0.1701
 4031TIP3    H233653   6.278   5.556   3.366 -0.8435 -0.8786 -1.1655
 4032TIP3   OH233654   0.533   4.086   1.022 -0.0187 -0.6423  0.8567
 4032TIP3    H133655   0.522   4.013   0.961  1.1367 -1.3159  1.4336
 4032TIP3    H233656   0.459   4.145   1.002  0.1338 -1.0016 -0.9395
 4033TIP3   OH233657   0.572   6.026   8.544 -0.4862 -0.2537  0.0895
 4033TIP3    H133658   0.556   5.964   8.615  0.9320 -1.6797 -0.7707
 4033TIP3    H233659   0.667   6.027   8.534 -0.6404  0.2121 -1.5364
 4034TIP3   OH233660   0.434   6.286   8.431  0.6256  0.3358  0.6373
 4034TIP3    H133661   0.406   6.216   8.491  2.3283 -0.2372  0.8117
 4034TIP3    H233662   0.432   6.366   8.484 -0.7497  0.3400  0.6071
 4035TIP3   OH233663   3.613   5.925   3.274  0.2083  0.0201 -0.6526
 4035TIP3    H133664   3.696   5.912   3.228  0.0471 -0.4516 -0.8183
 4035TIP3    H233665   3.582   5.836   3.294  0.2413  0.2173  0.3043
 4036TIP3   OH233666   1.226   3.199   8.521  0.3108  0.5092 -0.2166
 4036TIP3    H133667   1.272   3.258   8.462 -0.4770  3.0629  1.5552
 4036TIP3    H233668   1.134   3.222   8.513  0.0955  0.3180  1.3271
 4037TIP3   OH233669   1.444   5.107   1.422  0.1287 -0.5223  0.3743
 4037TIP3    H133670   1.517   5.106   1.360 -0.1447 -2.5071  0.0122
 4037TIP3    H233671   1.468   5.044   1.489 -1.4534 -1.6615 -0.0583
 4038TIP3   OH233672   3.201   3.947   0.201 -0.6933  0.0255 -0.2517
 4038TIP3    H133673   3.273   3.998   0.163 -0.3710 -0.1683  0.0896
 4038TIP3    H233674   3.130   3.956   0.138 -0.4012  0.2991 -0.5492
 4039TIP3   OH233675   4.071   5.058   3.089  0.7508 -0.5417  0.1797
 4039TIP3    H133676   4.025   4.999   3.029  1.4970 -0.4151 -0.5336
 4039TIP3    H233677   4.063   5.017   3.175 -2.1890  0.3168  0.4267
 4040TIP3   OH233678   6.549   5.215   0.183  0.0948 -0.6205 -0.2467
 4040TIP3    H133679   6.458   5.192   0.202 -0.8568  2.0103 -1.1814
 4040TIP3    H233680   6.559   5.194   0.090 -0.0413  0.4394 -0.5081
 4041TIP3   OH233681   0.220   4.189   7.029 -0.2823 -0.0871  0.1515
 4041TIP3    H133682   0.149   4.178   7.091  0.0996  1.9217  1.0139
 4041TIP3    H233683   0.185   4.247   6.961 -0.4851 -1.7341 -1.2384
 4042TIP3   OH233684   3.477   3.027   2.648 -0.5910  0.1030 -0.5127
 4042TIP3    H133685   3.490   3.029   2.742 -1.3696 -0.2704 -0.3876
 4042TIP3    H233686   3.396   3.076   2.633 -1.1019 -0.8164 -0.8547
 4043TIP3   OH233687   6.519   1.418   8.676  0.0942  0.1030 -0.1179
 4043TIP3    H133688   6.601   1.466   8.664  0.6723 -0.9009 -0.3601
 4043TIP3    H233689   6.459   1.481   8.715  0.8983  0.9379 -0.1983
 4044TIP3   OH233690   5.668   5.061   8.200 -0.4603  0.5705  0.3732
 4044TIP3    H133691   5.725   5.055   8.123 -1.8976 -0.1195 -0.6711
 4044TIP3    H233692   5.682   4.979   8.247 -1.4570 -0.1386 -0.5292
 4045TIP3   OH233693   5.900   5.678   0.960 -0.7064 -0.3893  0.0531
 4045TIP3    H133694   5.872   5.768   0.978  1.0746  0.3535 -0.6680
 4045TIP3    H233695   5.818   5.629   0.952 -1.9526  1.8302 -2.9390
 4046TIP3   OH233696   4.728   1.992   2.854  0.9316 -0.4541 -0.9527
 4046TIP3    H133697   4.692   1.905   2.840  1.2335 -0.3733 -2.3942
 4046TIP3    H233698   4.655   2.051   2.832  0.7421 -0.3301 -0.0248
 4047TIP3   OH233699   6.526   2.985   0.205 -0.2255 -0.8123  0.2439
 4047TIP3    H133700   6.609   2.953   0.170 -0.8310 -1.8001 -0.3365
 4047TIP3    H233701   6.493   3.044   0.137  0.3627  0.2168  0.8264
 4048TIP3   OH233702   2.330   2.815   6.948 -0.1691  0.0514 -0.4012
 4048TIP3    H133703   2.269   2.878   6.985 -1.4158 -0.4794 -1.4693
 4048TIP3    H233704   2.355   2.853   6.863 -1.4333 -1.1213 -1.3515
 4049TIP3   OH233705   0.027   4.497   0.903 -0.4399  0.5379 -0.1119
 4049TIP3    H133706   0.023   4.425   0.967 -2.1647  0.8818  0.2127
 4049TIP3    H233707   0.023   4.454   0.818 -1.0927  0.2105  0.0763
 4050TIP3   OH233708   3.785   3.404   0.628  0.4382 -0.7118  0.8503
 4050TIP3    H133709   3.868   3.358   0.611  0.0447 -0.8988 -0.7525
 4050TIP3    H233710   3.811   3.486   0.669  1.4269 -0.7427  0.3169
 4051TIP3   OH233711   5.987   4.807   0.376  0.3964 -0.2845  0.2258
 4051TIP3    H133712   6.019   4.725   0.412 -1.3189 -0.4454  1.5248
 4051TIP3    H233713   5.892   4.804   0.390  0.0535  1.0640 -1.4784
 4052TIP3   OH233714   5.459   5.923   1.885 -0.1661 -0.1625 -0.0564
 4052TIP3    H133715   5.548   5.926   1.850  0.4834 -1.3346  1.4122
 4052TIP3    H233716   5.462   5.857   1.954 -2.1479 -0.1154  0.1319
 4053TIP3   OH233717   3.015   4.041   1.105  0.1171  0.5514  0.4986
 4053TIP3    H133718   3.040   3.963   1.055 -0.4931  0.0686  0.9272
 4053TIP3    H233719   3.039   4.114   1.049  1.1666  0.0755  0.2982
 4054TIP3   OH233720   4.209   5.542   1.156 -0.5931  1.0930  0.4097
 4054TIP3    H133721   4.151   5.593   1.213  0.6100  0.9741  1.7706
 4054TIP3    H233722   4.272   5.606   1.123 -1.9702  1.4154 -1.8219
 4055TIP3   OH233723   1.396   2.885   2.279  0.6946 -0.0987 -0.2751
 4055TIP3    H133724   1.314   2.889   2.230  2.3633 -0.6607 -3.3600
 4055TIP3    H233725   1.414   2.975   2.305 -2.1912 -0.2444  3.1388
 4056TIP3   OH233726   3.324   6.059   7.785 -0.2998 -0.1250 -0.1366
 4056TIP3    H133727   3.297   6.119   7.854  1.9190 -1.2795  1.8824
 4056TIP3    H233728   3.329   5.974   7.827  1.6298 -0.8046 -1.5569
 4057TIP3   OH233729   6.057   3.297   0.258 -0.2762 -0.1183  0.4145
 4057TIP3    H133730   6.045   3.261   0.170 -0.1535  1.9797 -0.5093
 4057TIP3    H233731   6.081   3.389   0.243  0.3167  0.1308  2.6323
 4058TIP3   OH233732   4.650   6.687   2.618 -0.0388 -0.6757 -0.1585
 4058TIP3    H133733   4.563   6.721   2.596 -0.0336  0.3539  1.2820
 4058TIP3    H233734   4.664   6.714   2.708  2.5941  0.9280 -0.9310
 4059TIP3   OH233735   6.292   3.942   1.358  0.5046 -0.5725  0.2743
 4059TIP3    H133736   6.359   4.000   1.394 -0.0639 -0.3779  1.0469
 4059TIP3    H233737   6.245   3.909   1.435  0.7580 -1.9981 -0.1522
 4060TIP3   OH233738   5.623   0.737   8.513  0.7335  0.4551  0.1556
 4060TIP3    H133739   5.636   0.667   8.577 -1.0632  0.3486  0.4598
 4060TIP3    H233740   5.697   0.729   8.453  0.2821 -2.1145 -0.1629
 4061TIP3   OH233741   2.721   1.496   1.133  0.5556  0.6708  0.2521
 4061TIP3    H133742   2.780   1.571   1.138 -0.4351  1.4735  0.4575
 4061TIP3    H233743   2.644   1.530   1.086  0.7940 -0.7124 -1.2181
 4062TIP3   OH233744   5.177   3.380   3.285  0.1233 -0.4801  0.4064
 4062TIP3    H133745   5.121   3.457   3.293  1.9027  1.0153 -0.6956
 4062TIP3    H233746   5.154   3.341   3.201  1.2752  0.6400 -0.4571
 4063TIP3   OH233747   0.618   5.065   3.348 -0.0280  0.3558 -0.2350
 4063TIP3    H133748   0.609   4.972   3.330  0.8291  0.1148  0.4901
 4063TIP3    H233749   0.697   5.091   3.300  0.2990  0.4745  0.3567
 4064TIP3   OH233750   3.195   2.933   0.129 -0.3895 -0.0784 -0.4132
 4064TIP3    H133751   3.128   2.994   0.159 -2.2513 -1.2148 -2.0081
 4064TIP3    H233752   3.239   2.979   0.058 -0.0219  0.3522  0.0845
 4065TIP3   OH233753   4.195   2.438   8.730  0.0564 -0.2636 -0.0332
 4065TIP3    H133754   4.107   2.459   8.701  0.2145  0.4986  0.0106
 4065TIP3    H233755   4.213   2.501   8.800  0.5364 -0.5834  0.1378
 4066TIP3   OH233756   3.904   4.683   2.493  0.0611 -0.4691 -0.1644
 4066TIP3    H133757   3.926   4.763   2.542  1.2040 -0.1814 -1.1068
 4066TIP3    H233758   3.934   4.701   2.404  1.0726 -2.2346 -0.2226
 4067TIP3   OH233759   6.736   1.859   1.475 -0.0636 -0.3746  0.4146
 4067TIP3    H133760   6.704   1.812   1.398  0.4026  1.2863 -0.8453
 4067TIP3    H233761   6.702   1.948   1.465 -0.3096 -0.2150  2.3423
 4068TIP3   OH233762   4.517   1.658   0.053 -0.2445  0.3951  0.5535
 4068TIP3    H133763   4.582   1.710   0.100 -0.3838 -0.9129  2.3051
 4068TIP3    H233764   4.529   1.569   0.087 -1.7854 -0.2035 -0.3658
 4069TIP3   OH233765   6.782   3.653   1.963 -0.0063 -0.7842  0.3694
 4069TIP3    H133766   6.728   3.576   1.944  0.3272 -0.7305 -0.9234
 4069TIP3    H233767   6.850   3.651   1.895  0.3753  0.3022  0.7038
 4070TIP3   OH233768   3.649   1.971   0.228  1.0065 -0.8602  0.1420
 4070TIP3    H133769   3.714   1.972   0.298  0.6997 -1.4994  0.4425
 4070TIP3    H233770   3.603   2.055   0.236 -1.0457 -2.0830  2.6253
 4071TIP3   OH233771   4.422   1.917   1.386 -0.1189  0.0465 -0.2358
 4071TIP3    H133772   4.504   1.871   1.401  0.6990  1.7513  0.9535
 4071TIP3    H233773   4.446   1.991   1.331 -1.2553 -0.4999 -1.5128
 4072TIP3   OH233774   4.261   1.785   0.717  0.7391 -0.3553  0.4411
 4072TIP3    H133775   4.264   1.873   0.680 -1.4539  0.9873  3.0795
 4072TIP3    H233776   4.295   1.796   0.806  0.2956 -2.1425  0.8678
 4073TIP3   OH233777   2.029   3.081   3.126 -0.4281  0.1150  0.0712
 4073TIP3    H133778   1.978   3.011   3.086 -0.9452 -0.1032  1.0619
 4073TIP3    H233779   2.119   3.064   3.099 -0.5731 -0.8319  0.1561
 4074TIP3   OH233780   4.263   1.293   8.805  0.3120  0.2403 -0.6880
 4074TIP3    H133781   4.168   1.281   8.801  0.5968 -3.0385 -0.2747
 4074TIP3    H233782   4.277   1.344   8.884 -1.0538 -0.2753 -0.0793
 4075TIP3   OH233783   0.259   5.679   1.448  0.0991 -0.1980  0.1716
 4075TIP3    H133784   0.225   5.595   1.479 -1.9486  0.4536 -0.1747
 4075TIP3    H233785   0.353   5.663   1.435 -0.0206 -2.0816  1.2112
 4076TIP3   OH233786   6.123   0.198   2.010  0.0605  0.1697  0.3004
 4076TIP3    H133787   6.082   0.130   2.064 -0.9445  0.0610 -0.5820
 4076TIP3    H233788   6.208   0.214   2.053 -1.0074  0.6378  2.3714
 4077TIP3   OH233789   2.366   6.753   1.467  0.3342 -0.2153 -0.0728
 4077TIP3    H133790   2.303   6.780   1.533  0.6822 -2.6485  1.3967
 4077TIP3    H233791   2.332   6.669   1.435  2.5242 -1.3667  0.4228
 4078TIP3   OH233792   5.043   3.151   8.747  0.4846 -0.3069 -0.2395
 4078TIP3    H133793   5.029   3.135   8.653 -1.5769  0.3380 -0.0972
 4078TIP3    H233794   5.065   3.244   8.753 -2.7378  0.5413  0.1067
 4079TIP3   OH233795   1.717   1.691   1.740 -0.2375 -0.0794 -0.1918
 4079TIP3    H133796   1.681   1.607   1.713 -1.4402  0.6862 -1.0647
 4079TIP3    H233797   1.667   1.756   1.690  0.6425  1.1580  0.4802
 4080TIP3   OH233798   4.085   4.241   1.338 -0.7079 -0.2968 -0.5532
 4080TIP3    H133799   4.090   4.293   1.419 -1.9661 -0.1494 -0.5614
 4080TIP3    H233800   4.094   4.151   1.367 -0.5037 -0.2085 -0.3296
 4081TIP3   OH233801   1.075   2.975   1.792 -0.9205  0.0761 -0.4506
 4081TIP3    H133802   1.068   2.881   1.808  1.4131 -0.1669 -0.5174
 4081TIP3    H233803   1.071   2.983   1.696 -0.5122 -0.0375 -0.4799
 4082TIP3   OH233804   5.046   3.744   8.053 -0.5628  0.4276 -0.3752
 4082TIP3    H133805   5.037   3.735   8.148 -3.3764 -0.6282 -0.6378
 4082TIP3    H233806   5.125   3.696   8.032 -0.9829 -1.1017  1.2581
 4083TIP3   OH233807   2.021   4.519   7.158 -0.1507 -0.1508  0.3310
 4083TIP3    H133808   1.954   4.459   7.125 -1.0981  2.2271 -2.4687
 4083TIP3    H233809   2.101   4.495   7.110 -0.3420  0.3375 -0.2365
 4084TIP3   OH233810   5.899   0.960   2.777  0.0895  0.2284 -0.3665
 4084TIP3    H133811   5.943   0.962   2.862  0.8855 -0.5690 -0.7408
 4084TIP3    H233812   5.809   0.987   2.796  0.8477  2.5308  0.3205
 4085TIP3   OH233813   2.854   3.322   8.544  0.0556 -0.0078  0.2857
 4085TIP3    H133814   2.826   3.405   8.582 -2.0854 -0.3632 -0.3425
 4085TIP3    H233815   2.851   3.337   8.449 -1.2850 -1.0051  0.1291
 4086TIP3   OH233816   4.097   4.090   1.622  0.2624  0.7309  0.1106
 4086TIP3    H133817   4.079   4.180   1.596  1.8711  1.1305  0.2774
 4086TIP3    H233818   4.165   4.097   1.689  1.8651 -0.6453 -1.2565
 4087TIP3   OH233819   1.224   2.613   1.973  0.3335  0.1138  0.7669
 4087TIP3    H133820   1.209   2.525   2.008 -0.4424  0.0279  0.2413
 4087TIP3    H233821   1.293   2.649   2.029 -1.4931  0.3430  3.0234
 4088TIP3   OH233822   1.889   4.840   0.814 -0.3341 -0.4322 -0.5457
 4088TIP3    H133823   1.852   4.753   0.801 -0.2153 -0.6175  0.2698
 4088TIP3    H233824   1.923   4.838   0.904 -0.3190  0.4518 -0.5248
 4089TIP3   OH233825   2.305   0.926   2.932 -0.5240  0.1768  0.0158
 4089TIP3    H133826   2.348   0.947   3.015 -2.7770  2.0587  0.8190
 4089TIP3    H233827   2.274   0.836   2.943 -0.1296  0.1411  0.9090
 4090TIP3   OH233828   2.474   1.047   3.152 -0.3749  0.4026  0.3626
 4090TIP3    H133829   2.533   1.101   3.204 -1.8041  1.5238  0.8887
 4090TIP3    H233830   2.387   1.086   3.166 -1.3977 -1.7742  0.3979
 4091TIP3   OH233831   1.787   1.840   1.168  0.0390 -0.0585  0.1954
 4091TIP3    H133832   1.820   1.808   1.084  0.7316 -1.0359  0.8173
 4091TIP3    H233833   1.818   1.775   1.232 -0.5791  0.6028  1.1865
 4092TIP3   OH233834   4.508   1.880   1.959  1.0295 -0.2637 -0.0625
 4092TIP3    H133835   4.488   1.923   2.042  0.7966 -1.3403  0.4501
 4092TIP3    H233836   4.510   1.952   1.895  0.2338  0.4546  0.6938
 4093TIP3   OH233837   2.006   5.310   7.668 -0.4040 -0.1523  0.1186
 4093TIP3    H133838   2.048   5.228   7.693 -0.1119 -0.0137  0.0817
 4093TIP3    H233839   1.963   5.291   7.585  1.3715  0.2783 -0.9529
 4094TIP3   OH233840   3.074   0.815   1.688  0.1497 -0.3217 -0.2609
 4094TIP3    H133841   3.068   0.894   1.742 -1.0144  0.9822 -2.1543
 4094TIP3    H233842   3.165   0.812   1.659  0.5807 -0.5853  1.0757
 4095TIP3   OH233843   4.097   5.501   1.875 -0.8942  0.2661 -0.3263
 4095TIP3    H133844   4.004   5.512   1.893 -0.7916 -0.9347  1.0902
 4095TIP3    H233845   4.140   5.563   1.934 -0.7662  0.1451 -0.2925
 4096TIP3   OH233846   2.968   2.461   2.941 -0.3034 -0.4520 -0.1401
 4096TIP3    H133847   2.927   2.498   3.019 -0.5781 -1.9190  0.4440
 4096TIP3    H233848   2.949   2.524   2.872  0.5666  1.2581  1.0972
 4097TIP3   OH233849   1.878   1.554   1.203 -0.0379 -0.1645  0.3014
 4097TIP3    H133850   1.838   1.531   1.119 -1.3000  0.2373  0.7658
 4097TIP3    H233851   1.835   1.497   1.267 -0.5618  0.9308  0.9511
 4098TIP3   OH233852   0.115   0.373   3.085 -0.1929 -0.1193  0.1135
 4098TIP3    H133853   0.032   0.335   3.113 -1.9407  1.7064 -2.2160
 4098TIP3    H233854   0.156   0.404   3.165 -2.6858  0.6620  1.1615
 4099TIP3   OH233855   4.372   5.390   2.218 -0.0883 -0.0872 -0.3932
 4099TIP3    H133856   4.371   5.295   2.228  0.3752 -0.5079 -3.3849
 4099TIP3    H233857   4.281   5.412   2.198  0.2204 -0.3220 -2.2411
 4100TIP3   OH233858   0.878   4.075   8.057 -0.6635 -0.0525  0.1034
 4100TIP3    H133859   0.887   4.032   7.972  0.0486 -1.3244  0.7935
 4100TIP3    H233860   0.945   4.143   8.057  0.3506 -1.0375  0.2251
 4101TIP3   OH233861   1.766   2.368   8.728  0.5884 -0.0507  0.4034
 4101TIP3    H133862   1.757   2.455   8.766 -0.8495 -0.2154  0.4967
 4101TIP3    H233863   1.824   2.321   8.788 -0.1423  0.2770  1.3861
 4102TIP3   OH233864   3.646   3.409   2.030  0.2222  0.0238  0.0998
 4102TIP3    H133865   3.706   3.484   2.031 -0.1573  0.3294  0.4822
 4102TIP3    H233866   3.559   3.448   2.027 -0.0172 -0.3749  1.2794
 4103TIP3   OH233867   2.560   6.051   8.136 -0.1509 -0.0360 -0.3197
 4103TIP3    H133868   2.500   6.102   8.191  0.0183 -0.9406  0.7431
 4103TIP3    H233869   2.549   6.088   8.048 -1.2184  0.7514  0.1174
 4104TIP3   OH233870   1.829   5.433   0.826  0.0048  0.3453 -0.1115
 4104TIP3    H133871   1.776   5.511   0.841 -0.6781 -0.2584  0.6739
 4104TIP3    H233872   1.891   5.459   0.758 -1.2292  1.0968 -0.9796
 4105TIP3   OH233873   5.558   2.132   8.155  0.0390 -0.0819  0.2842
 4105TIP3    H133874   5.548   2.168   8.243 -0.3993  0.9219 -0.1581
 4105TIP3    H233875   5.599   2.047   8.168  0.1454  0.1338  1.4435
 4106TIP3   OH233876   4.161   1.168   1.764  0.5519  0.2992 -0.4509
 4106TIP3    H133877   4.170   1.141   1.855 -1.4316 -2.0077 -0.8102
 4106TIP3    H233878   4.140   1.261   1.768  0.1148  0.1521  1.4840
 4107TIP3   OH233879   5.917   3.204   7.406  0.2769  0.2022  0.1085
 4107TIP3    H133880   5.880   3.233   7.489  0.0040  0.6906 -0.1803
 4107TIP3    H233881   5.841   3.185   7.351  0.4493  1.2206 -0.4908
 4108TIP3   OH233882   6.502   4.388   8.053 -0.1473  0.1218  0.0042
 4108TIP3    H133883   6.550   4.305   8.046  1.8573  1.2859 -1.0265
 4108TIP3    H233884   6.499   4.422   7.964 -0.8749  1.2057  0.4191
 4109TIP3   OH233885   2.129   1.930   1.139  0.0448 -0.2760  0.3421
 4109TIP3    H133886   2.053   1.978   1.173 -0.0557 -0.7341  0.7855
 4109TIP3    H233887   2.193   1.935   1.210  0.3235 -0.1263  0.0778
 4110TIP3   OH233888   5.675   5.370   3.069  0.3674  0.0996 -0.0303
 4110TIP3    H133889   5.610   5.299   3.065 -0.3056  0.7421 -1.2219
 4110TIP3    H233890   5.677   5.405   2.980  2.9474 -0.3854 -0.2294
 4111TIP3   OH233891   2.649   0.125   0.820  0.2370  0.3577 -0.2368
 4111TIP3    H133892   2.625   0.078   0.899 -0.4233 -2.1765 -1.8070
 4111TIP3    H233893   2.732   0.085   0.793 -0.3536  0.0160 -1.6406
 4112TIP3   OH233894   1.553   0.789   1.561 -0.8044  0.0412  0.0624
 4112TIP3    H133895   1.602   0.776   1.642 -0.9490  1.0245  0.3158
 4112TIP3    H233896   1.508   0.705   1.547  1.1032 -0.9697 -0.3194
 4113TIP3   OH233897   4.030   1.634   0.799 -0.2358  0.3560 -0.3431
 4113TIP3    H133898   4.100   1.673   0.746 -1.0679 -0.0350 -1.7849
 4113TIP3    H233899   4.066   1.551   0.830 -0.6695 -0.8037 -2.7178
 4114TIP3   OH233900   1.919   0.837   7.177  0.4778  0.3078  0.2289
 4114TIP3    H133901   1.835   0.876   7.150 -0.0134  0.1814  1.4840
 4114TIP3    H233902   1.946   0.889   7.253 -0.1726 -1.7005  1.9424
 4115TIP3   OH233903   6.483   2.758   0.363  0.0120  0.4290  0.2842
 4115TIP3    H133904   6.563   2.712   0.337 -1.3195 -0.9588 -1.7479
 4115TIP3    H233905   6.482   2.836   0.308 -0.4348 -0.0223 -0.3683
 4116TIP3   OH233906   4.362   1.802   0.982  0.4122 -0.0954  0.0848
 4116TIP3    H133907   4.449   1.775   1.012  0.3607  0.1508  0.4588
 4116TIP3    H233908   4.320   1.839   1.059  0.2971  0.5893 -0.2989
 4117TIP3   OH233909   6.278   3.695   8.774 -0.5833  0.7590 -0.9177
 4117TIP3    H133910   6.281   3.757   8.848  0.0767  0.9929 -1.1324
 4117TIP3    H233911   6.358   3.713   8.725  0.3105 -1.1949 -0.2416
 4118TIP3   OH233912   6.410   0.872   0.569  0.4508  0.6669  0.0419
 4118TIP3    H133913   6.337   0.925   0.537  0.2092  0.4755  0.2824
 4118TIP3    H233914   6.477   0.882   0.501  0.1439  0.7120 -0.2588
 4119TIP3   OH233915   5.663   0.491   8.648  0.3223 -0.3694  0.1716
 4119TIP3    H133916   5.754   0.499   8.618  1.4585  1.1595  3.5356
 4119TIP3    H233917   5.658   0.403   8.685  0.6865 -0.1824  0.6724
 4120TIP3   OH233918   1.401   6.726   0.691  0.0234 -0.0077  0.4776
 4120TIP3    H133919   1.351   6.699   0.769 -0.8010  0.2039  0.0400
 4120TIP3    H233920   1.450   6.648   0.666  1.0314  0.1900  1.7455
 4121TIP3   OH233921   2.305   0.743   3.162  0.1900 -0.5023  0.1083
 4121TIP3    H133922   2.398   0.738   3.181  0.0514 -1.4760  0.5859
 4121TIP3    H233923   2.291   0.678   3.094 -0.0770 -0.0724 -0.2529
 4122TIP3   OH233924   4.893   3.657   8.801 -1.0941 -0.3694 -0.9082
 4122TIP3    H133925   4.903   3.742   8.844 -0.3573 -1.1755  0.5954
 4122TIP3    H233926   4.832   3.610   8.857 -3.5660  0.0132 -3.1203
 4123TIP3   OH233927   2.708   1.882   8.332 -0.4423 -0.1514 -0.2095
 4123TIP3    H133928   2.739   1.791   8.328  1.3542  0.3656  0.8574
 4123TIP3    H233929   2.700   1.908   8.240 -1.4355 -1.5054 -0.5451
 4124TIP3   OH233930   4.726   0.270   0.906 -0.3688 -0.8414  0.4496
 4124TIP3    H133931   4.633   0.261   0.883 -0.3364 -1.4341  0.5402
 4124TIP3    H233932   4.771   0.209   0.848 -0.0667 -0.7697  0.6080
 4125TIP3   OH233933   2.365   5.322   0.917 -0.5096  0.5121 -0.3643
 4125TIP3    H133934   2.325   5.243   0.954 -0.4279  0.8546  0.4751
 4125TIP3    H233935   2.337   5.393   0.976  1.1668  0.7816  0.1522
 4126TIP3   OH233936   6.484   4.798   1.661  0.0706 -0.0943 -0.1995
 4126TIP3    H133937   6.496   4.704   1.648  1.4879  0.0245  0.1567
 4126TIP3    H233938   6.469   4.808   1.755  2.2119  0.2202  0.1592
 4127TIP3   OH233939   5.719   4.253   0.513 -0.1617 -0.1112  0.0796
 4127TIP3    H133940   5.788   4.226   0.573 -1.4460  0.5777  1.9659
 4127TIP3    H233941   5.668   4.174   0.497  0.1875 -0.2995 -0.1098
 4128TIP3   OH233942   2.082   2.903   1.427  0.7914 -0.3988 -0.0689
 4128TIP3    H133943   2.108   2.994   1.415  2.9557 -0.8557  0.6632
 4128TIP3    H233944   2.005   2.892   1.371  1.1483  1.5753 -1.0266
 4129TIP3   OH233945   5.378   3.849   1.885 -0.4481 -0.0665  0.4418
 4129TIP3    H133946   5.464   3.893   1.879 -0.2782 -0.2813  1.2680
 4129TIP3    H233947   5.323   3.910   1.933 -1.0469  0.4778 -0.8689
 4130TIP3   OH233948   3.564   0.060   0.783 -0.6671 -0.8705 -0.1818
 4130TIP3    H133949   3.624   0.092   0.716 -0.1529 -1.2105  0.1131
 4130TIP3    H233950   3.565   0.128   0.850 -2.2751  0.1610 -1.1413
 4131TIP3   OH233951   0.943   1.484   8.438  0.4001 -0.3076  0.0650
 4131TIP3    H133952   1.038   1.481   8.427  0.5814  0.1236  1.3223
 4131TIP3    H233953   0.922   1.405   8.488 -0.4652 -2.5256 -3.4922
 4132TIP3   OH233954   0.868   2.445   8.720  0.0170  0.1087 -0.0792
 4132TIP3    H133955   0.862   2.484   8.633  0.6131  0.0070 -0.1670
 4132TIP3    H233956   0.955   2.468   8.751 -1.0975  2.4297  1.5945
 4133TIP3   OH233957   3.256   4.299   0.771  0.6868 -0.4201 -0.0984
 4133TIP3    H133958   3.167   4.283   0.740  0.4313 -0.5997  0.7085
 4133TIP3    H233959   3.262   4.394   0.778  0.6577 -0.3925 -0.4331
 4134TIP3   OH233960   2.270   6.396   2.713 -0.1003 -0.4921  0.1002
 4134TIP3    H133961   2.212   6.320   2.705  0.5735 -0.8819 -1.6774
 4134TIP3    H233962   2.289   6.420   2.622  2.1386 -0.1036  0.6217
 4135TIP3   OH233963   6.110   3.058   2.519 -0.5415 -0.3046  0.0481
 4135TIP3    H133964   6.016   3.053   2.503 -0.2782 -0.1382 -1.7555
 4135TIP3    H233965   6.119   3.120   2.592 -1.8002  0.0199 -0.0557
 4136TIP3   OH233966   0.310   3.237   0.548 -0.1178  0.1927  0.3128
 4136TIP3    H133967   0.328   3.190   0.467 -3.1672 -1.6076  0.5292
 4136TIP3    H233968   0.219   3.215   0.569  0.4998  0.6268  4.1873
 4137TIP3   OH233969   3.760   1.181   0.314 -0.1295 -0.0027  0.3790
 4137TIP3    H133970   3.683   1.171   0.370 -0.3125 -2.4567 -0.1785
 4137TIP3    H233971   3.730   1.236   0.241 -2.0336 -2.4230 -0.8141
 4138TIP3   OH233972   6.585   0.699   8.506  0.5217  0.7472 -0.1585
 4138TIP3    H133973   6.614   0.738   8.588 -0.9448  2.4077 -0.3761
 4138TIP3    H233974   6.551   0.772   8.455 -2.4427 -0.7267 -0.5537
 4139TIP3   OH233975   2.120   2.145   0.855 -0.5175  0.1883  0.2308
 4139TIP3    H133976   2.139   2.192   0.937  1.5802 -0.8286  0.3768
 4139TIP3    H233977   2.200   2.153   0.803 -1.2275 -0.6023 -1.0339
 4140TIP3   OH233978   4.379   2.187   1.000 -0.5537  0.1593  0.3504
 4140TIP3    H133979   4.435   2.136   1.058 -0.2374  0.8983  0.7198
 4140TIP3    H233980   4.396   2.278   1.025 -1.7880  0.4094  0.3530
 4141TIP3   OH233981   1.150   2.073   0.312  0.2929 -0.4454  0.1603
 4141TIP3    H133982   1.175   2.066   0.405  1.0565 -0.9108 -0.0633
 4141TIP3    H233983   1.057   2.053   0.311 -0.1709  1.4690  1.0560
 4142TIP3   OH233984   2.545   5.032   1.729 -0.3316 -0.2285  0.0115
 4142TIP3    H133985   2.601   4.995   1.798 -0.9979  0.5975  1.0302
 4142TIP3    H233986   2.460   4.989   1.742  0.1128 -1.7831 -1.7832
 4143TIP3   OH233987   1.876   5.944   1.109 -0.2685 -0.8183  0.0364
 4143TIP3    H133988   1.870   5.934   1.204 -1.4522 -2.6747 -0.1871
 4143TIP3    H233989   1.956   5.897   1.085  0.4553  0.3096  0.1615
 4144TIP3   OH233990   2.798   1.548   2.436  0.0510  0.9328 -0.3724
 4144TIP3    H133991   2.778   1.608   2.508  1.4368 -0.3411  1.1691
 4144TIP3    H233992   2.715   1.502   2.419 -0.1217  0.7133  0.9615
 4145TIP3   OH233993   2.370   3.069   8.589  0.5303 -0.5204 -0.2060
 4145TIP3    H133994   2.445   3.072   8.649  1.2537 -0.7630 -1.0887
 4145TIP3    H233995   2.405   3.031   8.509  0.4160  2.6863 -1.9390
 4146TIP3   OH233996   4.840   4.254   8.720  0.0340  0.2252 -0.0364
 4146TIP3    H133997   4.791   4.209   8.789  0.0807  0.5403  0.2021
 4146TIP3    H233998   4.789   4.240   8.641 -0.7699  1.0897  0.3247
 4147TIP3   OH233999   1.691   6.621   2.152  0.4062  0.1817  0.4356
 4147TIP3    H134000   1.609   6.618   2.103 -0.3035 -3.6819  1.5417
 4147TIP3    H234001   1.757   6.592   2.090 -0.0448 -2.0042  0.9002
 4148TIP3   OH234002   5.003   3.546   2.592  0.5799  0.1367  0.5543
 4148TIP3    H134003   4.960   3.573   2.673  0.4603  0.5439  0.3591
 4148TIP3    H234004   5.011   3.451   2.599 -0.6932  0.0011  0.4397
 4149TIP3   OH234005   5.295   5.266   2.549 -0.1389  0.5561  0.2650
 4149TIP3    H134006   5.264   5.316   2.624 -0.6712  1.7860 -0.7234
 4149TIP3    H234007   5.356   5.202   2.585  0.8822  2.1890  1.5451
 4150TIP3   OH234008   2.980   5.393   7.875  0.5162  0.4793 -0.0754
 4150TIP3    H134009   2.994   5.478   7.832 -0.5341  0.8336  0.2393
 4150TIP3    H234010   2.915   5.349   7.821 -1.0258  1.0381  1.2341
 4151TIP3   OH234011   1.010   5.617   0.138  0.4675  0.2367 -0.4640
 4151TIP3    H134012   1.097   5.650   0.159  1.2041 -1.3036 -0.9216
 4151TIP3    H234013   0.959   5.629   0.218  0.9387  1.6352 -0.3572
 4152TIP3   OH234014   4.856   4.677   1.101 -0.6715  0.0207  0.0805
 4152TIP3    H134015   4.769   4.650   1.074 -0.4922  0.8292 -1.4173
 4152TIP3    H234016   4.845   4.706   1.192 -1.7705 -0.6620  0.1813
 4153TIP3   OH234017   2.780   0.222   1.286  0.4374 -0.1867  0.2828
 4153TIP3    H134018   2.743   0.295   1.237 -0.0595 -0.7494 -0.1873
 4153TIP3    H234019   2.707   0.163   1.301 -0.0328  1.0147  3.7755
 4154TIP3   OH234020   6.434   6.144   2.007 -0.3473  0.8258 -0.2209
 4154TIP3    H134021   6.523   6.159   2.038  0.1658 -1.0959 -0.6422
 4154TIP3    H234022   6.394   6.088   2.075 -0.8878  0.7977 -0.5525
 4155TIP3   OH234023   0.388   3.792   2.626  0.3577 -0.1079  0.0684
 4155TIP3    H134024   0.460   3.854   2.632  1.0531 -0.7638 -1.1146
 4155TIP3    H234025   0.309   3.845   2.640  0.9171  1.1144 -1.1825
 4156TIP3   OH234026   5.090   3.954   1.017 -0.2215  0.3770 -0.1184
 4156TIP3    H134027   5.166   3.972   0.962 -0.4931  0.4354 -0.4842
 4156TIP3    H234028   5.095   3.860   1.035 -0.9522  0.0406 -1.5236
 4157TIP3   OH234029   3.488   1.473   3.026  0.2722 -0.7240 -0.2153
 4157TIP3    H134030   3.446   1.388   3.010  0.2952 -1.3340  2.4622
 4157TIP3    H234031   3.451   1.502   3.110  1.8275  0.9036 -0.0377
 4158TIP3   OH234032   3.532   6.656   7.485 -0.2092  0.3659 -0.1489
 4158TIP3    H134033   3.531   6.705   7.567 -0.1767 -1.4484  0.9963
 4158TIP3    H234034   3.613   6.683   7.441  2.0896 -1.6939  2.4439
 4159TIP3   OH234035   4.592   0.052   0.217  0.4073 -0.2703  0.9281
 4159TIP3    H134036   4.595   0.007   0.133  1.4082 -2.5768  2.1234
 4159TIP3    H234037   4.544  -0.007   0.275 -0.7424  1.5155  1.9013
 4160TIP3   OH234038   4.580   1.357   0.084 -0.5676 -0.1135  0.5640
 4160TIP3    H134039   4.528   1.285   0.116 -1.0083  0.4973  1.2465
 4160TIP3    H234040   4.652   1.316   0.036 -1.2757 -0.9729  0.2208
 4161TIP3   OH234041   4.242   1.918   0.334 -0.9153  0.0315 -0.0390
 4161TIP3    H134042   4.182   1.916   0.408 -3.1592  0.5538 -1.7559
 4161TIP3    H234043   4.297   1.995   0.349 -1.1965  0.0284  1.1254
 4162TIP3   OH234044   6.652   3.853   1.629  0.1787 -0.0564 -0.1870
 4162TIP3    H134045   6.711   3.881   1.699 -0.9941  1.1486  0.3590
 4162TIP3    H234046   6.605   3.778   1.666  0.8041 -0.5275 -0.3391
 4163TIP3   OH234047   6.633   0.719   1.855  0.2632 -0.3232 -0.7963
 4163TIP3    H134048   6.574   0.657   1.898 -1.3009 -0.0995 -2.5087
 4163TIP3    H234049   6.599   0.805   1.879  0.1453 -0.1864 -1.4379
 4164TIP3   OH234050   1.861   5.733   2.078 -0.1099  0.1298 -0.5516
 4164TIP3    H134051   1.940   5.787   2.072 -0.3213  0.2534 -3.0341
 4164TIP3    H234052   1.893   5.647   2.105  0.6820  0.5305 -0.1704
 4165TIP3   OH234053   1.443   3.490   1.182 -0.4208  0.1259 -0.2989
 4165TIP3    H134054   1.420   3.582   1.163 -0.2609  0.1543 -0.3523
 4165TIP3    H234055   1.504   3.495   1.255  1.1546  0.1880 -1.5840
 4166TIP3   OH234056   5.338   3.110   2.090  0.5404 -0.1495 -0.1800
 4166TIP3    H134057   5.326   3.027   2.044  2.1184 -0.1619 -0.6256
 4166TIP3    H234058   5.357   3.173   2.020  0.9411  0.2598  0.2928
 4167TIP3   OH234059   6.171   3.127   2.798 -0.6687 -0.1563  0.2150
 4167TIP3    H134060   6.228   3.103   2.871 -0.7715 -0.4049  0.2160
 4167TIP3    H234061   6.097   3.172   2.839  0.4134  1.8649  0.0567
 4168TIP3   OH234062   0.481   0.362   8.402 -0.1434  0.2515  0.1892
 4168TIP3    H134063   0.525   0.433   8.355  1.3385 -0.5755  0.2872
 4168TIP3    H234064   0.476   0.290   8.339 -4.3046  1.2539 -0.9433
 4169TIP3   OH234065   2.753   5.969   2.505  0.1430  0.4119 -0.4912
 4169TIP3    H134066   2.661   5.993   2.497 -0.1249 -0.0718  0.8452
 4169TIP3    H234067   2.801   6.046   2.474 -0.7006  1.0270 -0.3004
 4170TIP3   OH234068   5.044   2.194   8.049 -0.4339  0.1026 -0.3074
 4170TIP3    H134069   5.036   2.106   8.012  0.3503  0.1065 -0.4974
 4170TIP3    H234070   5.005   2.187   8.136  0.0070 -0.5396 -0.1549
 4171TIP3   OH234071   3.647   2.133   1.678  0.1813  0.3613  0.1284
 4171TIP3    H134072   3.615   2.213   1.638 -0.0866 -0.4807 -1.4114
 4171TIP3    H234073   3.732   2.157   1.715 -0.3201  1.5770  0.5457
 4172TIP3   OH234074   3.260   5.150   2.078  0.5205 -0.0194  0.4049
 4172TIP3    H134075   3.347   5.178   2.108  0.7009 -0.4404  0.2922
 4172TIP3    H234076   3.274   5.060   2.047  0.5250  0.6529 -1.7021
 4173TIP3   OH234077   4.711   6.602   1.871  0.5858  0.0991  0.0800
 4173TIP3    H134078   4.647   6.641   1.812 -0.2410  0.8391  1.4153
 4173TIP3    H234079   4.796   6.635   1.840  0.2283  0.0717 -0.9703
 4174TIP3   OH234080   6.643   5.718   2.617 -0.1895  0.1571  0.1869
 4174TIP3    H134081   6.617   5.749   2.704  0.6822 -0.6754  0.7650
 4174TIP3    H234082   6.706   5.648   2.634  0.1872  0.1453 -1.1248
 4175TIP3   OH234083   3.915   0.448   2.715  0.2546 -0.0866  0.1237
 4175TIP3    H134084   3.944   0.522   2.769 -1.1242 -0.0307  0.8501
 4175TIP3    H234085   3.843   0.409   2.766 -0.0368 -1.0019 -0.9614
 4176TIP3   OH234086   5.125   0.779   8.242 -0.7281  0.1008 -0.1430
 4176TIP3    H134087   5.053   0.833   8.276  0.4974  1.5227  0.3199
 4176TIP3    H234088   5.191   0.781   8.311 -0.4432 -1.6722 -0.3142
 4177TIP3   OH234089   1.759   1.368   8.442  0.3711 -0.5423 -0.1648
 4177TIP3    H134090   1.728   1.386   8.531 -0.3000 -2.5225  0.0568
 4177TIP3    H234091   1.839   1.419   8.434  0.3979 -0.2500  1.5592
 4178TIP3   OH234092   4.967   2.803   0.340  0.4348  0.2500  0.1546
 4178TIP3    H134093   4.999   2.716   0.318 -1.2339 -0.2863 -0.3112
 4178TIP3    H234094   4.874   2.802   0.314  1.0504  3.1566 -2.7943
 4179TIP3   OH234095   6.023   6.200   3.311  0.4307 -0.5330  0.4193
 4179TIP3    H134096   6.110   6.213   3.273  1.1371 -0.9421  1.8404
 4179TIP3    H234097   6.021   6.258   3.387  0.2688 -2.0793  1.6305
 4180TIP3   OH234098   0.266   5.036   2.401 -0.1907 -0.2243  0.7385
 4180TIP3    H134099   0.266   5.107   2.336 -1.3154 -0.0712  0.8842
 4180TIP3    H234100   0.309   4.963   2.357 -0.1162  0.1724  0.1453
 4181TIP3   OH234101   0.293   4.642   2.247  0.1856  0.1316  0.0914
 4181TIP3    H134102   0.230   4.622   2.317  0.1806 -0.5547 -0.1019
 4181TIP3    H234103   0.258   4.721   2.205 -0.0990  0.2355  0.5200
 4182TIP3   OH234104   2.965   0.874   8.515  0.3343  0.1200  0.5472
 4182TIP3    H134105   2.883   0.885   8.467  0.1864 -1.1821  0.4548
 4182TIP3    H234106   2.986   0.781   8.505  0.2280 -0.2557  3.0994
 4183TIP3   OH234107   4.530   0.602   8.106  0.2297  0.0126 -0.2814
 4183TIP3    H134108   4.591   0.529   8.095  1.0284  0.7007 -0.4843
 4183TIP3    H234109   4.544   0.632   8.196 -1.8982 -1.6665  0.6775
 4184TIP3   OH234110   1.297   2.586   8.400  0.2570 -0.1862 -0.1041
 4184TIP3    H134111   1.367   2.584   8.465  1.6237  0.3179 -1.4962
 4184TIP3    H234112   1.248   2.505   8.414  0.3099  0.0773  1.7442
 4185TIP3   OH234113   6.748   2.370   2.342 -0.3313  0.3580  0.1688
 4185TIP3    H134114   6.689   2.443   2.322 -0.7409 -0.4715 -1.8780
 4185TIP3    H234115   6.836   2.406   2.330 -0.4087  1.1541  1.6513
 4186TIP3   OH234116   5.986   4.941   1.693 -0.6704  0.4449  0.0157
 4186TIP3    H134117   6.037   4.963   1.615 -0.0145  0.2420  0.3776
 4186TIP3    H234118   6.038   4.974   1.766 -1.3790  0.8217  0.3626
 4187TIP3   OH234119   2.134   3.471   0.870  0.3068 -0.2851 -0.1585
 4187TIP3    H134120   2.086   3.389   0.882  0.4090 -0.2826  0.2887
 4187TIP3    H234121   2.066   3.536   0.853  0.1671 -0.3173  0.2809
 4188TIP3   OH234122   5.700   5.970   1.779  0.0760 -0.1767  1.1936
 4188TIP3    H134123   5.705   5.917   1.699  1.7476 -0.2087  1.2758
 4188TIP3    H234124   5.791   5.992   1.798 -0.1837 -0.9323  3.6220
 4189TIP3   OH234125   3.408   1.988   0.853  0.1004 -0.3714 -0.6884
 4189TIP3    H134126   3.491   1.975   0.806  0.7117 -2.2497  0.7930
 4189TIP3    H234127   3.341   1.980   0.785  0.9748 -2.7643 -1.3817
 4190TIP3   OH234128   5.115   0.585   2.954 -0.5527  0.3585  0.4296
 4190TIP3    H134129   5.135   0.564   2.863 -0.5468  0.6253  0.3700
 4190TIP3    H234130   5.025   0.555   2.966  0.1477 -1.7167  0.9636
 4191TIP3   OH234131   1.492   4.948   2.068  0.2558 -0.2023 -0.1706
 4191TIP3    H134132   1.409   4.902   2.073 -0.0035  0.0841 -1.4903
 4191TIP3    H234133   1.501   4.991   2.154 -0.2894 -1.3250  0.4662
 4192TIP3   OH234134   0.120   6.121   1.503  0.6339  0.6189 -0.7830
 4192TIP3    H134135   0.118   6.025   1.502  1.1452  0.5861  0.2039
 4192TIP3    H234136   0.050   6.147   1.443 -0.4497 -0.3695  0.0127
 4193TIP3   OH234137   1.586   2.401   2.802  0.4370 -0.0111  0.2400
 4193TIP3    H134138   1.559   2.363   2.886  0.8799 -1.8880 -0.4275
 4193TIP3    H234139   1.681   2.396   2.803  0.7363  3.3461  1.0927
 4194TIP3   OH234140   3.079   5.892   2.430  0.1816 -0.0401  0.9095
 4194TIP3    H134141   3.089   5.797   2.442 -3.3952 -0.6167  0.4895
 4194TIP3    H234142   3.133   5.930   2.499  3.1501 -2.2159  0.0183
 4195TIP3   OH234143   0.222   4.642   8.076 -0.7260  0.1404  0.0348
 4195TIP3    H134144   0.268   4.714   8.033 -0.7191 -0.1108 -0.3933
 4195TIP3    H234145   0.191   4.678   8.158 -0.4346  0.5350 -0.0277
 4196TIP3   OH234146   3.133   3.970   1.927 -0.3016 -0.6138 -0.1896
 4196TIP3    H134147   3.082   3.889   1.918  0.0374 -0.8023 -0.4127
 4196TIP3    H234148   3.105   4.006   2.011 -0.5743 -0.8789 -0.1643
 4197TIP3   OH234149   0.804   4.517   8.222 -0.0554 -0.4292  1.4129
 4197TIP3    H134150   0.824   4.608   8.244 -0.0990  0.2457 -1.0467
 4197TIP3    H234151   0.745   4.523   8.147  2.1576 -2.4570 -0.6446
 4198TIP3   OH234152   2.966   0.579   8.465 -0.2731 -0.3007  0.3229
 4198TIP3    H134153   2.896   0.544   8.410 -0.4474  0.9326 -0.2636
 4198TIP3    H234154   3.047   0.550   8.423 -0.4140 -1.2867  0.7107
 4199TIP3   OH234155   2.689   4.397   8.093 -0.1013  0.6107 -0.2620
 4199TIP3    H134156   2.744   4.388   8.016  1.0272 -1.9056  0.7227
 4199TIP3    H234157   2.731   4.466   8.145  3.3446 -2.3378  1.2521
 4200TIP3   OH234158   3.736   0.154   2.592 -0.4237 -0.0723 -0.6148
 4200TIP3    H134159   3.732   0.234   2.645 -0.2190 -0.3157 -0.2305
 4200TIP3    H234160   3.820   0.115   2.613 -0.1655  0.0241 -1.4116
 4201TIP3   OH234161   3.576   1.188   1.115  0.0479 -0.2499  0.1258
 4201TIP3    H134162   3.593   1.163   1.206 -0.5934  1.2320  0.6839
 4201TIP3    H234163   3.516   1.262   1.121  2.4576  2.0275 -1.3440
 4202TIP3   OH234164   2.019   6.304   2.470  0.4206 -0.4682 -1.0026
 4202TIP3    H134165   2.006   6.376   2.531  2.3020 -0.5190 -0.4946
 4202TIP3    H234166   1.934   6.259   2.468 -0.3711  0.9197 -0.2741
 4203TIP3   OH234167   5.470   1.282   0.926  0.2018  0.4181  0.3787
 4203TIP3    H134168   5.431   1.329   0.852  0.3340  2.9988  1.8294
 4203TIP3    H234169   5.556   1.254   0.894 -0.7725 -0.8938 -1.2441
 4204TIP3   OH234170   4.883   4.864   1.761  0.1347 -0.0632  0.0232
 4204TIP3    H134171   4.931   4.889   1.840  0.5607  2.0532 -0.8547
 4204TIP3    H234172   4.791   4.863   1.787  0.3370 -0.2408  0.7461
 4205TIP3   OH234173   4.708   1.094   2.000 -0.1459 -0.0536  0.3376
 4205TIP3    H134174   4.795   1.116   1.968 -0.1858  0.1202  0.3466
 4205TIP3    H234175   4.660   1.066   1.922 -0.7398  1.9202 -0.0626
 4206TIP3   OH234176   4.961   3.404   2.158 -0.0912  0.7023 -0.4585
 4206TIP3    H134177   5.002   3.376   2.076  0.9889 -1.2302  0.6724
 4206TIP3    H234178   5.033   3.406   2.221 -1.3862 -0.9880  1.1672
 4207TIP3   OH234179   2.103   5.394   1.501  0.5063  0.2452  0.2708
 4207TIP3    H134180   2.091   5.470   1.444 -0.9520  0.9078  1.3985
 4207TIP3    H234181   2.058   5.417   1.582 -0.7045 -2.1422  0.3691
 4208TIP3   OH234182   2.716   1.442   7.431 -0.3939  0.0407  1.3154
 4208TIP3    H134183   2.777   1.505   7.470 -0.3802  1.2082 -0.5043
 4208TIP3    H234184   2.649   1.430   7.499  0.7568  0.2779  2.5539
 4209TIP3   OH234185   1.765   4.324   1.730  0.0201 -0.0330 -0.0549
 4209TIP3    H134186   1.772   4.237   1.769  1.4466 -0.6151 -1.4891
 4209TIP3    H234187   1.829   4.377   1.777 -1.2613  0.4432  1.2190
 4210TIP3   OH234188   0.526   2.779   0.458  0.8421  0.3067 -0.0761
 4210TIP3    H134189   0.448   2.734   0.424  0.5609  1.1811 -0.6465
 4210TIP3    H234190   0.574   2.805   0.380  1.6067 -0.0306  0.2730
 4211TIP3   OH234191   1.121   2.436   0.942  0.1162 -0.4953  0.3376
 4211TIP3    H134192   1.102   2.453   1.035  1.0798  0.4055  0.3730
 4211TIP3    H234193   1.168   2.513   0.912  1.2118 -1.4556 -0.4971
 4212TIP3   OH234194   6.314   2.055   2.040  0.7756 -0.1457  0.1060
 4212TIP3    H134195   6.252   2.087   2.105  2.8846  0.5559  1.8810
 4212TIP3    H234196   6.293   1.963   2.029  0.0560 -0.1454  1.4015
 4213TIP3   OH234197   2.982   4.234   8.774  0.1117  0.3985  0.0828
 4213TIP3    H134198   2.982   4.208   8.682  2.0715 -0.7868  0.3402
 4213TIP3    H234199   2.893   4.218   8.804 -0.6119  1.0260 -1.6471
 4214TIP3   OH234200   1.759   3.314   8.278 -0.4718 -0.3054 -0.4120
 4214TIP3    H134201   1.702   3.323   8.355 -2.4538 -1.1027 -1.7205
 4214TIP3    H234202   1.799   3.228   8.288 -1.0987 -0.6132 -0.4968
 4215TIP3   OH234203   4.597   0.073   8.737  0.2402 -0.0847 -0.3875
 4215TIP3    H134204   4.613   0.167   8.738 -2.0781  0.3856 -0.1575
 4215TIP3    H234205   4.677   0.034   8.702  0.6265  2.0980 -2.0951
 4216TIP3   OH234206   4.639   4.981   7.728 -0.1516  0.5380 -0.4466
 4216TIP3    H134207   4.734   4.990   7.735 -0.1876 -0.5098  2.8421
 4216TIP3    H234208   4.627   4.906   7.668  1.1450 -0.0119 -0.0618
 4217TIP3   OH234209   1.544   3.973   0.679  0.2586  0.5761 -0.0895
 4217TIP3    H134210   1.527   3.886   0.642 -0.5188  0.1223  1.2528
 4217TIP3    H234211   1.469   4.026   0.650 -1.1672 -0.1796  1.9549
 4218TIP3   OH234212   6.480   0.473   1.503  0.1807  0.1628 -0.3004
 4218TIP3    H134213   6.551   0.499   1.562  1.2257 -1.6176 -0.6947
 4218TIP3    H234214   6.523   0.420   1.436 -1.5755 -1.4282 -0.2558
 4219TIP3   OH234215   3.661   1.558   1.875  0.1065 -0.3678 -0.0372
 4219TIP3    H134216   3.629   1.519   1.794 -5.8428  0.9932  1.1616
 4219TIP3    H234217   3.639   1.651   1.867  1.0444  0.1418  2.4102
 4220TIP3   OH234218   3.783   0.042   0.564  0.1898 -0.3111  1.1434
 4220TIP3    H134219   3.808   0.131   0.539  1.8326 -0.6844  1.3043
 4220TIP3    H234220   3.812  -0.013   0.490 -1.0086 -0.6989  0.9446
 4221TIP3   OH234221   2.097   6.212   8.093 -0.3703  0.5285 -0.6014
 4221TIP3    H134222   2.147   6.224   8.012 -0.4023  3.2378 -0.3244
 4221TIP3    H234223   2.063   6.299   8.113 -1.1677 -0.2552  1.8201
 4222TIP3   OH234224   6.477   2.851   2.067  0.2435  0.1935 -0.0890
 4222TIP3    H134225   6.443   2.873   1.980 -1.9584  1.3625  0.9813
 4222TIP3    H234226   6.414   2.789   2.102  0.6189  0.4159  1.0108
 4223TIP3   OH234227   0.745   4.288   1.514  0.3593  0.4688 -0.5514
 4223TIP3    H134228   0.818   4.238   1.550 -0.8320 -0.1271  1.1836
 4223TIP3    H234229   0.702   4.227   1.454 -0.1080 -0.0227  0.2734
 4224TIP3   OH234230   4.733   5.207   0.943 -0.2581 -0.2326  0.1726
 4224TIP3    H134231   4.685   5.262   0.881  0.4584 -1.0451 -1.1475
 4224TIP3    H234232   4.711   5.117   0.918  1.1768 -0.6039  0.1381
 4225TIP3   OH234233   5.095   6.470   1.983  0.2732  0.3480  0.0627
 4225TIP3    H134234   5.133   6.506   2.063  0.3852  2.2129 -0.7769
 4225TIP3    H234235   5.139   6.386   1.971  1.2836  0.6920  1.1775
 4226TIP3   OH234236   6.553   1.427   2.520 -0.2569 -0.2545 -0.3588
 4226TIP3    H134237   6.510   1.386   2.445  0.3410 -1.3160 -0.1449
 4226TIP3    H234238   6.620   1.364   2.547  0.0494  0.4461  0.5928
 4227TIP3   OH234239   1.369   3.354   7.692 -0.2793 -0.5686 -0.1190
 4227TIP3    H134240   1.458   3.350   7.728 -0.8615 -0.7707  1.3650
 4227TIP3    H234241   1.325   3.277   7.728 -0.6430 -1.3270 -2.0768
 4228TIP3   OH234242   1.924   3.451   7.473  0.6921  0.2710 -0.2971
 4228TIP3    H134243   1.952   3.461   7.381 -1.2091  0.1128 -0.9374
 4228TIP3    H234244   1.957   3.364   7.498  2.3380  0.8340 -0.3741
 4229TIP3   OH234245   0.791   4.581   1.947 -0.8261 -0.0782  0.0768
 4229TIP3    H134246   0.837   4.581   1.863  0.1715  0.8939  0.6002
 4229TIP3    H234247   0.713   4.634   1.932 -2.0274 -1.9863 -0.9031
 4230TIP3   OH234248   5.927   3.434   8.428  0.0304  0.2174  0.1242
 4230TIP3    H134249   5.906   3.455   8.337 -0.3007  1.3274  0.4374
 4230TIP3    H234250   6.017   3.462   8.440 -0.2172  0.9079  0.3817
 4231TIP3   OH234251   5.471   4.085   1.008 -0.4884  0.2252 -0.2218
 4231TIP3    H134252   5.478   4.030   1.086  0.1692  1.1212  0.3680
 4231TIP3    H234253   5.384   4.065   0.973 -0.8699 -0.0579  0.8432
 4232TIP3   OH234254   1.996   1.548   8.440  0.6866 -0.0903 -1.4336
 4232TIP3    H134255   1.971   1.610   8.371 -2.0089 -0.4607 -0.8901
 4232TIP3    H234256   2.037   1.602   8.507  0.0481  0.8306 -1.7717
 4233TIP3   OH234257   3.962   3.286   2.734  0.3801 -0.3469 -0.1405
 4233TIP3    H134258   3.994   3.249   2.651 -1.7905 -3.6404  0.2969
 4233TIP3    H234259   4.040   3.323   2.775  1.8373 -0.0263 -2.8976
 4234TIP3   OH234260   1.015   5.517   1.552  0.2255  0.4180 -0.5408
 4234TIP3    H134261   0.980   5.522   1.641 -0.3762  0.3432 -0.7687
 4234TIP3    H234262   0.954   5.569   1.499  0.3594  0.1404 -0.9728
 4235TIP3   OH234263   6.780   5.864   1.032  0.0175 -0.4570 -0.2154
 4235TIP3    H134264   6.870   5.885   1.058 -0.2785  1.6819 -0.6845
 4235TIP3    H234265   6.782   5.866   0.936 -0.6793  0.4699 -0.2274
 4236TIP3   OH234266   4.731   5.192   3.269 -0.4353 -0.0956  0.0520
 4236TIP3    H134267   4.746   5.244   3.190 -1.2437  0.1985  0.0857
 4236TIP3    H234268   4.723   5.102   3.237 -0.6871  0.0122 -0.2005
 4237TIP3   OH234269   4.208   1.185   2.544  0.3803  0.2411 -0.2221
 4237TIP3    H134270   4.276   1.122   2.570  1.8102  1.8015 -0.0663
 4237TIP3    H234271   4.242   1.227   2.466 -0.8086  0.4855 -0.6362
 4238TIP3   OH234272   4.891   2.564   8.244 -0.1097  0.6015  0.0077
 4238TIP3    H134273   4.841   2.645   8.233  0.4251  1.0214  0.6033
 4238TIP3    H234274   4.899   2.553   8.339 -0.2763 -0.2140 -0.0651
 4239TIP3   OH234275   3.177   0.592   0.163 -0.0801  0.0169 -0.1392
 4239TIP3    H134276   3.125   0.670   0.143  0.6440  1.0261  1.6925
 4239TIP3    H234277   3.112   0.524   0.180 -0.7327  0.3940 -1.0176
 4240TIP3   OH234278   4.746   2.678   8.491  0.2331 -0.0362  0.3160
 4240TIP3    H134279   4.833   2.640   8.493  0.0554 -0.4582  0.2200
 4240TIP3    H234280   4.691   2.616   8.540  0.2086  0.8092  1.4028
 4241TIP3   OH234281   6.612   4.149   0.557 -0.2884 -0.0561 -0.1490
 4241TIP3    H134282   6.571   4.207   0.621 -3.0004 -1.2485 -0.6815
 4241TIP3    H234283   6.593   4.061   0.589 -0.1936 -0.6652 -1.6936
 4242TIP3   OH234284   1.567   5.653   0.802 -0.0514  0.0204  0.2174
 4242TIP3    H134285   1.573   5.721   0.869 -0.9897 -0.5661  0.9163
 4242TIP3    H234286   1.575   5.700   0.719 -1.1303  1.0408  0.6730
 4243TIP3   OH234287   1.437   5.455   2.459 -0.0231 -0.1339 -0.0581
 4243TIP3    H134288   1.382   5.530   2.434 -0.1583  0.0828  0.8531
 4243TIP3    H234289   1.465   5.475   2.548 -0.4206 -1.3826  0.3627
 4244TIP3   OH234290   0.515   5.878   0.545 -0.4373  0.1232  0.0879
 4244TIP3    H134291   0.580   5.873   0.615 -0.9691 -1.1875  0.5120
 4244TIP3    H234292   0.456   5.805   0.561 -2.1950  1.4235 -0.1374
 4245TIP3   OH234293   0.230   3.509   0.986 -0.5471  0.0187  0.4151
 4245TIP3    H134294   0.233   3.579   0.920 -3.2724  1.5038  1.6645
 4245TIP3    H234295   0.241   3.554   1.070 -0.1257 -1.3920  1.1547
 4246TIP3   OH234296   5.142   1.059   1.601 -0.3355 -0.1998 -0.1088
 4246TIP3    H134297   5.191   0.992   1.649  2.1469  1.4705 -0.1353
 4246TIP3    H234298   5.096   1.108   1.669  1.1592  0.5838  0.3823
 4247TIP3   OH234299   3.827   1.476   0.574 -0.8283 -0.0034 -0.1527
 4247TIP3    H134300   3.801   1.464   0.665 -0.3969 -0.4237 -0.0797
 4247TIP3    H234301   3.755   1.438   0.523 -1.4196  0.8999 -0.0132
 4248TIP3   OH234302   4.072   6.440   7.747  0.6963  0.6252 -0.2474
 4248TIP3    H134303   4.106   6.375   7.686  0.4072 -1.4128  1.6327
 4248TIP3    H234304   3.983   6.457   7.716  0.6763 -0.1028 -0.6021
 4249TIP3   OH234305   2.485   1.193   0.036  0.3559  0.1680  0.5977
 4249TIP3    H134306   2.531   1.234  -0.038 -1.6368  0.4682 -0.5411
 4249TIP3    H234307   2.550   1.193   0.107  1.7715  1.4695 -0.6148
 4250TIP3   OH234308   3.477   0.150   8.632 -0.5121 -0.5688 -0.2896
 4250TIP3    H134309   3.552   0.124   8.578  1.7770 -1.4566  3.0192
 4250TIP3    H234310   3.466   0.243   8.613  1.7732 -0.2808 -0.5431
 4251TIP3   OH234311   0.968   2.241   1.281 -0.3233  0.5041  0.3264
 4251TIP3    H134312   1.037   2.303   1.302  1.0774 -0.8096 -0.1733
 4251TIP3    H234313   0.887   2.288   1.297  0.6644  2.6697 -0.7221
 4252TIP3   OH234314   2.555   3.023   2.767  0.0057  0.3817  0.3976
 4252TIP3    H134315   2.481   3.067   2.727  1.9251  2.4254 -1.1459
 4252TIP3    H234316   2.516   2.968   2.835 -3.0968 -0.4346 -1.7880
 4253TIP3   OH234317   1.727   1.698   3.063  0.6674 -0.2122 -0.0629
 4253TIP3    H134318   1.692   1.781   3.032 -0.8064 -0.3995  0.9812
 4253TIP3    H234319   1.766   1.658   2.986  3.5783  2.4241 -0.1802
 4254TIP3   OH234320   2.677   5.436   7.140  0.0563  0.2021  0.2002
 4254TIP3    H134321   2.597   5.467   7.183  0.8334 -1.5397  3.2128
 4254TIP3    H234322   2.748   5.474   7.193  1.2361  0.4017 -1.4355
 4255TIP3   OH234323   1.824   2.090   1.020 -0.4282  0.3127  0.1056
 4255TIP3    H134324   1.888   2.085   1.091  0.7469 -2.6984 -0.9943
 4255TIP3    H234325   1.769   2.012   1.033  0.0659 -0.5275 -2.4291
 4256TIP3   OH234326   4.739   4.307   0.529  0.4741  0.4209  0.2692
 4256TIP3    H134327   4.677   4.362   0.482  0.1255  0.2942  0.5699
 4256TIP3    H234328   4.738   4.341   0.619  1.2715  0.7781  0.1445
 4257TIP3   OH234329   6.179   1.780   1.424 -0.4672 -0.4820  0.5125
 4257TIP3    H134330   6.089   1.765   1.396 -0.7115 -0.9345  1.5009
 4257TIP3    H234331   6.183   1.746   1.513  0.4806  0.2455  0.7655
 4258TIP3   OH234332   6.768   1.223   0.717 -0.1609 -0.0159 -0.0444
 4258TIP3    H134333   6.731   1.258   0.798 -2.3065 -2.1685  0.0358
 4258TIP3    H234334   6.743   1.131   0.717  3.5793 -1.1806 -1.0984
 4259TIP3   OH234335   0.178   3.147   0.166 -0.5202  0.2888  0.4625
 4259TIP3    H134336   0.089   3.182   0.154 -0.9396 -0.5164  1.1773
 4259TIP3    H234337   0.165   3.063   0.209  0.4799 -0.6965 -1.0436
 4260TIP3   OH234338   2.209   4.715   8.032 -0.0279 -0.4036 -0.5063
 4260TIP3    H134339   2.239   4.625   8.050  1.7191 -0.0623 -1.4283
 4260TIP3    H234340   2.211   4.721   7.936 -0.6898  0.4616 -0.4719
 4261TIP3   OH234341   4.864   3.142   7.938 -0.2749  0.3482  0.1338
 4261TIP3    H134342   4.959   3.148   7.922 -0.1421 -1.0753  0.3453
 4261TIP3    H234343   4.825   3.186   7.862  0.5434  1.5304  0.3591
 4262TIP3   OH234344   5.400   1.438   2.391  0.4229 -0.4705 -0.1281
 4262TIP3    H134345   5.344   1.475   2.459  1.4914  1.0700 -0.0363
 4262TIP3    H234346   5.363   1.470   2.309  1.0744  0.4809 -0.0711
 4263TIP3   OH234347   4.535   2.675   1.035  0.1109 -0.3861 -0.4933
 4263TIP3    H134348   4.562   2.739   1.101  0.2599 -0.0983 -0.8304
 4263TIP3    H234349   4.486   2.725   0.970 -0.2757 -0.7163 -0.4646
 4264TIP3   OH234350   2.956   2.463   8.506  0.2567  0.3282 -0.0141
 4264TIP3    H134351   2.948   2.494   8.416 -1.0604 -1.2217 -0.4870
 4264TIP3    H234352   2.885   2.507   8.553 -0.6447 -0.7197 -0.3400
 4265TIP3   OH234353   2.860   5.485   2.760  0.4758  0.0045 -0.4053
 4265TIP3    H134354   2.777   5.497   2.805  0.1349  3.3489 -1.5828
 4265TIP3    H234355   2.925   5.525   2.818  1.4871 -3.0176  0.7381
 4266TIP3   OH234356   2.354   6.595   1.775 -0.0033 -0.2592  0.2765
 4266TIP3    H134357   2.448   6.597   1.763 -0.0353 -0.4066 -0.0029
 4266TIP3    H234358   2.336   6.662   1.841  0.4017 -0.8847  1.0363
 4267TIP3   OH234359   2.550   3.044   3.145 -0.1168  0.0354  0.4852
 4267TIP3    H134360   2.558   2.964   3.093  1.6260  0.9278 -0.7291
 4267TIP3    H234361   2.466   3.082   3.118 -1.2405 -1.5722  1.4777
 4268TIP3   OH234362   3.835   3.632   1.968 -0.0149  0.2015  0.1528
 4268TIP3    H134363   3.764   3.662   1.912 -0.8820 -1.9692 -0.0124
 4268TIP3    H234364   3.836   3.693   2.041 -1.6402  0.6278 -0.1474
 4269TIP3   OH234365   0.074   0.211   2.642 -0.3688 -0.5228 -1.0195
 4269TIP3    H134366   0.145   0.166   2.597  0.0024 -0.0342 -0.9278
 4269TIP3    H234367   0.012   0.232   2.572  0.3469  0.5009 -1.3733
 4270TIP3   OH234368   5.200   2.095   0.922 -0.0526 -0.5438 -0.4593
 4270TIP3    H134369   5.148   2.062   0.995  1.3493 -0.7807  0.4725
 4270TIP3    H234370   5.259   2.158   0.961  1.0067 -0.9794 -1.3030
 4271TIP3   OH234371   0.744   3.436   2.597  0.3077  0.6242 -0.5832
 4271TIP3    H134372   0.820   3.474   2.554  2.3769 -2.0831  0.3942
 4271TIP3    H234373   0.772   3.420   2.687 -2.8729  3.2696  1.1382
 4272TIP3   OH234374   0.212   1.494   1.631 -0.1776 -0.1987  1.2648
 4272TIP3    H134375   0.285   1.536   1.585 -0.4358  0.6867  1.6547
 4272TIP3    H234376   0.254   1.448   1.704  0.2400 -1.6432  0.1744
 4273TIP3   OH234377   4.286   5.996   1.989  0.4249  0.4683 -0.4247
 4273TIP3    H134378   4.267   6.086   2.014  1.0622  0.8448 -1.2604
 4273TIP3    H234379   4.209   5.968   1.940  0.6632  0.9227 -1.0747
 4274TIP3   OH234380   5.593   1.566   0.811  0.0879  0.0633  0.0258
 4274TIP3    H134381   5.517   1.511   0.790  0.4599  0.0178 -1.2391
 4274TIP3    H234382   5.554   1.646   0.848 -0.5166 -0.4248  0.4762
 4275TIP3   OH234383   4.090   0.790   1.074  0.9580  0.0992  0.2275
 4275TIP3    H134384   4.168   0.767   1.126  0.2415  1.2067  1.8677
 4275TIP3    H234385   4.017   0.753   1.123  0.2928  0.7293 -0.2719
 4276TIP3   OH234386   3.753   6.697   1.502 -0.0180 -0.4422 -0.3466
 4276TIP3    H134387   3.818   6.757   1.538 -0.6584 -0.2000  0.4149
 4276TIP3    H234388   3.669   6.731   1.531 -0.5681 -0.2730 -2.0195
 4277TIP3   OH234389   6.000   2.586   8.134 -0.6216  0.1003 -0.0563
 4277TIP3    H134390   6.091   2.604   8.113 -0.4104  0.4750  1.0733
 4277TIP3    H234391   5.998   2.493   8.157 -0.1764  0.4275  1.4531
 4278TIP3   OH234392   2.403   2.218   0.634  0.0037 -0.7510 -0.1598
 4278TIP3    H134393   2.457   2.296   0.623 -1.2430  0.5777  2.2760
 4278TIP3    H234394   2.340   2.222   0.563  0.0463  0.4189 -0.1477
 4279TIP3   OH234395   2.036   4.378   0.825  0.0853 -0.7170  0.0012
 4279TIP3    H134396   1.962   4.328   0.791  1.2424 -3.4707  1.1976
 4279TIP3    H234397   2.106   4.313   0.834  2.7916  1.7667 -1.3407
 4280TIP3   OH234398   0.139   0.849   0.409 -0.2871 -0.0008  0.4014
 4280TIP3    H134399   0.127   0.798   0.329  1.5301 -1.6557  1.1133
 4280TIP3    H234400   0.181   0.930   0.380  2.6879 -1.6082 -0.1678
 4281TIP3   OH234401   1.828   1.989   2.050 -0.2441 -0.1040  0.5325
 4281TIP3    H134402   1.816   2.051   2.122 -1.7310 -0.1810  0.3916
 4281TIP3    H234403   1.922   1.979   2.042  0.0477  2.0091  0.6771
 4282TIP3   OH234404   2.204   5.705   1.823  0.4773 -0.0440 -0.8462
 4282TIP3    H134405   2.129   5.701   1.763  0.5521  0.7768 -1.0045
 4282TIP3    H234406   2.266   5.765   1.780  0.9234 -0.1686 -0.3845
 4283TIP3   OH234407   5.625   6.228   8.750  0.2553  0.2534  0.5186
 4283TIP3    H134408   5.587   6.282   8.680  0.6627  0.0013  0.0981
 4283TIP3    H234409   5.690   6.174   8.706 -0.8372 -1.3030  0.7557
 4284TIP3   OH234410   4.808   2.120   7.773 -0.1364  0.0637 -0.0989
 4284TIP3    H134411   4.756   2.117   7.853 -0.0056 -0.3087 -0.0223
 4284TIP3    H234412   4.754   2.076   7.707 -0.2902  0.4695 -0.2423
 4285TIP3   OH234413   5.279   3.845   0.481  0.2476  0.7386 -0.0401
 4285TIP3    H134414   5.336   3.802   0.418 -0.6891  0.1894 -0.5207
 4285TIP3    H234415   5.257   3.929   0.440 -1.1481 -0.0288 -0.8969
 4286TIP3   OH234416   2.963   0.986   0.356 -0.6014 -0.1056  0.6258
 4286TIP3    H134417   2.911   1.062   0.381  0.0651  0.2881  0.8386
 4286TIP3    H234418   3.022   1.019   0.288 -1.6388 -0.9010 -0.7175
 4287TIP3   OH234419   2.516   5.940   0.028 -0.0338 -0.1798 -0.3307
 4287TIP3    H134420   2.471   5.881  -0.032 -0.6066 -1.6000  1.4091
 4287TIP3    H234421   2.608   5.912   0.024  0.3052  1.0413 -1.9716
 4288TIP3   OH234422   0.516   2.923   2.662  0.1427 -0.3107  0.1107
 4288TIP3    H134423   0.436   2.929   2.714 -0.1801 -1.2343 -0.2520
 4288TIP3    H234424   0.503   2.986   2.591 -1.3315 -2.0507 -1.2892
 4289TIP3   OH234425   3.792   6.176   0.740 -0.8161 -0.7188 -0.8425
 4289TIP3    H134426   3.757   6.211   0.659 -1.3829  0.7085 -0.0174
 4289TIP3    H234427   3.784   6.248   0.803  1.0710 -1.2568  0.0792
 4290TIP3   OH234428   4.260   0.946   0.166 -0.2731 -0.0048  0.0333
 4290TIP3    H134429   4.298   1.027   0.200 -0.1685  0.3363 -0.8518
 4290TIP3    H234430   4.289   0.943   0.075 -0.1268 -1.1369  0.0996
 4291TIP3   OH234431   4.737   3.849   3.345 -0.2523  0.5391 -0.0397
 4291TIP3    H134432   4.778   3.930   3.313 -0.1583  0.5636  0.1399
 4291TIP3    H234433   4.810   3.790   3.362 -0.3410  0.2948 -0.4959
 4292TIP3   OH234434   3.113   5.038   8.442 -0.2212 -0.0052  0.1553
 4292TIP3    H134435   3.086   5.125   8.470 -1.2760 -0.9524  2.2904
 4292TIP3    H234436   3.200   5.026   8.482  0.9735  0.8393 -1.9874
 4293TIP3   OH234437   0.171   1.372   2.170 -0.5263  0.2491  0.0516
 4293TIP3    H134438   0.185   1.417   2.253  1.8852 -1.0592  0.4475
 4293TIP3    H234439   0.167   1.441   2.105  0.0150  1.1808  0.9788
 4294TIP3   OH234440   4.170   4.497   2.267 -0.4420 -0.8807  0.1696
 4294TIP3    H134441   4.090   4.537   2.233 -0.3544  0.6129  1.5971
 4294TIP3    H234442   4.187   4.423   2.209 -1.3488  0.3903 -1.7912
 4295TIP3   OH234443   3.628   0.526   2.299 -0.1208 -0.7279  0.3717
 4295TIP3    H134444   3.711   0.522   2.346  0.0531  1.2804  0.3288
 4295TIP3    H234445   3.562   0.539   2.367 -0.0802  0.2888  0.2335
 4296TIP3   OH234446   3.097   6.405   1.447 -0.0864 -0.1994  0.1529
 4296TIP3    H134447   3.008   6.422   1.478 -0.8645 -2.5892 -0.5846
 4296TIP3    H234448   3.100   6.444   1.360 -0.6747 -0.8302 -0.1468
 4297TIP3   OH234449   6.606   2.143   7.695  0.2388 -0.2419 -0.1716
 4297TIP3    H134450   6.628   2.090   7.619  2.3802  3.3068 -2.2900
 4297TIP3    H234451   6.531   2.196   7.666  1.2107  1.3054  0.0531
 4298TIP3   OH234452   3.271   6.293   8.638  0.6155 -0.4048 -0.2347
 4298TIP3    H134453   3.241   6.332   8.720 -2.3633  1.0481 -1.8053
 4298TIP3    H234454   3.302   6.368   8.587 -2.2318 -0.3459 -2.1387
 4299TIP3   OH234455   2.296   4.451   7.035  0.2615  0.1631  0.1298
 4299TIP3    H134456   2.239   4.414   6.968 -0.1701 -1.0395  1.1292
 4299TIP3    H234457   2.300   4.544   7.014 -1.6157  0.1837 -0.3008
 4300TIP3   OH234458   4.858   5.088   0.337  0.2651  0.0084 -0.0362
 4300TIP3    H134459   4.826   5.161   0.285  1.5423  0.7222  0.1159
 4300TIP3    H234460   4.938   5.060   0.293  0.8647  0.0188  1.0015
 4301TIP3   OH234461   2.136   1.585   1.190  0.0615 -0.1648 -0.7056
 4301TIP3    H134462   2.154   1.678   1.206  2.1349 -0.3611 -1.6370
 4301TIP3    H234463   2.041   1.580   1.184 -0.3442  1.4025  2.2168
 4302TIP3   OH234464   5.425   5.944   8.553 -0.0727 -0.3084 -0.1972
 4302TIP3    H134465   5.359   6.011   8.571 -1.3590 -1.5768  0.0138
 4302TIP3    H234466   5.380   5.861   8.570  1.6227 -1.2218  0.0643
 4303TIP3   OH234467   6.505   6.340   1.088 -0.2365 -0.3721 -0.2274
 4303TIP3    H134468   6.569   6.271   1.073  1.4973  0.6703  1.8951
 4303TIP3    H234469   6.433   6.296   1.133  1.1372 -0.7420  1.7125
 4304TIP3   OH234470   0.059   2.121   7.592  1.0099 -0.7729 -0.1655
 4304TIP3    H134471   0.041   2.097   7.501 -2.7562 -0.6126  0.4046
 4304TIP3    H234472  -0.018   2.170   7.620  2.7327  0.5747  2.6904
 4305TIP3   OH234473   4.892   6.772   0.142  0.4985 -0.3934 -0.3492
 4305TIP3    H134474   4.859   6.852   0.182 -0.0313 -0.9565  0.3709
 4305TIP3    H234475   4.819   6.711   0.146  0.4221 -0.4659 -2.2297
 4306TIP3   OH234476   2.577   3.965   1.108  0.1688  0.5604  0.5160
 4306TIP3    H134477   2.584   3.973   1.013 -0.2024 -2.0135  0.1980
 4306TIP3    H234478   2.650   3.909   1.133  1.1017  2.3468  1.9875
 4307TIP3   OH234479   3.004   3.964   7.727 -0.1614 -0.2042 -0.1707
 4307TIP3    H134480   3.005   3.933   7.817 -0.8953 -0.7474 -0.3460
 4307TIP3    H234481   3.089   3.937   7.691  0.1815  0.1162  0.3778
 4308TIP3   OH234482   6.522   6.611   8.734  0.1032  0.1026 -0.4728
 4308TIP3    H134483   6.433   6.619   8.700  0.2731  1.0329 -0.7288
 4308TIP3    H234484   6.535   6.689   8.786  1.2855  0.7614 -1.6774
 4309TIP3   OH234485   4.884   1.633   0.934 -0.2381 -0.0690  0.4064
 4309TIP3    H134486   4.889   1.670   0.847  0.2194  0.7576  0.7771
 4309TIP3    H234487   4.791   1.634   0.956 -0.2835  0.3240  0.1909
 4310TIP3   OH234488   4.640   2.061   0.613 -0.0350  0.4422  0.6719
 4310TIP3    H134489   4.579   2.079   0.684  1.6677 -2.2401  3.0523
 4310TIP3    H234490   4.599   1.990   0.564 -0.1702  0.6877  0.4310
 4311TIP3   OH234491   6.137   4.037   2.746  0.0444  0.2616  0.1456
 4311TIP3    H134492   6.061   4.074   2.789 -0.1502 -0.2369  0.2383
 4311TIP3    H234493   6.168   4.106   2.688 -0.7624  0.3084 -0.2453
 4312TIP3   OH234494   0.435   5.058   0.278  0.7495 -0.0618 -0.0490
 4312TIP3    H134495   0.424   5.095   0.191 -0.2898  0.7450  0.4056
 4312TIP3    H234496   0.384   4.977   0.276 -0.7768  0.8502  0.3259
 4313TIP3   OH234497   6.326   2.851   3.228 -0.1040 -0.6121  0.1963
 4313TIP3    H134498   6.259   2.798   3.186 -0.2659  1.1270 -1.9146
 4313TIP3    H234499   6.408   2.825   3.185  0.3596 -1.5466  1.5855
 4314TIP3   OH234500   0.204   3.011   1.427 -0.1208 -0.1973 -0.5018
 4314TIP3    H134501   0.201   3.105   1.412 -1.6107 -0.0722  0.3880
 4314TIP3    H234502   0.130   2.976   1.377 -0.8483 -0.6146  0.8136
 4315TIP3   OH234503   0.791   2.158   0.397 -0.1440  0.8619  0.1843
 4315TIP3    H134504   0.754   2.142   0.309  1.0611 -0.0682 -0.1719
 4315TIP3    H234505   0.783   2.253   0.409 -0.8662  0.9274 -0.6760
 4316TIP3   OH234506   4.283   2.838   1.591 -0.0452 -0.3195  0.4311
 4316TIP3    H134507   4.346   2.903   1.560  0.0039 -0.3209  0.5251
 4316TIP3    H234508   4.198   2.872   1.567 -0.0939  0.2934  1.4145
 4317TIP3   OH234509   3.858   5.758   0.541 -0.2863  0.7020  0.1534
 4317TIP3    H134510   3.816   5.672   0.534 -0.7556  1.0020 -0.8071
 4317TIP3    H234511   3.791   5.813   0.582  0.2177  0.4859  1.3067
 4318TIP3   OH234512   6.152   5.252   1.166  0.1988  0.0590 -0.5569
 4318TIP3    H134513   6.236   5.298   1.173  0.4232  0.1081 -2.6793
 4318TIP3    H234514   6.088   5.311   1.203  1.1856 -0.4020  2.0569
 4319TIP3   OH234515   4.623   5.100   8.202  0.2706  0.4523  0.0611
 4319TIP3    H134516   4.586   5.030   8.147  1.2757 -0.1308  0.0995
 4319TIP3    H234517   4.715   5.075   8.213  0.3917  1.2492  0.9383
 4320TIP3   OH234518   4.803   6.237   2.915 -0.0930 -0.3819 -0.1565
 4320TIP3    H134519   4.888   6.192   2.918  0.0691 -0.2453 -1.6145
 4320TIP3    H234520   4.740   6.172   2.947  0.5557 -0.4808  0.9489
 4321TIP3   OH234521   3.551   0.171   1.076  0.2631  0.5632 -0.2730
 4321TIP3    H134522   3.480   0.113   1.049 -0.9683  1.2905  1.2209
 4321TIP3    H234523   3.598   0.122   1.144 -1.7519  1.7473  2.1739
 4322TIP3   OH234524   6.087   0.994   0.466  0.5644 -0.4045  0.8181
 4322TIP3    H134525   6.018   0.970   0.528  0.6631  0.1463  1.1470
 4322TIP3    H234526   6.089   0.921   0.404 -0.7512 -0.1538  0.4301
 4323TIP3   OH234527   5.950   3.640   2.131  0.1069  0.5288 -0.3020
 4323TIP3    H134528   5.885   3.697   2.092 -0.3204  1.3013  1.4554
 4323TIP3    H234529   5.921   3.628   2.221  0.4288 -2.1193 -0.4554
 4324TIP3   OH234530   0.424   6.748   7.743  0.3448  0.2265  0.7744
 4324TIP3    H134531   0.362   6.815   7.715 -0.0558 -0.1763  0.6877
 4324TIP3    H234532   0.492   6.749   7.676 -0.2487 -0.2399  0.1438
 4325TIP3   OH234533   4.513   4.291   1.667 -0.0133  0.1424 -0.6926
 4325TIP3    H134534   4.456   4.344   1.611  0.4670  0.5901 -0.7600
 4325TIP3    H234535   4.557   4.230   1.607 -0.0901  0.0913 -0.6973
 4326TIP3   OH234536   2.254   3.019   1.864  0.0356  0.0167  0.1643
 4326TIP3    H134537   2.332   3.058   1.825 -0.1574  1.1298  0.8394
 4326TIP3    H234538   2.250   3.057   1.952 -0.3123 -1.3543  0.7633
 4327TIP3   OH234539   4.934   2.794   1.838  0.6291  0.4085  0.3691
 4327TIP3    H134540   4.949   2.700   1.851 -1.1076  0.1577  0.8399
 4327TIP3    H234541   4.881   2.820   1.913  0.0435  1.4947 -0.4029
 4328TIP3   OH234542   0.295   1.318   7.810  0.0437 -0.3861 -0.3546
 4328TIP3    H134543   0.370   1.377   7.796 -0.4759  0.7544  1.2967
 4328TIP3    H234544   0.218   1.373   7.792 -0.5494  0.2764  3.2903
 4329TIP3   OH234545   4.269   5.817   0.455  0.5151  0.0488  0.4889
 4329TIP3    H134546   4.321   5.892   0.485  0.4491  0.2229  0.1724
 4329TIP3    H234547   4.261   5.761   0.533  0.5648  0.3711  0.7307
 4330TIP3   OH234548   6.636   3.538   0.344 -0.1680  0.2302 -0.5218
 4330TIP3    H134549   6.673   3.475   0.406  0.9580 -0.0281 -1.4169
 4330TIP3    H234550   6.673   3.622   0.371 -0.0485  0.1904 -0.5609
 4331TIP3   OH234551   1.515   1.230   0.112  0.2928 -0.1478  0.0858
 4331TIP3    H134552   1.495   1.322   0.127 -0.8361 -0.2731 -0.4955
 4331TIP3    H234553   1.527   1.193   0.200  0.4826  0.4939  0.3300
 4332TIP3   OH234554   4.154   1.455   2.549 -0.2066 -0.2765  0.2113
 4332TIP3    H134555   4.183   1.440   2.639 -2.8825 -0.4233  1.1351
 4332TIP3    H234556   4.104   1.377   2.526  1.0112 -0.5693 -1.7390
 4333TIP3   OH234557   3.604   1.054   2.712 -0.4502 -0.4139  0.7955
 4333TIP3    H134558   3.600   0.968   2.671 -0.7799  0.1855 -0.4872
 4333TIP3    H234559   3.517   1.066   2.752 -1.5774  0.5478 -1.7117
 4334TIP3   OH234560   4.964   0.684   1.592  0.0781 -0.1764  0.5492
 4334TIP3    H134561   4.919   0.765   1.614  0.5969  0.4105 -0.5005
 4334TIP3    H234562   5.016   0.705   1.515  0.5592 -1.3923  0.5177
 4335TIP3   OH234563   3.893   5.263   1.964  0.7346  0.0424  0.2933
 4335TIP3    H134564   3.845   5.328   2.015 -2.5381 -0.5528 -1.7054
 4335TIP3    H234565   3.869   5.282   1.873  0.5767 -3.1923 -0.4427
 4336TIP3   OH234566   4.771   0.669   7.941  0.5018  0.7862  0.3326
 4336TIP3    H134567   4.789   0.695   8.031 -0.1798 -0.0238  0.7120
 4336TIP3    H234568   4.792   0.576   7.937 -0.7675  0.4866  0.0384
 4337TIP3   OH234569   1.206   3.875   8.483 -0.0280 -0.1285 -0.6194
 4337TIP3    H134570   1.300   3.855   8.487  0.1643  0.4717 -1.5875
 4337TIP3    H234571   1.167   3.797   8.444  0.1837 -0.1187 -0.8598
 4338TIP3   OH234572   5.500   0.494   2.904  0.7602 -0.0371  0.3336
 4338TIP3    H134573   5.482   0.575   2.952  0.5010  0.5098 -0.6534
 4338TIP3    H234574   5.476   0.424   2.965 -3.1830  0.5961 -0.2233
 4339TIP3   OH234575   3.677   4.871   7.181  0.3347  0.5242 -0.2111
 4339TIP3    H134576   3.636   4.909   7.258 -0.6985 -3.0225  1.1882
 4339TIP3    H234577   3.771   4.872   7.200  0.0220 -1.5556  1.8486
 4340TIP3   OH234578   2.085   5.330   0.735  0.1611  0.1735 -0.1511
 4340TIP3    H134579   2.099   5.331   0.830  0.9971  1.8197 -0.2542
 4340TIP3    H234580   2.113   5.243   0.708 -1.8962 -1.0307  1.3180
 4341TIP3   OH234581   4.319   0.570   0.596 -0.6626  0.5035  0.8091
 4341TIP3    H134582   4.350   0.567   0.687  1.1754  0.3603  0.2155
 4341TIP3    H234583   4.259   0.495   0.589 -0.1112 -0.0321  1.6655
 4342TIP3   OH234584   2.726   0.065   8.602 -0.2397 -0.3320 -0.4744
 4342TIP3    H134585   2.788   0.008   8.648 -0.1755 -1.1911 -1.5732
 4342TIP3    H234586   2.674   0.005   8.548  0.3579  0.7004 -2.2810
 4343TIP3   OH234587   3.006   4.174   2.478  0.0893  0.2468 -0.1090
 4343TIP3    H134588   2.996   4.200   2.570 -0.8983  2.3426 -0.7622
 4343TIP3    H234589   3.050   4.248   2.437  0.2751 -0.5587 -1.4035
 4344TIP3   OH234590   1.413   0.246   7.286 -0.0950 -0.0491 -0.2711
 4344TIP3    H134591   1.438   0.332   7.251 -1.1109 -0.2106 -1.4877
 4344TIP3    H234592   1.392   0.194   7.208  0.5486 -1.4343  0.4351
 4345TIP3   OH234593   5.407   5.151   0.322 -0.2706  0.7883  0.0932
 4345TIP3    H134594   5.345   5.147   0.249 -1.4153  1.4571  0.9896
 4345TIP3    H234595   5.358   5.117   0.397  1.1895 -0.8088  0.3844
 4346TIP3   OH234596   2.618   0.781   0.646 -0.0693  0.2307  0.2461
 4346TIP3    H134597   2.653   0.852   0.699  0.0613  0.3105  0.0536
 4346TIP3    H234598   2.670   0.705   0.670  0.2936  0.3645 -0.0930
 4347TIP3   OH234599   5.595   0.884   8.231  0.0490  0.1903  0.1347
 4347TIP3    H134600   5.588   0.894   8.136 -1.0568  2.0226  0.3680
 4347TIP3    H234601   5.689   0.887   8.248  0.2384  0.3072 -0.8542
 4348TIP3   OH234602   5.554   6.070   2.606  0.0636 -0.0531 -0.0095
 4348TIP3    H134603   5.594   6.021   2.678  1.3198 -0.1274 -0.7354
 4348TIP3    H234604   5.627   6.115   2.564 -0.8806  1.4094 -0.1662
 4349TIP3   OH234605   4.991   5.204   0.554 -0.5179 -0.0860 -0.3031
 4349TIP3    H134606   5.069   5.159   0.587 -0.3678  0.1768 -0.2992
 4349TIP3    H234607   4.938   5.134   0.515 -0.5723 -0.3608  0.2556
 4350TIP3   OH234608   6.049   3.558   3.284 -0.0173  0.3748 -0.5439
 4350TIP3    H134609   6.034   3.623   3.216 -0.8438  1.5503  0.7050
 4350TIP3    H234610   6.071   3.478   3.237 -0.0506  1.2760 -2.1550
 4351TIP3   OH234611   0.428   2.270   8.295  0.3621 -0.3785 -0.5943
 4351TIP3    H134612   0.516   2.309   8.293  0.2347 -0.0230  0.1542
 4351TIP3    H234613   0.369   2.345   8.285  0.1396 -0.6471 -1.3741
 4352TIP3   OH234614   5.947   0.428   1.179 -0.0947  0.1022  0.1781
 4352TIP3    H134615   5.940   0.452   1.087 -0.7828 -0.0032  0.1913
 4352TIP3    H234616   5.892   0.350   1.188 -1.6465  1.2256  1.0427
 4353TIP3   OH234617   0.129   5.786   1.700 -0.3371 -0.2612 -0.7868
 4353TIP3    H134618   0.038   5.798   1.725 -0.0830 -1.3395  0.8504
 4353TIP3    H234619   0.126   5.747   1.613 -1.3982  0.3270 -1.0272
 4354TIP3   OH234620   4.223   5.164   0.594 -0.3038  0.1261  0.0964
 4354TIP3    H134621   4.275   5.243   0.581 -0.1387  0.1013  0.5923
 4354TIP3    H234622   4.259   5.123   0.672  1.4930 -1.9556 -1.6897
 4355TIP3   OH234623   4.612   2.179   2.283  0.4998 -0.3300 -0.4536
 4355TIP3    H134624   4.525   2.216   2.272  0.2727 -0.4807  0.6970
 4355TIP3    H234625   4.649   2.227   2.357  1.5697  0.0341 -1.2033
 4356TIP3   OH234626   2.337   6.064   8.310 -0.4807  0.0235 -0.2003
 4356TIP3    H134627   2.244   6.041   8.317 -0.0248 -2.1221 -0.4861
 4356TIP3    H234628   2.362   6.091   8.399 -1.1951 -0.0845  0.0392
 4357TIP3   OH234629   6.397   5.475   0.505 -0.0534 -0.0331  0.1683
 4357TIP3    H134630   6.413   5.385   0.478  0.4548  0.2352 -0.4495
 4357TIP3    H234631   6.411   5.475   0.600 -0.1237 -0.6147  0.1787
 4358TIP3   OH234632   4.718   2.278   0.901  0.1572  0.2060 -0.4958
 4358TIP3    H134633   4.650   2.343   0.913 -0.2970 -0.4638  0.7640
 4358TIP3    H234634   4.799   2.323   0.926 -0.1772  0.2510  0.5552
 4359TIP3   OH234635   1.063   5.246   1.559 -0.0410  0.8144 -0.1322
 4359TIP3    H134636   1.127   5.234   1.488 -0.0157  2.1460 -0.3529
 4359TIP3    H234637   1.053   5.341   1.567 -0.9565  0.6543  0.8423
 4360TIP3   OH234638   5.807   1.282   2.773  0.1794 -0.2075  0.1649
 4360TIP3    H134639   5.836   1.372   2.755 -0.3826  0.1013  0.7759
 4360TIP3    H234640   5.829   1.234   2.693  1.9718  0.1121  0.4264
 4361TIP3   OH234641   2.778   2.602   8.302 -0.4049 -0.3135  0.1705
 4361TIP3    H134642   2.790   2.566   8.215 -1.0242  1.1759 -0.5748
 4361TIP3    H234643   2.822   2.687   8.299 -0.7249 -0.0952  1.2063
 4362TIP3   OH234644   5.018   4.979   8.070  0.8377 -0.1342  0.3242
 4362TIP3    H134645   4.960   5.021   8.133  0.2035  1.6608 -1.3403
 4362TIP3    H234646   4.996   4.886   8.075 -0.1491  0.1490  1.7574
 4363TIP3   OH234647   3.628   6.496   0.178 -0.3904  0.7794 -0.3250
 4363TIP3    H134648   3.654   6.517   0.268  0.4587 -2.9139  0.4774
 4363TIP3    H234649   3.711   6.495   0.129 -0.1423 -1.6449  0.0121
 4364TIP3   OH234650   4.793   4.495   3.010  0.0439 -0.4602 -0.3621
 4364TIP3    H134651   4.731   4.561   3.040  0.2927  0.3480 -1.5328
 4364TIP3    H234652   4.879   4.532   3.030  0.1780 -0.6679 -0.5479
 4365TIP3   OH234653   1.185   4.121   7.846 -0.3078  0.8098  0.0947
 4365TIP3    H134654   1.167   4.211   7.874 -0.9779  0.7376 -0.0934
 4365TIP3    H234655   1.280   4.117   7.839 -0.2842  1.5579 -0.0729
 4366TIP3   OH234656   2.995   5.441   0.624  0.4778  0.5531 -0.1818
 4366TIP3    H134657   2.913   5.397   0.604  1.7091 -1.7340 -0.5640
 4366TIP3    H234658   2.991   5.524   0.577 -2.0800  1.0765  0.8077
 4367TIP3   OH234659   5.669   1.058   0.617 -0.1021 -0.4820 -0.2267
 4367TIP3    H134660   5.725   0.980   0.615  1.1163  0.3941 -1.5225
 4367TIP3    H234661   5.587   1.029   0.578  1.0980 -0.6215 -2.8611
 4368TIP3   OH234662   3.456   4.198   8.192 -0.2573 -0.9026 -0.3734
 4368TIP3    H134663   3.429   4.287   8.216 -1.8613 -1.2018 -0.9548
 4368TIP3    H234664   3.538   4.210   8.146  0.5367  0.0940  1.1940
 4369TIP3   OH234665   0.498   3.138   8.403  0.5826  0.0429 -0.1996
 4369TIP3    H134666   0.547   3.117   8.323  0.7601  1.7544 -0.5987
 4369TIP3    H234667   0.433   3.069   8.411  0.1812  0.1404 -2.1818
 4370TIP3   OH234668   2.607   0.617   0.382 -0.0680  0.5178  0.1345
 4370TIP3    H134669   2.683   0.651   0.427  1.0235 -0.3555 -0.9785
 4370TIP3    H234670   2.547   0.592   0.452  1.8143 -1.4070  1.1630
 4371TIP3   OH234671   4.789   5.929   2.105 -0.2062  0.3430 -0.0866
 4371TIP3    H134672   4.856   5.884   2.156  1.1079  1.0847 -1.1103
 4371TIP3    H234673   4.795   5.891   2.018 -0.9239  0.6364 -0.2737
 4372TIP3   OH234674   1.877   6.000   1.383  0.6971  0.3672 -0.2914
 4372TIP3    H134675   1.797   5.956   1.413  0.9666 -0.9653 -1.4139
 4372TIP3    H234676   1.926   6.018   1.462 -1.0084  1.8371  0.4994
 4373TIP3   OH234677   0.077   4.343   1.409 -1.0577 -0.7696 -0.0344
 4373TIP3    H134678  -0.017   4.361   1.410 -0.6385  1.7880  1.6221
 4373TIP3    H234679   0.105   4.357   1.499  0.9730 -1.1972 -0.5524
 4374TIP3   OH234680   5.151   5.360   2.754  0.6347 -0.4425  0.1301
 4374TIP3    H134681   5.193   5.303   2.818  0.8864 -0.6011 -0.1772
 4374TIP3    H234682   5.166   5.448   2.787  0.1293 -0.5505  0.6802
 4375TIP3   OH234683   1.052   6.109   1.293 -0.0273 -0.1641 -0.9124
 4375TIP3    H134684   1.129   6.064   1.329  0.6840  1.2514 -0.5797
 4375TIP3    H234685   0.987   6.105   1.363  0.2551 -0.1603 -0.6435
 4376TIP3   OH234686   6.321   1.579   0.056  0.4222 -0.1369 -0.5096
 4376TIP3    H134687   6.372   1.644   0.105 -0.9724 -0.1139  0.9873
 4376TIP3    H234688   6.281   1.629  -0.016 -0.1756  0.5619  0.2876
 4377TIP3   OH234689   5.112   4.166   7.858 -0.2713 -0.0750 -0.1366
 4377TIP3    H134690   5.060   4.227   7.805 -0.0462 -1.2303 -1.7641
 4377TIP3    H234691   5.194   4.156   7.810  0.6647  0.1613  1.3538
 4378TIP3   OH234692   3.160   6.180   7.978  0.0423  0.1743 -0.2472
 4378TIP3    H134693   3.066   6.172   7.960  0.1734 -1.2795 -0.4289
 4378TIP3    H234694   3.166   6.184   8.073 -0.1658 -0.7352 -0.1840
 4379TIP3   OH234695   6.669   3.930   1.195 -0.2035 -0.1644 -0.6406
 4379TIP3    H134696   6.730   3.865   1.231 -1.2067 -1.5216 -1.2997
 4379TIP3    H234697   6.588   3.881   1.180 -1.7450  1.7393  0.9061
 4380TIP3   OH234698   5.013   2.562   2.509 -0.1231 -0.9158 -0.0349
 4380TIP3    H134699   5.088   2.621   2.496 -0.4627 -0.5460 -0.3433
 4380TIP3    H234700   5.013   2.507   2.431  0.2552 -1.3972  0.3008
 4381TIP3   OH234701   4.015   6.130   2.556 -0.0856 -0.4191 -0.0798
 4381TIP3    H134702   3.985   6.158   2.643 -0.1632 -1.4501  0.2482
 4381TIP3    H234703   4.070   6.202   2.525 -2.5787  1.4054 -0.5676
 4382TIP3   OH234704   2.657   0.069   1.672 -0.3866  0.4555  0.3154
 4382TIP3    H134705   2.614   0.047   1.589 -0.1843  0.3471  0.2379
 4382TIP3    H234706   2.682  -0.015   1.709  0.4171  0.5432  0.0057
 4383TIP3   OH234707   5.563   5.175   2.083 -0.0275 -0.3713 -0.0261
 4383TIP3    H134708   5.534   5.244   2.141  0.6574 -0.0604 -0.0475
 4383TIP3    H234709   5.658   5.182   2.082 -0.0404 -0.0735 -1.5348
 4384TIP3   OH234710   0.483   3.992   2.208 -0.0903  0.4148 -0.1034
 4384TIP3    H134711   0.458   3.919   2.264  0.1940  0.0196 -0.4802
 4384TIP3    H234712   0.547   4.042   2.259  0.5895 -0.2555 -0.2821
 4385TIP3   OH234713   6.293   1.583   1.270 -0.0201  0.1150 -0.5204
 4385TIP3    H134714   6.285   1.658   1.329 -0.6134 -0.5308  0.2334
 4385TIP3    H234715   6.263   1.617   1.185 -0.7533  0.5954 -0.0778
 4386TIP3   OH234716   1.435   1.928   8.788  1.0565 -0.1855  0.1617
 4386TIP3    H134717   1.355   1.920   8.737 -0.3941  0.4689  2.2227
 4386TIP3    H234718   1.484   1.998   8.744  0.9794 -1.1869 -1.6401
 4387TIP3   OH234719   5.523   2.993   8.702  0.0646  0.4542  0.2181
 4387TIP3    H134720   5.558   3.065   8.651  0.7853 -0.8451 -1.2148
 4387TIP3    H234721   5.428   3.000   8.691  0.1250  1.2206  0.1511
 4388TIP3   OH234722   1.480   3.906   0.324 -0.6211 -0.2128  0.1608
 4388TIP3    H134723   1.463   3.948   0.239 -0.7031 -0.5689  0.0017
 4388TIP3    H234724   1.536   3.832   0.304  0.9056  0.7561  0.6405
 4389TIP3   OH234725   4.558   4.657   1.102  0.1432 -0.2688 -0.4227
 4389TIP3    H134726   4.540   4.646   1.195 -0.8797  0.7441 -0.4738
 4389TIP3    H234727   4.487   4.712   1.070  1.5013  1.0332 -1.3879
 4390TIP3   OH234728   2.288   4.216   6.732 -0.3207 -0.3817  0.2497
 4390TIP3    H134729   2.290   4.223   6.827  1.1439  0.8954  0.1539
 4390TIP3    H234730   2.379   4.225   6.705 -0.8559  0.6727 -1.3646
 4391TIP3   OH234731   4.704   3.194   0.569 -0.1339 -0.3588  0.7222
 4391TIP3    H134732   4.656   3.115   0.595  0.6499 -0.7328  1.0847
 4391TIP3    H234733   4.756   3.167   0.494 -0.9651  0.2227 -0.0881
 4392TIP3   OH234734   3.555   6.506   2.829 -0.8186 -0.0961 -0.5186
 4392TIP3    H134735   3.565   6.582   2.886 -0.6755 -0.6808  0.2577
 4392TIP3    H234736   3.595   6.434   2.878  0.0889 -0.4507 -1.7297
 4393TIP3   OH234737   6.087   3.013   2.121  0.2403 -0.5513 -0.3139
 4393TIP3    H134738   6.011   3.070   2.113  0.4370 -0.3980 -1.1934
 4393TIP3    H234739   6.150   3.063   2.173 -0.3974 -0.8417  0.7683
 4394TIP3   OH234740   3.772   2.665   2.084  0.1997  0.2466  0.1606
 4394TIP3    H134741   3.680   2.653   2.060  0.1264 -0.2990  0.6803
 4394TIP3    H234742   3.788   2.597   2.149  1.4014 -0.6337 -1.0144
 4395TIP3   OH234743   6.203   5.530   1.890 -0.3009 -0.1296  0.1861
 4395TIP3    H134744   6.200   5.619   1.855 -0.8782  0.1850  1.0164
 4395TIP3    H234745   6.282   5.492   1.851 -0.0708  0.7247 -0.2084
 4396TIP3   OH234746   5.125   1.463   8.577  0.2567  0.2250 -0.0230
 4396TIP3    H134747   5.062   1.499   8.638  0.5684  2.2315 -0.7945
 4396TIP3    H234748   5.098   1.496   8.491  2.5247  1.5273 -0.3279
 4397TIP3   OH234749   2.854   5.788   2.045  0.0988 -0.3221 -0.4502
 4397TIP3    H134750   2.871   5.872   2.089  0.4999 -0.6172 -0.0332
 4397TIP3    H234751   2.803   5.738   2.109  1.6922 -1.2045  0.1884
 4398TIP3   OH234752   3.697   0.675   1.360 -0.0355  0.1020  0.1432
 4398TIP3    H134753   3.716   0.690   1.452 -0.6635 -0.4388  0.3692
 4398TIP3    H234754   3.631   0.606   1.360  0.6243 -0.5474 -0.7485
 4399TIP3   OH234755   2.731   5.808   2.889 -0.6637 -0.1562  0.4167
 4399TIP3    H134756   2.643   5.785   2.919 -0.2050 -1.4958  0.8328
 4399TIP3    H234757   2.772   5.851   2.965 -0.4380 -1.0105  0.7965
 4400TIP3   OH234758   6.107   6.292   0.437  0.1874  0.0181 -0.0590
 4400TIP3    H134759   6.176   6.349   0.471  1.5159 -0.7491 -1.3454
 4400TIP3    H234760   6.151   6.208   0.422 -1.3095 -0.8439  0.1365
 4401TIP3   OH234761   6.555   4.574   1.907  0.4438  0.0523  0.2006
 4401TIP3    H134762   6.578   4.495   1.957 -0.0543  0.3809  0.9683
 4401TIP3    H234763   6.590   4.557   1.820  1.9098 -0.2724  0.8107
 4402TIP3   OH234764   5.638   6.774   8.138 -0.2365  1.0871  0.7501
 4402TIP3    H134765   5.686   6.832   8.197 -0.1780  0.9373  0.8499
 4402TIP3    H234766   5.547   6.782   8.165 -0.2333  1.1629  0.7373
 4403TIP3   OH234767   0.922   4.722   1.052 -0.2154  0.0089 -0.3393
 4403TIP3    H134768   0.953   4.783   1.119 -0.4932 -0.7145  0.4634
 4403TIP3    H234769   0.831   4.749   1.036 -1.6991 -2.4971  2.8615
 4404TIP3   OH234770   5.955   1.450   0.767 -0.1384  0.0348 -0.2716
 4404TIP3    H134771   5.890   1.454   0.697  0.7255  2.2196 -1.0487
 4404TIP3    H234772   5.989   1.361   0.763 -0.5987 -0.1105 -2.2038
 4405TIP3   OH234773   3.458   3.369   8.391  0.1013  0.9521 -0.3666
 4405TIP3    H134774   3.546   3.390   8.360  0.3300  1.4972  0.6000
 4405TIP3    H234775   3.469   3.346   8.483 -0.9203  2.3744  0.1558
 4406TIP3   OH234776   3.084   5.379   2.141 -0.7963  0.0190  0.5030
 4406TIP3    H134777   3.120   5.293   2.162 -1.4576 -0.8857 -1.7559
 4406TIP3    H234778   3.155   5.440   2.160  0.6190 -1.3169 -0.2317
 4407TIP3   OH234779   6.057   4.538   2.241 -0.0271 -0.4619 -0.5073
 4407TIP3    H134780   6.104   4.572   2.316  1.2019 -0.6822 -1.1552
 4407TIP3    H234781   5.966   4.565   2.255  0.3962  0.5068  0.4593
 4408TIP3   OH234782   2.592   3.594   8.255 -0.4386 -0.4244 -0.4685
 4408TIP3    H134783   2.565   3.685   8.239  1.9671  0.2525 -1.0546
 4408TIP3    H234784   2.601   3.556   8.167 -1.6290 -1.3292 -0.2246
 4409TIP3   OH234785   5.336   5.038   8.174 -0.5188  0.5796 -0.0448
 4409TIP3    H134786   5.313   4.952   8.208  0.5140 -0.3303 -1.5162
 4409TIP3    H234787   5.430   5.033   8.158 -0.5441  1.7752 -0.6867
 4410TIP3   OH234788   3.871   5.198   1.687 -1.0599 -0.2614  0.3134
 4410TIP3    H134789   3.809   5.181   1.616 -0.7204 -1.7320  0.3302
 4410TIP3    H234790   3.861   5.124   1.746  1.0976 -0.8868  0.0154
 4411TIP3   OH234791   4.342   3.941   1.837  0.2457 -0.1924  0.1743
 4411TIP3    H134792   4.402   3.900   1.900  1.0113  1.7351  0.7956
 4411TIP3    H234793   4.379   3.919   1.751 -0.7683 -2.7915  0.3144
 4412TIP3   OH234794   5.146   2.128   2.019 -0.7710 -0.3506  0.0541
 4412TIP3    H134795   5.138   2.125   2.114 -0.7789 -0.2378  0.0571
 4412TIP3    H234796   5.059   2.154   1.988 -1.0565 -1.3537 -0.0401
 4413TIP3   OH234797   4.359   4.707   2.826 -0.4076 -0.0136 -0.1794
 4413TIP3    H134798   4.435   4.705   2.767  0.8153  1.7772  1.2032
 4413TIP3    H234799   4.288   4.744   2.774  0.9668  2.6843 -0.2922
 4414TIP3   OH234800   6.150   0.305   3.298  0.0740 -0.2338  0.6169
 4414TIP3    H134801   6.223   0.357   3.330 -0.2000  0.7719 -0.3497
 4414TIP3    H234802   6.074   0.362   3.306 -0.0675 -0.0654 -1.4206
 4415TIP3   OH234803   0.518   4.135   2.921  0.4449 -0.4762  0.0814
 4415TIP3    H134804   0.462   4.157   2.995 -0.5993 -1.2053 -0.4744
 4415TIP3    H234805   0.597   4.097   2.961  0.3027  0.0137  0.8429
 4416TIP3   OH234806   1.608   4.701   1.518 -0.1985 -0.4225  0.7504
 4416TIP3    H134807   1.613   4.624   1.461 -0.5166  0.2674 -0.2261
 4416TIP3    H234808   1.622   4.666   1.606 -1.4203 -1.7585  0.4546
 4417TIP3   OH234809   4.638   1.685   2.142 -0.2625 -0.4807 -0.1686
 4417TIP3    H134810   4.590   1.763   2.115  0.0014  0.9744  3.1132
 4417TIP3    H234811   4.730   1.707   2.127 -0.1690  0.0092  1.0175
 4418TIP3   OH234812   4.908   0.099   2.657  0.3741 -0.1390 -0.2373
 4418TIP3    H134813   4.855   0.100   2.577  1.1139 -1.1556 -0.7781
 4418TIP3    H234814   4.848   0.069   2.725  0.1247 -0.8064 -0.7379
 4419TIP3   OH234815   1.555   2.043   0.433  0.4146 -0.0708 -0.2070
 4419TIP3    H134816   1.503   1.977   0.387  1.9122 -0.5275 -1.3397
 4419TIP3    H234817   1.537   2.125   0.388  1.1460 -0.3486 -1.0349
 4420TIP3   OH234818   6.503   3.031   8.591  0.6842  0.2457  0.8665
 4420TIP3    H134819   6.571   3.084   8.632  0.1869  0.7081  1.1020
 4420TIP3    H234820   6.458   2.989   8.663  0.0029  0.8229  0.7867
 4421TIP3   OH234821   0.629   5.917   2.804 -0.0072 -0.0718  0.1093
 4421TIP3    H134822   0.556   5.855   2.801  0.9757 -1.2667  0.3051
 4421TIP3    H234823   0.682   5.896   2.727  0.5282  0.2762  0.3763
 4422TIP3   OH234824   3.818   5.213   0.349  0.0530  0.1002 -0.0829
 4422TIP3    H134825   3.808   5.179   0.260 -1.6912  1.2785 -0.3761
 4422TIP3    H234826   3.896   5.169   0.382  0.8738 -0.2031 -2.2594
 4423TIP3   OH234827   5.390   6.177   7.372  0.6190 -0.3543 -0.1782
 4423TIP3    H134828   5.419   6.233   7.443 -0.0021  1.1799 -1.0824
 4423TIP3    H234829   5.396   6.232   7.294  1.1978 -1.9526 -1.3116
 4424TIP3   OH234830   1.199   1.328   0.557 -0.2121  0.4187 -0.0281
 4424TIP3    H134831   1.283   1.315   0.514  0.3217 -1.6040  1.4780
 4424TIP3    H234832   1.135   1.328   0.486  0.8915  0.2120 -1.0562
 4425TIP3   OH234833   6.112   5.417   8.448  0.1459 -0.2003 -0.0361
 4425TIP3    H134834   6.048   5.347   8.435  0.8040 -0.8496  0.1886
 4425TIP3    H234835   6.177   5.404   8.379  1.2947 -0.9936  1.1506
 4426TIP3   OH234836   6.735   4.318   0.188 -0.2301  0.0554 -0.1442
 4426TIP3    H134837   6.786   4.332   0.268  0.5634  0.1587 -0.6541
 4426TIP3    H234838   6.765   4.387   0.129  0.0189 -0.7038 -0.9248
 4427TIP3   OH234839   3.770   1.508   0.009 -0.1421  0.3171 -0.0281
 4427TIP3    H134840   3.816   1.571  -0.046  0.0967  1.0799  1.0070
 4427TIP3    H234841   3.748   1.557   0.089 -1.2517 -0.5021  0.2041
 4428TIP3   OH234842   3.422   0.936   1.850  0.2584 -0.3066  0.1790
 4428TIP3    H134843   3.432   0.846   1.818  3.4299  0.2074 -0.6299
 4428TIP3    H234844   3.474   0.938   1.930 -0.1418  0.7146  0.4158
 4429TIP3   OH234845   3.881   2.786   0.403 -0.0574 -0.2997  0.5813
 4429TIP3    H134846   3.795   2.765   0.366 -1.0237  4.6682 -0.8638
 4429TIP3    H234847   3.942   2.773   0.330 -0.1442 -0.5977  0.5607
 4430TIP3   OH234848   0.920   5.034   7.911  0.4438  0.2325  0.1963
 4430TIP3    H134849   0.831   5.018   7.880  0.0629  1.3948  0.6275
 4430TIP3    H234850   0.948   4.950   7.949 -0.7791  0.0699  0.7783
 4431TIP3   OH234851   3.965   0.885   2.355 -0.0841 -0.0512 -0.6217
 4431TIP3    H134852   3.962   0.858   2.447  0.2696  0.3203 -0.5001
 4431TIP3    H234853   3.886   0.847   2.317 -0.2218 -0.2268 -0.1684
 4432TIP3   OH234854   4.420   0.249   0.551 -0.1869 -0.1518 -0.8517
 4432TIP3    H134855   4.402   0.254   0.644 -0.4718  0.9373 -0.9551
 4432TIP3    H234856   4.397   0.159   0.527 -1.6231  0.0120 -0.1781
 4433TIP3   OH234857   4.031   6.332   0.964  0.4610 -0.1844 -0.9407
 4433TIP3    H134858   3.991   6.346   0.878  0.3259  0.6660 -0.7439
 4433TIP3    H234859   4.015   6.239   0.982 -0.8878 -0.0232 -1.1460
 4434TIP3   OH234860   2.335   2.958   8.175  0.0687  0.7561 -0.4687
 4434TIP3    H134861   2.418   3.003   8.156  0.5319  0.4299  0.6917
 4434TIP3    H234862   2.360   2.884   8.231 -0.7925 -0.4303 -1.6021
 4435TIP3   OH234863   4.744   6.148   2.255 -0.1268 -0.2339 -0.1876
 4435TIP3    H134864   4.738   6.062   2.214  2.0946 -0.3805 -0.2969
 4435TIP3    H234865   4.731   6.210   2.183  2.1597 -0.5022 -0.9040
 4436TIP3   OH234866   3.046   4.825   2.124  1.2074  0.0073  0.1256
 4436TIP3    H134867   3.019   4.876   2.048 -0.6186  2.5529  2.2968
 4436TIP3    H234868   3.142   4.832   2.125  1.0767  2.8703 -0.1037
 4437TIP3   OH234869   3.837   2.065   1.311 -0.3242  0.1555  0.1809
 4437TIP3    H134870   3.748   2.057   1.345 -0.6813  3.4167  0.3234
 4437TIP3    H234871   3.827   2.051   1.216 -1.0309  0.6922  0.1682
 4438TIP3   OH234872   5.524   1.896   2.742 -0.5201  0.5582 -0.6327
 4438TIP3    H134873   5.581   1.878   2.668 -0.8953  1.3733 -1.1329
 4438TIP3    H234874   5.580   1.942   2.805 -0.1887 -0.1793 -0.3748
 4439TIP3   OH234875   3.733   2.342   1.878 -0.1983  0.6481 -0.7946
 4439TIP3    H134876   3.747   2.305   1.965 -2.9667  0.0950 -0.4945
 4439TIP3    H234877   3.781   2.424   1.878 -0.1672  0.6674  1.2827
 4440TIP3   OH234878   1.858   4.738   1.834 -0.8585 -0.0407  0.2441
 4440TIP3    H134879   1.764   4.730   1.816 -1.1481  1.6859  0.8191
 4440TIP3    H234880   1.898   4.671   1.779 -2.4299 -0.9443  0.1209
 4441TIP3   OH234881   4.557   2.606   2.566  0.5960  0.2677 -0.1149
 4441TIP3    H134882   4.510   2.528   2.537  2.3870 -1.3169  1.0057
 4441TIP3    H234883   4.508   2.637   2.642 -0.2001  0.3207 -0.6451
 4442TIP3   OH234884   2.164   4.903   1.183 -0.2668 -0.0476  0.1339
 4442TIP3    H134885   2.212   4.868   1.259 -0.9470 -1.2761  0.0192
 4442TIP3    H234886   2.100   4.836   1.162 -0.7935  0.7472 -0.8926
 4443TIP3   OH234887   5.416   5.750   2.577  0.1640  0.5304 -0.1061
 4443TIP3    H134888   5.495   5.733   2.525 -0.5634  0.8774 -1.3923
 4443TIP3    H234889   5.448   5.762   2.666  1.3701 -1.0393 -0.2863
 4444TIP3   OH234890   5.774   2.048   1.053  0.3846 -0.0419  0.3358
 4444TIP3    H134891   5.840   2.093   1.002  0.5951 -1.5476 -0.8017
 4444TIP3    H234892   5.695   2.051   0.999  0.1052 -0.0711  0.7352
 4445TIP3   OH234893   3.783   6.608   2.209  0.2709  0.1404  0.2393
 4445TIP3    H134894   3.734   6.689   2.224 -2.4369 -1.3400  0.0200
 4445TIP3    H234895   3.770   6.588   2.116  0.0325 -1.0269  0.5019
 4446TIP3   OH234896   2.008   0.070   1.486 -0.1065 -0.5339 -0.0725
 4446TIP3    H134897   2.048  -0.015   1.504 -1.2139 -0.6731  2.0914
 4446TIP3    H234898   2.072   0.134   1.518 -0.2650 -0.6477  0.4803
 4447TIP3   OH234899   6.036   1.887   8.298  0.2545 -0.1216  0.4546
 4447TIP3    H134900   6.090   1.929   8.365  1.7928  0.3115 -0.9870
 4447TIP3    H234901   5.952   1.932   8.303  0.4630  0.1718  1.7998
 4448TIP3   OH234902   6.321   5.237   2.079  0.0952 -0.8944 -0.1256
 4448TIP3    H134903   6.361   5.323   2.068 -0.6876 -0.6460 -1.2318
 4448TIP3    H234904   6.388   5.184   2.122  1.1304 -0.1496 -0.7707
 4449TIP3   OH234905   5.455   0.440   0.964  0.1938  0.1043 -0.2254
 4449TIP3    H134906   5.526   0.482   1.013  0.2311 -0.1678 -0.0379
 4449TIP3    H234907   5.441   0.496   0.888  1.9125 -0.8200 -1.2922
 4450TIP3   OH234908   1.279   0.854   0.935  0.2150 -0.0412  0.1222
 4450TIP3    H134909   1.364   0.861   0.977 -1.2478  1.5921  3.1107
 4450TIP3    H234910   1.266   0.939   0.892  0.2142 -0.3914 -0.5772
 4451TIP3   OH234911   2.103   2.371   8.020 -0.0535  0.2423  0.0367
 4451TIP3    H134912   2.088   2.394   8.112  0.8941  0.4266  0.1545
 4451TIP3    H234913   2.058   2.287   8.009 -2.9175  1.6702 -0.1978
 4452TIP3   OH234914   5.893   0.583   8.547 -0.0349  0.1821 -0.7104
 4452TIP3    H134915   5.960   0.537   8.597 -0.1801 -3.3392 -3.3803
 4452TIP3    H234916   5.941   0.622   8.473 -0.4615  1.1086 -0.5177
 4453TIP3   OH234917   3.989   5.470   2.517 -0.2762 -0.0490 -0.1950
 4453TIP3    H134918   3.936   5.539   2.477  0.0282  0.9508  1.0592
 4453TIP3    H234919   3.958   5.467   2.608  0.0562 -1.2385 -0.1141
 4454TIP3   OH234920   1.696   4.524   7.166 -0.2413 -0.3426  0.5609
 4454TIP3    H134921   1.718   4.572   7.086  1.2134  2.9366  2.6911
 4454TIP3    H234922   1.757   4.450   7.167  0.6107  0.2885 -0.7401
 4455TIP3   OH234923   5.982   1.543   1.674  0.4527  0.2425 -0.1306
 4455TIP3    H134924   5.954   1.509   1.760  1.1796 -1.6757 -0.5946
 4455TIP3    H234925   5.960   1.472   1.613 -1.3545  2.1083 -1.8147
 4456TIP3   OH234926   5.524   3.752   0.948  0.1516  0.5112  0.0845
 4456TIP3    H134927   5.557   3.778   1.034 -0.4126  1.4298  0.0397
 4456TIP3    H234928   5.591   3.782   0.886  1.9586 -2.5956  0.3142
 4457TIP3   OH234929   1.762   6.475   7.616 -0.3486 -0.2003 -0.0496
 4457TIP3    H134930   1.692   6.526   7.656 -0.1232  0.6629 -0.7183
 4457TIP3    H234931   1.831   6.539   7.597  0.5566 -0.9973  0.4302
 4458TIP3   OH234932   5.184   5.077   1.842 -0.0472  0.4293 -0.4011
 4458TIP3    H134933   5.278   5.060   1.836 -0.0108  0.6156 -0.3779
 4458TIP3    H234934   5.162   5.120   1.760 -0.0709  0.5715 -0.3219
 4459TIP3   OH234935   2.798   5.554   7.542 -0.5333 -0.0490  0.2640
 4459TIP3    H134936   2.882   5.582   7.505  0.4001 -0.3481  2.0451
 4459TIP3    H234937   2.789   5.463   7.515 -1.0865  0.4255 -1.2522
 4460TIP3   OH234938   6.448   1.564   2.144  0.1252  0.3221 -0.4429
 4460TIP3    H134939   6.389   1.495   2.111  0.0422 -0.4074  1.1165
 4460TIP3    H234940   6.529   1.552   2.095 -0.3071 -0.0807 -1.0747
 4461TIP3   OH234941   0.106   3.476   0.465 -0.3177  0.4619  0.1791
 4461TIP3    H134942   0.045   3.403   0.477 -0.3159  0.4791  0.2861
 4461TIP3    H234943   0.123   3.477   0.370  1.1721 -0.8816  0.3892
 4462TIP3   OH234944   2.940   2.170   8.216  0.0765  0.0709  0.6977
 4462TIP3    H134945   2.948   2.096   8.156 -0.6733  0.8270 -0.3661
 4462TIP3    H234946   2.953   2.132   8.303  0.7157 -1.1221  0.0953
 4463TIP3   OH234947   3.497   1.127   0.437  0.6896 -0.7721 -0.0079
 4463TIP3    H134948   3.437   1.061   0.404 -0.4536  1.3860 -2.6446
 4463TIP3    H234949   3.441   1.191   0.482  1.1280  0.6133 -1.3668
 4464TIP3   OH234950   5.879   4.666   8.186  0.1970 -0.4624 -0.3412
 4464TIP3    H134951   5.792   4.700   8.207  0.3878  0.1632 -0.5093
 4464TIP3    H234952   5.862   4.589   8.132 -0.2730  0.5550 -1.7369
 4465TIP3   OH234953   6.711   0.091   0.722 -0.4202  0.6315  0.1734
 4465TIP3    H134954   6.631   0.093   0.775  0.2516 -2.2186  1.5201
 4465TIP3    H234955   6.713   0.002   0.685  1.2946  1.1784 -1.2013
 4466TIP3   OH234956   1.285   0.353   8.694  0.2845 -0.1594 -0.4570
 4466TIP3    H134957   1.335   0.433   8.678  0.7513 -0.1221  1.0315
 4466TIP3    H234958   1.208   0.361   8.637  1.0468  0.6510 -1.4074
 4467TIP3   OH234959   4.506   2.741   8.773 -0.2512 -0.7950  0.1746
 4467TIP3    H134960   4.534   2.657   8.736  1.4103 -0.2080  0.0030
 4467TIP3    H234961   4.578   2.801   8.752 -1.4619  0.7113  0.1816
 4468TIP3   OH234962   6.500   4.618   0.151  0.0738 -0.2703  0.4151
 4468TIP3    H134963   6.487   4.556   0.078  0.8682  0.9291 -0.8024
 4468TIP3    H234964   6.414   4.658   0.164  0.1638  0.3186 -0.6615
 4469TIP3   OH234965   0.445   3.226   0.198 -0.2515  0.1161 -0.2272
 4469TIP3    H134966   0.451   3.305   0.145 -1.5204  0.3231 -0.1022
 4469TIP3    H234967   0.362   3.186   0.171 -0.8775  0.1671  1.5039
 4470TIP3   OH234968   2.885   5.397   0.006 -0.4177  0.0380  0.1212
 4470TIP3    H134969   2.850   5.486   0.001  0.9887  0.5909 -0.1519
 4470TIP3    H234970   2.942   5.389  -0.070  0.4394 -0.6654  0.8116
 4471TIP3   OH234971   6.258   6.529   2.350  0.7394 -0.1839  0.2503
 4471TIP3    H134972   6.217   6.442   2.352 -0.3812  0.3075 -0.2606
 4471TIP3    H234973   6.299   6.538   2.436  1.6091 -1.5450  0.0060
 4472TIP3   OH234974   6.555   5.325   1.286  0.0640  0.2650  0.0448
 4472TIP3    H134975   6.640   5.353   1.252  1.0258 -0.3050  1.8161
 4472TIP3    H234976   6.498   5.401   1.275  0.9662  0.8491 -0.6708
 4473TIP3   OH234977   4.613   0.551   1.818 -0.0911 -0.4607  0.6775
 4473TIP3    H134978   4.645   0.566   1.728  1.7216 -0.7093  1.2393
 4473TIP3    H234979   4.568   0.467   1.813 -1.3389  0.2130 -0.2893
 4474TIP3   OH234980   4.894   5.085   8.305 -0.5740  0.1650  0.3307
 4474TIP3    H134981   4.956   5.069   8.376  2.1146 -0.6454 -2.0133
 4474TIP3    H234982   4.897   5.180   8.292  3.6283 -0.0739 -2.3455
 4475TIP3   OH234983   0.386   6.587   2.792  0.9914  0.0163  0.2792
 4475TIP3    H134984   0.395   6.561   2.700  1.8613 -1.7278  0.8116
 4475TIP3    H234985   0.452   6.655   2.804  0.6939  0.4420 -0.4480
 4476TIP3   OH234986   3.658   2.629   0.315  0.5510 -0.3030  0.4185
 4476TIP3    H134987   3.673   2.545   0.357  0.4501 -0.0262  1.0326
 4476TIP3    H234988   3.585   2.668   0.365  0.3448 -0.0145 -0.0929
 4477TIP3   OH234989   2.099   5.522   8.202 -0.3097 -0.3953 -0.0850
 4477TIP3    H134990   2.032   5.538   8.269 -0.3015 -2.5151  0.5167
 4477TIP3    H234991   2.098   5.427   8.191  3.4339 -0.6900  0.8584
 4478TIP3   OH234992   4.664   4.121   1.494  0.3244  0.1945  0.5010
 4478TIP3    H134993   4.585   4.081   1.530 -0.3506  1.1292  0.1125
 4478TIP3    H234994   4.736   4.082   1.544 -0.2631 -1.6789 -0.0649
 4479TIP3   OH234995   0.797   0.672   6.992  0.3742 -0.5356 -0.5358
 4479TIP3    H134996   0.824   0.592   6.946  1.0555  0.4190 -1.8409
 4479TIP3    H234997   0.835   0.743   6.942 -1.8981  0.7390 -0.5862
 4480TIP3   OH234998   6.724   4.998   0.564  0.2089  0.3133  0.4305
 4480TIP3    H134999   6.677   5.078   0.586  0.0314  0.4421 -0.3743
 4480TIP3    H235000   6.794   5.027   0.505 -0.1893 -0.1805 -0.3101
 4481TIP3   OH235001   4.704   1.315   1.022 -0.3561 -0.5241 -0.5221
 4481TIP3    H135002   4.708   1.292   1.115  1.0621 -1.0455 -0.6958
 4481TIP3    H235003   4.684   1.408   1.021 -0.4494 -0.5299  0.3069
 4482TIP3   OH235004   1.376   6.798   2.158  0.3243 -0.3537 -0.1054
 4482TIP3    H135005   1.401   6.708   2.136  1.6439  0.0977 -0.5824
 4482TIP3    H235006   1.309   6.820   2.094 -0.1564 -1.0604  0.1419
 4483TIP3   OH235007   5.414   5.025   3.486  0.0307  0.1212  0.7265
 4483TIP3    H135008   5.336   5.077   3.502 -0.6292 -0.8182  0.6807
 4483TIP3    H235009   5.420   5.019   3.390  0.2473  0.3263  0.7279
 4484TIP3   OH235010   1.860   1.903   1.769 -0.0539 -0.7073  0.1646
 4484TIP3    H135011   1.849   1.929   1.860  0.4226  0.5528 -0.1218
 4484TIP3    H235012   1.836   1.810   1.768 -2.6490 -0.1349  1.0846
 4485TIP3   OH235013   3.184   4.380   2.347  0.5156 -0.1320 -0.5601
 4485TIP3    H135014   3.145   4.403   2.262  1.0577 -0.5584 -0.9330
 4485TIP3    H235015   3.242   4.454   2.368 -1.0339  0.8804  0.3751
 4486TIP3   OH235016   0.124   2.909   0.265 -0.3334  0.3306 -0.5300
 4486TIP3    H135017   0.187   2.837   0.273  0.7949  1.2319 -1.1183
 4486TIP3    H235018   0.039   2.865   0.264  0.2911 -0.9469 -0.1966
 4487TIP3   OH235019   0.203   2.968   2.030 -0.1838 -0.5301 -0.2248
 4487TIP3    H135020   0.214   3.060   2.006  1.6573 -0.9353 -1.1582
 4487TIP3    H235021   0.287   2.928   2.008 -0.8623 -2.3979  0.3950
 4488TIP3   OH235022   2.450   0.272   8.599  0.0905 -0.0927  0.6170
 4488TIP3    H135023   2.386   0.342   8.607 -0.3895 -0.5090  0.4656
 4488TIP3    H235024   2.533   0.312   8.624 -0.4055  0.1764  1.9091
 4489TIP3   OH235025   2.795   5.584   1.334 -0.0166  0.1913  0.4204
 4489TIP3    H135026   2.858   5.516   1.309  1.3381  1.0056  1.4669
 4489TIP3    H235027   2.744   5.600   1.255  1.1167 -0.4735 -0.4800
 4490TIP3   OH235028   6.739   1.528   2.078 -0.0624  0.1505  0.9357
 4490TIP3    H135029   6.783   1.468   2.018 -1.5667  0.7244 -0.8210
 4490TIP3    H235030   6.809   1.561   2.134  0.8371 -3.3826  2.2181
 4491TIP3   OH235031   4.796   3.904   2.221 -0.0730 -0.5560  0.6010
 4491TIP3    H135032   4.773   3.814   2.246  0.3300 -0.3250  1.8310
 4491TIP3    H235033   4.880   3.896   2.177 -0.8441 -0.9791 -0.8591
 4492TIP3   OH235034   1.898   5.155   8.745  0.3313  0.2206 -0.1514
 4492TIP3    H135035   1.925   5.067   8.774 -2.3905 -0.0914  1.8427
 4492TIP3    H235036   1.951   5.171   8.667 -0.5624 -4.1605 -1.9994
 4493TIP3   OH235037   4.468   6.613   8.747  0.4460  0.2544 -0.1384
 4493TIP3    H135038   4.445   6.539   8.691 -1.9282  1.0486 -0.3228
 4493TIP3    H235039   4.499   6.680   8.686  1.6462 -0.2237 -0.0714
 4494TIP3   OH235040   1.022   6.495   8.589 -0.2640  0.2670  0.6486
 4494TIP3    H135041   0.984   6.582   8.584  1.4436  1.2232  2.5232
 4494TIP3    H235042   1.088   6.493   8.519 -1.9520 -0.4937 -0.9983
 4495TIP3   OH235043   3.757   0.818   7.342 -0.2050 -0.4353  0.1760
 4495TIP3    H135044   3.759   0.876   7.266  1.2969  0.0857  0.5673
 4495TIP3    H235045   3.848   0.791   7.354 -0.4687 -0.8280  1.5425
 4496TIP3   OH235046   0.899   2.271   7.958  0.2014  0.0158 -0.0488
 4496TIP3    H135047   0.934   2.190   7.923  0.6630  0.1588  0.0813
 4496TIP3    H235048   0.847   2.308   7.886  2.6089  1.2309 -1.2737
 4497TIP3   OH235049   3.927   2.272   1.116  0.4156 -0.2740  0.0963
 4497TIP3    H135050   3.834   2.296   1.115  0.2295 -1.0050 -0.5168
 4497TIP3    H235051   3.971   2.351   1.148 -0.3359  0.3597 -0.3870
 4498TIP3   OH235052   6.131   4.686   8.664 -0.3048  0.6381 -0.3858
 4498TIP3    H135053   6.087   4.702   8.580 -1.5259  0.0938  0.1235
 4498TIP3    H235054   6.222   4.669   8.640 -1.0173 -1.6049 -1.8418
 4499TIP3   OH235055   2.323   5.656   7.830  0.6318 -0.4123 -0.7618
 4499TIP3    H135056   2.325   5.697   7.917 -0.8795 -1.0397 -0.4063
 4499TIP3    H235057   2.410   5.674   7.793  0.9669  0.6749  0.4959
 4500TIP3   OH235058   3.214   2.231   0.191  0.0992 -0.3112 -0.1610
 4500TIP3    H135059   3.218   2.294   0.120  0.8409  0.6196  0.6708
 4500TIP3    H235060   3.169   2.155   0.154 -0.9311  0.7403 -1.1482
 4501TIP3   OH235061   0.002   2.445   0.742 -0.1988  0.0775 -1.3352
 4501TIP3    H135062   0.029   2.406   0.659 -0.1608  0.7564 -1.6501
 4501TIP3    H235063  -0.029   2.533   0.719 -1.0912 -0.0657 -0.7589
 4502TIP3   OH235064   2.121   4.367   8.733  0.0351  0.4918 -0.1636
 4502TIP3    H135065   2.090   4.408   8.652  0.8968  1.3028 -0.1010
 4502TIP3    H235066   2.048   4.312   8.761 -0.6637  0.9855 -0.9472
 4503TIP3   OH235067   5.029   0.469   1.760  0.0500  0.3573 -0.1277
 4503TIP3    H135068   4.989   0.522   1.690  1.6416  2.4367  0.4361
 4503TIP3    H235069   4.984   0.497   1.840 -0.1524 -0.2975 -0.0050
 4504TIP3   OH235070   0.424   4.338   0.225  0.3438 -0.5668 -0.3220
 4504TIP3    H135071   0.381   4.292   0.153  0.3189 -1.1632  0.0660
 4504TIP3    H235072   0.352   4.367   0.281  0.2625  1.2412 -1.3031
 4505TIP3   OH235073   1.663   4.147   0.394  0.2684  0.1994  0.1593
 4505TIP3    H135074   1.583   4.170   0.442  0.5853  0.4068  0.5962
 4505TIP3    H235075   1.638   4.154   0.302 -0.3614 -0.2418  0.2909
 4506TIP3   OH235076   5.191   5.979   1.862  0.0845  0.1798 -0.2287
 4506TIP3    H135077   5.202   6.026   1.945 -0.2841 -0.7294  0.3480
 4506TIP3    H235078   5.280   5.957   1.835  0.1376 -0.6399  0.5875
 4507TIP3   OH235079   1.635   6.334   2.183  0.2325 -0.1494 -0.5219
 4507TIP3    H135080   1.603   6.308   2.269 -1.2201  1.4578 -0.5254
 4507TIP3    H235081   1.647   6.429   2.188 -0.6708  0.1161 -2.2851
 4508TIP3   OH235082   3.712   6.254   0.474  0.4572  0.2173 -0.1034
 4508TIP3    H135083   3.670   6.177   0.437 -0.6196 -1.0648  3.3991
 4508TIP3    H235084   3.791   6.266   0.421 -1.6342 -0.3641 -3.6853
 4509TIP3   OH235085   5.049   2.236   1.696 -0.4952 -0.2997  0.0648
 4509TIP3    H135086   5.143   2.233   1.675 -0.5736  1.1033 -0.6023
 4509TIP3    H235087   5.005   2.233   1.612 -1.0188  0.0306  0.3237
 4510TIP3   OH235088   0.673   2.313   1.294  0.3309 -0.2015  0.7922
 4510TIP3    H135089   0.633   2.279   1.214  1.3630  0.1285  0.1218
 4510TIP3    H235090   0.625   2.270   1.365 -0.8821 -0.1639  0.0100
 4511TIP3   OH235091   1.206   5.468   0.625 -0.5384  0.4966  0.1413
 4511TIP3    H135092   1.251   5.536   0.575  0.2764  1.9789  2.7062
 4511TIP3    H235093   1.243   5.386   0.592  0.5052  1.4297 -1.1295
 4512TIP3   OH235094   5.677   3.505   1.549 -0.0546  0.3270  0.0461
 4512TIP3    H135095   5.710   3.453   1.622  0.3685 -1.4597 -1.3526
 4512TIP3    H235096   5.605   3.454   1.513 -2.1743  2.5024  0.8528
 4513TIP3   OH235097   2.052   6.070   1.867  0.2444 -0.8835  0.2514
 4513TIP3    H135098   2.124   6.125   1.898 -0.2010 -0.0052 -0.2334
 4513TIP3    H235099   2.010   6.038   1.947 -1.2565  1.8281  0.6765
 4514TIP3   OH235100   0.231   6.793   1.834 -0.4999  0.0110  0.4348
 4514TIP3    H135101   0.261   6.703   1.843 -1.3787 -0.2442  0.9365
 4514TIP3    H235102   0.265   6.821   1.749  1.6078 -0.0574  1.2069
 4515TIP3   OH235103   2.758   2.341   2.163 -0.2189  0.0432  0.1696
 4515TIP3    H135104   2.808   2.261   2.151 -0.2888  0.0819 -0.3901
 4515TIP3    H235105   2.753   2.380   2.076 -0.9417  0.2035  0.2764
 4516TIP3   OH235106   4.576   6.296   8.298  0.0706 -0.2659 -0.0787
 4516TIP3    H135107   4.612   6.383   8.282  1.4836 -0.7803  0.2312
 4516TIP3    H235108   4.488   6.300   8.259  1.0791  0.4548 -2.4959
 4517TIP3   OH235109   6.120   3.483   8.734 -0.3401  0.6522  0.1914
 4517TIP3    H135110   6.070   3.531   8.669 -0.1658  0.0756 -0.3730
 4517TIP3    H235111   6.181   3.548   8.770 -1.7227  1.4685  1.1734
 4518TIP3   OH235112   2.012   0.643   7.318 -0.0986 -0.1041 -0.0465
 4518TIP3    H135113   2.066   0.584   7.264 -1.1667 -0.3524 -0.8879
 4518TIP3    H235114   1.988   0.714   7.259  0.6241  0.8614  0.7828
 4519TIP3   OH235115   2.855   3.976   1.559 -0.0904  0.5367  0.2154
 4519TIP3    H135116   2.871   4.038   1.630  1.3221  0.5560 -0.0792
 4519TIP3    H235117   2.934   3.982   1.504 -0.3533 -0.7973 -0.3543
 4520TIP3   OH235118   0.467   6.632   0.186  0.7183  0.0198  0.1907
 4520TIP3    H135119   0.394   6.570   0.182 -0.5085  1.2931  1.4450
 4520TIP3    H235120   0.516   6.607   0.263  0.5164  0.2842  0.4077
 4521TIP3   OH235121   3.615   0.074   8.192 -0.4089 -0.3469 -1.0192
 4521TIP3    H135122   3.625  -0.021   8.191  0.7616 -0.2793  0.3768
 4521TIP3    H235123   3.653   0.103   8.109 -1.0130 -1.1013 -1.5748
 4522TIP3   OH235124   2.420   1.306   2.125 -0.1962 -0.4483 -0.2927
 4522TIP3    H135125   2.424   1.293   2.031 -2.0363 -2.5722 -0.1355
 4522TIP3    H235126   2.483   1.243   2.161  2.0335  1.7166 -0.0777
 4523TIP3   OH235127   2.493   0.231   7.676  0.3184 -0.1564  0.5335
 4523TIP3    H135128   2.513   0.215   7.769  2.3675  2.3399  0.6311
 4523TIP3    H235129   2.577   0.257   7.638 -0.6443 -0.3647 -1.8673
 4524TIP3   OH235130   1.176   3.593   1.110 -0.4299  0.1686  0.3980
 4524TIP3    H135131   1.166   3.582   1.204  1.7371  0.5982  0.7248
 4524TIP3    H235132   1.149   3.684   1.093  0.9537  0.7077  0.9400
 4525TIP3   OH235133   1.909   2.187   2.254  0.4618 -0.1776 -0.7286
 4525TIP3    H135134   1.945   2.231   2.331 -0.9206 -2.2746  1.2716
 4525TIP3    H235135   1.876   2.258   2.199 -0.4519  1.3831  1.6636
 4526TIP3   OH235136   0.683   0.769   8.004  0.1364  0.3031 -0.0492
 4526TIP3    H135137   0.691   0.700   7.938  2.4905 -0.0724  0.5315
 4526TIP3    H235138   0.751   0.832   7.980 -0.0808  0.9890  1.0648
 4527TIP3   OH235139   3.750   3.157   2.891 -0.4360  0.9008 -0.0620
 4527TIP3    H135140   3.814   3.207   2.841 -0.6286  0.8025 -0.4195
 4527TIP3    H235141   3.760   3.186   2.981  0.3637  0.6133 -0.0537
 4528TIP3   OH235142   6.285   1.197   2.527 -0.0841 -0.4187  0.0648
 4528TIP3    H135143   6.247   1.110   2.517  2.0258 -1.2229 -2.1786
 4528TIP3    H235144   6.345   1.205   2.453 -0.1144  2.9396  0.2412
 4529TIP3   OH235145   4.081   0.036   0.416  0.4091 -0.1375  0.0616
 4529TIP3    H135146   4.079   0.128   0.388  1.1613  0.0203  0.5034
 4529TIP3    H235147   4.011  -0.005   0.366  0.5311  0.5251 -0.6820
 4530TIP3   OH235148   0.222   4.944   8.486 -0.2138 -0.2888  0.7409
 4530TIP3    H135149   0.247   4.984   8.403 -0.2358 -0.9779  0.3947
 4530TIP3    H235150   0.303   4.939   8.536 -0.1417 -0.1664  0.6373
 4531TIP3   OH235151   0.902   2.543   2.342  0.3029  0.4270 -0.1983
 4531TIP3    H135152   0.847   2.465   2.333  1.2137 -0.2792  0.2219
 4531TIP3    H235153   0.881   2.596   2.265  0.7712 -0.9299 -1.3037
 4532TIP3   OH235154   5.453   1.878   2.027  0.0248 -0.3317 -0.4628
 4532TIP3    H135155   5.399   1.906   1.953 -1.3783 -1.4646  0.0708
 4532TIP3    H235156   5.530   1.838   1.987  1.3246  2.6787 -1.2335
 4533TIP3   OH235157   2.103   6.628   1.552 -0.2969  0.5811 -0.2525
 4533TIP3    H135158   2.090   6.574   1.474  0.6100 -2.5743  1.6174
 4533TIP3    H235159   2.150   6.571   1.613 -0.2861  3.1652  2.3378
 4534TIP3   OH235160   6.060   3.841   8.351  0.2767 -0.2970  0.5089
 4534TIP3    H135161   5.995   3.875   8.412  0.8561  0.4891  0.7025
 4534TIP3    H235162   6.022   3.857   8.264  0.3457  0.4726  0.6089
 4535TIP3   OH235163   4.856   0.883   7.414  0.3207  0.6810 -0.0070
 4535TIP3    H135164   4.924   0.935   7.370 -0.6491  1.5198 -0.5508
 4535TIP3    H235165   4.775   0.930   7.397 -0.5531 -0.8359 -0.2080
 4536TIP3   OH235166   1.988   4.747   0.397  0.3714  0.0302  0.1159
 4536TIP3    H135167   2.057   4.704   0.448  0.6797 -0.5639 -0.7873
 4536TIP3    H235168   1.999   4.713   0.308  0.1598  1.4285 -0.4718
 4537TIP3   OH235169   1.301   5.729   2.768 -0.1421 -0.6120  0.4280
 4537TIP3    H135170   1.268   5.722   2.678  0.6929  0.2318  0.0352
 4537TIP3    H235171   1.311   5.638   2.796 -2.3180 -0.8984  0.4158
 4538TIP3   OH235172   2.917   4.983   7.305 -0.0528 -0.7066  0.6616
 4538TIP3    H135173   2.943   5.076   7.307  0.6191 -0.7989 -1.3932
 4538TIP3    H235174   2.995   4.938   7.271 -0.6924 -1.9128  0.7600
 4539TIP3   OH235175   3.394   0.419   8.545 -0.2431 -0.2371 -0.5743
 4539TIP3    H135176   3.323   0.426   8.609 -0.9343 -1.4011 -1.1844
 4539TIP3    H235177   3.362   0.468   8.469 -0.1701 -0.3317 -0.6651
 4540TIP3   OH235178   0.887   5.601   3.201  0.0508  0.5467 -0.1932
 4540TIP3    H135179   0.858   5.583   3.290  0.5612 -2.4830 -0.5464
 4540TIP3    H235180   0.972   5.644   3.212 -0.5857  1.6622  0.7245
 4541TIP3   OH235181   1.906   2.578   1.480  0.0915 -0.3497 -0.5478
 4541TIP3    H135182   1.912   2.633   1.402  0.6771  0.4804  0.0628
 4541TIP3    H235183   1.932   2.635   1.552 -1.1703 -0.8806  0.3758
 4542TIP3   OH235184   5.120   1.627   0.229 -0.4386  0.0307  0.4938
 4542TIP3    H135185   5.074   1.607   0.147  0.7635 -1.5711  0.1626
 4542TIP3    H235186   5.087   1.562   0.291  0.8707 -0.7124  0.4290
 4543TIP3   OH235187   5.675   5.852   0.787  0.2282  0.1112 -0.0168
 4543TIP3    H135188   5.638   5.796   0.855  2.1689  0.2922  1.2566
 4543TIP3    H235189   5.646   5.940   0.810 -0.1106  0.0349 -0.1387
 4544TIP3   OH235190   3.799   0.984   0.557  0.1647 -0.1879 -0.0681
 4544TIP3    H135191   3.795   1.063   0.503 -0.7605 -0.1905 -0.0196
 4544TIP3    H235192   3.803   1.017   0.647  0.1170 -0.1902 -0.0649
 4545TIP3   OH235193   4.252   2.657   0.669  0.6857  0.4065  0.6270
 4545TIP3    H135194   4.252   2.600   0.746  2.2245 -3.2730 -1.8270
 4545TIP3    H235195   4.161   2.655   0.638  0.7505 -0.8940  0.4943
 4546TIP3   OH235196   1.460   5.946   8.317  0.1788 -0.0296 -0.0534
 4546TIP3    H135197   1.386   5.917   8.263 -1.1556  0.4522  1.4562
 4546TIP3    H235198   1.425   6.018   8.369  1.3777 -0.5695  1.5698
 4547TIP3   OH235199   3.093   2.576   7.963 -0.1578 -0.4292 -0.1637
 4547TIP3    H135200   3.111   2.522   7.886  0.0173 -0.6608  0.0351
 4547TIP3    H235201   3.113   2.665   7.936  0.9339 -0.6316 -0.0729
 4548TIP3   OH235202   0.711   2.093   8.335 -0.0032 -0.2584  0.0394
 4548TIP3    H135203   0.669   2.061   8.255  1.3855  1.0008 -1.2499
 4548TIP3    H235204   0.700   2.188   8.332  3.3020  0.2424 -0.6933
 4549TIP3   OH235205   4.988   0.632   1.197 -0.2312 -0.3718 -0.2030
 4549TIP3    H135206   5.070   0.640   1.147  0.5251 -3.2690  0.3808
 4549TIP3    H235207   4.999   0.690   1.272  0.6128  0.4602 -0.9496
 4550TIP3   OH235208   0.934   5.161   0.389  0.2930  0.0684 -0.1102
 4550TIP3    H135209   0.851   5.207   0.377 -0.6122 -0.7827  2.3321
 4550TIP3    H235210   0.923   5.079   0.341  0.8069  1.0404 -2.0143
 4551TIP3   OH235211   1.923   5.449   1.965 -0.1144  0.1592 -0.5609
 4551TIP3    H135212   2.008   5.467   2.005  0.1101  1.8003 -1.6445
 4551TIP3    H235213   1.918   5.354   1.958  0.6203 -0.0866  1.5925
 4552TIP3   OH235214   4.277   0.983   1.592 -0.5219  0.0016  0.2313
 4552TIP3    H135215   4.191   0.960   1.556 -1.0215 -0.4348  1.6274
 4552TIP3    H235216   4.261   1.061   1.645  0.4258  1.3196 -1.3549
 4553TIP3   OH235217   2.644   1.797   0.325 -0.1314  0.5455  0.2868
 4553TIP3    H135218   2.559   1.754   0.319  0.2448 -0.1802  0.0470
 4553TIP3    H235219   2.629   1.871   0.385 -0.3085 -1.1092  2.4097
 4554TIP3   OH235220   3.394   4.021   2.822  0.6421 -0.1344 -0.1651
 4554TIP3    H135221   3.301   4.007   2.803  0.5674  0.8473 -0.5687
 4554TIP3    H235222   3.402   4.001   2.916 -0.0516  0.1592 -0.0392
 4555TIP3   OH235223   3.006   6.446   8.527  0.0503  0.2262 -0.1265
 4555TIP3    H135224   3.047   6.390   8.594 -0.6810 -1.1377 -0.7898
 4555TIP3    H235225   2.914   6.450   8.552 -0.2904 -0.5370 -1.1884
 4556TIP3   OH235226   6.662   5.564   7.753  0.2578 -0.2475  0.0288
 4556TIP3    H135227   6.676   5.550   7.659 -2.7837 -0.5529 -0.4931
 4556TIP3    H235228   6.641   5.476   7.787  1.3915 -0.1519  1.0372
 4557TIP3   OH235229   0.226   4.195   0.086 -0.2692  0.3231  0.4285
 4557TIP3    H135230   0.132   4.202   0.103 -0.8971 -1.6718 -1.6708
 4557TIP3    H235231   0.243   4.101   0.086  1.9071  0.6582  1.4205
 4558TIP3   OH235232   1.763   4.850   2.124 -0.1382  0.1454 -0.1419
 4558TIP3    H135233   1.781   4.758   2.107 -1.7301 -0.2145 -0.0427
 4558TIP3    H235234   1.732   4.884   2.040 -2.4324 -0.1865  0.5132
 4559TIP3   OH235235   5.444   6.707   7.600  0.0079 -0.5835 -0.0158
 4559TIP3    H135236   5.350   6.690   7.591 -0.0575  0.0559 -0.6408
 4559TIP3    H235237   5.466   6.674   7.687 -1.0351  0.3092  0.6158
 4560TIP3   OH235238   5.054   0.060   8.086 -0.7657  0.3123  0.6674
 4560TIP3    H135239   5.111   0.114   8.032 -1.3679  1.3668  1.0605
 4560TIP3    H235240   4.966   0.091   8.066 -1.0840 -0.1994  1.2570
 4561TIP3   OH235241   2.352   4.612   1.593 -0.2951 -0.1260  0.2224
 4561TIP3    H135242   2.426   4.638   1.649 -0.2363 -0.1846  0.1716
 4561TIP3    H235243   2.282   4.674   1.615  0.3283  1.0513 -0.9900
 4562TIP3   OH235244   2.304   5.346   8.721 -0.4171  0.4461 -0.0042
 4562TIP3    H135245   2.228   5.320   8.669  1.2279  0.4503 -2.6384
 4562TIP3    H235246   2.370   5.280   8.701  1.0969  1.8756  0.0657
 4563TIP3   OH235247   2.564   3.686   1.153 -0.1887 -0.1328  0.8037
 4563TIP3    H135248   2.574   3.612   1.092  0.0034  1.3271 -0.9993
 4563TIP3    H235249   2.477   3.721   1.134  0.2611  0.9367  0.6645
 4564TIP3   OH235250   0.666   3.030   0.490 -0.1582 -0.0367  0.1444
 4564TIP3    H135251   0.636   2.962   0.550 -0.7395 -0.7522 -0.9180
 4564TIP3    H235252   0.654   2.992   0.403 -1.4722  1.7874 -0.5446
 4565TIP3   OH235253   5.671   2.389   0.957  0.7585  0.6973  0.6268
 4565TIP3    H135254   5.632   2.398   0.870  1.0396 -0.9483  0.3003
 4565TIP3    H235255   5.674   2.479   0.991 -1.6764  1.1003 -0.0157
 4566TIP3   OH235256   5.548   3.760   7.736 -0.1529  0.3208  0.4143
 4566TIP3    H135257   5.461   3.729   7.761 -0.3352  1.3564  1.1780
 4566TIP3    H235258   5.547   3.763   7.641  0.2009 -2.8080  0.1980
 4567TIP3   OH235259   1.865   1.464   2.892 -0.4070  0.2624  0.2662
 4567TIP3    H135260   1.886   1.380   2.852 -0.6931  0.5841 -0.5949
 4567TIP3    H235261   1.825   1.515   2.821 -0.5452  1.0048  0.8591
 4568TIP3   OH235262   6.325   5.803   2.842 -0.2018  0.8080  0.3616
 4568TIP3    H135263   6.292   5.868   2.781 -0.9730 -0.8627 -1.0858
 4568TIP3    H235264   6.419   5.798   2.824 -0.6122 -0.6115 -1.7179
 4569TIP3   OH235265   1.631   1.260   2.012  0.3375 -0.1223  0.5076
 4569TIP3    H135266   1.703   1.215   2.057  1.2715  0.5401 -0.2923
 4569TIP3    H235267   1.561   1.262   2.077  0.9936 -0.8818  1.2735
 4570TIP3   OH235268   1.354   4.855   0.808 -0.1848 -0.4076 -0.5642
 4570TIP3    H135269   1.447   4.877   0.810  0.2117 -2.0219  0.9702
 4570TIP3    H235270   1.312   4.926   0.856  0.3613 -0.0758 -0.5660
 4571TIP3   OH235271   4.993   0.632   7.456 -0.2389  0.4783 -0.1596
 4571TIP3    H135272   4.912   0.615   7.407 -0.3692  2.0686 -0.5484
 4571TIP3    H235273   5.046   0.554   7.442 -1.4160 -0.2919 -0.4964
 4572TIP3   OH235274   0.857   6.746   0.681  0.0109 -0.4533 -0.4347
 4572TIP3    H135275   0.813   6.808   0.623  0.1596 -0.4445 -0.5382
 4572TIP3    H235276   0.948   6.775   0.684 -0.2458  0.3236  0.8280
 4573TIP3   OH235277   4.292   4.783   2.142  0.7541 -0.2647  0.4257
 4573TIP3    H135278   4.244   4.754   2.220  1.3349 -2.0555  0.1755
 4573TIP3    H235279   4.342   4.706   2.115  2.3357  0.9995 -0.4058
 4574TIP3   OH235280   6.045   3.598   0.556 -0.0307 -0.3368  0.0456
 4574TIP3    H135281   6.076   3.533   0.619  2.3848 -0.6549 -1.3526
 4574TIP3    H235282   5.957   3.569   0.533  0.1583 -1.8500  1.0807
 4575TIP3   OH235283   6.261   4.124   8.193  0.7388 -0.3145 -0.8873
 4575TIP3    H135284   6.264   4.202   8.248 -3.5954 -1.1846  1.0026
 4575TIP3    H235285   6.262   4.157   8.104 -1.8036  2.1344 -0.1564
 4576TIP3   OH235286   5.938   4.616   0.029 -0.4558  0.3294 -0.0528
 4576TIP3    H135287   5.995   4.651  -0.039  0.2922 -1.4845 -0.4056
 4576TIP3    H235288   5.997   4.592   0.100 -0.8052 -1.1185 -0.2243
 4577TIP3   OH235289   2.318   1.370   7.643  0.1383  0.2273 -0.1740
 4577TIP3    H135290   2.291   1.279   7.636 -1.1602  0.6300 -0.6527
 4577TIP3    H235291   2.274   1.415   7.571 -0.9657  1.6096  1.2652
 4578TIP3   OH235292   2.846   0.465   2.115 -0.3108  0.0316 -0.0659
 4578TIP3    H135293   2.788   0.540   2.101 -2.0136 -0.7917  2.0928
 4578TIP3    H235294   2.879   0.476   2.204 -0.8160 -1.8607  0.4133
 4579TIP3   OH235295   2.999   6.594   0.620 -0.1312 -0.1210 -0.6027
 4579TIP3    H135296   2.918   6.642   0.632 -0.5822 -1.2839  1.6256
 4579TIP3    H235297   3.068   6.658   0.638 -0.6265  0.4319 -0.6710
 4580TIP3   OH235298   4.550   2.302   1.303 -0.1239  0.1505 -0.0876
 4580TIP3    H135299   4.638   2.272   1.325  0.2052  0.7129 -0.6073
 4580TIP3    H235300   4.502   2.298   1.385  0.3787 -0.1856  0.1932
 4581TIP3   OH235301   6.570   5.130   0.765 -0.1692 -1.3101  0.2640
 4581TIP3    H135302   6.515   5.121   0.842 -1.0997  1.6718  0.0533
 4581TIP3    H235303   6.509   5.132   0.691  0.2532  0.8059 -0.0823
 4582TIP3   OH235304   6.030   6.632   8.227 -0.0605  0.0822 -0.1977
 4582TIP3    H135305   5.959   6.663   8.284 -0.6082 -1.1751 -0.1528
 4582TIP3    H235306   6.095   6.596   8.287  0.1879  0.3819 -0.2855
 4583TIP3   OH235307   5.816   2.650   0.379  0.4099  0.1837  0.6308
 4583TIP3    H135308   5.749   2.589   0.408  1.7268 -0.3841  2.6541
 4583TIP3    H235309   5.853   2.609   0.301 -0.1573 -0.5404  0.7319
 4584TIP3   OH235310   4.035   5.741   8.256 -0.6667  0.1107 -1.2612
 4584TIP3    H135311   4.106   5.767   8.315 -1.1461 -0.5795 -0.3494
 4584TIP3    H235312   4.077   5.690   8.187 -0.3341 -0.7103 -0.4645
 4585TIP3   OH235313   0.055   3.764   8.318 -0.6254  0.2851 -0.0086
 4585TIP3    H135314  -0.001   3.688   8.333 -1.7655  0.6035 -2.3394
 4585TIP3    H235315   0.008   3.817   8.254  2.1292  0.7921 -1.7792
 4586TIP3   OH235316   5.180   1.604   2.496  0.1467  0.4888  0.0229
 4586TIP3    H135317   5.092   1.604   2.458  0.4017  0.0301 -0.5791
 4586TIP3    H235318   5.205   1.696   2.498 -1.6415  1.0670  3.3018
 4587TIP3   OH235319   4.109   0.004   2.496 -0.1050 -0.3336 -0.3813
 4587TIP3    H135320   4.078  -0.069   2.549  0.2763 -0.1639  0.0802
 4587TIP3    H235321   4.149   0.064   2.558 -1.0191  0.5966 -0.6596
 4588TIP3   OH235322   1.588   2.352   1.197 -0.0282  0.3748  0.2876
 4588TIP3    H135323   1.590   2.280   1.260 -1.5339  0.6008  0.6339
 4588TIP3    H235324   1.614   2.312   1.114 -1.4704 -0.7424  0.3427
 4589TIP3   OH235325   6.392   3.761   0.486  0.0601  0.3987 -0.9540
 4589TIP3    H135326   6.403   3.840   0.434  0.3512 -0.1845 -1.7980
 4589TIP3    H235327   6.383   3.691   0.422 -0.1721 -0.2583 -0.2183
 4590TIP3   OH235328   0.819   5.544   7.831 -0.2295 -0.1677 -0.0782
 4590TIP3    H135329   0.748   5.568   7.770 -0.4880 -0.5431  0.0718
 4590TIP3    H235330   0.888   5.509   7.775 -0.8808 -1.4997 -0.0791
 4591TIP3   OH235331   3.855   1.467   8.439 -0.2989 -0.1668  0.3355
 4591TIP3    H135332   3.865   1.530   8.510 -1.4369  0.1644  0.2132
 4591TIP3    H235333   3.779   1.497   8.389  0.9914  0.1355 -1.5878
 4592TIP3   OH235334   3.150   5.818   3.236  0.4528  0.1917  0.0964
 4592TIP3    H135335   3.152   5.748   3.171 -0.2464 -0.3319  0.6192
 4592TIP3    H235336   3.078   5.875   3.207  2.4002  1.9655 -1.5680
 4593TIP3   OH235337   1.383   5.456   7.346 -0.2396  0.3273  0.0377
 4593TIP3    H135338   1.401   5.362   7.343  0.4785  0.4784 -0.6985
 4593TIP3    H235339   1.304   5.463   7.400  0.1619 -0.6172  0.7854
 4594TIP3   OH235340   0.240   0.287   2.830  0.0568 -0.0681  0.4003
 4594TIP3    H135341   0.162   0.283   2.775  0.7507 -0.8353 -0.5643
 4594TIP3    H235342   0.207   0.304   2.918 -1.0890  1.2235 -0.2335
 4595TIP3   OH235343   2.993   4.171   1.354 -0.4913 -0.4907 -0.3781
 4595TIP3    H135344   3.021   4.141   1.267 -0.3747  0.1723 -0.5750
 4595TIP3    H235345   3.059   4.137   1.414  0.1483  0.1303 -0.7098
 4596TIP3   OH235346   4.249   2.322   8.413  0.3958 -0.8656  0.1533
 4596TIP3    H135347   4.201   2.344   8.493 -0.3972 -0.9436 -0.2928
 4596TIP3    H235348   4.192   2.352   8.342  0.7184 -1.5377 -0.3974
 4597TIP3   OH235349   1.184   5.017   0.954  0.9106 -0.2637 -0.1440
 4597TIP3    H135350   1.215   5.070   1.027  1.7473 -0.8494 -0.0577
 4597TIP3    H235351   1.089   5.029   0.953  0.8927 -0.2526  1.0473
 4598TIP3   OH235352   0.142   4.087   2.364 -0.0041  0.5505 -0.1691
 4598TIP3    H135353   0.101   4.077   2.450  0.4057  2.3484  0.2872
 4598TIP3    H235354   0.186   4.004   2.348  1.2212  0.6861  2.0852
 4599TIP3   OH235355   3.159   3.650   0.179 -0.6773 -0.4299 -0.4311
 4599TIP3    H135356   3.202   3.708   0.242  0.0469 -0.9357 -0.4394
 4599TIP3    H235357   3.119   3.709   0.115  1.6187  0.0898 -1.4853
 4600TIP3   OH235358   3.733   5.501   0.641  0.3205  0.0891  0.0215
 4600TIP3    H135359   3.658   5.441   0.643  1.0509 -0.8830 -0.5824
 4600TIP3    H235360   3.713   5.566   0.708 -0.9996 -0.2195 -0.0293
 4601TIP3   OH235361   5.018   3.261   8.189  0.3356  0.0881 -0.4984
 4601TIP3    H135362   5.054   3.196   8.128  0.4016 -0.5299  0.1956
 4601TIP3    H235363   5.005   3.339   8.135 -0.4195 -0.7140 -1.5112
 4602TIP3   OH235364   5.069   2.547   0.303  0.2887 -0.4990 -0.3869
 4602TIP3    H135365   5.042   2.480   0.366  0.1279 -0.0781 -0.0029
 4602TIP3    H235366   5.052   2.507   0.218  0.2925 -0.9872 -0.1654
 4603TIP3   OH235367   6.514   3.340   0.859 -0.1412  0.3092 -0.3400
 4603TIP3    H135368   6.435   3.360   0.909  0.2740  0.9158  0.0822
 4603TIP3    H235369   6.484   3.327   0.769 -0.4985  2.4266 -0.5687
 4604TIP3   OH235370   6.798   6.641   1.765  0.8077 -0.6027  0.6505
 4604TIP3    H135371   6.717   6.692   1.767  0.6694 -0.6787 -1.0544
 4604TIP3    H235372   6.867   6.706   1.753  0.6689 -0.7330 -1.1108
 4605TIP3   OH235373   3.351   0.880   0.262 -0.5717  0.6593 -0.1313
 4605TIP3    H135374   3.362   0.785   0.258  0.9394  0.8196 -0.3586
 4605TIP3    H235375   3.315   0.897   0.349  2.3342  0.1172  1.2850
 4606TIP3   OH235376   5.772   5.823   1.543 -0.1991 -0.6544 -0.1530
 4606TIP3    H135377   5.803   5.910   1.515  2.2847 -1.7850 -1.2300
 4606TIP3    H235378   5.852   5.770   1.547 -1.7686 -3.2075 -0.6670
 4607TIP3   OH235379   0.426   1.984   1.444  0.0101  0.1359 -0.0143
 4607TIP3    H135380   0.441   2.075   1.468 -2.4417  0.0642  2.1945
 4607TIP3    H235381   0.339   1.983   1.406  0.8321 -1.0232 -2.0042
 4608TIP3   OH235382   5.779   5.350   0.140  0.0996  0.1132 -0.0538
 4608TIP3    H135383   5.874   5.340   0.152 -0.4148 -1.8850  4.5723
 4608TIP3    H235384   5.746   5.261   0.136 -1.6338  0.7857 -1.9936
 4609TIP3   OH235385   5.402   1.223   1.729 -0.1292 -0.4173 -0.1209
 4609TIP3    H135386   5.471   1.171   1.770 -0.6756  0.3319  1.8425
 4609TIP3    H235387   5.438   1.311   1.722 -0.0567 -0.5262 -1.2587
 4610TIP3   OH235388   6.162   1.440   0.357 -0.1810 -0.7732 -0.1571
 4610TIP3    H135389   6.076   1.399   0.351 -0.9642  0.5339  1.2635
 4610TIP3    H235390   6.157   1.495   0.435  1.5120  0.3749 -0.7925
 4611TIP3   OH235391   2.177   3.230   1.151  0.2242 -0.5479  0.5887
 4611TIP3    H135392   2.087   3.255   1.131  1.3420  1.2782 -2.9730
 4611TIP3    H235393   2.217   3.309   1.188  0.5335 -1.2332  1.8081
 4612TIP3   OH235394   6.585   5.508   0.038 -0.4669  0.1129 -0.0124
 4612TIP3    H135395   6.622   5.479  -0.046 -0.4637 -1.0631  0.3766
 4612TIP3    H235396   6.562   5.426   0.083 -0.1549  0.7283  1.2830
 4613TIP3   OH235397   0.962   6.373   2.409  0.2567  0.3097  0.3589
 4613TIP3    H135398   0.991   6.389   2.498  2.0509  0.5512 -0.2384
 4613TIP3    H235399   1.033   6.405   2.354 -0.0793 -1.3299 -1.1132
 4614TIP3   OH235400   2.169   0.841   0.262  0.3080  0.1925 -0.0049
 4614TIP3    H135401   2.103   0.865   0.197  1.6011 -0.5756 -1.6853
 4614TIP3    H235402   2.252   0.843   0.214  1.2128 -1.3569  1.3778
 4615TIP3   OH235403   4.867   1.748   2.007 -0.2252  0.0978  0.4987
 4615TIP3    H135404   4.837   1.702   1.929 -0.4571 -0.6130  0.9891
 4615TIP3    H235405   4.890   1.835   1.977  0.1071 -0.3042 -0.4418
 4616TIP3   OH235406   0.227   0.494   0.591  0.0293 -0.7150  0.2275
 4616TIP3    H135407   0.183   0.575   0.619 -0.0401 -0.9363  0.7696
 4616TIP3    H235408   0.159   0.444   0.546  0.1561 -0.3304 -0.3947
 4617TIP3   OH235409   0.154   1.194   0.539 -0.0841 -0.8155  0.3078
 4617TIP3    H135410   0.109   1.219   0.620 -1.7993 -1.8633 -0.2762
 4617TIP3    H235411   0.138   1.266   0.479  1.3239  0.0366  0.9160
 4618TIP3   OH235412   6.474   1.623   8.305 -0.2659  0.7889  0.1674
 4618TIP3    H135413   6.534   1.678   8.356  0.5927  0.8400 -0.8541
 4618TIP3    H235414   6.494   1.534   8.333  0.7067  0.7608 -0.5633
 4619TIP3   OH235415   2.383   5.343   8.079  0.0937 -0.4394  0.3603
 4619TIP3    H135416   2.355   5.328   7.989  0.6476  0.6429 -0.0014
 4619TIP3    H235417   2.316   5.299   8.132 -1.0547  0.1840 -0.5305
 4620TIP3   OH235418   2.400   2.273   7.851  0.7896 -0.1014  0.5101
 4620TIP3    H135419   2.352   2.219   7.789 -0.4998 -0.7851  2.0408
 4620TIP3    H235420   2.387   2.363   7.820 -1.5330 -0.2620  0.8801
 4621TIP3   OH235421   6.225   6.042   0.383 -0.4038 -0.2410  0.2286
 4621TIP3    H135422   6.246   5.997   0.301  1.5551  1.4884 -0.2854
 4621TIP3    H235423   6.305   6.036   0.435 -0.7326  0.9924  0.9075
 4622TIP3   OH235424   0.473   2.204   2.012 -0.3323  0.0121  0.1788
 4622TIP3    H135425   0.482   2.247   1.927  1.1910 -0.4092  0.0909
 4622TIP3    H235426   0.497   2.113   1.996 -2.5282 -0.6919  0.5685
 4623TIP3   OH235427   0.135   1.657   2.200 -0.0619  0.2385  0.3354
 4623TIP3    H135428   0.204   1.722   2.184  1.6227 -1.1274  1.6081
 4623TIP3    H235429   0.134   1.647   2.295  0.5732 -2.4067  0.1313
 4624TIP3   OH235430   5.057   0.644   7.773 -0.0877 -0.1644 -0.8702
 4624TIP3    H135431   5.115   0.686   7.836  1.5054 -0.6898 -1.9102
 4624TIP3    H235432   5.070   0.550   7.786 -3.1112 -0.4601  0.9767
 4625TIP3   OH235433   0.324   2.916   1.133 -0.6450  0.3893  0.0214
 4625TIP3    H135434   0.369   2.849   1.185  1.0637  0.6196 -1.0712
 4625TIP3    H235435   0.242   2.932   1.180  0.8730  0.7115  2.7292
 4626TIP3   OH235436   0.297   0.992   7.974 -0.3603  0.2638 -0.0673
 4626TIP3    H135437   0.354   0.917   7.994 -0.5438  0.0449 -0.3508
 4626TIP3    H235438   0.333   1.029   7.894  0.2058  0.9689  0.5041
 4627TIP3   OH235439   5.593   1.039   1.814  0.5587 -0.2766  0.1535
 4627TIP3    H135440   5.665   1.025   1.876 -0.7029 -0.6023  1.6227
 4627TIP3    H235441   5.617   0.987   1.737  1.4569 -1.1194  0.9763
 4628TIP3   OH235442   2.538   6.419   1.499  0.0035 -0.2286  0.3669
 4628TIP3    H135443   2.557   6.505   1.537  1.5221 -0.0962 -0.6069
 4628TIP3    H235444   2.448   6.400   1.525  0.0315  1.1362  1.5603
 4629TIP3   OH235445   2.144   3.510   2.110 -0.0415  0.2079 -0.0317
 4629TIP3    H135446   2.215   3.502   2.173 -0.0600  0.1788 -0.0147
 4629TIP3    H235447   2.187   3.509   2.025  0.1867  2.3350  0.0061
 4630TIP3   OH235448   6.014   2.413   1.697  0.0815 -0.8499 -0.4083
 4630TIP3    H135449   6.108   2.429   1.685 -0.4054  2.6158 -0.7380
 4630TIP3    H235450   5.987   2.480   1.760 -2.2201 -1.6070 -0.5165
 4631TIP3   OH235451   0.253   2.503   2.998  0.0030  0.1417  0.1852
 4631TIP3    H135452   0.170   2.467   2.967  0.3990 -0.1534 -0.5623
 4631TIP3    H235453   0.273   2.574   2.937  0.4627 -0.0141  0.1466
 4632TIP3   OH235454   1.492   5.382   0.790 -0.0598  0.2869  0.4555
 4632TIP3    H135455   1.520   5.473   0.778 -2.6625  1.0706 -0.2980
 4632TIP3    H235456   1.496   5.369   0.885 -0.0154  1.3031  0.6069
 4633TIP3   OH235457   1.021   4.351   8.019  0.7319 -0.0097  0.1198
 4633TIP3    H135458   1.029   4.330   8.112 -0.8153 -0.1142  0.2516
 4633TIP3    H235459   0.987   4.440   8.016 -0.6696 -0.5160 -0.2802
 4634TIP3   OH235460   2.446   1.736   1.434  0.0282 -0.2205 -0.1394
 4634TIP3    H135461   2.458   1.723   1.340  1.6829  1.2965 -0.1896
 4634TIP3    H235462   2.533   1.760   1.466 -0.6599  0.0242  1.6532
 4635TIP3   OH235463   6.201   3.138   1.689  0.1499 -0.2707 -1.0016
 4635TIP3    H135464   6.121   3.127   1.740 -0.3388 -0.7075 -1.8322
 4635TIP3    H235465   6.240   3.218   1.723 -0.0939 -0.6171  0.1301
 4636TIP3   OH235466   4.692   0.365   2.559  0.5805  0.7982 -0.2605
 4636TIP3    H135467   4.687   0.313   2.639 -0.0713 -0.5984 -1.1664
 4636TIP3    H235468   4.786   0.378   2.545  0.6918  1.4140  0.9266
 4637TIP3   OH235469   5.135   3.641   2.353  0.0864 -0.4282 -0.2444
 4637TIP3    H135470   5.157   3.563   2.302 -1.3120  0.1685 -1.8548
 4637TIP3    H235471   5.089   3.606   2.430  0.8008 -1.2544 -0.1731
 4638TIP3   OH235472   1.410   6.436   3.369  0.1784  0.2593  0.2969
 4638TIP3    H135473   1.450   6.513   3.329  1.5036 -0.0293  1.0370
 4638TIP3    H235474   1.483   6.381   3.396 -0.7366 -0.9854  0.3503
 4639TIP3   OH235475   6.476   4.090   1.517  0.2780 -0.6489 -0.1094
 4639TIP3    H135476   6.467   4.164   1.578  1.0496 -0.7276  0.1203
 4639TIP3    H235477   6.493   4.014   1.574 -1.3160 -1.1708 -0.2911
 4640TIP3   OH235478   1.572   3.602   7.895  0.3899 -0.3509 -0.4224
 4640TIP3    H135479   1.601   3.592   7.985  0.8034 -1.4925 -0.6630
 4640TIP3    H235480   1.571   3.513   7.860 -0.4500 -0.0063 -1.3370
 4641TIP3   OH235481   2.724   1.282   2.528 -0.2416 -0.0688  0.0531
 4641TIP3    H135482   2.720   1.361   2.582 -0.2581 -0.5302  0.7500
 4641TIP3    H235483   2.804   1.292   2.477 -0.1084  0.2841  0.3277
 4642TIP3   OH235484   6.732   2.966   1.651 -0.2769  0.1465  0.1169
 4642TIP3    H135485   6.729   2.968   1.747  1.4517  1.6774  0.2012
 4642TIP3    H235486   6.723   2.873   1.629 -1.9320 -0.1139  1.6707
 4643TIP3   OH235487   6.426   5.043   2.616  0.2155  0.4736  0.0882
 4643TIP3    H135488   6.486   5.036   2.690  0.4601 -0.9028 -0.2132
 4643TIP3    H235489   6.439   4.962   2.567  0.3419  1.5056 -1.6736
 4644TIP3   OH235490   4.548   1.629   2.379 -0.2376 -0.6393  0.1358
 4644TIP3    H135491   4.582   1.714   2.405  1.8220 -1.2462 -0.3760
 4644TIP3    H235492   4.574   1.620   2.287 -1.3599 -1.3893 -0.1281
 4645TIP3   OH235493   2.949   4.696   8.576  0.0559 -0.6769  0.1338
 4645TIP3    H135494   2.931   4.646   8.656  1.7160 -1.1059  0.2786
 4645TIP3    H235495   2.983   4.780   8.607  1.0548 -0.9828 -0.0905
 4646TIP3   OH235496   1.673   5.811   1.487  0.3750  0.3605 -0.2538
 4646TIP3    H135497   1.620   5.740   1.521 -0.6114 -0.0227 -2.4071
 4646TIP3    H235498   1.615   5.887   1.487 -0.4318 -0.1324 -2.9097
 4647TIP3   OH235499   4.507   2.407   0.190 -0.4473 -0.1883 -0.3655
 4647TIP3    H135500   4.448   2.366   0.126 -0.2600 -2.3208  0.7365
 4647TIP3    H235501   4.557   2.334   0.227 -1.4634  0.7049  3.1512
 4648TIP3   OH235502   5.002   1.805   7.228 -0.3755  0.2539  0.6237
 4648TIP3    H135503   5.018   1.779   7.137  0.4244 -0.9309  1.0796
 4648TIP3    H235504   5.081   1.855   7.252 -1.2868  1.9999  0.1985
 4649TIP3   OH235505   5.116   1.937   7.655 -0.4138 -0.7551 -0.1272
 4649TIP3    H135506   5.200   1.945   7.609  0.4762 -2.8871  0.9730
 4649TIP3    H235507   5.050   1.953   7.587  0.7813  2.6840 -0.6856
 4650TIP3   OH235508   1.725   3.527   8.737  0.4377  0.1608 -0.0498
 4650TIP3    H135509   1.643   3.478   8.741  0.2917  0.4374  0.5306
 4650TIP3    H235510   1.733   3.553   8.645  0.4907 -0.8820 -0.3558
 4651TIP3   OH235511   4.808   1.493   8.621 -0.0830 -0.4232 -0.2417
 4651TIP3    H135512   4.763   1.546   8.555  0.0819 -0.8181 -0.6834
 4651TIP3    H235513   4.739   1.438   8.658  0.0596 -1.1743 -1.0639
 4652TIP3   OH235514   1.395   2.937   7.585  0.4278  0.3758  0.3358
 4652TIP3    H135515   1.358   2.880   7.653 -1.3727 -0.8146 -1.5428
 4652TIP3    H235516   1.475   2.892   7.558 -0.5592 -0.8957 -0.5662
 4653TIP3   OH235517   6.662   1.801   3.180  0.4010 -0.6880  0.6919
 4653TIP3    H135518   6.752   1.782   3.206  0.5047 -0.3627  0.5828
 4653TIP3    H235519   6.670   1.873   3.118  0.0561 -0.5909  0.7568
 4654TIP3   OH235520   0.088   6.430   8.435  0.5678  0.1342 -0.4915
 4654TIP3    H135521   0.141   6.477   8.370 -0.8387  1.3970 -0.7774
 4654TIP3    H235522   0.004   6.416   8.392  0.6079 -1.8024 -0.0357
 4655TIP3   OH235523   6.707   6.427   1.598 -0.4051  0.0836 -0.0707
 4655TIP3    H135524   6.699   6.470   1.513 -4.0979 -0.8786 -0.3870
 4655TIP3    H235525   6.711   6.498   1.662 -1.9703  0.9146 -0.8461
 4656TIP3   OH235526   4.695   2.247   2.543 -0.1601 -0.2721 -0.5486
 4656TIP3    H135527   4.654   2.216   2.623 -0.0582 -0.2759 -0.4975
 4656TIP3    H235528   4.778   2.285   2.572 -1.4163  2.4884 -0.2292
 4657TIP3   OH235529   4.372   4.449   8.421 -0.4744 -0.1344 -0.1826
 4657TIP3    H135530   4.319   4.521   8.454  0.7067  1.1070 -0.9018
 4657TIP3    H235531   4.368   4.458   8.325 -0.5435 -1.2021 -0.2903
 4658TIP3   OH235532   6.161   3.178   7.792  0.3556 -0.5950  0.2722
 4658TIP3    H135533   6.145   3.188   7.698 -1.0436  0.6988  0.6067
 4658TIP3    H235534   6.234   3.237   7.811 -1.3319  1.5264  0.4799
 4659TIP3   OH235535   0.050   4.213   7.579  0.1340  0.5444 -0.3292
 4659TIP3    H135536   0.027   4.270   7.506  1.0295  1.4462  0.0756
 4659TIP3    H235537  -0.030   4.208   7.632  0.3816  2.4012  0.2651
 4660TIP3   OH235538   0.181   1.087   2.119 -0.4288 -0.3404  0.1834
 4660TIP3    H135539   0.162   1.181   2.111 -0.0580 -0.2406  0.4247
 4660TIP3    H235540   0.128   1.058   2.193 -2.6481 -0.9250 -1.5237
 4661TIP3   OH235541   2.564   2.374   0.062  0.0431 -0.2921  0.0458
 4661TIP3    H135542   2.530   2.297   0.108 -3.3769  1.4767  0.8667
 4661TIP3    H235543   2.601   2.429   0.131  0.2964 -0.1686 -0.1879
 4662TIP3   OH235544   0.130   2.870   2.533 -0.3025 -0.8469  0.2154
 4662TIP3    H135545   0.160   2.945   2.482 -0.6464 -0.7745  0.1199
 4662TIP3    H235546   0.198   2.858   2.599 -0.0189 -0.7357 -0.0528
 4663TIP3   OH235547   2.655   4.348   0.242 -0.4430 -0.3111 -0.4547
 4663TIP3    H135548   2.707   4.428   0.233  1.7614 -1.6991 -0.9416
 4663TIP3    H235549   2.641   4.338   0.336 -0.3413  0.4119 -0.3619
 4664TIP3   OH235550   2.280   3.747   1.295  0.2292 -0.2985 -0.0932
 4664TIP3    H135551   2.300   3.720   1.206  0.6774 -0.4313  0.0476
 4664TIP3    H235552   2.199   3.797   1.287  0.3581 -0.1650 -0.5956
 4665TIP3   OH235553   6.083   0.725   1.137 -0.5707 -0.2836 -0.5087
 4665TIP3    H135554   6.055   0.636   1.117  0.8330 -0.7179 -0.6613
 4665TIP3    H235555   6.076   0.732   1.232  0.9632 -1.1876 -0.2836
 4666TIP3   OH235556   0.369   5.743   1.806  0.3206 -0.4283  0.0712
 4666TIP3    H135557   0.420   5.823   1.794  0.0784 -0.5386 -2.0021
 4666TIP3    H235558   0.290   5.757   1.755  0.1595 -1.8945 -0.1125
 4667TIP3   OH235559   2.977   2.151   0.966 -0.2041 -0.0896 -0.8501
 4667TIP3    H135560   3.021   2.154   0.881 -1.5076  2.2291 -1.5160
 4667TIP3    H235561   2.895   2.198   0.952 -0.5780  0.1094  1.6459
 4668TIP3   OH235562   2.949   5.683   8.701  0.0745  0.9084  0.6008
 4668TIP3    H135563   2.948   5.761   8.757  1.7455  0.0113  1.9883
 4668TIP3    H235564   2.987   5.714   8.619  0.4002  1.6296  1.0075
 4669TIP3   OH235565   4.027   1.198   0.351  1.2433 -0.8799 -0.0590
 4669TIP3    H135566   3.935   1.183   0.330  1.8510 -1.6573 -2.6332
 4669TIP3    H235567   4.026   1.256   0.426 -1.3318 -1.8429  0.7691
 4670TIP3   OH235568   0.833   0.178   7.227 -0.0614  0.0558  0.2507
 4670TIP3    H135569   0.900   0.148   7.288 -1.0723 -0.3713  1.1744
 4670TIP3    H235570   0.854   0.134   7.145  1.2493  0.5471  0.3070
 4671TIP3   OH235571   3.155   6.452   0.848 -0.3203 -0.7313  0.3726
 4671TIP3    H135572   3.134   6.369   0.804 -0.4096 -0.4213 -0.1698
 4671TIP3    H235573   3.121   6.520   0.790  1.4421 -0.2351 -0.1411
 4672TIP3   OH235574   3.882   4.286   7.652  0.0210 -0.0652  0.2387
 4672TIP3    H135575   3.955   4.225   7.642  0.9124  0.6131  2.1266
 4672TIP3    H235576   3.898   4.352   7.584  0.7855 -0.3065  0.1690
 4673TIP3   OH235577   3.729   2.333   8.416  0.5953 -0.6179 -0.2294
 4673TIP3    H135578   3.639   2.353   8.391  0.3080 -1.2290  0.2767
 4673TIP3    H235579   3.782   2.369   8.346 -0.1158 -1.3530 -1.1736
 4674TIP3   OH235580   2.990   5.037   1.946 -0.3466 -0.0295 -0.1384
 4674TIP3    H135581   3.049   5.058   1.874 -1.6542  1.1486 -0.9165
 4674TIP3    H235582   3.007   5.104   2.012 -0.1847 -0.2304  0.0252
 4675TIP3   OH235583   5.341   4.497   7.856  0.1153  0.2515 -0.2509
 4675TIP3    H135584   5.368   4.410   7.825 -0.3991  0.0778 -0.2235
 4675TIP3    H235585   5.355   4.554   7.781  0.0053  0.0537 -0.4244
 4676TIP3   OH235586   0.617   2.047   8.602 -0.0657 -0.0136  0.6595
 4676TIP3    H135587   0.655   2.063   8.515 -0.3432  1.5330  0.7907
 4676TIP3    H235588   0.641   2.124   8.653  1.1297 -1.4357  2.3637
 4677TIP3   OH235589   4.331   6.251   0.348  0.0108 -0.1558  0.3697
 4677TIP3    H135590   4.275   6.308   0.401  0.7358  1.4927 -0.5585
 4677TIP3    H235591   4.332   6.293   0.262  3.4620  0.5199  0.5873
 4678TIP3   OH235592   1.592   0.567   0.714  0.6634 -0.3635 -0.3075
 4678TIP3    H135593   1.513   0.535   0.671  1.3706 -2.4305 -0.1843
 4678TIP3    H235594   1.664   0.528   0.664  1.6098  0.9915 -0.0609
 4679TIP3   OH235595   3.995   6.499   0.234  0.1393 -0.0827  0.3735
 4679TIP3    H135596   4.019   6.497   0.141 -0.6827  0.8538  0.1246
 4679TIP3    H235597   4.053   6.436   0.275  0.7094 -0.3038 -0.7382
 4680TIP3   OH235598   1.313   4.829   0.512  0.5314  0.3237 -0.3877
 4680TIP3    H135599   1.364   4.819   0.592  1.7914  1.2644 -1.0286
 4680TIP3    H235600   1.276   4.917   0.518  1.8617  1.0030 -1.4650
 4681TIP3   OH235601   2.351   5.791   8.689  0.0832 -0.4894  0.1532
 4681TIP3    H135602   2.286   5.850   8.651  0.9464  0.1475 -0.3551
 4681TIP3    H235603   2.337   5.708   8.644  0.0213 -0.1929 -0.3811
 4682TIP3   OH235604   5.774   2.952   8.282  0.1889  0.1580  0.3535
 4682TIP3    H135605   5.694   3.006   8.285 -1.7983 -2.3483 -2.1396
 4682TIP3    H235606   5.845   3.016   8.281 -1.6941  2.5399  2.5425
 4683TIP3   OH235607   0.510   3.769   1.166 -0.0563  0.5869 -0.3829
 4683TIP3    H135608   0.562   3.808   1.096 -0.2287  2.9389  0.6913
 4683TIP3    H235609   0.425   3.812   1.160  0.0580  1.1679  1.4720
 4684TIP3   OH235610   5.602   2.468   7.566  0.0410 -0.4449  0.0335
 4684TIP3    H135611   5.568   2.390   7.609 -1.3823 -1.7782 -3.1728
 4684TIP3    H235612   5.682   2.439   7.523 -1.3742 -0.7646 -2.6033
 4685TIP3   OH235613   5.139   4.511   2.428  0.3446  0.3383 -0.0283
 4685TIP3    H135614   5.046   4.533   2.432  0.5831  1.5600 -0.7360
 4685TIP3    H235615   5.151   4.471   2.341  0.0283 -2.2282  1.0191
 4686TIP3   OH235616   2.518   1.179   2.867 -0.7337  0.1287 -0.1059
 4686TIP3    H135617   2.606   1.144   2.853 -0.7579 -0.5403  1.2949
 4686TIP3    H235618   2.479   1.121   2.932 -2.1841  0.4834 -0.6180
 4687TIP3   OH235619   6.701   5.650   1.210  0.2684  0.3446 -0.3322
 4687TIP3    H135620   6.759   5.716   1.171  1.1207  0.4533  1.0438
 4687TIP3    H235621   6.627   5.645   1.150  0.0618  2.7396 -0.3889
 4688TIP3   OH235622   0.064   1.006   1.872  0.0924 -0.2535  0.1797
 4688TIP3    H135623  -0.023   1.025   1.905  0.9528  4.2096  0.4936
 4688TIP3    H235624   0.123   1.030   1.944  1.6781 -0.7678 -0.8814
 4689TIP3   OH235625   1.760   6.782   8.091  0.2260  0.8141  0.3080
 4689TIP3    H135626   1.696   6.746   8.030  0.5798  1.6175 -0.5634
 4689TIP3    H235627   1.779   6.710   8.152 -0.4251  0.1261 -0.2907
 4690TIP3   OH235628   0.026   4.305   0.443 -0.1554  0.5707 -0.4541
 4690TIP3    H135629  -0.034   4.246   0.489  1.3824 -1.0318 -0.4013
 4690TIP3    H235630   0.079   4.345   0.511 -1.2890  2.2042 -0.4779
 4691TIP3   OH235631   4.784   0.698   0.625  0.2424  0.6884 -0.4014
 4691TIP3    H135632   4.730   0.620   0.611  0.7855  0.5272 -1.8184
 4691TIP3    H235633   4.871   0.664   0.644  0.2648  0.9558 -0.0137
 4692TIP3   OH235634   3.591   3.191   2.432 -0.2252 -0.0088 -0.5690
 4692TIP3    H135635   3.520   3.255   2.431 -0.0741  0.1955  0.4930
 4692TIP3    H235636   3.557   3.117   2.483 -0.5008 -0.9153 -2.0267
 4693TIP3   OH235637   3.014   1.237   2.358 -0.1457  0.4583  0.1695
 4693TIP3    H135638   3.060   1.266   2.278 -1.2969  0.3862 -0.5405
 4693TIP3    H235639   3.012   1.142   2.351  0.4095  0.4041  0.6720
 4694TIP3   OH235640   5.058   4.807   2.554 -0.1373 -0.6573 -0.5218
 4694TIP3    H135641   5.106   4.808   2.471 -0.1503 -2.7062 -0.6143
 4694TIP3    H235642   5.067   4.896   2.588  2.6220 -0.5855 -1.1611
 4695TIP3   OH235643   4.311   6.653   1.935  0.5018 -0.7880  0.1171
 4695TIP3    H135644   4.323   6.588   1.866 -3.0882  0.4602 -1.9775
 4695TIP3    H235645   4.220   6.642   1.963  0.1851  2.2976  0.6591
 4696TIP3   OH235646   1.775   2.054   8.468  0.2414  0.1419 -0.1043
 4696TIP3    H135647   1.865   2.053   8.501 -0.1229  2.1276  1.0957
 4696TIP3    H235648   1.767   1.973   8.417  2.7244 -0.0321 -0.3268
 4697TIP3   OH235649   1.584   1.220   0.800 -0.0109 -0.0764  0.1694
 4697TIP3    H135650   1.517   1.179   0.854 -0.9089  1.4498  0.2872
 4697TIP3    H235651   1.535   1.280   0.743  1.0382 -0.6541 -1.4189
 4698TIP3   OH235652   5.227   3.123   2.344 -0.4530 -0.0751 -0.1630
 4698TIP3    H135653   5.280   3.120   2.264 -3.0372  1.0065 -2.0585
 4698TIP3    H235654   5.242   3.038   2.386  2.3665  0.0140 -0.7710
 4699TIP3   OH235655   1.588   4.137   3.042  0.0489  0.0108 -0.5244
 4699TIP3    H135656   1.681   4.119   3.051 -0.2549 -1.7051 -0.5018
 4699TIP3    H235657   1.547   4.088   3.114 -1.0139 -0.7580 -1.6218
 4700TIP3   OH235658   2.044   3.044   0.483 -0.4090  0.7756 -0.0029
 4700TIP3    H135659   1.965   3.066   0.533  0.2527  0.4953  1.1943
 4700TIP3    H235660   2.114   3.043   0.547  0.3937 -0.0807 -0.8555
 4701TIP3   OH235661   0.975   1.039   1.278  0.3133 -0.0352 -0.8299
 4701TIP3    H135662   0.913   1.099   1.320  0.1201  0.2885 -1.5667
 4701TIP3    H235663   1.061   1.073   1.302  0.2045  0.2977 -0.9119
 4702TIP3   OH235664   3.407   1.048   0.944  0.4885 -0.1239  0.3231
 4702TIP3    H135665   3.487   1.081   0.985  1.6467  0.2469 -2.0448
 4702TIP3    H235666   3.336   1.089   0.993  1.8086  1.8163  0.7364
 4703TIP3   OH235667   4.649   6.700   7.925  0.5457  0.3235 -0.2325
 4703TIP3    H135668   4.677   6.743   7.845 -0.4217  4.4700  1.4117
 4703TIP3    H235669   4.728   6.694   7.979  0.3174  2.2631  0.3757
 4704TIP3   OH235670   3.290   3.760   0.462  0.1785 -0.2960 -0.2342
 4704TIP3    H135671   3.313   3.848   0.431 -0.2108 -0.8891 -2.3352
 4704TIP3    H235672   3.194   3.759   0.463  0.1322 -1.2314 -2.0026
 4705TIP3   OH235673   5.981   3.953   8.108 -0.1865 -0.1399  0.7225
 4705TIP3    H135674   5.894   3.954   8.068 -0.6391 -1.5507  1.6207
 4705TIP3    H235675   5.991   4.040   8.146 -2.0513 -0.5474  2.3190
 4706TIP3   OH235676   2.116   5.121   3.430  0.2137  0.3427 -0.3824
 4706TIP3    H135677   2.023   5.110   3.410  0.1930 -0.5869  0.1820
 4706TIP3    H235678   2.149   5.032   3.441  0.5365  0.7110  2.2493
 4707TIP3   OH235679   2.975   1.870   2.639  0.3360 -0.0295  0.1441
 4707TIP3    H135680   2.938   1.958   2.631 -0.2803 -0.3063 -0.0226
 4707TIP3    H235681   3.018   1.870   2.725  1.9737  1.0450 -0.6041
 4708TIP3   OH235682   4.055   2.964   0.863  0.0537  0.2132  0.2114
 4708TIP3    H135683   3.986   2.918   0.910  0.4701 -0.0728  0.5559
 4708TIP3    H235684   4.020   2.979   0.775 -0.1764 -0.5557  0.1690
 4709TIP3   OH235685   5.619   1.859   8.213 -0.1214  0.1621  0.1281
 4709TIP3    H135686   5.655   1.815   8.135 -1.1906  1.2917 -1.0507
 4709TIP3    H235687   5.544   1.806   8.238 -0.6087  0.5521 -0.4777
 4710TIP3   OH235688   1.585   6.005   7.016 -0.1566  0.3068 -0.2255
 4710TIP3    H135689   1.619   6.056   6.942  0.0279  2.1371  1.0565
 4710TIP3    H235690   1.660   5.955   7.048  0.4032  1.4000  0.2157
 4711TIP3   OH235691   5.056   1.930   8.773 -0.4035 -0.7784 -0.3261
 4711TIP3    H135692   5.060   2.016   8.815 -0.8310  0.6391 -2.9758
 4711TIP3    H235693   5.143   1.918   8.735 -0.6678 -0.9910 -0.8742
 4712TIP3   OH235694   5.780   6.143   3.194 -0.6080 -0.8517 -0.1940
 4712TIP3    H135695   5.785   6.174   3.104  0.6038  1.2554  0.5142
 4712TIP3    H235696   5.868   6.159   3.230 -0.4912 -3.3773  0.8796
 4713TIP3   OH235697   2.652   5.284   8.733 -0.4071  0.2371 -0.6753
 4713TIP3    H135698   2.735   5.324   8.761 -0.9150  2.4642 -2.0929
 4713TIP3    H235699   2.629   5.225   8.805  0.9515  1.7378  1.1049
 4714TIP3   OH235700   6.619   5.758   0.131 -0.2957  0.1237 -0.2244
 4714TIP3    H135701   6.643   5.678   0.085 -2.1751 -0.2788 -0.6114
 4714TIP3    H235702   6.653   5.747   0.220  2.3864  0.4166 -1.1322
 4715TIP3   OH235703   5.931   2.812   0.063 -0.4074  0.3888  0.0901
 4715TIP3    H135704   5.865   2.855   0.118  0.7633  0.0217  1.8822
 4715TIP3    H235705   5.884   2.739   0.022 -1.0794 -0.0892  1.6089
 4716TIP3   OH235706   6.353   1.344   0.875 -0.2709 -0.2381 -0.4413
 4716TIP3    H135707   6.273   1.374   0.830  0.1874  1.1124 -0.4027
 4716TIP3    H235708   6.386   1.273   0.821 -0.9253 -0.0940 -1.0448
 4717TIP3   OH235709   3.723   3.148   1.966  0.0282  0.2684 -0.0984
 4717TIP3    H135710   3.663   3.222   1.970  0.8533  0.9187  0.5479
 4717TIP3    H235711   3.803   3.184   1.929  0.5622 -0.2089  0.5672
 4718TIP3   OH235712   0.297   6.481   7.824  0.2174 -0.5663  0.2547
 4718TIP3    H135713   0.333   6.563   7.790  0.7142 -0.7546  0.3183
 4718TIP3    H235714   0.277   6.430   7.745 -0.6520 -0.1534  0.1988
 4719TIP3   OH235715   2.641   2.861   8.460 -0.3499  0.1070  0.3375
 4719TIP3    H135716   2.646   2.944   8.507  1.1440 -0.5528  1.4433
 4719TIP3    H235717   2.667   2.882   8.370 -3.0779  1.3598 -0.2611
 4720TIP3   OH235718   1.112   0.799   1.142 -0.2897 -0.3709  0.4204
 4720TIP3    H135719   1.183   0.810   1.078 -0.0927 -0.2869  0.6526
 4720TIP3    H235720   1.135   0.858   1.214 -0.4137 -0.6089  0.6557
 4721TIP3   OH235721   1.190   4.657   0.904  0.2013  0.1306 -0.1223
 4721TIP3    H135722   1.098   4.661   0.877  0.1279 -0.4896  0.0289
 4721TIP3    H235723   1.226   4.742   0.878 -0.6852  0.8158  0.8160
 4722TIP3   OH235724   5.773   5.469   1.949 -0.2542 -0.2241  0.1571
 4722TIP3    H135725   5.834   5.528   1.904 -0.3516 -0.3767 -0.1784
 4722TIP3    H235726   5.826   5.426   2.016  0.4097 -1.5580 -1.1879
 4723TIP3   OH235727   2.248   2.060   3.308 -0.0634  0.5734 -0.2053
 4723TIP3    H135728   2.172   2.004   3.293 -1.1679  1.4524  1.7726
 4723TIP3    H235729   2.313   2.002   3.349 -0.4104  0.2694 -0.0866
 4724TIP3   OH235730   2.625   3.776   7.424 -0.2909 -0.2403 -0.9600
 4724TIP3    H135731   2.673   3.833   7.483  0.0416  1.1665 -2.5128
 4724TIP3    H235732   2.635   3.689   7.461  0.2285  0.5398  0.8184
 4725TIP3   OH235733   2.893   4.313   3.177 -0.2832 -0.3881 -0.6146
 4725TIP3    H135734   2.816   4.361   3.208 -0.0699  0.9604 -2.0411
 4725TIP3    H235735   2.864   4.222   3.170 -1.1526 -0.2385  0.7105
 4726TIP3   OH235736   0.958   3.031   1.290  0.8197  0.8840 -0.0280
 4726TIP3    H135737   0.928   3.093   1.224  0.7429  0.5957 -0.2668
 4726TIP3    H235738   0.983   2.953   1.240  1.9648  1.1091  0.1557
 4727TIP3   OH235739   6.277   4.925   8.531  0.4980  0.2208 -0.3246
 4727TIP3    H135740   6.250   4.908   8.622  0.0879 -0.3314 -0.5478
 4727TIP3    H235741   6.331   4.850   8.508 -1.2491 -0.7761 -1.2906
 4728TIP3   OH235742   1.088   5.789   1.581  0.2689  0.1396  0.0028
 4728TIP3    H135743   1.113   5.741   1.501  1.1140  1.5306 -0.6077
 4728TIP3    H235744   1.024   5.854   1.551  0.4326  0.5297  0.4888
 4729TIP3   OH235745   5.681   3.586   1.889  0.3064  0.5542 -0.0373
 4729TIP3    H135746   5.682   3.649   1.961  0.7128  0.3664  0.1242
 4729TIP3    H235747   5.593   3.593   1.852 -0.3511 -0.2744  1.2932
 4730TIP3   OH235748   4.517   2.325   1.852 -0.5050  0.1932 -0.3645
 4730TIP3    H135749   4.443   2.300   1.908 -0.9138  1.0861 -0.4879
 4730TIP3    H235750   4.513   2.421   1.849  2.7797  0.6335  2.6150
 4731TIP3   OH235751   6.469   1.446   0.440 -0.3157 -0.4609 -0.3948
 4731TIP3    H135752   6.389   1.495   0.421 -0.7250 -1.0561 -0.2172
 4731TIP3    H235753   6.441   1.355   0.448 -0.2287 -0.3128  3.0354
 4732TIP3   OH235754   4.711   1.375   7.751  0.5602 -0.6266 -0.0736
 4732TIP3    H135755   4.706   1.292   7.703 -1.0853  1.0667 -3.1813
 4732TIP3    H235756   4.805   1.392   7.761  0.9344 -2.0785 -0.8791
 4733TIP3   OH235757   2.804   4.806   7.941 -0.6423 -0.4040 -0.5513
 4733TIP3    H135758   2.756   4.887   7.960 -0.4999  0.4577 -3.4249
 4733TIP3    H235759   2.896   4.830   7.951 -0.6348 -0.7099  0.2064
 4734TIP3   OH235760   6.192   5.073   8.096 -0.4268  0.1611  0.5385
 4734TIP3    H135761   6.131   5.137   8.061  0.5159  0.5441 -0.4587
 4734TIP3    H235762   6.213   5.016   8.022  0.5772  0.1727  0.7907
 4735TIP3   OH235763   0.252   2.968   0.664  0.6500  0.1026  0.3407
 4735TIP3    H135764   0.341   3.000   0.681  0.2927  0.6205  1.3097
 4735TIP3    H235765   0.257   2.874   0.677  1.1976  0.0375 -0.2650
 4736TIP3   OH235766   2.971   4.124   0.375  0.3915 -0.2654 -0.7142
 4736TIP3    H135767   2.903   4.103   0.440 -1.0436  1.8748 -1.4285
 4736TIP3    H235768   2.964   4.055   0.309  0.3221 -1.1877  0.2256
 4737TIP3   OH235769   0.672   0.517   0.084 -0.1527 -0.4627  0.6264
 4737TIP3    H135770   0.646   0.602   0.049 -0.0345  0.3654  2.4614
 4737TIP3    H235771   0.595   0.461   0.069  0.1490 -0.3920 -1.5533
 4738TIP3   OH235772   4.559   1.596   8.007 -0.3415 -0.0811  0.3288
 4738TIP3    H135773   4.568   1.663   7.939  0.7557  1.2096  1.6838
 4738TIP3    H235774   4.648   1.567   8.025 -0.5183  0.2175  1.7920
 4739TIP3   OH235775   4.396   6.080   7.845 -0.1299 -0.0232  0.1057
 4739TIP3    H135776   4.468   6.049   7.790  0.6358  1.1039  0.4480
 4739TIP3    H235777   4.318   6.041   7.806  0.2052  1.7685 -2.6670
 4740TIP3   OH235778   5.343   3.144   0.073 -0.8255  0.0110 -0.0565
 4740TIP3    H135779   5.303   3.205   0.134 -0.8586 -0.2628  0.2004
 4740TIP3    H235780   5.429   3.124   0.112 -0.0242  1.3346 -1.0841
 4741TIP3   OH235781   3.760   5.342   0.975  0.1276 -0.5540  0.7790
 4741TIP3    H135782   3.823   5.402   1.015 -0.7656  1.4332 -0.6135
 4741TIP3    H235783   3.698   5.400   0.930 -0.3048 -2.5692 -1.3861
 4742TIP3   OH235784   3.285   1.277   2.190  0.2357 -0.8065 -0.0978
 4742TIP3    H135785   3.244   1.192   2.177  0.3009 -0.9465  0.6149
 4742TIP3    H235786   3.378   1.261   2.173  0.0286 -0.4765 -1.7713
 4743TIP3   OH235787   6.642   0.776   1.470  0.1709 -0.5292  1.0484
 4743TIP3    H135788   6.565   0.764   1.525  0.3384 -2.4002  0.9465
 4743TIP3    H235789   6.712   0.799   1.531  0.1367 -1.6311  1.5257
 4744TIP3   OH235790   4.812   6.108   8.035 -0.0293 -0.1375  0.3248
 4744TIP3    H135791   4.877   6.059   7.985  0.8206  1.1914  0.1062
 4744TIP3    H235792   4.854   6.125   8.119  1.5192  3.8984 -1.0201
 4745TIP3   OH235793   3.512   3.225   3.278  0.3049  0.2670  0.1844
 4745TIP3    H135794   3.442   3.170   3.314  0.0525  0.2085 -0.3808
 4745TIP3    H235795   3.472   3.311   3.268  0.3620  0.2723  0.0063
 4746TIP3   OH235796   1.373   6.017   0.288 -0.4593  0.6765 -0.1087
 4746TIP3    H135797   1.281   6.032   0.308 -0.6823  0.9748 -1.3157
 4746TIP3    H235798   1.373   5.979   0.201  0.4706 -0.9012  0.5282
 4747TIP3   OH235799   1.754   6.294   8.693 -0.1736  0.2444  0.8684
 4747TIP3    H135800   1.668   6.305   8.651 -0.1515 -0.3714  0.6658
 4747TIP3    H235801   1.751   6.355   8.767 -0.8304  0.1534  0.9258
 4748TIP3   OH235802   6.463   2.421   0.037  0.8272 -0.3995 -0.3509
 4748TIP3    H135803   6.500   2.434  -0.050  1.6470 -0.4067 -0.0176
 4748TIP3    H235804   6.369   2.410   0.022  0.9209 -0.1418 -1.2040
 4749TIP3   OH235805   1.620   5.538   7.451  0.0256  0.3728  0.2053
 4749TIP3    H135806   1.544   5.527   7.395 -0.9327  2.5843  0.9747
 4749TIP3    H235807   1.683   5.586   7.398  0.5434 -0.6230 -0.1098
 4750TIP3   OH235808   6.106   3.582   2.380 -0.0525  0.2951  0.0525
 4750TIP3    H135809   6.106   3.674   2.353  0.9869 -0.5202 -3.2417
 4750TIP3    H235810   6.024   3.572   2.429  0.0633  3.0510  0.9794
 4751TIP3   OH235811   1.824   5.755   2.572  0.3714  0.0797 -0.1252
 4751TIP3    H135812   1.772   5.688   2.528 -1.6572  2.3173 -1.3824
 4751TIP3    H235813   1.840   5.720   2.660 -0.5233 -2.0323 -0.7494
 4752TIP3   OH235814   1.713   0.172   3.892 -0.2995 -0.0635  0.2351
 4752TIP3    H135815   1.638   0.112   3.889 -0.3745 -0.1253  2.2327
 4752TIP3    H235816   1.759   0.157   3.809 -2.5866  0.1340 -1.1658
 4753TIP3   OH235817   0.194   5.686   8.380  0.2354  0.1474 -0.3419
 4753TIP3    H135818   0.218   5.596   8.358  1.5460  0.1550  0.8682
 4753TIP3    H235819   0.259   5.739   8.335  1.4106  0.2827  1.4191
 4754TIP3   OH235820   2.462   0.020   2.697  0.5962  0.0901 -0.2794
 4754TIP3    H135821   2.378  -0.013   2.728  0.4504  0.4031 -0.3422
 4754TIP3    H235822   2.456   0.115   2.707  1.3235  0.0481  0.6867
 4755TIP3   OH235823   4.313   5.947   2.335  0.1162 -0.3780  0.3811
 4755TIP3    H135824   4.378   5.878   2.347  2.1377  0.3119 -4.5159
 4755TIP3    H235825   4.364   6.028   2.331 -1.3682  0.5531 -0.6364
 4756TIP3   OH235826   5.566   1.869   7.771  0.0931 -0.1042 -0.3855
 4756TIP3    H135827   5.593   1.913   7.690  0.0358 -2.5287 -1.8217
 4756TIP3    H235828   5.499   1.927   7.808  0.4959  1.3315 -1.7724
 4757TIP3   OH235829   1.239   6.775   3.389 -0.6515 -0.4312  0.0442
 4757TIP3    H135830   1.292   6.838   3.340 -2.4438  0.7916 -0.4473
 4757TIP3    H235831   1.252   6.692   3.343  0.1650  0.0281 -0.5719
 4758TIP3   OH235832   3.262   2.275   1.664 -0.0744  0.7281  0.0730
 4758TIP3    H135833   3.347   2.319   1.666 -1.1026  2.8643 -0.4852
 4758TIP3    H235834   3.283   2.183   1.680  2.2448  1.3060  0.8450
 4759TIP3   OH235835   3.166   3.839   2.729 -0.1557  0.9754 -0.4716
 4759TIP3    H135836   3.077   3.832   2.763  0.4265  2.7749  1.6695
 4759TIP3    H235837   3.191   3.749   2.708 -1.9385  0.2519  0.3198
 4760TIP3   OH235838   5.787   5.070   1.202 -0.3062 -0.1889 -1.0946
 4760TIP3    H135839   5.807   5.114   1.284 -2.7748  0.5368 -0.8243
 4760TIP3    H235840   5.759   5.140   1.143 -0.5074 -0.9381 -1.9085
 4761TIP3   OH235841   0.404   0.266   1.674  0.3925 -0.6357 -0.2680
 4761TIP3    H135842   0.397   0.176   1.643  0.9934 -1.0201  0.6787
 4761TIP3    H235843   0.451   0.312   1.605  2.1320 -1.5834  0.2239
 4762TIP3   OH235844   5.853   3.968   0.386  0.0708 -0.6709 -0.2076
 4762TIP3    H135845   5.941   3.943   0.415  1.1785  1.7682 -1.1933
 4762TIP3    H235846   5.867   4.048   0.336 -2.8967  0.7042  0.9611
 4763TIP3   OH235847   3.321   0.337   1.533 -0.0304  0.3943 -0.3040
 4763TIP3    H135848   3.377   0.315   1.608 -0.7604  0.7194  0.3504
 4763TIP3    H235849   3.234   0.305   1.559 -0.5521  1.6274 -0.4777
 4764TIP3   OH235850   0.454   2.377   7.628 -0.2051 -0.0039 -0.2437
 4764TIP3    H135851   0.428   2.321   7.554 -0.3471 -0.5873  0.2449
 4764TIP3    H235852   0.526   2.430   7.594 -1.0797  0.6169 -1.1887
 4765TIP3   OH235853   4.424   4.413   2.334  0.3996 -0.5937  0.3265
 4765TIP3    H135854   4.347   4.469   2.345  0.1997 -0.6738 -0.5713
 4765TIP3    H235855   4.498   4.472   2.346  0.1972  0.0473 -1.3392
 4766TIP3   OH235856   0.249   5.455   0.017  0.0706 -0.0618  0.4883
 4766TIP3    H135857   0.227   5.405  -0.061 -0.7282 -1.2646  1.4417
 4766TIP3    H235858   0.333   5.420   0.045 -0.7705 -1.3640  1.4978
 4767TIP3   OH235859   1.910   5.166   1.411  0.0397 -0.0394 -0.5819
 4767TIP3    H135860   2.005   5.171   1.403  0.0109  0.1231 -0.8341
 4767TIP3    H235861   1.888   5.224   1.484  0.2250 -0.8612  0.1470
 4768TIP3   OH235862   1.456   2.876   1.971  0.2271  0.3256  0.5998
 4768TIP3    H135863   1.400   2.887   2.049  1.4549 -0.1254  1.5803
 4768TIP3    H235864   1.500   2.961   1.962  0.0673  0.3849  0.3848
 4769TIP3   OH235865   2.821   0.327   0.408 -0.2503 -0.0651  0.2275
 4769TIP3    H135866   2.794   0.243   0.445 -0.3631 -0.6854 -1.1762
 4769TIP3    H235867   2.858   0.375   0.482  0.6421 -1.6938  0.9121
 4770TIP3   OH235868   1.040   5.257   8.047 -0.2290  0.5000  0.2898
 4770TIP3    H135869   0.974   5.190   8.028  0.6821 -0.3087 -0.1165
 4770TIP3    H235870   1.110   5.209   8.090  0.6200  1.1153 -0.3789
 4771TIP3   OH235871   0.468   5.261   8.604  0.0452 -0.4213  0.1414
 4771TIP3    H135872   0.388   5.243   8.555  1.4585 -0.7939 -2.1995
 4771TIP3    H235873   0.529   5.193   8.576  0.9969 -0.6010  2.4262
 4772TIP3   OH235874   2.854   1.264   7.947 -0.1959  0.2118  0.1400
 4772TIP3    H135875   2.916   1.337   7.951  1.0788 -0.7428 -1.1188
 4772TIP3    H235876   2.827   1.261   7.855  1.7085 -2.3592 -0.4622
 4773TIP3   OH235877   6.085   2.766   3.094 -0.3717  0.3109  0.5763
 4773TIP3    H135878   6.031   2.824   3.039 -1.8423 -1.3519  0.1820
 4773TIP3    H235879   6.044   2.680   3.086  0.4157 -0.3528  2.9337
 4774TIP3   OH235880   5.777   1.165   2.536 -0.2679 -0.7290  0.0798
 4774TIP3    H135881   5.805   1.078   2.508 -0.0897 -0.8573  0.6440
 4774TIP3    H235882   5.757   1.211   2.454  0.1180 -1.1341 -0.2505
 4775TIP3   OH235883   4.142   0.414   7.773 -0.4126 -0.0309 -0.3266
 4775TIP3    H135884   4.226   0.398   7.729  1.1856  0.9830  2.1013
 4775TIP3    H235885   4.096   0.474   7.714  0.6094 -0.4837 -1.6569
 4776TIP3   OH235886   1.355   1.551   2.321  0.2650  0.0288  0.0836
 4776TIP3    H135887   1.293   1.600   2.374  0.2060 -0.6166  0.6235
 4776TIP3    H235888   1.386   1.614   2.256 -0.1078  0.6633  0.5088
 4777TIP3   OH235889   0.123   3.499   2.511  0.1144 -0.3207 -0.2192
 4777TIP3    H135890   0.158   3.418   2.550  2.1582  0.3927 -0.4389
 4777TIP3    H235891   0.126   3.563   2.582  1.6084  0.3722 -0.8646
 4778TIP3   OH235892   6.309   1.761   0.725  0.0673  0.2439 -0.1109
 4778TIP3    H135893   6.226   1.788   0.686  0.4077  0.7706 -0.4688
 4778TIP3    H235894   6.371   1.829   0.700  0.5880 -0.0977  0.2391
 4779TIP3   OH235895   2.409   4.529   2.146 -0.1071 -0.8873 -0.0375
 4779TIP3    H135896   2.392   4.584   2.069  1.8588 -1.2656 -0.8170
 4779TIP3    H235897   2.380   4.582   2.220  1.1197  1.0024 -0.8107
 4780TIP3   OH235898   0.699   4.820   3.239  0.3036  0.5879  0.5840
 4780TIP3    H135899   0.658   4.764   3.305  0.1412 -0.4581 -0.3597
 4780TIP3    H235900   0.764   4.763   3.197  1.1658  1.5557  0.5542
 4781TIP3   OH235901   6.276   3.406   1.788 -0.2804 -0.4123 -0.0980
 4781TIP3    H135902   6.291   3.473   1.721 -0.7085 -0.3062 -0.0955
 4781TIP3    H235903   6.225   3.451   1.855  0.3209 -0.4686  0.3952
 4782TIP3   OH235904   1.675   0.197   0.433  0.0146  0.0137 -0.2887
 4782TIP3    H135905   1.750   0.254   0.445 -0.8483  1.2210 -0.4686
 4782TIP3    H235906   1.627   0.202   0.516 -0.8606  0.7784 -0.8190
 4783TIP3   OH235907   2.176   5.244   2.277  0.0873  0.7452  0.0568
 4783TIP3    H135908   2.268   5.262   2.259 -0.2822  0.9129 -1.9156
 4783TIP3    H235909   2.143   5.323   2.319  1.4710 -0.4084  3.6649
 4784TIP3   OH235910   5.986   1.288   8.540  0.3825 -0.2762  0.2755
 4784TIP3    H135911   5.925   1.344   8.589 -1.2506  0.8439 -2.8141
 4784TIP3    H235912   6.073   1.321   8.564 -0.3701  0.7784  1.7063
 4785TIP3   OH235913   6.130   3.853   1.564 -0.5355  0.0361  0.0583
 4785TIP3    H135914   6.119   3.912   1.638  0.2577  0.6065 -0.2597
 4785TIP3    H235915   6.041   3.826   1.541 -0.9116  1.0920  0.2290
 4786TIP3   OH235916   6.233   6.607   7.731  0.1867  0.0318 -0.5304
 4786TIP3    H135917   6.285   6.527   7.727 -0.0222 -0.3297  2.1033
 4786TIP3    H235918   6.237   6.634   7.823  0.9928  3.5910 -1.4460
 4787TIP3   OH235919   2.284   2.554   8.070 -0.2228  0.1973 -0.3649
 4787TIP3    H135920   2.355   2.518   8.122  0.8471 -0.2275 -2.0425
 4787TIP3    H235921   2.244   2.478   8.027 -0.3746  0.6291 -1.0149
 4788TIP3   OH235922   5.484   1.178   2.401 -0.1360 -0.0824 -0.3631
 4788TIP3    H135923   5.440   1.259   2.376 -0.5664  0.4451  1.8980
 4788TIP3    H235924   5.577   1.196   2.386  0.0255  1.7561  2.2314
 4789TIP3   OH235925   0.680   6.161   8.093  0.4766  0.1354 -0.0974
 4789TIP3    H135926   0.720   6.192   8.012  1.7281  0.4280  0.6150
 4789TIP3    H235927   0.671   6.066   8.080 -0.6402  0.3471 -1.1088
 4790TIP3   OH235928   2.655   5.923   0.431 -0.4785 -0.3746 -0.1623
 4790TIP3    H135929   2.682   5.973   0.354 -0.7511  1.5468  0.9220
 4790TIP3    H235930   2.669   5.831   0.407  0.7983  0.2452 -1.9572
 4791TIP3   OH235931   5.596   6.775   1.857  0.5372  0.2265 -0.1626
 4791TIP3    H135932   5.597   6.865   1.890  1.9037  0.4278 -0.6947
 4791TIP3    H235933   5.546   6.780   1.776  1.1388  0.6291 -0.5111
 4792TIP3   OH235934   0.781   4.261   8.323  0.3797  0.1084  0.1798
 4792TIP3    H135935   0.776   4.347   8.281 -3.6101 -0.3572 -0.6807
 4792TIP3    H235936   0.774   4.280   8.416  0.4370  0.7461  0.0637
 4793TIP3   OH235937   4.947   6.597   2.574  0.3327  0.4173 -0.3499
 4793TIP3    H135938   4.915   6.663   2.635  1.1653  0.5824 -0.0759
 4793TIP3    H235939   5.017   6.552   2.622 -0.2621 -0.7022 -0.5194
 4794TIP3   OH235940   0.928   3.303   1.962 -0.1255  0.5152 -0.2552
 4794TIP3    H135941   0.988   3.268   1.896  0.3856  0.9307 -0.0185
 4794TIP3    H235942   0.941   3.246   2.038  0.1681  0.7680 -0.1146
 4795TIP3   OH235943   1.314   6.581   8.132  0.0340 -0.1309 -0.0874
 4795TIP3    H135944   1.274   6.494   8.124 -0.9066  0.3938 -1.6211
 4795TIP3    H235945   1.312   6.616   8.042  1.3742  1.0517  0.3219
 4796TIP3   OH235946   6.626   1.428   1.214  0.6327  0.1986  0.3185
 4796TIP3    H135947   6.570   1.386   1.149  0.2252 -0.0989  0.8491
 4796TIP3    H235948   6.607   1.382   1.296  1.1506  0.5489  0.6476
 4797TIP3   OH235949   2.373   4.932   2.832  0.2857 -0.3409  0.4033
 4797TIP3    H135950   2.331   4.860   2.783  0.0356 -0.7436  1.1874
 4797TIP3    H235951   2.385   5.001   2.767 -1.5213 -0.2489  0.1221
 4798TIP3   OH235952   0.880   3.106   8.024  0.0914 -0.4733  0.6560
 4798TIP3    H135953   0.943   3.109   8.096 -0.6309  1.4785  1.2912
 4798TIP3    H235954   0.823   3.182   8.040 -1.1635 -1.0180 -1.0125
 4799TIP3   OH235955   1.033   6.141   8.108 -0.1259  0.1584 -0.5582
 4799TIP3    H135956   1.034   6.058   8.061  0.0122  0.1698 -0.5764
 4799TIP3    H235957   0.970   6.128   8.179  0.4603 -0.2231 -0.0932
 4800TIP3   OH235958   6.578   0.838   2.678  0.2720  0.1619 -0.3230
 4800TIP3    H135959   6.524   0.770   2.719  0.1118  0.2366 -0.4090
 4800TIP3    H235960   6.639   0.865   2.746 -0.8274  1.2040  0.2901
 4801TIP3   OH235961   6.502   4.025   8.174 -0.4752  0.4056 -0.5575
 4801TIP3    H135962   6.416   4.067   8.174 -1.0893 -0.6400 -3.6618
 4801TIP3    H235963   6.540   4.045   8.088  1.5011 -0.8792 -0.0724
 4802TIP3   OH235964   2.612   6.571   1.226  0.5551 -0.2403 -0.5433
 4802TIP3    H135965   2.602   6.476   1.213  3.5566 -0.7758  0.1018
 4802TIP3    H235966   2.592   6.609   1.141  0.6640 -1.6090 -1.2153
 4803TIP3   OH235967   6.531   4.613   1.373  0.1619 -0.4010 -0.1517
 4803TIP3    H135968   6.458   4.556   1.349  0.0938 -0.2318 -0.3499
 4803TIP3    H235969   6.592   4.604   1.300  0.4496 -0.7251  0.1222
 4804TIP3   OH235970   4.198   3.505   3.146  0.5376 -0.6799  0.3051
 4804TIP3    H135971   4.218   3.460   3.064  1.5104 -0.4127  0.3811
 4804TIP3    H235972   4.210   3.598   3.127  0.3255 -0.5819  0.6330
 4805TIP3   OH235973   0.681   4.882   0.272 -0.0835 -0.2633  0.7401
 4805TIP3    H135974   0.653   4.841   0.191 -0.7209 -0.6379  1.1384
 4805TIP3    H235975   0.651   4.973   0.265  3.0354  0.7549 -0.9910
 4806TIP3   OH235976   0.000   4.789   0.778 -0.2990 -0.6206 -0.2390
 4806TIP3    H135977   0.010   4.863   0.718 -0.5634 -0.2037  0.2241
 4806TIP3    H235978  -0.049   4.825   0.852  1.7313 -0.5779  1.1671
 4807TIP3   OH235979   4.578   6.798   1.362  0.5612  0.0111  0.2662
 4807TIP3    H135980   4.665   6.771   1.330  0.3457  1.4864 -1.7746
 4807TIP3    H235981   4.531   6.716   1.376  1.3797 -0.8004 -1.4127
 4808TIP3   OH235982   6.126   5.902   3.564  0.2191 -0.1038  0.0929
 4808TIP3    H135983   6.162   5.832   3.510  0.4486 -0.1009  0.2404
 4808TIP3    H235984   6.119   5.977   3.505 -0.8060 -0.4699 -0.2865
 4809TIP3   OH235985   0.569   5.590   1.907  0.5345 -0.0896  0.2212
 4809TIP3    H135986   0.485   5.632   1.888  0.7083 -0.0290 -0.4301
 4809TIP3    H235987   0.579   5.599   2.001 -0.1647 -0.0473  0.2995
 4810TIP3   OH235988   6.357   4.430   1.255 -0.6755 -0.0418 -0.6983
 4810TIP3    H135989   6.394   4.386   1.178  0.9357  1.0476 -0.5791
 4810TIP3    H235990   6.285   4.373   1.282  0.4585 -1.8768 -1.3725
 4811TIP3   OH235991   4.548   3.286   0.242 -0.1201 -0.0444  0.5579
 4811TIP3    H135992   4.496   3.228   0.187  3.3558 -3.1894  0.1949
 4811TIP3    H235993   4.514   3.273   0.331 -0.1066 -1.8461  0.3240
 4812TIP3   OH235994   0.721   3.614   2.119  0.0051  0.0242 -0.0064
 4812TIP3    H135995   0.684   3.683   2.064  0.4130  0.8079  0.6847
 4812TIP3    H235996   0.816   3.630   2.117  0.2623 -1.4867 -1.1274
 4813TIP3   OH235997   2.146   5.058   6.703 -1.0372  0.4256  0.1966
 4813TIP3    H135998   2.082   5.026   6.767 -2.6028  1.5050 -0.7651
 4813TIP3    H235999   2.192   4.979   6.675 -1.8701 -0.3802  1.0059
 4814TIP3   OH236000   6.139   2.840   1.525  0.1914  0.3254  0.4365
 4814TIP3    H136001   6.107   2.757   1.489  0.4843  0.8638 -1.1517
 4814TIP3    H236002   6.066   2.874   1.577 -0.4445 -0.2557 -0.0551
 4815TIP3   OH236003   5.553   5.011   2.909 -0.2542 -0.1906  0.4154
 4815TIP3    H136004   5.515   5.085   2.956  0.5898 -0.2294  1.1870
 4815TIP3    H236005   5.488   4.941   2.918  0.1273 -0.3808  2.0712
 4816TIP3   OH236006   1.701   1.848   8.305  0.3221 -0.2658 -0.2925
 4816TIP3    H136007   1.675   1.853   8.213 -0.0679  2.9567 -0.1269
 4816TIP3    H236008   1.624   1.811   8.349  0.0757 -0.7654 -1.1233
 4817TIP3   OH236009   5.419   4.544   1.108 -0.0429  0.0028  0.1824
 4817TIP3    H136010   5.353   4.582   1.166 -0.1165  0.9418 -0.4824
 4817TIP3    H236011   5.409   4.593   1.026 -1.5742 -2.8159 -1.5064
 4818TIP3   OH236012   3.506   4.682   2.074  0.4661 -0.0109 -0.0758
 4818TIP3    H136013   3.541   4.748   2.014 -0.6646 -0.3994 -1.2171
 4818TIP3    H236014   3.576   4.668   2.138  1.6002  0.6493 -1.1201
 4819TIP3   OH236015   0.424   6.577   1.161 -0.0892 -0.0435  0.4884
 4819TIP3    H136016   0.517   6.575   1.139 -0.6322  1.5154 -2.4631
 4819TIP3    H236017   0.379   6.562   1.079 -2.4789 -0.0399  1.7052
 4820TIP3   OH236018   0.565   0.074   8.604  0.2548  0.1668  0.5978
 4820TIP3    H136019   0.614   0.040   8.530 -0.8814 -0.2174  0.0078
 4820TIP3    H236020   0.574   0.006   8.672 -0.3322 -0.3875  0.1269
 4821TIP3   OH236021   0.848   5.021   1.519 -0.3312 -0.1215  0.3508
 4821TIP3    H136022   0.855   4.948   1.580 -0.4954  0.7230  1.4084
 4821TIP3    H236023   0.919   5.081   1.544  0.9335 -0.6955 -1.6374
 4822TIP3   OH236024   2.122   1.268   2.917 -0.0058  0.2697 -0.2346
 4822TIP3    H136025   2.061   1.304   2.982 -0.3189  0.2655 -0.5198
 4822TIP3    H236026   2.153   1.186   2.956 -1.4691 -0.5817 -0.7881
 4823TIP3   OH236027   1.649   5.566   1.931  0.1111  0.2810 -0.1238
 4823TIP3    H136028   1.635   5.660   1.921  1.1446  0.3257 -1.3751
 4823TIP3    H236029   1.742   5.557   1.951 -0.4879 -0.3268  2.9238
 4824TIP3   OH236030   2.686   3.125   8.521 -0.0341 -0.3663  0.0754
 4824TIP3    H136031   2.749   3.183   8.563  0.6969 -0.0716 -1.3630
 4824TIP3    H236032   2.697   3.141   8.427 -2.5738  0.0489 -0.2457
 4825TIP3   OH236033   2.996   2.873   8.039 -0.1600  0.1354  0.1684
 4825TIP3    H136034   3.016   2.875   7.946 -0.0623  1.1724  0.2012
 4825TIP3    H236035   3.045   2.797   8.072 -0.4149 -0.4064 -0.6576
 4826TIP3   OH236036   5.062   5.502   1.090  0.0934  0.2630 -0.9986
 4826TIP3    H136037   4.978   5.529   1.053 -0.6983 -0.9922 -0.1663
 4826TIP3    H236038   5.100   5.444   1.024 -1.0006 -1.4115 -0.2179
 4827TIP3   OH236039   5.050   6.206   0.439 -0.0519  0.0424  0.1820
 4827TIP3    H136040   5.077   6.138   0.501  0.9389 -0.1096 -0.3937
 4827TIP3    H236041   5.084   6.176   0.355 -2.3492 -0.3333 -0.6873
 4828TIP3   OH236042   3.569   3.410   1.249 -0.5377 -0.2343 -0.6501
 4828TIP3    H136043   3.534   3.497   1.264  0.2675  0.1022 -0.6624
 4828TIP3    H236044   3.602   3.382   1.334 -0.5793 -0.4274 -0.6962
 4829TIP3   OH236045   0.209   2.695   8.271 -0.2621 -0.8586  0.0026
 4829TIP3    H136046   0.293   2.711   8.228 -0.6788  1.3387 -0.1104
 4829TIP3    H236047   0.218   2.735   8.357 -1.3311 -0.1712 -0.1835
 4830TIP3   OH236048   1.078   6.573   0.199 -0.1371  0.7053  0.0909
 4830TIP3    H136049   1.171   6.567   0.220 -0.3468 -0.5598  0.7252
 4830TIP3    H236050   1.034   6.566   0.284 -0.8732 -0.8035 -0.3784
 4831TIP3   OH236051   0.236   2.883   8.794  0.2642 -0.0901 -0.0379
 4831TIP3    H136052   0.323   2.920   8.811 -0.2683  3.8145 -3.8073
 4831TIP3    H236053   0.180   2.919   8.862  0.8392  1.3786 -0.3133
 4832TIP3   OH236054   3.156   4.701   8.142  0.0791 -0.3441 -0.1224
 4832TIP3    H136055   3.141   4.769   8.076  1.0902  0.1856  0.1618
 4832TIP3    H236056   3.251   4.686   8.139 -0.1062 -1.6129 -0.0465
 4833TIP3   OH236057   5.941   1.658   8.210  0.3833 -0.3048  0.1124
 4833TIP3    H136058   5.902   1.644   8.297 -5.4941  3.0675 -1.4117
 4833TIP3    H236059   5.981   1.745   8.216 -0.6957  0.2716 -0.5733
 4834TIP3   OH236060   6.169   3.153   0.469  0.0014 -0.5375 -0.0796
 4834TIP3    H136061   6.115   3.199   0.404  1.7712 -0.0589 -1.2723
 4834TIP3    H236062   6.109   3.090   0.508 -1.4191 -0.0942 -1.4110
 4835TIP3   OH236063   1.017   3.328   0.251  0.4074  0.1478  0.1043
 4835TIP3    H136064   1.104   3.289   0.244  0.6436  0.4531  1.1743
 4835TIP3    H236065   0.974   3.280   0.321  0.6906  1.7383  1.4145
 4836TIP3   OH236066   3.470   1.264   8.232 -0.2050 -0.2961  0.4346
 4836TIP3    H136067   3.429   1.350   8.243 -0.4930 -0.4132  0.3011
 4836TIP3    H236068   3.493   1.260   8.140 -0.0394 -0.2974  0.4754
 4837TIP3   OH236069   1.087   1.365   0.280 -0.5444  0.0185 -0.5677
 4837TIP3    H136070   1.010   1.381   0.225 -1.7292 -1.2966  0.6336
 4837TIP3    H236071   1.112   1.275   0.260  1.0885  0.6105 -1.3740
 4838TIP3   OH236072   6.101   6.281   1.409 -0.1041  0.1100  0.1815
 4838TIP3    H136073   6.107   6.231   1.490  0.7946 -1.3383 -0.7311
 4838TIP3    H236074   6.030   6.343   1.423 -0.1396 -0.3043  1.9583
 4839TIP3   OH236075   4.567   3.841   2.050 -0.5655 -0.1684 -0.0127
 4839TIP3    H136076   4.533   3.778   2.113 -2.2782 -1.4756 -2.1108
 4839TIP3    H236077   4.661   3.824   2.046 -0.7471 -1.4019  0.6985
 4840TIP3   OH236078   0.424   5.738   2.794  0.0533  0.7083  0.3232
 4840TIP3    H136079   0.422   5.730   2.698 -0.6793  0.0785  0.3833
 4840TIP3    H236080   0.417   5.647   2.825 -0.6147  0.9793  0.9791
 4841TIP3   OH236081   5.331   4.653   0.845 -0.2223 -0.8738  0.0902
 4841TIP3    H136082   5.267   4.594   0.804 -0.8341 -0.3715  0.3023
 4841TIP3    H236083   5.325   4.734   0.794 -1.5935  0.0556  1.6113
 4842TIP3   OH236084   3.360   0.585   1.725 -0.3464  0.0194 -0.0430
 4842TIP3    H136085   3.353   0.495   1.757 -0.1664  0.2278  0.5992
 4842TIP3    H236086   3.331   0.639   1.798 -1.7167  0.4448 -0.8549
 4843TIP3   OH236087   4.063   0.530   8.368 -0.3222  0.3081  0.0920
 4843TIP3    H136088   3.994   0.464   8.363  1.1816 -1.4855  1.3908
 4843TIP3    H236089   4.054   0.568   8.456 -0.0548  0.4990  0.0382
 4844TIP3   OH236090   0.696   2.711   3.002  0.5358 -0.3023 -0.4025
 4844TIP3    H136091   0.635   2.660   2.949 -0.8184  0.4440  0.3930
 4844TIP3    H236092   0.774   2.719   2.946 -0.5595 -0.1663 -1.9957
 4845TIP3   OH236093   2.941   1.388   7.649  0.0670  0.4238 -0.1894
 4845TIP3    H136094   2.965   1.479   7.633 -0.3097  0.6908  0.6562
 4845TIP3    H236095   3.024   1.343   7.665  0.1646  0.9213  0.7772
 4846TIP3   OH236096   5.590   1.890   2.473 -0.5282  0.4384 -0.8759
 4846TIP3    H136097   5.665   1.838   2.444 -2.0299 -1.9820 -0.6964
 4846TIP3    H236098   5.543   1.910   2.392 -2.3237 -2.4660 -0.6795
 4847TIP3   OH236099   2.525   1.587   0.926 -0.2469 -0.2478 -0.0205
 4847TIP3    H136100   2.588   1.641   0.877 -0.0558 -0.9475 -0.5580
 4847TIP3    H236101   2.446   1.588   0.872  0.0153 -1.1502 -0.4343
 4848TIP3   OH236102   2.820   2.188   3.088 -0.5870 -0.0178 -0.4320
 4848TIP3    H136103   2.863   2.233   3.161  0.3683 -1.9928  0.3146
 4848TIP3    H236104   2.729   2.215   3.093 -0.2306  1.1213  0.4957
 4849TIP3   OH236105   3.483   1.499   0.633 -0.1552  0.0287 -0.3687
 4849TIP3    H136106   3.496   1.481   0.540 -1.9823  0.2936 -0.7227
 4849TIP3    H236107   3.529   1.428   0.678  0.2198 -0.4677 -1.4938
 4850TIP3   OH236108   4.548   6.043   7.633 -0.1188 -0.2482 -0.3386
 4850TIP3    H136109   4.606   5.994   7.574  0.5270  1.1750 -0.9413
 4850TIP3    H236110   4.505   6.107   7.576 -1.5142 -0.5743  0.2909
 4851TIP3   OH236111   3.316   1.121   0.148  0.4413  0.0645  0.7686
 4851TIP3    H136112   3.323   1.036   0.191 -3.7919 -0.6380  0.4979
 4851TIP3    H236113   3.299   1.100   0.056  1.6388  1.3469  0.2100
 4852TIP3   OH236114   5.807   3.518   0.470  0.3088  0.3305  0.5841
 4852TIP3    H136115   5.812   3.543   0.378  0.1272  1.8662  0.9696
 4852TIP3    H236116   5.729   3.563   0.503  0.5126  0.0054  1.5434
 4853TIP3   OH236117   2.774   0.548   0.731 -0.2617 -0.2172  0.2531
 4853TIP3    H136118   2.715   0.488   0.684 -0.5382 -1.0481  1.6108
 4853TIP3    H236119   2.795   0.501   0.811  0.8477  0.8389  0.5871
 4854TIP3   OH236120   1.403   5.198   8.133 -0.5584 -0.7450 -0.2495
 4854TIP3    H136121   1.466   5.139   8.093  1.3373 -0.1601  1.7061
 4854TIP3    H236122   1.372   5.151   8.210  0.0088  0.2812  0.6209
 4855TIP3   OH236123   0.361   1.998   8.292  0.2446 -0.3545 -1.0209
 4855TIP3    H136124   0.366   1.980   8.385 -1.6237 -1.0577 -1.0156
 4855TIP3    H236125   0.393   2.088   8.283  0.9445 -0.4597  0.1933
 4856TIP3   OH236126   6.193   1.967   1.219 -0.1809  0.1483 -0.0153
 4856TIP3    H136127   6.131   1.930   1.156 -0.6496  0.7659  0.0695
 4856TIP3    H236128   6.225   1.891   1.268 -0.4883 -0.2368 -0.3954
 4857TIP3   OH236129   0.390   5.114   0.005  0.1574  0.5066  0.4810
 4857TIP3    H136130   0.299   5.124  -0.025  0.2325  0.3228  0.1923
 4857TIP3    H236131   0.433   5.193  -0.025  0.3881  0.0276 -0.4756
 4858TIP3   OH236132   2.250   4.090   2.005  0.6069 -0.4636 -0.0917
 4858TIP3    H136133   2.181   4.146   1.969  0.1033 -0.5652  0.6993
 4858TIP3    H236134   2.293   4.053   1.928  0.9207  0.9641 -0.6328
 4859TIP3   OH236135   0.766   0.357   8.553 -0.1716  0.2472 -0.4498
 4859TIP3    H136136   0.693   0.345   8.492 -1.9770  2.0201  1.2436
 4859TIP3    H236137   0.728   0.342   8.640  1.4020  1.4455  0.5066
 4860TIP3   OH236138   3.506   6.246   1.908  0.1711  0.6002 -0.1368
 4860TIP3    H136139   3.561   6.265   1.984  0.5106 -1.5762  0.2208
 4860TIP3    H236140   3.417   6.240   1.944  0.3386 -0.4830  0.1376
 4861TIP3   OH236141   2.119   1.686   2.570  0.7042 -0.4882 -0.0261
 4861TIP3    H136142   2.185   1.682   2.500  0.1612 -0.4438 -0.5492
 4861TIP3    H236143   2.074   1.602   2.566  0.9472 -0.6551  0.5604
 4862TIP3   OH236144   5.907   1.458   1.941 -0.0749 -0.0915 -0.1456
 4862TIP3    H136145   5.931   1.407   2.018 -1.2066  0.8533  0.8653
 4862TIP3    H236146   5.813   1.475   1.951 -0.3286 -0.2183 -1.9054
 4863TIP3   OH236147   2.062   3.311   8.765 -0.1430  0.3869  0.9233
 4863TIP3    H136148   2.119   3.299   8.841  0.2862 -1.7727  0.3288
 4863TIP3    H236149   2.122   3.307   8.690 -0.6823  1.5364  0.4078
 4864TIP3   OH236150   6.345   4.404   2.636  0.3608 -0.1736 -0.1198
 4864TIP3    H136151   6.414   4.391   2.700  0.9647 -0.6348 -0.8476
 4864TIP3    H236152   6.264   4.406   2.688  0.8805  0.0186  0.6999
 4865TIP3   OH236153   4.540   4.725   0.414 -0.3316  0.0902  0.0465
 4865TIP3    H136154   4.446   4.745   0.419  0.0672  2.5355 -0.5527
 4865TIP3    H236155   4.577   4.801   0.369  1.9519 -0.8313  0.2621
 4866TIP3   OH236156   0.697   5.372   0.813  0.8255  0.2449 -0.5594
 4866TIP3    H136157   0.734   5.410   0.893  0.1751  0.1745 -0.2163
 4866TIP3    H236158   0.772   5.361   0.754  1.4466 -0.3968  0.3173
 4867TIP3   OH236159   0.983   0.934   7.919  0.0729  0.0220 -0.5501
 4867TIP3    H136160   1.055   0.989   7.886 -1.8778  2.8443 -0.4801
 4867TIP3    H236161   0.994   0.851   7.873  2.4619  0.8671 -1.7000
 4868TIP3   OH236162   6.548   5.407   2.033 -0.2265  0.3288  0.2906
 4868TIP3    H136163   6.603   5.424   2.110 -0.4256  1.1578  0.2485
 4868TIP3    H236164   6.514   5.492   2.007 -0.6629 -0.0283 -0.3498
 4869TIP3   OH236165   6.751   2.685   0.285  0.1503 -0.4694  0.5747
 4869TIP3    H136166   6.794   2.618   0.232  0.5790  0.7072 -0.6258
 4869TIP3    H236167   6.745   2.647   0.372  1.4105 -1.6176  0.1860
 4870TIP3   OH236168   2.466   6.375   2.314 -0.0434  0.3855  0.4332
 4870TIP3    H136169   2.535   6.338   2.260  0.6861  1.9293  0.2468
 4870TIP3    H236170   2.406   6.417   2.252  1.4946  3.3363  0.7379
 4871TIP3   OH236171   3.102   6.565   3.236  0.2122  0.0545 -0.1813
 4871TIP3    H136172   3.156   6.488   3.255  0.8107  0.4619 -0.2125
 4871TIP3    H236173   3.032   6.532   3.181 -1.0584 -0.9998  1.9134
 4872TIP3   OH236174   6.484   6.144   7.978  0.2998 -0.1009 -0.0218
 4872TIP3    H136175   6.548   6.094   8.028  1.1825  0.3771 -0.6448
 4872TIP3    H236176   6.515   6.139   7.887 -1.6916 -1.6269 -0.7000
 4873TIP3   OH236177   3.777   5.073   0.131 -0.0931 -0.2407  0.1523
 4873TIP3    H136178   3.777   5.139   0.061  1.5597  0.1692  0.5003
 4873TIP3    H236179   3.727   5.000   0.095 -0.1825  0.3834 -1.0486
 4874TIP3   OH236180   3.678   0.900   0.979  0.0705 -0.6107  0.0313
 4874TIP3    H136181   3.709   0.953   1.052  2.8133 -2.5010  0.4196
 4874TIP3    H236182   3.620   0.835   1.018 -0.0715 -0.3756  0.2067
 4875TIP3   OH236183   2.969   0.619   7.859  0.5925  0.4057  0.2319
 4875TIP3    H136184   2.955   0.563   7.782 -1.5517  0.3836  0.5790
 4875TIP3    H236185   3.061   0.645   7.853  0.9669 -1.0897 -1.3225
 4876TIP3   OH236186   1.559   5.602   1.616 -0.0557 -0.5493 -0.2764
 4876TIP3    H136187   1.579   5.583   1.708  0.0445  0.6828 -0.0265
 4876TIP3    H236188   1.522   5.521   1.582 -1.0766 -0.6981  1.1369
 4877TIP3   OH236189   5.253   2.951   8.613 -0.1190  0.0357 -0.3338
 4877TIP3    H136190   5.218   2.993   8.691 -0.0677  0.2754 -0.4373
 4877TIP3    H236191   5.200   2.872   8.602 -0.4884  0.2901 -0.3762
 4878TIP3   OH236192   5.265   2.253   7.882  0.0093  0.2706  0.3723
 4878TIP3    H136193   5.241   2.265   7.790 -1.2339  1.2482  0.8006
 4878TIP3    H236194   5.183   2.263   7.930  0.7514  0.4559  1.6493
 4879TIP3   OH236195   3.436   2.772   0.431  0.1740 -0.3774  0.0704
 4879TIP3    H136196   3.468   2.853   0.469 -0.9108  0.1538 -0.1120
 4879TIP3    H236197   3.350   2.759   0.470 -0.5351 -0.3457 -1.4036
 4880TIP3   OH236198   1.281   1.703   0.373  0.3877 -0.0862 -0.3541
 4880TIP3    H136199   1.338   1.764   0.325  0.6035 -0.9074 -1.1647
 4880TIP3    H236200   1.226   1.664   0.305  0.3351 -0.8833  0.1425
 4881TIP3   OH236201   3.182   5.206   7.483  0.4625 -0.5051  0.2958
 4881TIP3    H136202   3.199   5.170   7.570 -0.9018 -1.7587  0.0773
 4881TIP3    H236203   3.267   5.203   7.439  1.1015 -0.1663  1.4499
 4882TIP3   OH236204   6.423   3.237   2.675  0.6327 -0.1412  0.1174
 4882TIP3    H136205   6.342   3.212   2.720  0.6216 -2.2637 -0.9269
 4882TIP3    H236206   6.493   3.217   2.737  0.5276 -1.6641 -0.2150
 4883TIP3   OH236207   4.345   2.902   1.080 -0.1386 -0.2394  0.2175
 4883TIP3    H136208   4.281   2.836   1.109 -0.8604 -0.1340 -1.0556
 4883TIP3    H236209   4.299   2.952   1.013  0.7235  0.9673  0.4988
 4884TIP3   OH236210   4.077   2.292   2.435 -0.1330 -0.3845  0.3996
 4884TIP3    H136211   3.983   2.310   2.446 -0.3154 -1.8675  1.5958
 4884TIP3    H236212   4.110   2.284   2.525  1.0761 -0.2018 -0.0219
 4885TIP3   OH236213   0.984   1.285   0.702  0.0244 -0.3693 -0.7894
 4885TIP3    H136214   0.931   1.364   0.704 -0.5730 -0.5966 -3.4173
 4885TIP3    H236215   1.063   1.311   0.653  1.2032 -0.7105  0.8226
 4886TIP3   OH236216   4.573   4.427   0.346 -0.1906  0.2687  0.3970
 4886TIP3    H136217   4.510   4.451   0.414  0.8416  1.7627  0.8860
 4886TIP3    H236218   4.597   4.510   0.305  1.8624 -0.1564  0.6145
 4887TIP3   OH236219   1.828   0.711   2.302 -0.0059  0.0608 -0.5560
 4887TIP3    H136220   1.734   0.728   2.293 -0.2862 -0.5403  0.9049
 4887TIP3    H236221   1.834   0.645   2.371  1.5384  0.6718 -0.0581
 4888TIP3   OH236222   4.278   3.659   1.551 -0.1215  0.2698  0.2137
 4888TIP3    H136223   4.272   3.598   1.476 -1.1612 -1.1724  1.3971
 4888TIP3    H236224   4.371   3.663   1.571 -0.0646 -1.4641  0.4788
 4889TIP3   OH236225   5.726   5.302   0.486 -0.3451 -0.1404 -0.7633
 4889TIP3    H136226   5.777   5.329   0.562 -1.6893 -0.0989  0.1590
 4889TIP3    H236227   5.722   5.206   0.492 -1.9389 -0.0504  0.2680
 4890TIP3   OH236228   4.810   4.207   2.594 -0.0704  0.6259  0.1144
 4890TIP3    H136229   4.902   4.228   2.611 -0.2306  1.3749  0.1287
 4890TIP3    H236230   4.762   4.280   2.635 -0.6807  0.0750  0.3903
 4891TIP3   OH236231   6.336   5.076   0.928  0.2511 -0.0564 -0.3701
 4891TIP3    H136232   6.360   5.008   0.865  2.0512 -0.6507  0.8712
 4891TIP3    H236233   6.263   5.039   0.977  2.0239 -1.7415  1.1568
 4892TIP3   OH236234   4.987   5.573   2.398  0.2926 -0.6501 -0.3571
 4892TIP3    H136235   4.938   5.651   2.424 -0.3436 -1.3572  0.6865
 4892TIP3    H236236   5.048   5.557   2.471  1.4640 -0.2961 -1.2357
 4893TIP3   OH236237   3.943   5.640   0.133 -1.0311  0.4668  0.4708
 4893TIP3    H136238   3.859   5.594   0.136 -1.3131  1.0111  1.3874
 4893TIP3    H236239   3.940   5.700   0.208 -0.4789  1.6339 -0.4189
 4894TIP3   OH236240   2.099   4.252   7.619 -0.2695 -0.2336 -0.1194
 4894TIP3    H136241   2.028   4.298   7.664  0.1564  0.0866  0.2410
 4894TIP3    H236242   2.055   4.188   7.563 -0.9585  1.7300 -1.9500
 4895TIP3   OH236243   5.094   4.527   8.576 -0.0068  0.1612 -0.7063
 4895TIP3    H136244   5.077   4.616   8.545  1.6407  0.9590  0.5132
 4895TIP3    H236245   5.124   4.480   8.498 -1.7811  0.3739 -1.5645
 4896TIP3   OH236246   1.199   5.087   2.348  0.3595  0.2635 -0.3220
 4896TIP3    H136247   1.273   5.141   2.320  0.5145  0.2140 -0.0117
 4896TIP3    H236248   1.188   5.108   2.441  0.8616 -0.7484 -0.0223
 4897TIP3   OH236249   4.151   6.135   1.626  0.0754 -0.0930  0.0810
 4897TIP3    H136250   4.199   6.171   1.701  0.2790 -0.2461  0.0259
 4897TIP3    H236251   4.208   6.152   1.551 -0.7892  1.3822 -0.2704
 4898TIP3   OH236252   1.737   4.675   0.195 -0.1501  0.1566  0.0536
 4898TIP3    H136253   1.791   4.755   0.193 -0.7308  0.6279  1.5920
 4898TIP3    H236254   1.648   4.707   0.188 -0.3103 -0.6466 -2.8942
 4899TIP3   OH236255   0.598   5.129   2.464 -0.0780 -0.4909  0.0186
 4899TIP3    H136256   0.604   5.223   2.481 -0.3179 -0.3882 -0.4475
 4899TIP3    H236257   0.689   5.099   2.461  0.0116 -0.2078 -0.1614
 4900TIP3   OH236258   4.610   5.487   0.314  0.3582  0.0423  0.4743
 4900TIP3    H136259   4.573   5.573   0.294 -0.7141 -0.3474  0.7125
 4900TIP3    H236260   4.660   5.501   0.394 -0.3996  0.3076  0.9169
 4901TIP3   OH236261   1.628   6.393   1.480 -0.3899 -0.5597 -0.1672
 4901TIP3    H136262   1.699   6.329   1.489  1.1188  1.0966  0.3349
 4901TIP3    H236263   1.638   6.426   1.390 -1.1783 -1.0165 -0.4322
 4902TIP3   OH236264   6.300   0.501   1.007  0.0340 -0.4186 -0.1292
 4902TIP3    H136265   6.272   0.418   0.968 -1.9294 -0.3405  0.9910
 4902TIP3    H236266   6.235   0.519   1.075  0.9267  1.5977  0.2690
 4903TIP3   OH236267   3.226   4.950   0.446  0.0381 -0.7774 -0.1374
 4903TIP3    H136268   3.265   4.957   0.359  2.2550  0.1259  0.8683
 4903TIP3    H236269   3.279   5.007   0.502 -4.2799  2.8210  0.9203
 4904TIP3   OH236270   5.639   3.636   8.290  0.2141  0.5894 -0.1868
 4904TIP3    H136271   5.680   3.700   8.348  0.4436 -0.3112  0.6619
 4904TIP3    H236272   5.605   3.569   8.348  0.0287 -0.0979 -1.0681
 4905TIP3   OH236273   6.595   4.135   7.668  0.3125  0.1922 -0.2776
 4905TIP3    H136274   6.507   4.100   7.678  0.5716 -0.0724  1.3629
 4905TIP3    H236275   6.633   4.085   7.596 -0.3071 -0.8997  0.1329
 4906TIP3   OH236276   2.579   4.120   0.401  0.2179 -0.0061 -0.1646
 4906TIP3    H136277   2.525   4.124   0.322 -0.7845  0.3454  0.5074
 4906TIP3    H236278   2.589   4.027   0.420  1.1412 -0.1175 -1.1378
 4907TIP3   OH236279   5.466   3.501   8.121  0.2343 -0.2419  0.3927
 4907TIP3    H136280   5.511   3.566   8.175  2.0144 -1.7511  0.8128
 4907TIP3    H236281   5.535   3.461   8.068 -1.0502 -0.7700 -0.9647
 4908TIP3   OH236282   3.890   0.083   1.660 -0.4954 -0.3719  0.1379
 4908TIP3    H136283   3.983   0.063   1.649 -1.0909 -3.0539 -0.7846
 4908TIP3    H236284   3.876   0.081   1.754  0.1859 -1.0473  0.2383
 4909TIP3   OH236285   6.766   3.382   0.745  0.0378  0.2150 -0.3930
 4909TIP3    H136286   6.709   3.437   0.799  0.7803  1.6653 -1.0226
 4909TIP3    H236287   6.712   3.356   0.671 -0.7292 -1.0751  0.5897
 4910TIP3   OH236288   5.540   3.201   7.788  0.4304 -0.1311 -0.5711
 4910TIP3    H136289   5.580   3.161   7.710  3.1603 -0.3806  0.8229
 4910TIP3    H236290   5.467   3.144   7.810  0.7978 -1.1341 -1.8244
 4911TIP3   OH236291   2.130   2.792   1.053  0.1644 -0.5795  0.3128
 4911TIP3    H136292   2.221   2.813   1.073  0.6547  0.0644 -2.2108
 4911TIP3    H236293   2.130   2.697   1.038 -0.0139 -0.8994  2.0938
 4912TIP3   OH236294   1.684   1.639   0.337  0.4569 -0.1451  0.2796
 4912TIP3    H136295   1.688   1.730   0.307  0.9404 -0.1540  0.3095
 4912TIP3    H236296   1.750   1.594   0.284 -0.8945 -0.8172 -0.8851
 4913TIP3   OH236297   1.579   4.761   1.099  0.0893  0.0240  0.6833
 4913TIP3    H136298   1.493   4.769   1.140  0.0221 -3.2433  1.5031
 4913TIP3    H236299   1.560   4.720   1.014  0.7181  0.9215  0.1042
 4914TIP3   OH236300   3.465   2.387   8.327 -0.1272 -0.2582  0.1219
 4914TIP3    H136301   3.441   2.417   8.240  1.8260  1.6726  0.1316
 4914TIP3    H236302   3.386   2.396   8.379 -1.0181 -0.3140 -1.1925
 4915TIP3   OH236303   4.452   4.122   8.213  0.9661  0.0487  0.2007
 4915TIP3    H136304   4.538   4.089   8.187  1.3179  0.2861  1.0255
 4915TIP3    H236305   4.471   4.183   8.284  0.2809  1.5552 -0.8651
 4916TIP3   OH236306   5.329   3.984   7.685  0.0300 -0.2174  0.5067
 4916TIP3    H136307   5.304   3.893   7.670  1.1327 -0.5236  0.4004
 4916TIP3    H236308   5.287   4.033   7.615  0.7629 -0.8884 -0.4276
 4917TIP3   OH236309   4.065   5.877   2.290  0.4853 -0.5249 -0.7892
 4917TIP3    H136310   4.009   5.948   2.260  0.0646  0.1470  1.3853
 4917TIP3    H236311   4.148   5.920   2.310 -0.1397 -0.3111  1.7015
 4918TIP3   OH236312   4.499   3.095   7.332  0.3843  0.1116  0.1693
 4918TIP3    H136313   4.545   3.146   7.266  0.8100 -0.5654 -0.0747
 4918TIP3    H236314   4.564   3.082   7.401  0.6835 -1.1290 -0.3224
 4919TIP3   OH236315   3.204   1.253   1.704 -0.1717  0.0002 -0.2244
 4919TIP3    H136316   3.263   1.301   1.762 -1.3104 -1.2347  2.0821
 4919TIP3    H236317   3.203   1.164   1.739 -1.1547 -0.7299 -1.9795
 4920TIP3   OH236318   5.199   0.278   1.129 -0.3058  0.0507  0.2596
 4920TIP3    H136319   5.254   0.280   1.208  0.9248  1.0965 -0.5783
 4920TIP3    H236320   5.254   0.315   1.061 -1.9809  0.9287 -0.6885
 4921TIP3   OH236321   6.454   1.961   0.555  0.4182 -0.1244 -1.0734
 4921TIP3    H136322   6.540   1.922   0.539  0.3949 -0.8232  0.3317
 4921TIP3    H236323   6.473   2.049   0.589  0.4967  0.5936 -2.8420
 4922TIP3   OH236324   3.464   1.785   1.914  0.2162 -0.5722  0.3220
 4922TIP3    H136325   3.432   1.800   2.003  1.0173 -0.9878  0.6903
 4922TIP3    H236326   3.551   1.825   1.913  1.2935 -2.7452  0.5318
 4923TIP3   OH236327   1.227   4.958   2.997 -1.0016 -0.0765  0.2381
 4923TIP3    H136328   1.225   4.923   2.908 -0.6295  0.2157  0.1142
 4923TIP3    H236329   1.223   5.053   2.986  0.5582  0.0415  0.4602
 4924TIP3   OH236330   5.854   5.032   0.031  0.7038  0.3259 -0.7838
 4924TIP3    H136331   5.775   4.978   0.031  0.5702  0.5119 -0.1076
 4924TIP3    H236332   5.842   5.091  -0.044 -1.0591  2.1223  0.8060
 4925TIP3   OH236333   0.078   1.961   8.504  0.4740  0.0500 -0.0922
 4925TIP3    H136334   0.098   2.030   8.567  1.1133  2.2655 -2.5456
 4925TIP3    H236335   0.148   1.896   8.516 -1.0393 -1.1731  3.3768
 4926TIP3   OH236336   3.634   5.879   1.409  0.0854  0.0396  0.0698
 4926TIP3    H136337   3.638   5.783   1.406  1.8531  0.0328 -3.6515
 4926TIP3    H236338   3.725   5.907   1.410 -0.3803  1.8192  2.9633
 4927TIP3   OH236339   5.886   4.659   2.631 -0.6148  0.2699 -0.1298
 4927TIP3    H136340   5.929   4.683   2.714  0.5253  1.0998 -0.9264
 4927TIP3    H236341   5.796   4.687   2.643 -0.5492  0.0959  0.9460
 4928TIP3   OH236342   5.527   4.672   3.491 -0.7538 -0.2829 -0.7301
 4928TIP3    H136343   5.552   4.590   3.533  0.8866  0.8365  0.6201
 4928TIP3    H236344   5.435   4.684   3.513 -0.5760 -0.9554  0.4520
 4929TIP3   OH236345   3.618   0.581   1.738  0.5967  0.1437  0.0754
 4929TIP3    H136346   3.626   0.515   1.807 -1.9305  0.0328  0.3387
 4929TIP3    H236347   3.525   0.603   1.736  1.0736  2.3546 -1.2851
 4930TIP3   OH236348   0.506   3.275   7.938 -0.3081  0.2575  0.1721
 4930TIP3    H136349   0.537   3.279   7.847  0.5770  0.1496  0.4612
 4930TIP3    H236350   0.433   3.213   7.936 -2.2810  2.4193 -0.9999
 4931TIP3   OH236351   3.714   3.347   8.334 -0.1935  0.6947  0.1650
 4931TIP3    H136352   3.689   3.428   8.291 -2.1331  0.1512  0.2064
 4931TIP3    H236353   3.755   3.294   8.265 -1.3991  0.6475 -0.5359
 4932TIP3   OH236354   6.465   5.200   1.823 -0.3320  0.6302 -0.1987
 4932TIP3    H136355   6.479   5.262   1.752  1.3086 -0.3388 -0.7607
 4932TIP3    H236356   6.479   5.251   1.903  1.2759  0.9701 -0.6595
 4933TIP3   OH236357   2.228   3.478   7.620  0.3676 -0.0010 -0.2903
 4933TIP3    H136358   2.271   3.491   7.704  1.3350  1.0416 -0.9245
 4933TIP3    H236359   2.136   3.500   7.637  0.4391 -0.3396  0.6106
 4934TIP3   OH236360   2.991   4.228   7.736 -0.1065  0.0551  0.2398
 4934TIP3    H136361   2.996   4.132   7.742 -1.9986  0.0026  2.5474
 4934TIP3    H236362   2.898   4.247   7.729  0.1118  1.7549  1.4228
 4935TIP3   OH236363   4.017   1.979   1.094 -1.1393  0.4475  0.1380
 4935TIP3    H136364   4.098   1.948   1.132 -0.3316 -1.9439 -3.1236
 4935TIP3    H236365   3.997   2.059   1.143  1.9286 -0.0488  2.5217
 4936TIP3   OH236366   3.644   0.143   1.806  0.2942 -0.5447  0.2902
 4936TIP3    H136367   3.654   0.049   1.821 -1.9851 -0.5868  2.1018
 4936TIP3    H236368   3.686   0.184   1.882  0.0512 -0.1717  0.2263
 4937TIP3   OH236369   0.695   0.631   0.545 -0.1125 -0.5743 -0.3149
 4937TIP3    H136370   0.789   0.623   0.525 -0.3290 -1.0771 -1.1967
 4937TIP3    H236371   0.684   0.582   0.626  0.7686  1.3825  1.0434
 4938TIP3   OH236372   2.051   6.226   8.634  0.0355  0.2236 -0.1781
 4938TIP3    H136373   2.091   6.222   8.721 -1.3778  0.4858  0.5164
 4938TIP3    H236374   1.960   6.249   8.651  0.1655  2.2444 -1.8422
 4939TIP3   OH236375   2.394   1.573   0.148  0.0565 -0.2792 -0.0634
 4939TIP3    H136376   2.467   1.520   0.180 -1.6429 -2.2135  0.8333
 4939TIP3    H236377   2.342   1.593   0.226 -1.1915 -0.2836 -0.8683
 4940TIP3   OH236378   2.841   0.893   1.896 -0.0790  0.0249  0.0500
 4940TIP3    H136379   2.859   0.838   1.972 -0.3916  0.1776  0.2344
 4940TIP3    H236380   2.846   0.983   1.929 -0.7590  0.0796  0.0111
 4941TIP3   OH236381   2.892   1.485   1.538  0.1817 -0.0912 -0.0181
 4941TIP3    H136382   2.842   1.556   1.579  1.4435  0.8351 -0.0281
 4941TIP3    H236383   2.983   1.516   1.538  0.9554 -2.1563  0.9750
 4942TIP3   OH236384   2.789   1.174   7.679  0.0537  0.0522 -0.5063
 4942TIP3    H136385   2.704   1.179   7.636 -0.1787  2.4390  0.1133
 4942TIP3    H236386   2.825   1.262   7.672  2.5424 -0.9153 -0.8181
 4943TIP3   OH236387   1.929   5.204   0.448  0.0100  0.1418  0.0423
 4943TIP3    H136388   1.946   5.243   0.533 -1.2757  0.1250  0.3238
 4943TIP3    H236389   2.008   5.223   0.397  0.5138  0.7412  1.0134
 4944TIP3   OH236390   5.165   1.359   0.491  0.6556 -0.6853  0.0304
 4944TIP3    H136391   5.225   1.317   0.429  4.0445  1.0470  1.8763
 4944TIP3    H236392   5.134   1.287   0.547  1.6245 -1.5314 -0.4855
 4945TIP3   OH236393   2.776   1.179   7.288 -0.2008  0.1786  0.0756
 4945TIP3    H136394   2.791   1.272   7.272  0.7651  0.1689  0.8485
 4945TIP3    H236395   2.724   1.176   7.369  0.5467  0.0279  0.5587
 4946TIP3   OH236396   4.570   1.040   1.765  0.4601 -0.1083 -0.3752
 4946TIP3    H136397   4.500   1.105   1.755  0.1581  0.0758  2.1841
 4946TIP3    H236398   4.527   0.956   1.747 -0.3741  0.0435  0.7217
 4947TIP3   OH236399   6.131   0.483   1.380 -0.2729 -0.7069 -0.2035
 4947TIP3    H136400   6.070   0.461   1.310  0.8608  0.6353 -1.6783
 4947TIP3    H236401   6.095   0.562   1.421  0.2383 -0.1669 -0.7878
 4948TIP3   OH236402   2.512   6.180   8.555 -0.2369 -0.2101 -0.0518
 4948TIP3    H136403   2.587   6.125   8.580 -2.3150 -2.9601  0.6952
 4948TIP3    H236404   2.540   6.224   8.475  1.4814 -2.7829 -1.0022
 4949TIP3   OH236405   3.667   0.870   7.599  0.1091 -0.3153  0.4789
 4949TIP3    H136406   3.665   0.867   7.503  3.4138  2.7413  0.1061
 4949TIP3    H236407   3.579   0.843   7.625 -1.7810  1.0923 -3.5136
 4950TIP3   OH236408   0.937   2.989   0.778 -0.6132 -0.1431  0.4518
 4950TIP3    H136409   0.843   2.993   0.763 -0.3737 -1.8133 -2.2525
 4950TIP3    H236410   0.955   2.896   0.790  0.6960  0.1611  0.9785
 4951TIP3   OH236411   3.064   5.875   2.950 -0.3377 -0.4186  0.2497
 4951TIP3    H136412   3.003   5.921   3.009  0.7670  0.7397  0.5470
 4951TIP3    H236413   3.023   5.883   2.864 -1.0611 -0.4734  0.5769
 4952TIP3   OH236414   0.350   1.162   2.640  0.0592  0.1996  0.2129
 4952TIP3    H136415   0.338   1.130   2.729 -0.6597  0.6855  0.2980
 4952TIP3    H236416   0.333   1.256   2.646  0.7706  0.3648 -0.2941
 4953TIP3   OH236417   0.567   1.248   0.775 -0.2558 -0.3072  0.3599
 4953TIP3    H136418   0.624   1.299   0.833 -0.1789  2.6240 -2.0293
 4953TIP3    H236419   0.623   1.176   0.746  0.8030  0.0828  1.3185
 4954TIP3   OH236420   5.717   3.311   1.759 -0.2799 -0.6271 -0.0876
 4954TIP3    H136421   5.673   3.336   1.840 -0.0477  0.7062 -0.3378
 4954TIP3    H236422   5.664   3.241   1.722 -1.7663  0.4055  0.0089
 4955TIP3   OH236423   0.612   3.833   1.967  0.5366  0.1634 -0.4366
 4955TIP3    H136424   0.574   3.846   1.880 -0.1281  0.6449 -0.0825
 4955TIP3    H236425   0.598   3.916   2.012  0.1286 -0.3551  0.4098
 4956TIP3   OH236426   1.380   0.567   0.355  0.2492  0.2555 -0.2287
 4956TIP3    H136427   1.386   0.502   0.285  1.0106  0.0573  0.0219
 4956TIP3    H236428   1.381   0.515   0.436 -2.6781  0.2963 -0.0459
 4957TIP3   OH236429   4.228   3.290   2.137 -0.0052  0.2160 -0.5824
 4957TIP3    H136430   4.290   3.271   2.067  1.6731  1.1714  0.5847
 4957TIP3    H236431   4.186   3.371   2.111  1.4157  1.1688 -0.0201
 4958TIP3   OH236432   0.424   5.059   2.930 -0.0654 -0.1302 -0.2550
 4958TIP3    H136433   0.360   5.066   3.001  1.0387  0.0544  0.7632
 4958TIP3    H236434   0.456   5.149   2.918  0.3283 -0.2913 -0.4366
 4959TIP3   OH236435   5.179   1.904   0.226  0.0309 -0.4194 -0.0610
 4959TIP3    H136436   5.160   1.813   0.251 -1.0064 -0.5292 -1.1239
 4959TIP3    H236437   5.177   1.903   0.131 -1.0143  0.9069 -0.0855
 4960TIP3   OH236438   3.570   4.317   7.195  0.1348 -0.1859 -0.2236
 4960TIP3    H136439   3.611   4.322   7.282  2.2753 -1.9596 -1.0366
 4960TIP3    H236440   3.605   4.393   7.149  1.8559 -1.1310 -0.5794
 4961TIP3   OH236441   6.431   1.636   1.608 -0.2224 -0.3485  0.2582
 4961TIP3    H136442   6.360   1.578   1.636 -0.9999  0.4609  0.0154
 4961TIP3    H236443   6.485   1.582   1.551 -0.7491 -0.9328  0.3032
 4962TIP3   OH236444   0.761   2.963   8.698  0.4256 -0.3667 -0.0784
 4962TIP3    H136445   0.805   2.907   8.761  1.4650  1.0148  0.4564
 4962TIP3    H236446   0.783   3.052   8.725 -0.5279  0.2938 -1.3767
 4963TIP3   OH236447   4.098   4.695   0.349 -0.0314  0.3904 -0.0289
 4963TIP3    H136448   4.020   4.730   0.306 -0.5176  1.1392  1.3752
 4963TIP3    H236449   4.069   4.614   0.390 -0.0716  0.6209  0.4140
 4964TIP3   OH236450   4.695   4.990   1.985  0.4418  0.1776  0.1760
 4964TIP3    H136451   4.692   4.918   2.048  1.9379  0.5719  0.7416
 4964TIP3    H236452   4.787   5.018   1.984  0.3924  0.4452 -1.9015
 4965TIP3   OH236453   3.128   2.507   0.892  0.1527  0.3824  0.0748
 4965TIP3    H136454   3.183   2.445   0.845 -0.6129  2.1599 -3.5515
 4965TIP3    H236455   3.147   2.492   0.984  3.5751 -1.8554 -0.8262
 4966TIP3   OH236456   0.735   6.496   2.790  0.1671 -0.2028  0.0762
 4966TIP3    H136457   0.809   6.459   2.838 -1.1253 -2.8111  0.2742
 4966TIP3    H236458   0.773   6.529   2.709  1.6412 -0.7835  0.4949
 4967TIP3   OH236459   0.383   0.706   1.976 -0.1564  0.6698  0.1943
 4967TIP3    H136460   0.381   0.800   1.961  0.5585  0.6738  0.1057
 4967TIP3    H236461   0.347   0.695   2.064 -1.1290  0.9348 -0.1538
 4968TIP3   OH236462   5.425   0.366   1.794 -0.3478 -0.1678 -0.8987
 4968TIP3    H136463   5.430   0.460   1.776 -2.6302 -0.3113 -2.8059
 4968TIP3    H236464   5.340   0.355   1.838 -0.8511 -1.4815 -2.1276
 4969TIP3   OH236465   5.592   2.986   2.020  0.0980  0.3249 -0.1415
 4969TIP3    H136466   5.624   3.060   1.968  1.4539 -0.0021  0.1774
 4969TIP3    H236467   5.580   2.916   1.955 -0.3398  0.5651 -0.3211
 4970TIP3   OH236468   6.507   3.925   0.698  0.0279  0.3178  0.8112
 4970TIP3    H136469   6.475   3.893   0.782  1.9697 -1.5944  0.9159
 4970TIP3    H236470   6.500   3.850   0.639  1.0220  0.8799 -0.0601
 4971TIP3   OH236471   2.208   6.124   0.466 -0.5306  0.1368 -0.2082
 4971TIP3    H136472   2.256   6.135   0.548 -0.6867 -0.9712  0.0561
 4971TIP3    H236473   2.242   6.041   0.430  1.8018  2.0305 -2.8522
 4972TIP3   OH236474   4.769   5.310   8.719 -0.0570  0.4990 -0.1364
 4972TIP3    H136475   4.863   5.326   8.717  1.2560 -4.9390  1.6969
 4972TIP3    H236476   4.747   5.286   8.629  0.7237  0.0576 -0.2146
 4973TIP3   OH236477   5.540   2.645   1.253  0.1604 -0.1356  0.3277
 4973TIP3    H136478   5.586   2.669   1.173  1.3682  3.0189  1.8035
 4973TIP3    H236479   5.478   2.716   1.267 -1.3217 -1.5486  1.3104
 4974TIP3   OH236480   4.540   5.994   8.067 -0.2663 -0.5268  0.7838
 4974TIP3    H136481   4.478   6.035   8.006  1.2493 -0.0736 -0.5231
 4974TIP3    H236482   4.615   6.053   8.068  0.1408 -1.0303  2.3842
 4975TIP3   OH236483   0.758   5.147   2.790 -0.0142  0.4467 -0.1978
 4975TIP3    H136484   0.687   5.208   2.809  0.5801  0.6736  1.5078
 4975TIP3    H236485   0.738   5.113   2.703 -2.0115  0.7581  0.0945
 4976TIP3   OH236486   1.263   6.621   3.029  0.1691  0.5823  0.2754
 4976TIP3    H136487   1.353   6.625   3.063 -0.3870 -0.5387  1.9937
 4976TIP3    H236488   1.216   6.567   3.092 -1.4968  0.3040 -1.1413
 4977TIP3   OH236489   5.026   2.946   8.115 -0.4356  0.1970 -0.5080
 4977TIP3    H136490   5.065   3.018   8.065 -0.6242  0.2665 -0.5539
 4977TIP3    H236491   4.932   2.963   8.112 -0.3620  1.8729  2.3113
 4978TIP3   OH236492   0.765   3.704   2.824  0.0398  0.8537 -0.1684
 4978TIP3    H136493   0.833   3.721   2.758  1.3643 -2.2977  0.2216
 4978TIP3    H236494   0.767   3.610   2.837 -2.7817  0.9300  1.7129
 4979TIP3   OH236495   0.652   2.271   8.781 -0.1159  0.4610  0.2436
 4979TIP3    H136496   0.604   2.354   8.777  0.3530  0.7412  0.4056
 4979TIP3    H236497   0.743   2.295   8.761 -0.2793 -0.2747 -1.5696
 4980TIP3   OH236498   3.487   5.722   8.634 -0.2963 -0.7297 -0.9348
 4980TIP3    H136499   3.538   5.726   8.553 -0.8343  2.1930 -1.2121
 4980TIP3    H236500   3.396   5.714   8.605 -0.4583 -0.0776 -0.6158
 4981TIP3   OH236501   1.929   2.380   0.996  0.1772 -0.0084  0.0562
 4981TIP3    H136502   1.988   2.398   1.070  1.7844  0.1945 -1.2254
 4981TIP3    H236503   1.900   2.291   1.010 -0.5660  0.4427  1.6093
 4982TIP3   OH236504   2.807   6.257   2.424 -0.2324  0.4708  0.3383
 4982TIP3    H136505   2.862   6.332   2.401 -1.9927  2.0407  1.0444
 4982TIP3    H236506   2.741   6.253   2.355 -0.1811 -0.4413  0.3270
 4983TIP3   OH236507   5.666   3.372   7.967  0.0098  0.2153  0.7448
 4983TIP3    H136508   5.618   3.319   7.903  0.7920  1.9710 -1.4416
 4983TIP3    H236509   5.749   3.326   7.979 -0.0723 -0.0428  0.3444
 4984TIP3   OH236510   5.121   4.464   2.852  0.0587 -0.1928  0.9233
 4984TIP3    H136511   5.078   4.525   2.912 -1.3357 -1.1506  0.9590
 4984TIP3    H236512   5.126   4.382   2.902  1.1929 -0.3228  0.6097
 4985TIP3   OH236513   5.444   6.340   7.610 -0.3238  0.3563 -0.2720
 4985TIP3    H136514   5.506   6.279   7.649 -0.5443  0.1168 -0.2941
 4985TIP3    H236515   5.463   6.424   7.653  1.8345  0.9597 -2.1935
 4986TIP3   OH236516   1.514   2.648   2.771 -0.2261 -0.3271 -0.8402
 4986TIP3    H136517   1.551   2.560   2.782  0.5887  0.2254  1.2476
 4986TIP3    H236518   1.444   2.636   2.706  0.7328 -2.2318 -1.6114
 4987TIP3   OH236519   6.497   5.858   7.342  0.0461 -0.1094 -0.7801
 4987TIP3    H136520   6.514   5.884   7.432  0.5286 -1.5513 -0.4422
 4987TIP3    H236521   6.443   5.929   7.307  0.2527  0.7037  0.4823
 4988TIP3   OH236522   6.204   2.294   8.523 -0.0281 -0.0105  0.8520
 4988TIP3    H136523   6.288   2.282   8.568  0.4325  0.0888  0.0532
 4988TIP3    H236524   6.181   2.385   8.540  0.3983  0.1728  0.4908
 4989TIP3   OH236525   2.724   1.859   7.622 -0.2212 -0.9385 -0.2902
 4989TIP3    H136526   2.803   1.906   7.648 -0.0107 -1.7044  0.5129
 4989TIP3    H236527   2.677   1.845   7.704 -0.4017 -1.8860 -0.5437
 4990TIP3   OH236528   6.665   1.563   0.606  0.0691  0.1326 -0.3328
 4990TIP3    H136529   6.629   1.559   0.694 -0.8494  0.5825 -0.6801
 4990TIP3    H236530   6.603   1.512   0.553  0.2244  0.4728 -0.8433
 4991TIP3   OH236531   1.047   1.467   1.649  0.7535 -0.5142 -0.1484
 4991TIP3    H136532   0.985   1.394   1.648 -0.9469  0.8496 -0.8261
 4991TIP3    H236533   1.116   1.440   1.709  0.2635 -2.7150 -0.5098
 4992TIP3   OH236534   2.947   1.218   1.162  0.8890  0.3789 -0.3517
 4992TIP3    H136535   2.937   1.174   1.246 -0.6434  0.3616 -0.5157
 4992TIP3    H236536   3.004   1.292   1.179  2.7033 -1.0482  0.1500
 4993TIP3   OH236537   0.788   1.514   0.748 -0.6033 -0.2815 -0.1784
 4993TIP3    H136538   0.822   1.603   0.749  1.0214 -0.8702 -0.1252
 4993TIP3    H236539   0.798   1.483   0.838  0.5176 -1.1087 -0.5755
 4994TIP3   OH236540   6.724   4.309   1.073 -0.1157  0.6297  0.3139
 4994TIP3    H136541   6.752   4.225   1.035  0.7761  0.8455  0.4752
 4994TIP3    H236542   6.693   4.286   1.161 -0.4264  0.3904  0.1437
 4995TIP3   OH236543   3.094   0.600   1.418  0.3073 -0.1944  0.2404
 4995TIP3    H136544   3.090   0.505   1.408  0.1270 -0.0871 -0.7513
 4995TIP3    H236545   3.006   0.623   1.450 -0.2859 -0.1732 -1.3155
 4996TIP3   OH236546   5.864   3.780   1.638 -0.3390  0.1775 -0.2762
 4996TIP3    H136547   5.780   3.799   1.679  0.9548  1.7003  1.9431
 4996TIP3    H236548   5.896   3.702   1.684 -0.3665 -0.1741 -0.8459
 4997TIP3   OH236549   5.703   5.933   8.529 -0.1974  0.5967 -0.3179
 4997TIP3    H136550   5.747   5.911   8.611 -0.7448  0.1869 -0.1299
 4997TIP3    H236551   5.614   5.959   8.555 -0.0917  1.3915 -0.6942
 4998TIP3   OH236552   3.532   4.218   1.902  0.2825  0.2793  0.5261
 4998TIP3    H136553   3.580   4.272   1.965 -0.8578  0.4415  1.2835
 4998TIP3    H236554   3.446   4.207   1.941 -0.2884 -0.0512 -0.7804
 4999TIP3   OH236555   1.129   3.989   0.718  0.4668  0.0453 -0.1744
 4999TIP3    H136556   1.172   3.952   0.640  0.5650 -1.3637  0.5143
 4999TIP3    H236557   1.049   3.937   0.728  0.9369 -0.4508  1.2082
 5000TIP3   OH236558   5.849   4.585   1.428  0.1071 -0.2015 -0.4263
 5000TIP3    H136559   5.933   4.560   1.388 -0.2058 -1.5072 -0.3000
 5000TIP3    H236560   5.790   4.597   1.354  0.4630  0.9816 -0.5302
 5001TIP3   OH236561   4.564   5.164   3.482  0.1809  0.1322  0.3512
 5001TIP3    H136562   4.606   5.184   3.399  1.4318 -1.9428  0.4184
 5001TIP3    H236563   4.611   5.088   3.516 -0.7136  0.4984  2.6537
 5002TIP3   OH236564   1.250   5.639   1.408  0.2462 -0.0554 -0.7690
 5002TIP3    H136565   1.193   5.571   1.373 -0.4974  0.2534 -0.1769
 5002TIP3    H236566   1.272   5.610   1.496 -0.8829  0.9158 -0.1308
 5003TIP3   OH236567   0.198   6.688   1.344  0.1147  0.2119  0.4491
 5003TIP3    H136568   0.253   6.647   1.276 -0.2935 -1.5364  1.1241
 5003TIP3    H236569   0.146   6.752   1.296  1.0419  0.2285 -0.5980
 5004TIP3   OH236570   3.689   1.868   1.105 -0.2601  0.0356  0.3911
 5004TIP3    H136571   3.745   1.795   1.133 -0.9981 -0.6639  0.0941
 5004TIP3    H236572   3.744   1.946   1.114  1.2341 -0.7651 -1.1668
 5005TIP3   OH236573   1.457   2.122   7.338 -0.4551  0.4411 -0.0900
 5005TIP3    H136574   1.402   2.101   7.414  0.5271  1.1579  0.8544
 5005TIP3    H236575   1.439   2.215   7.321  0.0747  0.5454 -0.0953
 5006TIP3   OH236576   3.510   3.339   7.670 -0.2999 -0.8395 -0.7702
 5006TIP3    H136577   3.512   3.388   7.588 -0.5274 -1.4829 -1.1689
 5006TIP3    H236578   3.581   3.376   7.722 -2.9764  2.8990  0.7273
 5007TIP3   OH236579   2.667   2.418   7.857  0.7932  0.5497  0.4283
 5007TIP3    H136580   2.710   2.450   7.937  1.0721 -0.0158  0.5084
 5007TIP3    H236581   2.597   2.481   7.841 -0.4436 -0.2954  2.1456
 5008TIP3   OH236582   6.152   2.776   1.971  0.4610  0.2226 -0.5270
 5008TIP3    H136583   6.221   2.797   1.908 -0.3119  1.5597 -0.9718
 5008TIP3    H236584   6.144   2.855   2.025 -1.6446  0.6656 -1.3907
 5009TIP3   OH236585   6.460   0.005   0.108  0.1592  0.0788 -0.1197
 5009TIP3    H136586   6.437   0.051   0.027 -1.1388  0.0338  0.2061
 5009TIP3    H236587   6.376  -0.013   0.150  0.8018 -0.2105  1.0735
 5010TIP3   OH236588   5.966   5.634   8.544  0.2773  0.5580 -0.2876
 5010TIP3    H136589   5.893   5.633   8.482 -1.0262 -0.8719  1.2035
 5010TIP3    H236590   6.035   5.585   8.499 -0.0744  0.9140 -1.2411
 5011TIP3   OH236591   0.332   6.300   0.422  0.5120 -0.3417 -0.1670
 5011TIP3    H136592   0.392   6.269   0.354  1.7479  0.7281  0.3996
 5011TIP3    H236593   0.262   6.235   0.423  0.4208 -0.3747 -2.4851
 5012TIP3   OH236594   2.870   2.025   8.464  0.3028 -0.3362 -0.4602
 5012TIP3    H136595   2.902   1.958   8.525 -2.6944 -0.7418  0.8146
 5012TIP3    H236596   2.815   1.977   8.402 -2.0833  0.8766  0.6151
 5013TIP3   OH236597   2.266   2.798   2.280  0.4999 -0.2784 -0.0058
 5013TIP3    H136598   2.274   2.879   2.331  1.5672  0.5337 -1.3781
 5013TIP3    H236599   2.219   2.825   2.201  2.0661 -0.6752 -1.1075
 5014TIP3   OH236600   6.152   4.949   2.596 -0.6909  0.5140  0.2132
 5014TIP3    H136601   6.141   4.867   2.644 -0.5233 -0.0627 -0.7007
 5014TIP3    H236602   6.232   4.987   2.632 -0.7880  0.2916  0.6702
 5015TIP3   OH236603   3.707   6.171   7.995 -0.7522 -0.7115 -0.0953
 5015TIP3    H136604   3.717   6.076   7.999 -0.8147 -0.6958  0.5919
 5015TIP3    H236605   3.718   6.192   7.902 -0.6275 -1.3744 -0.2405
 5016TIP3   OH236606   6.025   5.009   8.332 -0.2242 -0.2019 -0.6264
 5016TIP3    H136607   6.104   5.046   8.293  0.7543 -1.3729  0.1681
 5016TIP3    H236608   5.972   4.980   8.257  0.2556  0.2866 -1.1587
 5017TIP3   OH236609   6.098   5.463   0.047 -0.5180 -0.2556 -0.2866
 5017TIP3    H136610   6.101   5.412  -0.033 -0.5735 -0.0902 -0.3951
 5017TIP3    H236611   6.122   5.402   0.116 -0.7781 -0.4791 -0.3912
 5018TIP3   OH236612   0.633   2.927   0.205 -0.1913  0.3641  0.3795
 5018TIP3    H136613   0.724   2.952   0.188  0.2985 -0.7195  1.3003
 5018TIP3    H236614   0.585   2.957   0.128  0.8779  1.3053  0.0620
 5019TIP3   OH236615   0.562   4.690   2.159  0.4152  0.0407 -0.1495
 5019TIP3    H136616   0.578   4.768   2.106 -0.4113 -0.1992 -0.7539
 5019TIP3    H236617   0.572   4.721   2.249  0.0240  0.8680 -0.3806
 5020TIP3   OH236618   4.514   3.803   0.386 -0.1671 -0.3351 -0.3427
 5020TIP3    H136619   4.522   3.894   0.414 -3.2399 -0.1884  0.4378
 5020TIP3    H236620   4.464   3.807   0.305  0.8555 -1.2928 -1.0548
 5021TIP3   OH236621   6.413   1.370   8.389  0.4023  0.0408 -0.3696
 5021TIP3    H136622   6.388   1.340   8.476 -0.3715 -0.8445 -0.8719
 5021TIP3    H236623   6.329   1.389   8.345  0.8098  1.2599 -0.6608
 5022TIP3   OH236624   6.626   3.882   0.320 -0.4360  0.2533  0.0724
 5022TIP3    H136625   6.698   3.944   0.321 -0.9183  0.8288 -0.1425
 5022TIP3    H236626   6.653   3.814   0.258 -0.0460  0.4280  0.0518
 5023TIP3   OH236627   0.460   1.200   1.502  0.4758 -0.0795  0.0371
 5023TIP3    H136628   0.448   1.241   1.417  0.9051  1.2134  0.5708
 5023TIP3    H236629   0.382   1.147   1.514 -0.3013  0.8905 -0.5288
 5024TIP3   OH236630   5.894   5.467   2.478 -0.1877 -0.4267  0.6630
 5024TIP3    H136631   5.859   5.439   2.562 -0.2427  0.3795  0.9170
 5024TIP3    H236632   5.985   5.438   2.479 -0.5499 -1.6559  0.4099
 5025TIP3   OH236633   2.194   2.816   7.981 -0.0127  0.3107 -0.2814
 5025TIP3    H136634   2.223   2.874   8.051 -1.5992  0.6477  0.1320
 5025TIP3    H236635   2.237   2.732   8.000 -0.5396  0.3441  1.2237
 5026TIP3   OH236636   1.719   4.746   0.518  0.2651  0.2639 -0.5033
 5026TIP3    H136637   1.810   4.765   0.494  0.3289 -1.1201 -1.5534
 5026TIP3    H236638   1.668   4.775   0.443 -0.3690  2.4075  0.6925
 5027TIP3   OH236639   1.192   4.934   1.875  0.8144  0.0688 -0.4782
 5027TIP3    H136640   1.205   4.942   1.969 -2.3427 -0.7655  0.1352
 5027TIP3    H236641   1.170   5.022   1.846  0.5320  0.0847 -0.2130
 5028TIP3   OH236642   1.381   5.267   2.272 -0.6556  0.4575  0.2374
 5028TIP3    H136643   1.467   5.246   2.235 -1.1069 -1.9017  0.3657
 5028TIP3    H236644   1.401   5.314   2.353  0.6485 -1.3289  1.0512
 5029TIP3   OH236645   6.556   0.474   2.936 -0.2594  0.2805  0.4734
 5029TIP3    H136646   6.510   0.399   2.973  1.1460 -2.6743 -3.1705
 5029TIP3    H236647   6.488   0.527   2.894 -1.1063  0.3822  1.9039
 5030TIP3   OH236648   3.489   0.758   1.169  0.0426  0.5250 -0.3912
 5030TIP3    H136649   3.565   0.736   1.222  0.6798  1.8122 -0.7351
 5030TIP3    H236650   3.426   0.795   1.230 -0.2130 -0.2649 -0.1570
 5031TIP3   OH236651   2.778   5.276   1.600  0.3159  0.1354 -0.1062
 5031TIP3    H136652   2.841   5.347   1.607  0.0158  0.4005 -0.1080
 5031TIP3    H236653   2.695   5.313   1.630 -0.1103  0.1371 -1.2512
 5032TIP3   OH236654   6.067   3.317   3.154  0.3383 -0.4884  0.2210
 5032TIP3    H136655   5.994   3.359   3.107  0.0810  0.4008  1.3618
 5032TIP3    H236656   6.038   3.227   3.169 -1.2337  0.2308  1.9737
 5033TIP3   OH236657   5.692   0.429   8.347  0.0072 -0.5193 -0.6388
 5033TIP3    H136658   5.687   0.476   8.430 -1.8368  0.2772 -1.1404
 5033TIP3    H236659   5.741   0.487   8.289 -0.4724 -0.1467 -0.6737
 5034TIP3   OH236660   0.050   0.594   8.704  0.0842  0.0148 -0.1410
 5034TIP3    H136661  -0.031   0.630   8.738 -0.4566 -0.7050 -0.6396
 5034TIP3    H236662   0.091   0.667   8.656 -0.8282  0.0666 -0.8600
 5035TIP3   OH236663   3.652   0.318   8.296  0.5532 -0.2251  0.4333
 5035TIP3    H136664   3.646   0.225   8.277 -0.3691  0.3129 -2.3431
 5035TIP3    H236665   3.584   0.359   8.243  1.9010  2.1827  0.3667
 5036TIP3   OH236666   1.095   3.969   1.771  0.1293 -0.8925 -0.0052
 5036TIP3    H136667   1.112   3.884   1.728  0.6007  0.0145 -1.7241
 5036TIP3    H236668   1.001   3.969   1.787 -0.1165 -1.2122 -1.2781
 5037TIP3   OH236669   2.037   4.914   2.669  0.0390 -0.2129 -0.4255
 5037TIP3    H136670   2.094   4.846   2.705  0.2019  1.1193  2.0166
 5037TIP3    H236671   2.078   4.938   2.586  2.2123 -0.3324  0.5554
 5038TIP3   OH236672   1.474   5.482   0.492  0.0052  0.2768  0.4967
 5038TIP3    H136673   1.540   5.423   0.456 -0.1042  1.0547 -1.0425
 5038TIP3    H236674   1.458   5.448   0.581 -0.1661 -2.0907 -0.3498
 5039TIP3   OH236675   4.813   3.631   2.025 -0.0700 -0.1505 -0.1422
 5039TIP3    H136676   4.892   3.580   2.046 -0.7151 -1.2607 -0.3422
 5039TIP3    H236677   4.830   3.667   1.938  0.7134  0.6574  0.3246
 5040TIP3   OH236678   4.199   1.596   7.879 -0.0228 -0.1764 -0.2279
 5040TIP3    H136679   4.248   1.656   7.822 -3.1328  2.0253 -0.8382
 5040TIP3    H236680   4.172   1.650   7.953  0.3162 -1.9218  1.2427
 5041TIP3   OH236681   1.641   6.333   7.924  0.0565  0.2714 -0.1513
 5041TIP3    H136682   1.548   6.341   7.904  0.2842  0.3720 -1.2135
 5041TIP3    H236683   1.643   6.297   8.013 -0.9957 -0.5225 -0.4297
 5042TIP3   OH236684   2.259   4.460   8.454 -0.1710  0.4181  0.2176
 5042TIP3    H136685   2.296   4.543   8.484 -0.6943  0.9382 -0.5297
 5042TIP3    H236686   2.243   4.473   8.361  0.7696 -0.9210 -0.1579
 5043TIP3   OH236687   5.811   1.206   3.293 -0.4982  0.1939 -0.3812
 5043TIP3    H136688   5.853   1.269   3.351  0.6402 -0.2735 -0.6717
 5043TIP3    H236689   5.759   1.152   3.351 -0.1913  0.3801  0.0792
 5044TIP3   OH236690   2.450   5.615   8.159 -0.6472 -0.3569  0.5764
 5044TIP3    H136691   2.443   5.607   8.254  1.3845 -2.8269  0.6201
 5044TIP3    H236692   2.410   5.535   8.125 -1.1216  0.3786 -0.6645
 5045TIP3   OH236693   6.561   4.838   8.644  0.0537 -0.2248  0.1057
 5045TIP3    H136694   6.609   4.856   8.563  2.1412 -1.9548  0.8628
 5045TIP3    H236695   6.558   4.742   8.650 -0.6038 -0.1384  1.7718
 5046TIP3   OH236696   4.115   4.082   1.953  0.2034  0.3601  0.5730
 5046TIP3    H136697   4.030   4.038   1.962 -0.3442  1.1221 -0.6017
 5046TIP3    H236698   4.177   4.011   1.934 -0.2977 -0.1296  0.7332
 5047TIP3   OH236699   1.187   6.803   1.964  0.7633 -0.0577  0.2699
 5047TIP3    H136700   1.169   6.715   1.998 -0.7021  0.4677  0.9721
 5047TIP3    H236701   1.260   6.791   1.904  2.6522 -1.2665  2.6118
 5048TIP3   OH236702   3.538   0.033   0.351  0.6607 -0.2230 -0.2053
 5048TIP3    H136703   3.509   0.023   0.261 -0.7202  1.4673  0.0003
 5048TIP3    H236704   3.634   0.029   0.345  0.6797  1.3214 -1.9930
 5049TIP3   OH236705   5.655   0.627   2.401 -0.1949 -0.5067  0.0351
 5049TIP3    H136706   5.748   0.636   2.422  0.4405  0.4034 -2.7234
 5049TIP3    H236707   5.610   0.636   2.485  2.1528 -0.0649  1.3280
 5050TIP3   OH236708   5.075   3.035   1.486  0.6545  0.3672  0.0353
 5050TIP3    H136709   5.022   3.019   1.407  0.2437  0.6234  0.2567
 5050TIP3    H236710   5.069   3.129   1.500  2.7633  0.7247 -1.0446
 5051TIP3   OH236711   4.869   3.896   0.684 -0.5078 -0.7102  0.2239
 5051TIP3    H136712   4.876   3.933   0.772  0.9580 -1.3621  0.4200
 5051TIP3    H236713   4.783   3.854   0.682 -2.0899  2.2901  0.1146
 5052TIP3   OH236714   5.728   0.234   1.069 -0.8512  0.1679 -0.2271
 5052TIP3    H136715   5.744   0.306   1.009  0.0994  1.9481  1.9879
 5052TIP3    H236716   5.657   0.265   1.125 -0.1666 -0.4291  1.0160
 5053TIP3   OH236717   0.126   3.983   1.554 -0.2833 -0.3606 -0.9408
 5053TIP3    H136718   0.031   3.990   1.543 -0.3221  0.0003 -0.4058
 5053TIP3    H236719   0.150   4.058   1.608  0.1544 -0.9990 -0.2183
 5054TIP3   OH236720   5.061   0.044   1.203 -0.0757  0.1383 -0.4854
 5054TIP3    H136721   5.099   0.127   1.174  0.3242 -0.1511 -0.7878
 5054TIP3    H236722   5.033   0.062   1.293  1.2662  0.2120 -0.0569
 5055TIP3   OH236723   6.000   1.017   8.518 -0.3056 -0.4492 -0.1247
 5055TIP3    H136724   5.998   1.112   8.529  0.9229 -0.2971 -1.0413
 5055TIP3    H236725   6.053   0.985   8.592  1.3258 -0.1628 -1.1170
 5056TIP3   OH236726   1.259   2.159   0.883  0.2744  0.0915 -0.2944
 5056TIP3    H136727   1.218   2.229   0.934 -1.4539 -0.5951 -0.6641
 5056TIP3    H236728   1.287   2.095   0.948 -1.2404 -0.4325 -0.1164
 5057TIP3   OH236729   6.287   3.986   3.446  0.1193  0.1960 -0.6743
 5057TIP3    H136730   6.382   3.986   3.460  0.2717  2.4681 -1.2342
 5057TIP3    H236731   6.252   3.938   3.521  1.6627  0.2831  0.1491
 5058TIP3   OH236732   3.466   2.114   1.379  0.9440 -0.2112 -0.4103
 5058TIP3    H136733   3.377   2.099   1.410  1.3575  0.3094  1.1048
 5058TIP3    H236734   3.520   2.053   1.430  1.5429 -0.0109 -0.7930
 5059TIP3   OH236735   4.969   1.121   1.258  0.1677 -0.1641  0.5306
 5059TIP3    H136736   4.878   1.133   1.287 -0.1252  0.5626 -0.6169
 5059TIP3    H236737   4.967   1.044   1.202  0.2455 -0.1157  0.4603
 5060TIP3   OH236738   1.700   4.401   8.091 -0.2679 -0.0335  0.1381
 5060TIP3    H136739   1.791   4.404   8.120 -0.0071 -0.7417 -0.5701
 5060TIP3    H236740   1.696   4.326   8.031 -0.7534  1.3804 -1.7112
 5061TIP3   OH236741   4.934   3.946   8.498 -0.4329  0.3877 -0.6888
 5061TIP3    H136742   4.988   3.871   8.474 -0.2074  0.2946  0.0989
 5061TIP3    H236743   4.957   4.014   8.434 -0.7281 -0.2461 -1.4830
 5062TIP3   OH236744   1.985   2.394   2.557  0.1313  0.1359 -0.4851
 5062TIP3    H136745   2.023   2.377   2.471 -0.7387 -0.9276 -0.6916
 5062TIP3    H236746   1.891   2.378   2.545  0.2043 -1.9095  1.0620
 5063TIP3   OH236747   4.114   3.849   0.812 -0.0305 -0.0971 -0.2565
 5063TIP3    H136748   4.031   3.870   0.770  0.0314  1.7764  0.4690
 5063TIP3    H236749   4.111   3.893   0.897  1.6095 -0.1807 -0.1081
 5064TIP3   OH236750   1.878   0.410   8.085  0.1121  0.0283 -0.2121
 5064TIP3    H136751   1.923   0.329   8.109 -0.3112 -0.9366 -2.4268
 5064TIP3    H236752   1.948   0.470   8.058  0.4069  0.3443  1.1891
 5065TIP3   OH236753   3.518   0.499   1.438  0.2308 -0.0387  0.4977
 5065TIP3    H136754   3.562   0.417   1.457 -0.3437 -0.2625  0.8843
 5065TIP3    H236755   3.436   0.494   1.487 -0.1956  0.3989 -0.1655
 5066TIP3   OH236756   0.088   5.870   1.363  0.1235 -0.0181  0.4953
 5066TIP3    H136757   0.098   5.903   1.274 -0.1663 -0.2079  0.3873
 5066TIP3    H236758   0.159   5.807   1.374  1.5516  1.6307  1.1959
 5067TIP3   OH236759   5.368   3.355   2.661 -0.5561 -0.5351 -0.2710
 5067TIP3    H136760   5.367   3.443   2.625 -0.5408 -0.1769  0.5715
 5067TIP3    H236761   5.296   3.354   2.725  0.5011 -0.5737  0.9751
 5068TIP3   OH236762   2.783   3.982   1.916 -0.3517 -0.4479  0.3424
 5068TIP3    H136763   2.699   3.939   1.926 -0.4265 -0.2089  0.7547
 5068TIP3    H236764   2.846   3.911   1.904 -0.6040 -0.6262  0.0573
 5069TIP3   OH236765   2.083   3.036   8.279  0.4648  0.5177 -0.3089
 5069TIP3    H136766   2.077   2.945   8.309  1.5567  0.0880 -1.3422
 5069TIP3    H236767   2.173   3.046   8.249  0.0078  1.5618 -1.4173
 5070TIP3   OH236768   1.597   4.541   8.376 -0.3779  0.4249 -0.1210
 5070TIP3    H136769   1.576   4.468   8.435 -0.6357  1.2033  0.7803
 5070TIP3    H236770   1.620   4.499   8.294  1.0889 -0.7650  0.8469
 5071TIP3   OH236771   5.101   3.385   0.968 -0.5945 -0.0536 -0.5357
 5071TIP3    H136772   5.131   3.436   0.893  1.4275 -1.1070 -0.5220
 5071TIP3    H236773   5.109   3.293   0.940  1.1059 -0.5100  1.2056
 5072TIP3   OH236774   5.366   2.643   0.588 -0.1486  0.2843 -0.4998
 5072TIP3    H136775   5.307   2.613   0.658 -0.5371 -0.3539 -1.0999
 5072TIP3    H236776   5.421   2.568   0.568 -1.3341 -0.1620 -2.2203
 5073TIP3   OH236777   2.451   2.608   2.202 -0.1853  0.0769  0.2171
 5073TIP3    H136778   2.392   2.678   2.229  0.6642  0.4035  1.2974
 5073TIP3    H236779   2.412   2.573   2.122 -1.7659  0.3583  0.8376
 5074TIP3   OH236780   3.505   3.942   8.315 -0.3696 -0.6774 -0.4663
 5074TIP3    H136781   3.487   4.023   8.268 -2.3007  0.4817  2.0494
 5074TIP3    H236782   3.459   3.875   8.266 -0.2091  0.0302 -1.6129
 5075TIP3   OH236783   2.459   4.052   7.807  0.0638  0.6402  0.0570
 5075TIP3    H136784   2.410   4.014   7.734  0.0405  0.7094  0.0360
 5075TIP3    H236785   2.508   4.124   7.767 -1.3907  1.9068  0.4296
 5076TIP3   OH236786   6.090   5.481   1.626  0.0904  0.0789 -0.3161
 5076TIP3    H136787   6.157   5.419   1.598  0.1134  0.1206 -0.3535
 5076TIP3    H236788   6.107   5.494   1.719 -0.1407 -0.2535 -0.2234
 5077TIP3   OH236789   3.005   5.360   1.830  1.0264  0.3853 -1.0035
 5077TIP3    H136790   3.068   5.359   1.903  0.6030  0.3582 -0.6331
 5077TIP3    H236791   3.059   5.344   1.753  1.2588 -1.3063 -0.5236
 5078TIP3   OH236792   1.988   0.250   8.328  0.2208  0.1175  0.0641
 5078TIP3    H136793   1.981   0.314   8.398  0.0821  0.4118 -0.2169
 5078TIP3    H236794   2.078   0.218   8.333  1.1268  2.1751 -1.3714
 5079TIP3   OH236795   0.843   5.052   2.497 -0.0520  0.1166 -0.0997
 5079TIP3    H136796   0.911   5.084   2.556  0.4536  1.6936 -1.4737
 5079TIP3    H236797   0.873   4.965   2.471 -0.3863 -0.7184  2.0448
 5080TIP3   OH236798   4.427   2.885   2.078 -0.1670  0.6316 -0.1802
 5080TIP3    H136799   4.348   2.918   2.036  0.0568  0.4510 -0.7502
 5080TIP3    H236800   4.490   2.874   2.007 -0.3214 -1.2594 -0.0785
 5081TIP3   OH236801   1.284   3.246   1.113  0.3828 -0.0288  0.3240
 5081TIP3    H136802   1.234   3.242   1.194  1.4992  1.8534  1.2022
 5081TIP3    H236803   1.309   3.338   1.105  1.1083 -0.3375 -1.6774
 5082TIP3   OH236804   2.445   6.058   3.365 -0.0573 -0.6235  0.0346
 5082TIP3    H136805   2.513   6.020   3.309 -0.7914 -1.3695 -0.3773
 5082TIP3    H236806   2.379   5.989   3.373 -1.7308  0.7325 -1.2073
 5083TIP3   OH236807   1.119   1.004   7.599  0.0459  0.1309 -0.1943
 5083TIP3    H136808   1.025   1.015   7.584  0.4686  3.0390 -1.2567
 5083TIP3    H236809   1.154   1.093   7.605  2.9951 -0.8063 -1.4028
 5084TIP3   OH236810   6.035   4.538   1.237 -0.8189  0.0834  0.4037
 5084TIP3    H136811   6.074   4.456   1.267 -0.0560 -0.4874 -1.9360
 5084TIP3    H236812   6.109   4.591   1.207 -1.5609  0.0350 -1.6826
 5085TIP3   OH236813   0.019   0.146   1.494  0.2964  0.1338 -0.2017
 5085TIP3    H136814  -0.064   0.138   1.540 -0.3952  1.2402 -1.1811
 5085TIP3    H236815   0.007   0.094   1.414  1.0571 -0.8154  0.2794
 5086TIP3   OH236816   2.655   0.653   8.615 -0.2552  0.7677 -0.1074
 5086TIP3    H136817   2.647   0.575   8.669  0.5817  1.8497  1.6631
 5086TIP3    H236818   2.691   0.621   8.532 -0.6687 -0.8027  0.2760
 5087TIP3   OH236819   6.716   6.561   1.329  0.0348 -0.6180 -0.1700
 5087TIP3    H136820   6.768   6.485   1.302  2.0080  0.1409  1.2371
 5087TIP3    H236821   6.781   6.630   1.346 -1.5713  0.9017  0.1327
 5088TIP3   OH236822   4.138   5.426   0.712 -0.2245  0.2158  0.1494
 5088TIP3    H136823   4.100   5.368   0.645 -0.8155 -0.7627  1.2923
 5088TIP3    H236824   4.111   5.514   0.685 -0.4712 -0.1590 -0.8801
 5089TIP3   OH236825   0.368   4.713   0.018 -0.4452 -0.7129 -0.5123
 5089TIP3    H136826   0.354   4.637   0.074 -0.0241 -0.0511  0.5178
 5089TIP3    H236827   0.464   4.722   0.014 -0.5034  0.2688  0.0889
 5090TIP3   OH236828   0.014   2.274   8.167 -0.4562 -0.0959  0.2932
 5090TIP3    H136829  -0.002   2.209   8.235 -0.3095 -0.5484 -0.0986
 5090TIP3    H236830  -0.034   2.243   8.091 -1.4330  0.9250  0.4684
 5091TIP3   OH236831   6.721   3.264   0.483 -0.1746  0.5996 -0.3645
 5091TIP3    H136832   6.770   3.182   0.493 -1.0379  0.0582 -0.4891
 5091TIP3    H236833   6.630   3.236   0.471 -0.7815  1.6308  1.4847
 5092TIP3   OH236834   6.460   5.856   1.624  0.3280  0.0105 -0.1185
 5092TIP3    H136835   6.405   5.912   1.570  2.0546  2.2952  0.3587
 5092TIP3    H236836   6.534   5.834   1.568  0.5363 -0.3326  0.2876
 5093TIP3   OH236837   0.957   4.846   1.733 -0.1770  0.0953 -0.7442
 5093TIP3    H136838   0.957   4.752   1.749  0.1519  0.0112 -1.1903
 5093TIP3    H236839   1.039   4.877   1.772 -1.2546  0.5596  1.2821
 5094TIP3   OH236840   5.737   1.217   1.153  0.3373 -0.3891  0.4538
 5094TIP3    H136841   5.732   1.188   1.061 -0.9299  1.6116 -0.1784
 5094TIP3    H236842   5.719   1.311   1.149 -0.7831 -0.4300  2.8477
 5095TIP3   OH236843   3.596   3.862   2.395  0.2700 -0.2874  0.6095
 5095TIP3    H136844   3.553   3.853   2.480  1.2561  0.8330  1.2562
 5095TIP3    H236845   3.684   3.826   2.408 -0.6384 -3.5013 -0.9677
 5096TIP3   OH236846   1.448   3.472   8.729 -0.5051 -0.0852 -0.3053
 5096TIP3    H136847   1.361   3.503   8.701 -0.3393 -1.1465 -2.1875
 5096TIP3    H236848   1.430   3.412   8.801 -1.1472  1.1282  0.5912
 5097TIP3   OH236849   1.019   0.242   8.540 -0.4868  0.0546 -0.0090
 5097TIP3    H136850   1.068   0.283   8.469 -0.7679 -1.7113 -1.2920
 5097TIP3    H236851   0.934   0.286   8.538  0.3965  1.9462  1.1195
 5098TIP3   OH236852   2.974   6.090   8.737 -0.3202  0.3041  0.0372
 5098TIP3    H136853   2.957   6.010   8.788 -1.7908 -0.3821 -1.4357
 5098TIP3    H236854   3.035   6.062   8.669 -1.0913  0.3381 -0.6786
 5099TIP3   OH236855   5.807   4.511   0.553 -0.3045 -0.8317 -0.2403
 5099TIP3    H136856   5.771   4.424   0.533 -0.4502 -0.7891 -0.1608
 5099TIP3    H236857   5.733   4.561   0.587 -0.6461 -0.1149 -1.9548
 5100TIP3   OH236858   3.427   5.192   2.310  0.1448  0.4477  0.2048
 5100TIP3    H136859   3.473   5.176   2.393 -0.2335 -1.6228  0.0666
 5100TIP3    H236860   3.465   5.274   2.277  1.2825  0.5824  1.7446
 5101TIP3   OH236861   1.293   3.413   7.094 -0.6911  0.1410  0.0616
 5101TIP3    H136862   1.210   3.406   7.142 -1.4893 -0.0694 -1.2956
 5101TIP3    H236863   1.290   3.341   7.031  0.6070  0.0380  0.0978
 5102TIP3   OH236864   6.747   2.960   8.776  0.5584  0.0157 -0.1183
 5102TIP3    H136865   6.693   2.882   8.764  0.4636  0.1830 -0.8323
 5102TIP3    H236866   6.818   2.949   8.713  0.2875  0.7312 -0.5571
 5103TIP3   OH236867   2.264   5.452   2.722 -0.3798 -0.3113  0.2400
 5103TIP3    H136868   2.298   5.515   2.786 -1.0338  0.1393  0.1513
 5103TIP3    H236869   2.184   5.418   2.761  0.7212 -2.2193  0.9495
 5104TIP3   OH236870   0.034   2.904   1.159 -0.5307 -0.2965 -0.3338
 5104TIP3    H136871   0.008   2.821   1.119 -1.0481 -1.0751  1.4900
 5104TIP3    H236872   0.023   2.969   1.090 -0.2308 -1.7144 -1.7792
 5105TIP3   OH236873   3.508   2.391   1.700 -0.1812 -0.3442  0.5871
 5105TIP3    H136874   3.527   2.485   1.694 -2.3039  0.1682  0.7974
 5105TIP3    H236875   3.540   2.366   1.787 -0.2418  0.3638  0.8246
 5106TIP3   OH236876   0.726   3.326   8.103  0.3628  0.3363  0.1711
 5106TIP3    H136877   0.650   3.322   8.045 -0.2311 -0.5583  0.9626
 5106TIP3    H236878   0.702   3.391   8.170  0.0041 -0.4120  0.7863
 5107TIP3   OH236879   3.263   0.049   2.224  0.8491 -0.4914  0.2343
 5107TIP3    H136880   3.320  -0.025   2.200  1.1686 -0.7627  1.7495
 5107TIP3    H236881   3.311   0.095   2.293 -0.1791  0.0547  0.6091
 5108TIP3   OH236882   3.069   4.151   7.472 -0.9285 -0.6028 -0.3412
 5108TIP3    H136883   3.036   4.187   7.554  0.2290  1.2850 -0.6609
 5108TIP3    H236884   3.003   4.086   7.447 -2.5971  0.5526  0.7970
 5109TIP3   OH236885   6.233   0.648   1.658 -0.5236 -0.0661 -0.1819
 5109TIP3    H136886   6.230   0.703   1.737 -0.1840  0.4229 -0.4986
 5109TIP3    H236887   6.190   0.701   1.591  0.4499  0.1353 -0.6735
 5110TIP3   OH236888   1.448   4.591   0.894 -0.3058 -0.0186 -0.2854
 5110TIP3    H136889   1.362   4.634   0.895 -0.0914  0.4263  0.9683
 5110TIP3    H236890   1.439   4.517   0.953 -0.5383 -1.4960 -2.1018
 5111TIP3   OH236891   1.243   0.159   2.553 -0.1923 -0.2061 -0.3224
 5111TIP3    H136892   1.221   0.242   2.510 -0.2091 -0.8576 -1.6219
 5111TIP3    H236893   1.316   0.181   2.611  2.5273  0.0313 -3.5745
 5112TIP3   OH236894   2.756   4.223   0.593  0.2950 -0.1194 -0.2060
 5112TIP3    H136895   2.724   4.312   0.583 -1.8375 -0.7718  0.1729
 5112TIP3    H236896   2.693   4.169   0.544  0.6945 -1.5395  0.7606
 5113TIP3   OH236897   5.984   2.917   0.784 -0.3308  0.0205  0.3700
 5113TIP3    H136898   5.947   2.893   0.699  0.8162  1.3127 -0.5407
 5113TIP3    H236899   6.062   2.863   0.793  0.1693  0.6685  0.0549
 5114TIP3   OH236900   0.330   2.573   2.516  0.1308  0.3330 -0.3027
 5114TIP3    H136901   0.243   2.537   2.502  1.0888 -2.6811  0.7400
 5114TIP3    H236902   0.340   2.577   2.611  1.9019 -1.6791 -0.3230
 5115TIP3   OH236903   1.946   1.159   8.436  0.7488 -0.4196  0.3402
 5115TIP3    H136904   1.999   1.216   8.491  0.8839  0.3543 -0.5501
 5115TIP3    H236905   1.862   1.203   8.429  0.7760 -0.4387 -0.1707
 5116TIP3   OH236906   4.771   1.348   1.354  0.6375  0.2959 -0.1331
 5116TIP3    H136907   4.696   1.404   1.376 -0.0238 -0.5999 -0.0497
 5116TIP3    H236908   4.734   1.260   1.348  1.0497  0.2051 -3.1529
 5117TIP3   OH236909   0.414   1.473   7.383 -0.1943 -0.1990 -0.3393
 5117TIP3    H136910   0.326   1.509   7.367 -0.7101 -1.5534 -0.6792
 5117TIP3    H236911   0.411   1.386   7.345  1.1358 -0.4750  0.1541
 5118TIP3   OH236912   3.219   6.472   2.708  0.6221 -0.1941 -0.4816
 5118TIP3    H136913   3.208   6.477   2.613  0.6330 -2.5306 -0.6564
 5118TIP3    H236914   3.133   6.449   2.742 -0.1921  3.5212  0.5020
 5119TIP3   OH236915   5.923   3.580   1.425  0.1916 -0.3930 -0.0620
 5119TIP3    H136916   5.844   3.527   1.437  1.4676 -2.8503 -1.5834
 5119TIP3    H236917   5.955   3.595   1.514  0.2728 -3.1462  0.4864
 5120TIP3   OH236918   2.548   0.929   0.365 -0.0347  0.1689 -0.5647
 5120TIP3    H136919   2.634   0.935   0.407 -0.0838  1.4299 -0.6121
 5120TIP3    H236920   2.534   0.835   0.352  1.5786 -0.0357 -1.0494
 5121TIP3   OH236921   1.299   3.002   7.980  0.6733  0.1226 -0.3259
 5121TIP3    H136922   1.359   3.067   8.015 -0.9867  1.0518  0.9131
 5121TIP3    H236923   1.337   2.918   8.007  1.7924  0.6292 -0.2431
 5122TIP3   OH236924   4.695   5.956   7.413 -0.2371  0.7315  0.1647
 5122TIP3    H136925   4.760   5.927   7.477  0.5545  0.5635 -0.6915
 5122TIP3    H236926   4.737   5.943   7.328 -0.2177  3.4112 -0.3253
 5123TIP3   OH236927   5.286   4.149   8.317  0.2116  0.1476  0.0155
 5123TIP3    H136928   5.328   4.154   8.403  1.7615 -0.9888 -0.6296
 5123TIP3    H236929   5.359   4.138   8.256 -0.9924 -1.1024 -1.2519
 5124TIP3   OH236930   1.123   0.016   0.615 -0.2894 -0.1986 -0.0619
 5124TIP3    H136931   1.166  -0.044   0.676  0.3777 -0.3041 -0.6215
 5124TIP3    H236932   1.190   0.034   0.548 -0.8624  0.2593 -0.5214
 5125TIP3   OH236933   2.599   3.728   7.147  0.1445  0.6316  0.2111
 5125TIP3    H136934   2.679   3.762   7.108  0.6552  0.4271  1.0447
 5125TIP3    H236935   2.612   3.739   7.241 -0.7135  0.3865  0.3675
 5126TIP3   OH236936   2.530   4.671   8.336 -0.3940  0.5137 -0.6986
 5126TIP3    H136937   2.575   4.608   8.279  0.3475  0.7533 -0.3957
 5126TIP3    H236938   2.467   4.714   8.279  1.3309  1.7960 -1.7574
 5127TIP3   OH236939   3.880   6.028   1.368 -0.2042  0.3998  0.2927
 5127TIP3    H136940   3.864   6.030   1.274  1.2480 -2.2501 -0.0965
 5127TIP3    H236941   3.946   6.096   1.383  1.9194 -1.2280 -1.2023
 5128TIP3   OH236942   4.619   5.516   2.560 -0.6728  0.0607 -0.1035
 5128TIP3    H136943   4.566   5.556   2.629 -0.9183  3.1898 -1.9195
 5128TIP3    H236944   4.705   5.502   2.600 -1.2191  0.4007  1.2299
 5129TIP3   OH236945   6.548   0.176   2.269 -0.5230  0.3468  0.0055
 5129TIP3    H136946   6.464   0.193   2.226 -0.8581 -0.7935  0.1681
 5129TIP3    H236947   6.606   0.150   2.198 -0.5273  0.3907 -0.0139
 5130TIP3   OH236948   5.263   2.993   2.605  0.2035  0.4345  0.6982
 5130TIP3    H136949   5.347   3.027   2.573  1.1154 -1.7272  0.5748
 5130TIP3    H236950   5.281   2.967   2.696 -0.0440 -0.8794  0.3884
 5131TIP3   OH236951   3.730   4.480   0.132 -0.2970  0.1670 -0.3310
 5131TIP3    H136952   3.792   4.413   0.162 -1.4988 -0.1956  1.5334
 5131TIP3    H236953   3.664   4.431   0.083 -0.7615  0.0827  0.3684
 5132TIP3   OH236954   1.616   3.600   0.390  0.3234  0.2734 -0.0401
 5132TIP3    H136955   1.701   3.614   0.348  0.0548  0.3262 -0.5882
 5132TIP3    H236956   1.558   3.575   0.317 -0.4982  1.7719  0.0587
 5133TIP3   OH236957   3.927   2.157   1.632 -0.5154  0.1103 -0.1178
 5133TIP3    H136958   3.957   2.073   1.598 -1.3963  0.5805 -2.2702
 5133TIP3    H236959   3.978   2.222   1.583  0.5098  0.8557  1.8617
 5134TIP3   OH236960   4.408   3.586   0.697 -0.5390  0.2344 -0.1374
 5134TIP3    H136961   4.315   3.582   0.719  0.1615 -1.2678  3.2109
 5134TIP3    H236962   4.444   3.505   0.735  2.3214  1.3601 -0.2626
 5135TIP3   OH236963   2.253   1.338   0.174  0.0737 -0.8191  0.5322
 5135TIP3    H136964   2.307   1.406   0.133 -0.3509 -0.5038  0.4847
 5135TIP3    H236965   2.315   1.275   0.208  0.5990  0.6747  2.5314
 5136TIP3   OH236966   2.604   6.810   1.368  0.7978  0.2860 -0.3350
 5136TIP3    H136967   2.625   6.717   1.357  0.3550  0.0986  0.3449
 5136TIP3    H236968   2.514   6.811   1.400  0.9664  0.9293  0.1451
 5137TIP3   OH236969   2.019   0.733   3.261  0.2002 -0.1029 -0.1625
 5137TIP3    H136970   1.985   0.680   3.333  0.4054 -0.1886 -0.1290
 5137TIP3    H236971   2.110   0.751   3.284  0.8787 -1.7667 -1.3115
 5138TIP3   OH236972   2.840   0.559   1.799  0.2530 -0.4273  0.1945
 5138TIP3    H136973   2.897   0.516   1.862  1.5511 -1.2569 -1.4855
 5138TIP3    H236974   2.822   0.493   1.733 -0.4618  0.6218 -0.7019
 5139TIP3   OH236975   6.270   0.869   8.391  0.2958 -0.0676  0.9396
 5139TIP3    H136976   6.364   0.887   8.388  0.0783  1.0475 -1.7125
 5139TIP3    H236977   6.229   0.950   8.363 -1.4858 -0.5422  2.0384
 5140TIP3   OH236978   0.716   0.415   7.984 -0.1142 -0.2147 -0.0155
 5140TIP3    H136979   0.716   0.416   8.080  0.7506  0.2868 -0.0112
 5140TIP3    H236980   0.772   0.340   7.961 -0.2856 -0.3088 -0.1273
 5141TIP3   OH236981   4.168   4.937   1.731 -0.1425 -0.1872  0.5377
 5141TIP3    H136982   4.142   4.943   1.639  0.4657 -1.9954  0.2110
 5141TIP3    H236983   4.262   4.953   1.731 -0.3137  0.9176  1.0163
 5142TIP3   OH236984   5.779   2.515   7.205 -0.4887 -0.2878 -0.1429
 5142TIP3    H136985   5.818   2.537   7.120 -2.2291  0.9322 -0.6939
 5142TIP3    H236986   5.773   2.598   7.251 -0.7016 -0.7484  0.6813
 5143TIP3   OH236987   1.440   0.243   7.589 -0.3201 -0.6801 -0.0554
 5143TIP3    H136988   1.461   0.276   7.502 -2.1817  0.5009 -0.1019
 5143TIP3    H236989   1.391   0.162   7.574 -1.5534  0.0729 -0.1576
 5144TIP3   OH236990   2.362   2.012   0.909  0.3442 -0.5090 -0.3414
 5144TIP3    H136991   2.423   2.031   0.981  0.3248 -0.6627 -0.2846
 5144TIP3    H236992   2.279   1.993   0.952  0.2228 -0.1689 -0.4260
 5145TIP3   OH236993   2.661   5.611   8.604 -0.2336 -0.3300 -0.0763
 5145TIP3    H136994   2.602   5.537   8.587  0.7459 -0.6618 -2.6339
 5145TIP3    H236995   2.688   5.600   8.695 -0.9751 -2.5078 -0.0502
 5146TIP3   OH236996   4.178   0.477   0.995 -0.5240 -0.0286  0.0459
 5146TIP3    H136997   4.184   0.453   1.087  0.3830 -1.0097 -0.2521
 5146TIP3    H236998   4.175   0.394   0.948  1.7785  0.4002 -0.9713
 5147TIP3   OH236999   1.964   1.130   3.451  0.0848  0.6030 -0.3040
 5147TIP3    H137000   1.868   1.129   3.454  0.0674 -0.4166 -0.8019
 5147TIP3    H237001   1.987   1.221   3.464 -1.0282  1.1890 -2.0867
 5148TIP3   OH237002   5.943   0.532   0.920 -0.6437 -0.0072 -0.1634
 5148TIP3    H137003   6.009   0.600   0.907 -0.9223  0.2991 -0.0030
 5148TIP3    H237004   5.915   0.507   0.832  0.0709 -0.5214 -0.2478
 5149TIP3   OH237005   5.148   6.628   3.001  0.2999  0.9348 -0.3065
 5149TIP3    H137006   5.119   6.585   2.921  2.8307  0.6184 -1.1151
 5149TIP3    H237007   5.070   6.674   3.032 -1.7292 -1.8074 -0.9589
 5150TIP3   OH237008   3.982   4.738   2.222 -0.3768 -0.4216  0.5423
 5150TIP3    H137009   3.981   4.743   2.126 -1.1322 -0.2701  0.5470
 5150TIP3    H237010   4.027   4.818   2.249 -1.2247  0.1520  0.3253
 5151TIP3   OH237011   5.368   2.390   2.019 -0.2180 -0.5665  0.5764
 5151TIP3    H137012   5.362   2.349   1.933 -1.1812 -0.9799  0.8276
 5151TIP3    H237013   5.447   2.354   2.058  0.4370 -0.0876 -0.2797
 5152TIP3   OH237014   5.698   5.830   2.235 -0.0517 -0.0525 -0.1485
 5152TIP3    H137015   5.639   5.784   2.175  0.0646 -0.3806 -0.0158
 5152TIP3    H237016   5.729   5.906   2.186  0.9304 -0.9174 -0.9194
 5153TIP3   OH237017   4.434   3.632   7.447  0.2624  0.3892  0.0111
 5153TIP3    H137018   4.479   3.706   7.487 -0.2352  0.7748 -0.1226
 5153TIP3    H237019   4.356   3.619   7.501  0.5297 -0.2745  0.2461
 5154TIP3   OH237020   6.263   5.286   7.691  0.1033  0.3743  0.3556
 5154TIP3    H137021   6.334   5.238   7.647 -0.5009  0.4815 -0.7758
 5154TIP3    H237022   6.184   5.257   7.646 -0.7291 -0.6261  2.3703
 5155TIP3   OH237023   1.857   5.918   6.758 -0.0828  0.3897  0.5265
 5155TIP3    H137024   1.819   5.835   6.788  0.4593 -0.8112 -1.8063
 5155TIP3    H237025   1.949   5.897   6.740  0.7960  2.2649  2.4956
 5156TIP3   OH237026   2.883   3.503   8.008 -0.0347  0.0225  0.6457
 5156TIP3    H137027   2.914   3.416   7.981  0.3771  0.8280 -1.6957
 5156TIP3    H237028   2.962   3.551   8.028 -0.1796  0.2216  0.7369
 5157TIP3   OH237029   5.667   0.750   0.503  0.3948 -0.0856  0.0674
 5157TIP3    H137030   5.594   0.812   0.496 -0.0612 -0.3605  2.0170
 5157TIP3    H237031   5.675   0.731   0.596  1.1568 -2.2321 -0.3680
 5158TIP3   OH237032   6.575   6.029   0.041 -0.5718 -0.2331  0.0988
 5158TIP3    H137033   6.481   6.040   0.051 -0.6394  0.8536 -1.4097
 5158TIP3    H237034   6.587   5.935   0.032 -1.5524 -0.3577 -0.0042
 5159TIP3   OH237035   5.373   3.469   7.659 -0.2366  0.6140  0.3272
 5159TIP3    H137036   5.311   3.397   7.673  0.9198 -0.5342 -0.2917
 5159TIP3    H237037   5.457   3.426   7.646  1.0188  2.1839  2.5824
 5160TIP3   OH237038   0.945   3.696   8.688 -0.0117 -0.3359  0.5349
 5160TIP3    H137039   0.892   3.710   8.610  1.1257 -1.0204 -0.3951
 5160TIP3    H237040   0.910   3.757   8.752 -1.4906 -0.3160 -0.2457
 5161TIP3   OH237041   1.456   2.466   7.893 -0.1819 -1.1255 -0.1603
 5161TIP3    H137042   1.435   2.479   7.801 -1.4897 -0.7915  0.1510
 5161TIP3    H237043   1.387   2.408   7.925 -1.6978  1.3027  1.3041
 5162TIP3   OH237044   0.910   5.336   2.923 -0.6238  0.0493  0.4654
 5162TIP3    H137045   0.910   5.268   2.855 -3.4256 -1.3591  1.7206
 5162TIP3    H237046   0.913   5.418   2.874  1.7725 -0.8842 -1.1489
 5163TIP3   OH237047   2.101   5.512   3.314  0.5642 -0.1509 -0.1491
 5163TIP3    H137048   2.051   5.591   3.333 -0.7375 -1.0594  0.3299
 5163TIP3    H237049   2.106   5.466   3.398  1.4500 -0.5170 -0.3844
 5164TIP3   OH237050   0.016   5.230   0.786  0.1839 -0.3246  0.1015
 5164TIP3    H137051  -0.066   5.182   0.775  0.3643 -0.7083  0.3983
 5164TIP3    H237052   0.077   5.186   0.728 -0.3675  1.3411 -1.8330
 5165TIP3   OH237053   3.877   5.670   1.563  0.5477  0.2006  0.2184
 5165TIP3    H137054   3.950   5.609   1.575 -0.5326 -1.1232  0.1941
 5165TIP3    H237055   3.859   5.703   1.651  2.5288  2.2130 -0.0350
 5166TIP3   OH237056   0.924   4.388   2.091 -0.9150  0.1255  0.0095
 5166TIP3    H137057   1.003   4.372   2.041 -0.8614 -0.1501  0.1812
 5166TIP3    H237058   0.874   4.451   2.038 -2.0036 -1.9617 -1.6098
 5167TIP3   OH237059   0.116   0.387   1.566  0.1024 -0.7899  0.1128
 5167TIP3    H137060   0.144   0.426   1.484  1.1241 -0.2638  0.6956
 5167TIP3    H237061   0.061   0.313   1.540 -1.2468  0.5422 -1.0174
 5168TIP3   OH237062   1.872   5.978   7.601 -0.2692 -0.4544  0.3287
 5168TIP3    H137063   1.916   6.049   7.554 -0.3936 -0.2613  0.5021
 5168TIP3    H237064   1.822   5.932   7.533  0.2299 -0.6991  0.1267
 5169TIP3   OH237065   2.612   2.724   0.089 -0.0627 -0.2834 -0.2790
 5169TIP3    H137066   2.577   2.667   0.021 -1.4533  2.7686 -2.3427
 5169TIP3    H237067   2.700   2.747   0.058  0.7343 -1.6115  0.8434
 5170TIP3   OH237068   3.025   4.958   8.707  0.6868  0.1795 -0.4566
 5170TIP3    H137069   2.987   4.990   8.625  3.9845 -1.4441 -2.8641
 5170TIP3    H237070   2.983   5.010   8.775 -4.3140 -0.2608 -2.7970
 5171TIP3   OH237071   0.605   1.373   1.052 -0.3472 -0.1537  0.5055
 5171TIP3    H137072   0.685   1.321   1.063  1.3771  1.9900 -0.9312
 5171TIP3    H237073   0.580   1.397   1.141  0.0008 -1.7127  1.0484
 5172TIP3   OH237074   4.566   6.279   8.599 -0.0252 -0.2303  0.0301
 5172TIP3    H137075   4.558   6.218   8.673 -0.2843  0.9912  1.0423
 5172TIP3    H237076   4.499   6.251   8.537  1.1382 -2.1624 -0.4367
 5173TIP3   OH237077   5.272   2.214   2.518  0.0518 -0.3436  0.3526
 5173TIP3    H137078   5.276   2.279   2.448  0.8205 -0.6629  0.0828
 5173TIP3    H237079   5.363   2.188   2.531  0.0015  0.1797  1.9255
 5174TIP3   OH237080   2.767   6.305   8.806 -0.4686  1.1408  0.3359
 5174TIP3    H137081   2.833   6.241   8.778 -0.1796  0.6305  2.0739
 5174TIP3    H237082   2.761   6.367   8.733  0.5023  0.0990 -0.6631
 5175TIP3   OH237083   3.786   5.798   8.143 -0.2663  0.0616 -0.1816
 5175TIP3    H137084   3.736   5.854   8.202  0.6677 -1.1726  1.9262
 5175TIP3    H237085   3.875   5.799   8.179 -0.1914 -2.6165 -0.0511
 5176TIP3   OH237086   3.297   3.826   1.556 -0.5471 -0.2560 -0.5381
 5176TIP3    H137087   3.384   3.846   1.590 -0.3112 -0.9630 -0.6868
 5176TIP3    H237088   3.305   3.838   1.461  0.1930 -2.8583 -0.9064
 5177TIP3   OH237089   4.919   1.878   0.738  0.6661  0.2583 -0.1617
 5177TIP3    H137090   4.909   1.960   0.690 -0.9676 -0.2533 -0.7613
 5177TIP3    H237091   4.893   1.898   0.828  1.5191  0.6738  0.0071
 5178TIP3   OH237092   2.515   3.162   2.451 -0.2090 -0.1056  0.1245
 5178TIP3    H137093   2.523   3.091   2.515  1.2591  0.4211  0.5710
 5178TIP3    H237094   2.457   3.226   2.493  1.0383  0.4048  1.1327
 5179TIP3   OH237095   2.584   2.055   2.147 -0.0896  0.6667 -0.2493
 5179TIP3    H137096   2.604   2.049   2.240 -0.6136  1.6615 -0.0565
 5179TIP3    H237097   2.568   1.964   2.120  0.8505  0.2837  0.4361
 5180TIP3   OH237098   1.006   2.179   1.995  0.5716  0.2277 -0.0593
 5180TIP3    H137099   1.081   2.170   1.937 -0.2692 -0.8577 -1.0217
 5180TIP3    H237100   0.937   2.127   1.954 -0.2512 -0.0555  1.5806
 5181TIP3   OH237101   3.165   4.664   7.057  0.2086 -0.2526  0.1288
 5181TIP3    H137102   3.087   4.643   7.005 -1.0430  1.7860  1.1068
 5181TIP3    H237103   3.139   4.647   7.147  0.7473  0.8546  0.5035
 5182TIP3   OH237104   5.459   5.328   1.273  0.1850  0.5116 -0.1829
 5182TIP3    H137105   5.541   5.377   1.261 -0.3630  1.6469  0.4936
 5182TIP3    H237106   5.450   5.318   1.367 -0.9807  1.3828 -0.1662
 5183TIP3   OH237107   1.736   1.450   0.987 -0.7445  0.7586 -0.3220
 5183TIP3    H137108   1.695   1.483   0.907 -2.2438  0.4797  0.3131
 5183TIP3    H237109   1.670   1.395   1.028  0.2590  0.3125  0.7607
 5184TIP3   OH237110   0.545   6.078   3.382  0.8829  0.0662 -0.3577
 5184TIP3    H137111   0.595   6.003   3.349  0.2474 -0.3926 -0.2866
 5184TIP3    H237112   0.533   6.061   3.475  0.2963 -0.0075 -0.4394
 5185TIP3   OH237113   0.953   3.776   2.622  0.2103 -0.8975  0.3391
 5185TIP3    H137114   0.923   3.783   2.531 -1.5755  0.9597  1.0013
 5185TIP3    H237115   1.035   3.826   2.623 -0.4291  0.2084 -0.0199
 5186TIP3   OH237116   1.700   3.961   1.474  0.6453  0.0051  0.2876
 5186TIP3    H137117   1.647   4.039   1.492  0.4565 -0.3097  1.1124
 5186TIP3    H237118   1.788   3.995   1.458  0.6445  0.3554  1.0262
 5187TIP3   OH237119   1.857   2.087   8.132 -0.0370 -0.2756  0.5131
 5187TIP3    H137120   1.928   2.116   8.075 -0.8815  0.2762 -0.2715
 5187TIP3    H237121   1.793   2.047   8.073 -0.0037 -1.5774  1.3027
 5188TIP3   OH237122   2.422   1.235   0.876 -0.2565 -0.5534 -0.5347
 5188TIP3    H137123   2.473   1.316   0.882  0.7147 -1.0374 -1.7156
 5188TIP3    H237124   2.367   1.235   0.955  1.6731 -0.0585  0.8930
 5189TIP3   OH237125   3.307   4.892   1.997  0.5861  0.3192  0.1534
 5189TIP3    H137126   3.391   4.875   2.040  1.5722 -0.0031 -1.7567
 5189TIP3    H237127   3.297   4.819   1.935 -1.5762 -0.1296  0.9667
 5190TIP3   OH237128   5.348   4.082   8.573 -0.5791  0.0999 -0.4412
 5190TIP3    H137129   5.273   4.129   8.609 -1.7747 -3.2046  1.9144
 5190TIP3    H237130   5.424   4.130   8.604 -1.7048  0.4048  2.0965
 5191TIP3   OH237131   3.432   2.732   1.415  0.2595  0.0227 -0.8273
 5191TIP3    H137132   3.449   2.826   1.421  1.8613 -0.2168 -1.1167
 5191TIP3    H237133   3.493   2.701   1.349 -0.0842 -1.2663 -0.5649
 5192TIP3   OH237134   5.067   1.024   7.287  0.0307  0.4507 -0.0940
 5192TIP3    H137135   5.160   1.040   7.299  0.0660 -0.0068  0.2704
 5192TIP3    H237136   5.024   1.090   7.342  0.1384  0.5979 -0.1849
 5193TIP3   OH237137   3.945   5.139   1.240 -0.4333  0.3387  0.7183
 5193TIP3    H137138   3.924   5.230   1.218  0.5449  0.4647  0.3041
 5193TIP3    H237139   4.002   5.145   1.317  0.9650  0.1545 -0.2870
 5194TIP3   OH237140   1.912   4.362   1.943  0.5234 -0.0835 -0.6200
 5194TIP3    H137141   1.919   4.310   2.023  0.7026  0.1249 -0.4984
 5194TIP3    H237142   1.991   4.340   1.893  0.9775  0.6269 -0.2325
 5195TIP3   OH237143   4.723   0.812   0.884  0.4919 -0.4301  0.6411
 5195TIP3    H137144   4.681   0.733   0.919 -0.9320  0.3000  0.6401
 5195TIP3    H237145   4.726   0.798   0.790 -0.2591 -0.2569  0.5881
 5196TIP3   OH237146   6.787   0.448   7.306  0.7093 -0.9038  0.3927
 5196TIP3    H137147   6.845   0.519   7.279 -1.4789  0.4398 -1.0321
 5196TIP3    H237148   6.788   0.387   7.233  1.9261 -1.9879  1.2650
 5197TIP3   OH237149   1.216   6.394   1.516 -0.1883  0.3592 -0.0684
 5197TIP3    H137150   1.180   6.419   1.601 -0.3307 -2.0471  0.6532
 5197TIP3    H237151   1.289   6.336   1.536  0.8676  1.0855 -1.5949
 5198TIP3   OH237152   0.282   5.852   3.328 -0.4011  0.2632 -0.5858
 5198TIP3    H137153   0.337   5.776   3.348 -2.4172 -1.3048 -0.6919
 5198TIP3    H237154   0.248   5.880   3.412  0.2813  1.0348 -0.5567
 5199TIP3   OH237155   6.534   6.434   3.258 -0.0359  0.0019  0.3403
 5199TIP3    H137156   6.559   6.459   3.170 -1.4989 -1.2017 -0.4733
 5199TIP3    H237157   6.610   6.454   3.312  0.3734  2.1019 -0.9176
 5200TIP3   OH237158   5.985   3.961   2.388 -0.1247 -0.0848  0.4863
 5200TIP3    H137159   6.018   4.047   2.412 -1.0939  0.1117  1.1553
 5200TIP3    H237160   5.960   3.920   2.471  0.6902 -1.1705  0.2194
 5201TIP3   OH237161   6.374   5.182   7.370 -0.3043  0.8596 -0.2124
 5201TIP3    H137162   6.426   5.245   7.319 -1.7954  1.8058 -0.6382
 5201TIP3    H237163   6.289   5.224   7.379 -0.9044 -0.5034  0.7467
 5202TIP3   OH237164   0.516   2.207   1.068 -0.2011 -0.2812 -0.4678
 5202TIP3    H137165   0.469   2.283   1.034 -1.6351 -1.3891 -1.1199
 5202TIP3    H237166   0.510   2.142   0.997 -0.2159 -1.4577  0.5772
 5203TIP3   OH237167   3.222   2.001   8.173  0.1042 -0.1348  0.5345
 5203TIP3    H137168   3.136   1.982   8.136 -0.7954  1.1236  1.8693
 5203TIP3    H237169   3.269   2.046   8.102  0.5757 -2.8347 -1.0030
 5204TIP3   OH237170   3.309   4.252   7.891  0.5821  0.5505  0.0500
 5204TIP3    H137171   3.287   4.224   7.802  1.2378 -0.7430  0.2697
 5204TIP3    H237172   3.276   4.182   7.947  0.4178  1.2258  0.8177
 5205TIP3   OH237173   1.730   6.545   8.522 -0.3686  0.6126  0.6307
 5205TIP3    H137174   1.638   6.570   8.530 -0.1615  1.7342 -0.1331
 5205TIP3    H237175   1.775   6.599   8.587 -0.4070 -1.0417  2.0719
 5206TIP3   OH237176   1.109   6.225   1.025 -0.9547  0.7386 -0.0231
 5206TIP3    H137177   1.117   6.317   1.047 -2.6570  1.0301 -0.4421
 5206TIP3    H237178   1.072   6.185   1.104 -2.7061  0.9381 -0.6960
 5207TIP3   OH237179   0.152   3.467   0.155  0.0167 -0.5328  0.3154
 5207TIP3    H137180   0.091   3.393   0.152 -1.0346  0.3325 -0.5408
 5207TIP3    H237181   0.155   3.500   0.065 -1.3928  1.8924  1.0581
 5208TIP3   OH237182   4.835   6.164   1.882  0.4189 -0.6164 -0.0079
 5208TIP3    H137183   4.821   6.089   1.940  1.3765 -0.7378  0.0838
 5208TIP3    H237184   4.868   6.232   1.940  1.8330 -0.8847 -0.4740
 5209TIP3   OH237185   5.365   4.195   2.180 -0.5551 -0.1554  0.1955
 5209TIP3    H137186   5.372   4.101   2.194 -2.3028 -0.2593  0.5934
 5209TIP3    H237187   5.358   4.205   2.085  1.4307 -0.2539  0.0082
 5210TIP3   OH237188   3.040   0.984   1.333  0.5154  0.1944  0.5720
 5210TIP3    H137189   3.092   0.918   1.380 -1.1175 -1.1371  0.6045
 5210TIP3    H237190   3.105   1.034   1.283  1.9409 -0.6001  1.5357
 5211TIP3   OH237191   6.236   4.713   8.098 -0.5000  0.5052  0.3463
 5211TIP3    H137192   6.189   4.629   8.102  1.4243 -0.5968  0.9273
 5211TIP3    H237193   6.182   4.773   8.151 -0.6430 -1.0470  2.0507
 5212TIP3   OH237194   0.298   3.288   1.943  0.2719 -0.0918 -0.6231
 5212TIP3    H137195   0.274   3.378   1.922 -1.7965  0.0903  2.0983
 5212TIP3    H237196   0.245   3.235   1.882  1.7000  0.4325 -2.4256
 5213TIP3   OH237197   4.062   4.515   0.920  0.6930 -0.2388  0.6848
 5213TIP3    H137198   3.979   4.563   0.926  0.8170  0.1469 -0.4123
 5213TIP3    H237199   4.057   4.469   0.837  2.2893  1.1860 -0.2676
 5214TIP3   OH237200   6.378   0.632   2.782  0.3210 -0.3487  0.5741
 5214TIP3    H137201   6.339   0.581   2.711  0.2009  0.1306  0.2903
 5214TIP3    H237202   6.312   0.698   2.803  0.6241 -0.0798  0.6854
 5215TIP3   OH237203   0.054   0.742   0.640  0.8398  0.1184  0.8386
 5215TIP3    H137204   0.099   0.790   0.570  2.2627  0.3316  1.8531
 5215TIP3    H237205  -0.010   0.687   0.594  0.1348  1.9273 -0.4533
 5216TIP3   OH237206   5.213   4.221   0.137 -0.2999  0.0529 -0.4635
 5216TIP3    H137207   5.222   4.176   0.053  1.3137  0.6605 -0.6559
 5216TIP3    H237208   5.165   4.301   0.116 -0.3024 -0.0140 -0.7226
 5217TIP3   OH237209   2.793   4.024   7.926 -0.2070  0.4108  0.0310
 5217TIP3    H137210   2.756   4.046   8.012  0.6979 -1.0535  0.8245
 5217TIP3    H237211   2.804   4.109   7.883 -0.9855  1.1512  1.2211
 5218TIP3   OH237212   0.823   6.378   8.750 -0.3123 -0.4271  0.0623
 5218TIP3    H137213   0.890   6.390   8.682 -1.9992 -0.5162 -1.6931
 5218TIP3    H237214   0.793   6.467   8.769 -0.6088 -0.4907 -0.1091
 5219TIP3   OH237215   3.641   1.905   1.521  0.0674 -0.7367  0.2346
 5219TIP3    H137216   3.629   1.810   1.517 -1.3379 -0.5824  0.3676
 5219TIP3    H237217   3.595   1.932   1.600 -0.7769  0.2190 -0.5596
 5220TIP3   OH237218   0.471   4.363   1.113 -0.4065  0.2434  0.1616
 5220TIP3    H137219   0.430   4.308   1.046  0.6892 -1.8578  1.1245
 5220TIP3    H237220   0.398   4.394   1.167 -1.1250  0.4807 -0.9091
 5221TIP3   OH237221   2.123   0.474   7.111  0.0863 -0.4934 -0.0859
 5221TIP3    H137222   2.062   0.534   7.069 -0.4895 -0.4382  0.7987
 5221TIP3    H237223   2.209   0.514   7.098 -0.0771 -0.4633 -1.1510
 5222TIP3   OH237224   2.055   6.567   8.782  0.3705  0.8922  0.4979
 5222TIP3    H137225   2.007   6.620   8.718  0.2264  1.8381  1.3546
 5222TIP3    H237226   2.135   6.617   8.799  1.0571 -0.0251  0.0536
 5223TIP3   OH237227   4.814   6.734   1.226  0.0277 -0.3968 -0.0894
 5223TIP3    H137228   4.890   6.776   1.186 -0.5336 -0.0150 -0.7717
 5223TIP3    H237229   4.808   6.649   1.183  0.1825 -0.5162  0.1173
 5224TIP3   OH237230   3.860   6.692   8.300  0.2176 -0.2500 -0.5030
 5224TIP3    H137231   3.892   6.776   8.268 -2.4233  0.3335 -1.8221
 5224TIP3    H237232   3.939   6.638   8.307  1.7623  1.7635 -1.3082
 5225TIP3   OH237233   1.703   0.532   7.654  0.3478 -0.0838 -0.7047
 5225TIP3    H137234   1.656   0.532   7.571  1.3947  0.9261 -1.3169
 5225TIP3    H237235   1.795   0.539   7.630  0.7704 -1.1047  0.5031
 5226TIP3   OH237236   0.202   0.137   0.078  0.5587 -0.1386 -0.0745
 5226TIP3    H137237   0.185   0.044   0.069  0.3733  0.0509 -2.1333
 5226TIP3    H237238   0.117   0.179   0.063  0.3896  0.3746  1.9428
 5227TIP3   OH237239   2.779   5.770   0.666  1.0243  0.2353  0.1779
 5227TIP3    H137240   2.735   5.750   0.583  0.9153 -1.7466  0.6477
 5227TIP3    H237241   2.871   5.783   0.642  1.3389 -2.0658 -0.1371
 5228TIP3   OH237242   4.564   5.855   2.599 -0.0580 -0.1901  0.5272
 5228TIP3    H137243   4.571   5.767   2.561  1.2604  0.4376 -0.7942
 5228TIP3    H237244   4.617   5.851   2.679 -2.4359 -1.3786  2.1730
 5229TIP3   OH237245   6.064   1.179   1.046  0.0539  0.0975  0.5325
 5229TIP3    H137246   6.010   1.256   1.065 -1.2367 -0.6437  0.0240
 5229TIP3    H237247   6.030   1.111   1.105  0.5782 -0.3295  0.3538
 5230TIP3   OH237248   3.079   5.632   7.480 -0.2147  0.2173 -0.3595
 5230TIP3    H137249   3.058   5.708   7.426 -3.3425  0.0266  0.4001
 5230TIP3    H237250   3.174   5.627   7.477 -0.0818  1.8115 -3.5703
 5231TIP3   OH237251   6.233   6.769   0.953  0.1978 -0.0421 -0.0843
 5231TIP3    H137252   6.195   6.720   1.026  0.3461 -1.3452 -0.8589
 5231TIP3    H237253   6.181   6.744   0.877 -0.1366  1.5167 -0.4045
 5232TIP3   OH237254   3.652   1.334   1.582 -0.0702  0.4519 -0.1131
 5232TIP3    H137255   3.557   1.336   1.568  0.0111 -2.1055 -1.9017
 5232TIP3    H237256   3.665   1.267   1.649  0.4406  1.8664  1.2465
 5233TIP3   OH237257   3.034   5.200   8.074  0.0399  0.2420  0.2771
 5233TIP3    H137258   3.008   5.261   8.006  0.2775 -0.1892 -0.2052
 5233TIP3    H237259   3.117   5.235   8.108  0.0272  0.3436  0.2026
 5234TIP3   OH237260   1.837   0.101   2.416  0.4189 -0.3017  0.0368
 5234TIP3    H137261   1.853   0.021   2.366  1.1516 -0.1216 -0.0192
 5234TIP3    H237262   1.793   0.071   2.496  2.1621 -0.9464  0.7875
 5235TIP3   OH237263   1.953   5.339   1.044  0.3481  0.5258  0.1911
 5235TIP3    H137264   1.920   5.391   1.117 -2.1501 -2.7893  1.6667
 5235TIP3    H237265   1.887   5.350   0.975  1.5477  1.8394 -0.8162
 5236TIP3   OH237266   5.376   3.788   2.266 -0.1464  0.3987  0.5499
 5236TIP3    H137267   5.295   3.744   2.244 -1.3066  2.6853 -0.0775
 5236TIP3    H237268   5.350   3.859   2.326  1.7246 -0.1999  2.2020
 5237TIP3   OH237269   6.405   3.316   7.758  0.0771  0.6115 -0.4182
 5237TIP3    H137270   6.434   3.406   7.775  1.8559 -0.1526  0.9379
 5237TIP3    H237271   6.404   3.308   7.663  0.9363  1.7586 -0.5447
 5238TIP3   OH237272   0.658   5.344   7.903  0.0482 -0.2223 -0.5797
 5238TIP3    H137273   0.739   5.392   7.920 -0.0888 -0.1393 -0.1491
 5238TIP3    H237274   0.629   5.376   7.817 -0.2250  0.7297 -0.1435
 5239TIP3   OH237275   1.504   6.469   8.285 -0.6778  0.5873 -0.2654
 5239TIP3    H137276   1.460   6.531   8.227  0.7325  0.4980 -1.4772
 5239TIP3    H237277   1.483   6.500   8.373 -0.5827  2.3860 -0.8305
 5240TIP3   OH237278   6.371   0.532   0.553 -0.1411  0.3472  0.1437
 5240TIP3    H137279   6.282   0.560   0.534  0.6936  2.5564 -0.9014
 5240TIP3    H237280   6.397   0.481   0.476 -0.6987 -0.8821  0.7509
 5241TIP3   OH237281   0.985   1.694   8.609  0.5591  0.5027  0.3233
 5241TIP3    H137282   0.906   1.710   8.661  0.1608  0.9584 -0.4157
 5241TIP3    H237283   0.956   1.642   8.535  0.3679  2.9472 -1.4529
 5242TIP3   OH237284   3.196   1.201   8.070 -0.2374 -0.5344  0.0135
 5242TIP3    H137285   3.200   1.264   8.142 -1.4167  0.9917 -1.1929
 5242TIP3    H237286   3.137   1.132   8.102 -0.1163 -0.2790  0.8073
 5243TIP3   OH237287   5.951   2.841   0.521  0.2752 -0.5213  0.2933
 5243TIP3    H137288   5.897   2.784   0.465 -1.0506  2.0159 -1.2139
 5243TIP3    H237289   6.034   2.848   0.474  0.0448 -0.3678 -0.1034
 5244TIP3   OH237290   5.982   5.058   0.264 -0.1963  0.5151  0.6129
 5244TIP3    H137291   5.945   5.043   0.177 -1.6344  0.3542  1.2359
 5244TIP3    H237292   5.963   4.979   0.313  3.8768 -1.0596  0.0969
 5245TIP3   OH237293   1.564   4.228   0.072 -0.1239 -0.4177  0.2902
 5245TIP3    H137294   1.508   4.154   0.097  0.3718 -0.3456  1.6752
 5245TIP3    H237295   1.503   4.300   0.057 -0.6412 -1.1334 -1.3617
 5246TIP3   OH237296   5.479   5.050   1.850 -0.4073  0.1034  0.6261
 5246TIP3    H137297   5.563   5.044   1.804 -0.8753 -2.2154 -0.0583
 5246TIP3    H237298   5.501   5.081   1.937  1.0658  0.2861  0.2092
 5247TIP3   OH237299   6.750   0.114   8.701 -0.0991  0.0388  0.5056
 5247TIP3    H137300   6.684   0.108   8.632 -0.5028 -0.2483  0.9125
 5247TIP3    H237301   6.771   0.023   8.722  0.9891  0.1246 -0.1478
 5248TIP3   OH237302   2.534   4.517   7.370 -0.8218  0.0165  0.4341
 5248TIP3    H137303   2.585   4.450   7.323 -1.8639  0.3103 -1.2032
 5248TIP3    H237304   2.520   4.586   7.305 -2.6349  0.2806  1.0584
 5249TIP3   OH237305   1.840   6.428   1.750 -0.2279  0.1248 -0.1699
 5249TIP3    H137306   1.903   6.404   1.817 -0.2800  0.6841  0.0818
 5249TIP3    H237307   1.861   6.518   1.728 -2.4670  1.2006  1.6965
 5250TIP3   OH237308   6.762   2.930   1.922 -0.2872  0.1866 -0.0990
 5250TIP3    H137309   6.848   2.940   1.962  0.4306 -1.0674 -1.2666
 5250TIP3    H237310   6.702   2.968   1.986  0.8121 -1.6576  2.1798
 5251TIP3   OH237311   3.118   4.274   0.994 -0.7250  0.0428 -0.0763
 5251TIP3    H137312   3.198   4.285   0.943 -0.3228  0.9820  0.7347
 5251TIP3    H237313   3.054   4.330   0.950 -0.8810 -0.5177 -0.5787
 5252TIP3   OH237314   6.038   5.278   2.339 -0.7773  0.1043 -0.1435
 5252TIP3    H137315   6.032   5.258   2.246 -0.9147 -0.7221  0.0328
 5252TIP3    H237316   6.129   5.259   2.362 -0.8893 -0.2482  0.0107
 5253TIP3   OH237317   5.197   1.678   0.852  0.7689  0.2269  0.1257
 5253TIP3    H137318   5.163   1.590   0.835  1.7748  0.1055 -1.5093
 5253TIP3    H237319   5.141   1.712   0.922  0.7146 -1.9121  1.2141
 5254TIP3   OH237320   1.606   2.742   2.443  0.1954 -0.4363 -0.2649
 5254TIP3    H137321   1.664   2.744   2.519  0.6701  0.9338 -0.6321
 5254TIP3    H237322   1.524   2.704   2.476  1.5288 -3.3340  0.0359
 5255TIP3   OH237323   0.097   4.978   1.806 -0.1698  0.0182 -0.2804
 5255TIP3    H137324   0.087   5.069   1.833  1.5982  0.4762 -1.0066
 5255TIP3    H237325   0.118   4.931   1.887  0.7666  0.6043 -0.1704
 5256TIP3   OH237326   5.887   3.264   0.489  0.1056 -0.0523  0.1655
 5256TIP3    H137327   5.853   3.353   0.501  0.7546  0.3192 -0.6225
 5256TIP3    H237328   5.853   3.238   0.403 -0.6914 -0.8634  0.7125
 5257TIP3   OH237329   0.109   0.186   3.517 -0.7878  0.1063 -0.5553
 5257TIP3    H137330   0.040   0.176   3.583  2.0921 -1.8354  2.4698
 5257TIP3    H237331   0.103   0.106   3.464 -2.6387  1.3396 -2.3777
 5258TIP3   OH237332   3.462   0.458   0.828  0.1669 -0.1866 -0.1142
 5258TIP3    H137333   3.433   0.484   0.916  1.5017  1.5874 -0.1554
 5258TIP3    H237334   3.536   0.400   0.844 -0.4446 -0.9738 -0.0741
 5259TIP3   OH237335   3.575   4.040   7.170 -0.7503  0.4945  0.3565
 5259TIP3    H137336   3.618   4.122   7.145  0.5404  0.0686  1.1152
 5259TIP3    H237337   3.624   3.972   7.124 -1.5809  0.0973  0.0302
 5260TIP3   OH237338   1.949   5.767   1.645 -0.0019 -0.7015  0.5386
 5260TIP3    H137339   1.878   5.813   1.691 -0.0511  0.0384 -0.2566
 5260TIP3    H237340   1.997   5.836   1.599  1.2527 -1.1920  1.0672
 5261TIP3   OH237341   2.298   3.686   1.017 -0.4117  0.0987  0.0699
 5261TIP3    H137342   2.307   3.739   0.938 -0.2337 -0.8907 -0.5953
 5261TIP3    H237343   2.230   3.622   0.995  0.0160 -0.5199  0.5295
 5262TIP3   OH237344   6.679   3.913   0.008  0.1492 -0.0800 -0.0810
 5262TIP3    H137345   6.742   3.853   0.048  2.0075  0.8676 -1.4370
 5262TIP3    H237346   6.688   3.995   0.057  0.3234  0.2087 -0.5924
 5263TIP3   OH237347   3.701   4.130   1.416 -0.2916 -0.1423 -0.1003
 5263TIP3    H137348   3.617   4.166   1.389 -1.4972 -1.4610  1.6164
 5263TIP3    H237349   3.712   4.158   1.507 -0.0156 -1.8541  0.4402
 5264TIP3   OH237350   3.310   0.437   0.379  0.0234 -0.4856 -0.1656
 5264TIP3    H137351   3.328   0.467   0.468 -1.0649  0.6536 -0.2877
 5264TIP3    H237352   3.249   0.364   0.390 -2.4555  1.4477  0.0405
 5265TIP3   OH237353   2.827   2.871   1.141 -0.2830 -0.0085  0.7227
 5265TIP3    H137354   2.761   2.840   1.080  0.1817 -0.2034  0.3176
 5265TIP3    H237355   2.779   2.883   1.223 -0.4280 -2.1058  1.0022
 5266TIP3   OH237356   4.893   3.401   1.136 -0.2016  0.1489 -0.3943
 5266TIP3    H137357   4.958   3.419   1.069 -0.2784  1.1018 -0.2264
 5266TIP3    H237358   4.940   3.412   1.219 -0.0514 -1.2194 -0.2722
 5267TIP3   OH237359   5.526   5.503   8.622  0.3924  0.2919 -0.5239
 5267TIP3    H137360   5.613   5.501   8.661  0.7680  0.6464 -1.3195
 5267TIP3    H237361   5.539   5.474   8.531 -0.7518 -2.5339  0.0886
 5268TIP3   OH237362   3.826   3.346   1.068  0.3219  0.3940 -0.1687
 5268TIP3    H137363   3.867   3.292   1.136 -0.3307 -0.3158 -0.3318
 5268TIP3    H237364   3.740   3.368   1.102 -0.3837 -0.7345 -1.1137
 5269TIP3   OH237365   0.979   0.666   1.881 -0.8399  0.2615  0.2345
 5269TIP3    H137366   1.072   0.682   1.867 -1.0812  0.0137 -1.9094
 5269TIP3    H237367   0.969   0.668   1.977  1.0388  1.9847  0.4739
 5270TIP3   OH237368   4.799   1.066   0.323  0.6270  0.3979  0.0284
 5270TIP3    H137369   4.857   1.004   0.280 -1.3466 -0.7696 -1.1464
 5270TIP3    H237370   4.794   1.035   0.414  0.8521 -0.2521 -0.1729
 5271TIP3   OH237371   0.948   5.627   8.316  0.4560  0.5975 -0.2758
 5271TIP3    H137372   0.883   5.583   8.370  0.9675  1.3099  0.9439
 5271TIP3    H237373   0.916   5.615   8.226 -0.1890 -0.9588  0.1253
 5272TIP3   OH237374   0.153   2.689   0.608  0.0526  0.1230 -0.0585
 5272TIP3    H137375   0.065   2.722   0.628 -1.7412 -2.0504 -3.3977
 5272TIP3    H237376   0.178   2.640   0.686 -0.5139  2.7964  1.9428
 5273TIP3   OH237377   1.132   4.170   2.169 -0.9865  0.2677  0.9536
 5273TIP3    H137378   1.147   4.260   2.138  1.1978 -0.7472 -1.2871
 5273TIP3    H237379   1.162   4.171   2.260  1.2108  1.3368  0.2845
 5274TIP3   OH237380   0.980   0.038   7.426  0.4979  0.5987 -0.3782
 5274TIP3    H137381   1.035  -0.019   7.479  0.6339  1.5136  0.4840
 5274TIP3    H237382   0.928  -0.022   7.372  0.5808 -0.3432  0.5600
 5275TIP3   OH237383   6.389   1.780   3.304  0.5145  0.1201 -0.4735
 5275TIP3    H137384   6.373   1.686   3.315  0.1721  0.2745  0.3778
 5275TIP3    H237385   6.482   1.787   3.284  0.8412 -0.2895  0.8724
 5276TIP3   OH237386   4.297   6.031   0.136  0.2988 -0.1552  0.0884
 5276TIP3    H137387   4.364   6.061   0.074 -1.1015  0.4205 -1.2263
 5276TIP3    H237388   4.317   6.077   0.217  1.7249 -0.3060 -0.1450
 5277TIP3   OH237389   4.950   5.001   2.284 -0.0175  0.4103  0.4688
 5277TIP3    H137390   4.924   5.093   2.274 -0.1456  0.3262 -0.0001
 5277TIP3    H237391   4.967   4.991   2.377  1.7953  1.4040  0.2971
 5278TIP3   OH237392   3.333   4.771   1.026  0.1682 -0.5564  0.2762
 5278TIP3    H137393   3.253   4.773   1.079  0.8323  0.5208  1.2601
 5278TIP3    H237394   3.317   4.835   0.957  0.4745  0.2245  0.9215
 5279TIP3   OH237395   2.191   6.384   7.878 -0.3777 -0.2081 -0.1710
 5279TIP3    H137396   2.204   6.367   7.784  3.2049 -3.6776  0.6460
 5279TIP3    H237397   2.270   6.348   7.919 -1.1306  2.3861  4.1525
 5280TIP3   OH237398   0.509   5.431   0.121 -0.7057  0.6403  0.0805
 5280TIP3    H137399   0.485   5.411   0.211 -0.3340 -0.2759 -0.0136
 5280TIP3    H237400   0.543   5.521   0.125  2.0404 -0.3283  1.4166
 5281TIP3   OH237401   4.358   5.297   8.486 -0.0688  0.6332  0.1409
 5281TIP3    H137402   4.327   5.369   8.430  0.1223 -0.8488 -2.0076
 5281TIP3    H237403   4.305   5.222   8.459  1.7352 -0.7252  0.1995
 5282TIP3   OH237404   3.524   4.252   0.432  0.7525  0.2277 -0.6549
 5282TIP3    H137405   3.506   4.174   0.381 -0.8375 -0.4012  0.7817
 5282TIP3    H237406   3.583   4.222   0.501  0.1722  0.3032 -0.1250
 5283TIP3   OH237407   1.681   0.418   0.960 -0.1279 -0.0001  0.2208
 5283TIP3    H137408   1.722   0.463   0.886 -0.8523  1.0455  0.4369
 5283TIP3    H237409   1.739   0.343   0.977  1.6247  1.3381  0.4346
 5284TIP3   OH237410   0.019   0.313   2.387  0.3867  0.0480 -0.1309
 5284TIP3    H137411   0.017   0.395   2.436  1.1163 -0.8320  1.4443
 5284TIP3    H237412  -0.051   0.321   2.322 -1.0691  1.0083  1.5000
 5285TIP3   OH237413   4.058   1.640   8.538  0.3797  0.3289 -0.2771
 5285TIP3    H137414   4.072   1.581   8.464 -1.9466 -2.7802  1.5041
 5285TIP3    H237415   4.115   1.606   8.607 -1.5243 -0.4735  1.0070
 5286TIP3   OH237416   3.143   6.095   2.262 -0.0455 -0.1103 -0.3178
 5286TIP3    H137417   3.118   6.021   2.318  0.0762 -0.9542 -1.3445
 5286TIP3    H237418   3.190   6.154   2.320 -3.4019  1.0822  1.5130
 5287TIP3   OH237419   2.985   1.435   1.796  0.0511 -0.1063  0.0422
 5287TIP3    H137420   2.914   1.397   1.745 -1.1263 -0.9483  2.1808
 5287TIP3    H237421   3.059   1.375   1.782 -0.5372 -0.8566  0.0837
 5288TIP3   OH237422   3.991   0.298   2.160 -0.5377 -0.4200 -0.1464
 5288TIP3    H137423   4.046   0.233   2.116  0.8379  0.6232 -0.0351
 5288TIP3    H237424   4.036   0.315   2.243 -0.7915  0.7548 -0.2358
 5289TIP3   OH237425   2.297   3.213   3.089 -0.6505 -0.1008  0.0293
 5289TIP3    H137426   2.248   3.247   3.014 -0.2871 -0.1074 -0.2154
 5289TIP3    H237427   2.267   3.266   3.163 -0.8313  0.0710 -0.1640
 5290TIP3   OH237428   0.700   0.211   7.703 -0.3241 -0.1093 -0.1915
 5290TIP3    H137429   0.715   0.131   7.652  0.1544 -0.8189  1.0356
 5290TIP3    H237430   0.607   0.229   7.692 -1.0737 -2.3916  1.6847
 5291TIP3   OH237431   5.596   3.760   7.460  0.2677  0.6535 -0.0060
 5291TIP3    H137432   5.566   3.807   7.382  0.4728  2.4938  0.9720
 5291TIP3    H237433   5.664   3.701   7.427 -1.4433 -0.5452 -1.5911
 5292TIP3   OH237434   6.693   4.506   2.672  0.2035 -0.1120 -0.1765
 5292TIP3    H137435   6.624   4.496   2.738 -0.4727  0.1866 -0.8176
 5292TIP3    H237436   6.694   4.422   2.625  1.2786 -0.6349  0.7614
 5293TIP3   OH237437   1.372   5.849   0.651 -0.0768 -0.2140  0.2795
 5293TIP3    H137438   1.422   5.924   0.620  0.6181 -0.8194 -0.1080
 5293TIP3    H237439   1.333   5.811   0.572  0.4100 -0.8390  0.3245
 5294TIP3   OH237440   5.368   1.057   1.450 -0.6153  0.0616  0.1090
 5294TIP3    H137441   5.379   0.975   1.499 -1.6603  0.4291  1.0186
 5294TIP3    H237442   5.296   1.101   1.495  0.2692  1.7177 -0.0441
 5295TIP3   OH237443   3.438   6.311   1.129  0.6137 -0.5248 -0.3193
 5295TIP3    H137444   3.476   6.393   1.158  0.0212 -1.1211  2.3629
 5295TIP3    H237445   3.371   6.337   1.065  1.1573  0.9770 -0.3074
 5296TIP3   OH237446   4.663   2.875   2.395 -0.3042  0.5242  0.6106
 5296TIP3    H137447   4.693   2.786   2.379 -0.8294  0.5540 -0.6364
 5296TIP3    H237448   4.595   2.866   2.461 -0.7740 -0.0880  0.0643
 5297TIP3   OH237449   6.236   1.102   8.251  0.3380  0.3209 -0.1890
 5297TIP3    H137450   6.191   1.174   8.295  2.3918  2.0609 -0.7237
 5297TIP3    H237451   6.273   1.141   8.172 -1.1300 -2.1319 -2.2201
 5298TIP3   OH237452   0.683   3.158   1.954  0.0160  1.2907  0.0906
 5298TIP3    H137453   0.770   3.192   1.932  1.8096 -0.1326  3.9560
 5298TIP3    H237454   0.636   3.232   1.992 -0.8160  2.2253 -2.5871
 5299TIP3   OH237455   3.426   4.069   0.768  0.0855  0.1523 -0.0522
 5299TIP3    H137456   3.362   4.136   0.745 -0.3423 -0.5151 -0.8628
 5299TIP3    H237457   3.508   4.102   0.733 -0.4994 -0.7160 -2.4585
 5300TIP3   OH237458   4.339   1.127   8.051  0.1362  0.1376  0.6119
 5300TIP3    H137459   4.261   1.163   8.010  0.7350  0.6268 -0.1218
 5300TIP3    H237460   4.368   1.195   8.112  0.4816  0.3369  0.2340
 5301TIP3   OH237461   0.453   3.243   1.242  0.2949  0.0700 -0.3395
 5301TIP3    H137462   0.484   3.189   1.169 -2.0558  1.9887 -2.9728
 5301TIP3    H237463   0.526   3.303   1.259  1.0942 -0.7631 -0.7126
 5302TIP3   OH237464   6.195   2.122   0.876  0.3612  0.0072  0.0924
 5302TIP3    H137465   6.101   2.114   0.861 -0.3431  2.5433  2.4907
 5302TIP3    H237466   6.214   2.059   0.945  0.0193  0.7427  0.8749
 5303TIP3   OH237467   6.748   1.221   2.611  0.1086  0.6329 -0.3969
 5303TIP3    H137468   6.759   1.150   2.549 -0.8683  3.0725 -3.6451
 5303TIP3    H237469   6.822   1.212   2.672  0.3467 -2.6670 -1.0223
 5304TIP3   OH237470   5.737   1.089   8.482 -0.1002 -0.3104  0.0530
 5304TIP3    H137471   5.704   1.037   8.556 -0.5041  0.9740  0.8007
 5304TIP3    H237472   5.829   1.065   8.475  0.0963 -0.0334  1.3568
 5305TIP3   OH237473   4.748   6.371   2.056 -0.0775 -0.1956  0.7460
 5305TIP3    H137474   4.743   6.431   1.982 -1.2595 -1.2913 -0.1116
 5305TIP3    H237475   4.752   6.429   2.133  0.3743  0.9610 -0.1190
 5306TIP3   OH237476   2.256   0.474   8.648  0.0179  0.0322 -0.4691
 5306TIP3    H137477   2.183   0.487   8.588  0.4456  1.9065 -0.6314
 5306TIP3    H237478   2.242   0.538   8.718  1.2448  0.0844 -0.2497
 5307TIP3   OH237479   3.145   1.135   0.605  0.1294  0.3926 -0.3267
 5307TIP3    H137480   3.164   1.201   0.672  0.0795 -1.0635  1.1591
 5307TIP3    H237481   3.052   1.116   0.616  0.0002  0.4868 -1.1561
 5308TIP3   OH237482   4.730   3.365   8.231 -0.4817 -0.1893  0.1062
 5308TIP3    H137483   4.797   3.315   8.184 -0.4070  0.9213 -1.0220
 5308TIP3    H237484   4.715   3.315   8.311  0.8784 -1.0556 -0.1410
 5309TIP3   OH237485   3.733   2.574   0.988 -0.2823  0.4008  0.5055
 5309TIP3    H137486   3.712   2.610   0.902 -1.3744  0.7370  0.8958
 5309TIP3    H237487   3.754   2.482   0.972 -2.3953 -0.0377  0.0991
 5310TIP3   OH237488   3.082   0.165   7.267 -0.3386 -0.1605  0.2115
 5310TIP3    H137489   3.068   0.259   7.275  0.6802 -0.0221  0.5558
 5310TIP3    H237490   3.014   0.135   7.207 -1.1430  0.6676  0.6845
 5311TIP3   OH237491   0.893   0.596   0.779 -0.1575 -0.2651  0.2629
 5311TIP3    H137492   0.849   0.667   0.731 -0.3687  0.7482  1.8774
 5311TIP3    H237493   0.986   0.610   0.763 -0.2706 -0.7705 -0.9369
 5312TIP3   OH237494   2.782   0.337   1.661 -0.3200 -0.1702  0.0632
 5312TIP3    H137495   2.705   0.362   1.610 -1.1413 -1.8466  0.4205
 5312TIP3    H237496   2.772   0.244   1.677  1.5798 -0.3525  0.5117
 5313TIP3   OH237497   5.184   5.549   0.033  0.5844  0.2599  0.2225
 5313TIP3    H137498   5.155   5.560   0.124  0.6917  1.1166  0.1621
 5313TIP3    H237499   5.276   5.574   0.034  1.4140 -2.4595  0.4116
 5314TIP3   OH237500   5.770   1.490   0.993  0.2119 -0.2072  0.5626
 5314TIP3    H137501   5.841   1.448   0.944  0.7393  0.4583  0.7397
 5314TIP3    H237502   5.720   1.537   0.926  1.7156  1.8122  0.7824
 5315TIP3   OH237503   1.174   3.988   2.589  0.0677 -0.2172 -0.4111
 5315TIP3    H137504   1.130   4.011   2.671  0.3216 -1.3706  0.0693
 5315TIP3    H237505   1.183   4.072   2.542 -1.0122  0.3053  0.2633
 5316TIP3   OH237506   4.739   3.563   8.041  0.5902  0.2412 -0.0163
 5316TIP3    H137507   4.700   3.532   8.123  0.3222  0.6549  0.0137
 5316TIP3    H237508   4.804   3.497   8.019 -1.3677 -1.4886 -1.0444
 5317TIP3   OH237509   1.929   3.526   0.120  0.0755 -0.1823  0.4341
 5317TIP3    H137510   1.863   3.535   0.050 -0.1885  0.4385  0.7551
 5317TIP3    H237511   1.967   3.439   0.106 -0.1234 -0.1512 -0.3565
 5318TIP3   OH237512   0.173   0.796   8.550 -0.5938  0.4560 -0.3849
 5318TIP3    H137513   0.268   0.810   8.547 -0.5988  0.3425 -1.2579
 5318TIP3    H237514   0.136   0.876   8.513 -0.7917  0.0416 -1.0975
 5319TIP3   OH237515   4.809   1.894   8.218  0.0711 -0.1341 -0.2623
 5319TIP3    H137516   4.773   1.830   8.280 -0.5027  1.7610  1.5079
 5319TIP3    H237517   4.788   1.859   8.132 -1.7820 -1.4764  0.6635
 5320TIP3   OH237518   4.813   0.197   0.272  0.0810 -0.2825 -0.2574
 5320TIP3    H137519   4.823   0.216   0.365 -0.8750  0.4080 -0.2822
 5320TIP3    H237520   4.722   0.171   0.262  0.6664 -2.3355 -0.6900
 5321TIP3   OH237521   4.422   0.274   2.329  0.0585 -0.1407 -0.8121
 5321TIP3    H137522   4.426   0.187   2.291  1.4666 -0.6695  0.4707
 5321TIP3    H237523   4.468   0.267   2.413  0.5092  1.9120 -0.8200
 5322TIP3   OH237524   5.883   4.414   2.530 -0.4388 -0.3767 -0.2844
 5322TIP3    H137525   5.853   4.441   2.443  1.0434 -0.3004 -0.7879
 5322TIP3    H237526   5.928   4.491   2.565  1.0310 -1.1563 -0.4220
 5323TIP3   OH237527   5.608   4.670   2.651  0.9048 -0.1286  0.2731
 5323TIP3    H137528   5.533   4.612   2.637  0.1251  0.2176  2.5738
 5323TIP3    H237529   5.570   4.758   2.652  1.7619  0.2854 -1.0175
 5324TIP3   OH237530   6.179   5.277   3.317 -0.8169 -0.1133 -0.0246
 5324TIP3    H137531   6.272   5.300   3.317 -0.9463  0.5655  2.0870
 5324TIP3    H237532   6.175   5.193   3.271  0.8776 -0.3326  0.1775
 5325TIP3   OH237533   0.339   2.176   3.323  0.0310  0.3004 -0.3592
 5325TIP3    H137534   0.343   2.261   3.365 -0.9996  0.2474 -0.1237
 5325TIP3    H237535   0.251   2.171   3.285  0.7648  0.1691 -2.1743
 5326TIP3   OH237536   1.770   0.260   1.393 -0.0648  0.6224  0.1205
 5326TIP3    H137537   1.775   0.354   1.412 -0.2185  1.0417 -1.7154
 5326TIP3    H237538   1.854   0.225   1.421  1.1456  1.8532 -1.7375
 5327TIP3   OH237539   6.566   4.596   0.792 -0.3923  0.1763  0.0497
 5327TIP3    H137540   6.652   4.639   0.801 -0.0379 -0.6887  1.0676
 5327TIP3    H237541   6.508   4.648   0.847 -0.7274  1.2322 -1.2606
 5328TIP3   OH237542   2.454   3.286   8.290 -0.4521  0.0644  0.2971
 5328TIP3    H137543   2.452   3.366   8.343 -3.3127 -0.9013  1.8710
 5328TIP3    H237544   2.425   3.313   8.203 -1.1639  0.7842  0.7517
 5329TIP3   OH237545   5.455   1.859   1.598 -0.1573  0.1833 -0.0053
 5329TIP3    H137546   5.402   1.909   1.661  0.3338 -0.5826  1.0392
 5329TIP3    H237547   5.390   1.821   1.538 -0.7214  0.0457  0.6754
 5330TIP3   OH237548   4.261   1.048   1.999  0.3134 -0.6333  0.6162
 5330TIP3    H137549   4.211   1.068   2.078  0.1103  1.4229  0.0352
 5330TIP3    H237550   4.349   1.083   2.016 -0.4597  2.5029 -1.0069
 5331TIP3   OH237551   6.296   0.747   2.464  0.2754 -1.0552 -0.4681
 5331TIP3    H137552   6.303   0.769   2.371 -0.8756 -0.8855 -0.5282
 5331TIP3    H237553   6.341   0.663   2.472  2.2370 -0.0984 -0.7649
 5332TIP3   OH237554   4.836   3.892   0.099 -0.4993  0.0769 -0.1546
 5332TIP3    H137555   4.829   3.918   0.007 -0.8191 -0.7059 -0.3541
 5332TIP3    H237556   4.746   3.886   0.130 -0.3961  2.2737  0.7917
 5333TIP3   OH237557   5.900   5.644   3.065  0.0666  0.1168 -0.0525
 5333TIP3    H137558   5.903   5.705   2.991  1.3595  0.8427  0.5544
 5333TIP3    H237559   5.982   5.660   3.112 -1.7224  1.4749  2.9384
 5334TIP3   OH237560   2.015   1.115   0.738 -0.2022  0.1301 -0.4175
 5334TIP3    H137561   2.088   1.066   0.776 -0.9672 -0.1717  0.7316
 5334TIP3    H237562   1.996   1.182   0.804 -2.4742 -1.2668  0.4607
 5335TIP3   OH237563   2.335   0.689   7.951  0.0212 -0.2225 -0.5353
 5335TIP3    H137564   2.408   0.636   7.922  0.1822 -0.3824  0.1419
 5335TIP3    H237565   2.332   0.762   7.890 -0.6597 -1.3760 -1.9270
 5336TIP3   OH237566   5.262   2.864   0.497 -0.4607 -0.1201  0.1520
 5336TIP3    H137567   5.332   2.912   0.453  1.0570 -1.1871  1.3217
 5336TIP3    H237568   5.297   2.776   0.509 -1.6970 -0.4707  1.4702
 5337TIP3   OH237569   4.926   6.486   0.429  0.1297  0.4869 -0.1439
 5337TIP3    H137570   5.000   6.427   0.443 -0.8107 -0.2354  2.3417
 5337TIP3    H237571   4.895   6.465   0.341  1.6191 -0.6361 -0.4469
 5338TIP3   OH237572   2.931   6.585   2.849  0.5541 -0.1854 -0.1761
 5338TIP3    H137573   2.880   6.664   2.866  1.7618  0.5948 -0.0237
 5338TIP3    H237574   2.927   6.535   2.930 -0.1079 -0.2345 -0.2315
 5339TIP3   OH237575   1.186   2.946   2.072  0.2588 -0.1203 -0.1786
 5339TIP3    H137576   1.107   2.932   2.020  1.3637 -2.0563 -1.4488
 5339TIP3    H237577   1.232   3.018   2.028  0.3553 -0.6099 -0.8967
 5340TIP3   OH237578   1.081   5.508   2.697  0.4002 -0.2421  0.1905
 5340TIP3    H137579   1.120   5.558   2.626  1.3407 -1.0397  0.1246
 5340TIP3    H237580   1.155   5.477   2.748 -0.0755 -2.4009 -0.3313
 5341TIP3   OH237581   2.097   2.515   2.814  0.0045 -0.2652 -0.1846
 5341TIP3    H137582   2.088   2.610   2.805  3.0687  0.1683  0.1208
 5341TIP3    H237583   2.054   2.479   2.737 -0.2233  1.4308 -0.8890
 5342TIP3   OH237584   3.771   0.257   8.739  0.9038  0.5954 -0.0302
 5342TIP3    H137585   3.746   0.342   8.704  1.0541  1.0285  0.9108
 5342TIP3    H237586   3.740   0.195   8.672  1.2942  1.4031 -0.9936
 5343TIP3   OH237587   3.457   5.049   1.650  0.0674 -0.4033  0.1843
 5343TIP3    H137588   3.431   4.957   1.638  0.0220 -0.3747  0.0635
 5343TIP3    H237589   3.378   5.099   1.629  0.5854 -0.2479 -1.4843
 5344TIP3   OH237590   4.901   0.513   0.253 -0.4432 -0.6516  0.4974
 5344TIP3    H137591   4.870   0.492   0.341  1.5210 -1.1501  1.1188
 5344TIP3    H237592   4.834   0.572   0.217 -0.0772  1.7033  3.3023
 5345TIP3   OH237593   5.728   1.011   8.763  0.3821 -0.0921 -0.2205
 5345TIP3    H137594   5.666   1.075   8.799 -0.3494 -1.1392  0.4201
 5345TIP3    H237595   5.700   0.927   8.799  0.9446 -0.8776 -1.5345
 5346TIP3   OH237596   1.460   0.555   1.481  0.0718 -0.3006 -0.0852
 5346TIP3    H137597   1.516   0.587   1.411 -0.3070  0.5158 -0.0229
 5346TIP3    H237598   1.446   0.462   1.460  0.3812 -0.1873 -0.8042
 5347TIP3   OH237599   0.646   1.393   0.245  0.3836 -0.5416  0.7369
 5347TIP3    H137600   0.650   1.311   0.196  2.6580 -0.2885  0.3896
 5347TIP3    H237601   0.643   1.367   0.337  0.1121 -1.0029  0.5974
 5348TIP3   OH237602   3.256   2.651   1.200 -0.1271 -0.2716 -0.1453
 5348TIP3    H137603   3.303   2.693   1.273  1.1798 -0.6481 -0.7339
 5348TIP3    H237604   3.164   2.671   1.216  0.3160  1.4812  0.4328
 5349TIP3   OH237605   2.605   5.713   7.766  0.4136  0.0244  0.0701
 5349TIP3    H137606   2.634   5.624   7.744  0.2176 -0.2151  0.7584
 5349TIP3    H237607   2.686   5.762   7.777  0.5204  0.1842 -1.2693
 5350TIP3   OH237608   3.811   6.114   2.779  0.2105  0.3230 -0.0964
 5350TIP3    H137609   3.854   6.088   2.860  1.0613  0.7521 -0.3965
 5350TIP3    H237610   3.749   6.043   2.761 -1.0951  0.9558  1.7128
 5351TIP3   OH237611   5.872   5.536   8.167 -0.0539  0.2130 -0.0647
 5351TIP3    H137612   5.830   5.604   8.220 -1.4129 -0.5251 -0.1345
 5351TIP3    H237613   5.842   5.554   8.078  0.3092  0.0531 -0.2185
 5352TIP3   OH237614   0.992   3.413   8.725  0.0613  0.2522  0.3566
 5352TIP3    H137615   0.998   3.509   8.730 -0.6454  0.3604 -0.6669
 5352TIP3    H237616   0.983   3.394   8.632 -0.0698 -0.8099  0.5704
 5353TIP3   OH237617   0.680   3.740   8.101  0.2616 -0.2898 -0.1470
 5353TIP3    H137618   0.620   3.803   8.140  0.2601 -1.4473  1.8590
 5353TIP3    H237619   0.672   3.662   8.156  1.6277 -1.4034 -1.4425
 5354TIP3   OH237620   5.818   0.050   2.039 -0.0018  0.6285 -0.3235
 5354TIP3    H137621   5.750   0.004   1.990 -0.2017 -0.3471  0.8199
 5354TIP3    H237622   5.771   0.118   2.087  0.0075  0.7178 -0.4394
 5355TIP3   OH237623   0.442   3.884   8.275  0.4279  0.6175  0.5475
 5355TIP3    H137624   0.454   3.973   8.308  0.0993  0.5880  0.7464
 5355TIP3    H237625   0.442   3.829   8.354 -0.3052  0.5410  0.5022
 5356TIP3   OH237626   1.728   6.727   0.540  0.0727 -0.6806  0.0837
 5356TIP3    H137627   1.689   6.806   0.578 -0.8576  0.0629 -2.2437
 5356TIP3    H237628   1.673   6.655   0.571 -1.1791 -0.0004 -0.4865
 5357TIP3   OH237629   5.494   6.338   8.440  0.2063  0.0807 -0.0267
 5357TIP3    H137630   5.568   6.277   8.430 -0.0934 -0.3707  0.5006
 5357TIP3    H237631   5.444   6.327   8.359 -0.4811 -1.2436  0.5369
 5358TIP3   OH237632   0.788   3.394   7.297 -0.2351 -0.1346 -0.1650
 5358TIP3    H137633   0.732   3.416   7.371  0.1715 -3.4247  1.2760
 5358TIP3    H237634   0.843   3.472   7.285 -3.0599  2.0678  0.2083
 5359TIP3   OH237635   0.376   4.405   1.968  0.2751  0.3598 -0.3913
 5359TIP3    H137636   0.369   4.310   1.972 -0.9674  0.3129 -2.3892
 5359TIP3    H237637   0.435   4.421   1.895  0.3677  1.1353 -0.1531
 5360TIP3   OH237638   3.080   1.884   1.048 -0.1371  0.2667  0.3844
 5360TIP3    H137639   3.028   1.958   1.018  2.1787  1.0017 -2.1973
 5360TIP3    H237640   3.127   1.917   1.124 -0.3466  0.9049  0.2372
 5361TIP3   OH237641   2.498   3.817   2.496 -0.0732  0.1176 -0.1420
 5361TIP3    H137642   2.498   3.729   2.533  0.3336  0.3589  0.4595
 5361TIP3    H237643   2.575   3.860   2.536 -0.7477  1.0070  0.2491
 5362TIP3   OH237644   6.378   2.859   7.944 -0.2063 -0.5047 -0.0759
 5362TIP3    H137645   6.388   2.938   7.997  0.9134 -0.2661 -0.6191
 5362TIP3    H237646   6.429   2.876   7.865 -0.3392 -1.5880 -0.4128
 5363TIP3   OH237647   0.779   0.652   7.272 -0.0375 -0.2210  0.1728
 5363TIP3    H137648   0.844   0.718   7.295  2.7865 -1.7493 -2.6277
 5363TIP3    H237649   0.763   0.665   7.179 -1.3717 -1.8546  0.1254
 5364TIP3   OH237650   3.635   3.586   8.269  0.1855  0.5741 -0.0260
 5364TIP3    H137651   3.655   3.642   8.194 -1.5322 -1.4965 -2.2053
 5364TIP3    H237652   3.542   3.601   8.286 -0.2241 -1.2356 -0.4353
 5365TIP3   OH237653   4.628   5.134   2.218 -0.2594 -0.3737  0.2324
 5365TIP3    H137654   4.634   5.064   2.152 -0.4794  0.3629 -0.5834
 5365TIP3    H237655   4.668   5.210   2.175  0.3772 -0.1069  1.2722
 5366TIP3   OH237656   2.540   3.858   1.997 -0.3817 -0.8132 -0.0902
 5366TIP3    H137657   2.459   3.905   1.979 -0.1742 -0.4221 -0.0195
 5366TIP3    H237658   2.532   3.776   1.948 -1.1940 -1.1712  0.6216
 5367TIP3   OH237659   2.100   5.793   2.711  0.2369 -0.3099  0.1728
 5367TIP3    H137660   2.067   5.707   2.738  2.0646 -1.3778 -0.7619
 5367TIP3    H237661   2.110   5.786   2.616  1.5875  0.4706  0.2273
 5368TIP3   OH237662   0.724   6.760   8.398  0.8034  0.5110 -0.0867
 5368TIP3    H137663   0.792   6.750   8.465  0.1114 -0.7191  0.4729
 5368TIP3    H237664   0.725   6.678   8.350 -1.0471 -0.0216  0.6872
 5369TIP3   OH237665   2.372   6.092   0.691  0.5572 -0.3073  0.6685
 5369TIP3    H137666   2.433   6.132   0.630 -0.6229 -0.8858 -0.9684
 5369TIP3    H237667   2.322   6.166   0.727  0.5963 -0.0338  0.1691
 5370TIP3   OH237668   1.450   4.173   2.287  0.0106  0.0747 -0.2933
 5370TIP3    H137669   1.498   4.091   2.276  0.7227  0.4501 -0.0907
 5370TIP3    H237670   1.366   4.147   2.325  0.5316 -0.4939  0.5160
 5371TIP3   OH237671   0.566   2.725   2.113  0.1850  0.3278  0.1585
 5371TIP3    H137672   0.537   2.785   2.045 -0.6759 -0.0413  0.1945
 5371TIP3    H237673   0.624   2.778   2.168  1.8881  0.3098 -1.5290
 5372TIP3   OH237674   1.053   4.378   3.192 -0.1583  0.3308 -0.5205
 5372TIP3    H137675   1.143   4.413   3.189 -0.5770  1.4380 -0.6194
 5372TIP3    H237676   1.062   4.293   3.234  0.8508  0.7382  0.1274
 5373TIP3   OH237677   6.482   1.691   7.764  0.0510 -0.5398 -0.4099
 5373TIP3    H137678   6.473   1.649   7.850  0.8580 -2.7264 -1.3512
 5373TIP3    H237679   6.566   1.662   7.731 -0.7506 -0.6842 -2.4571
 5374TIP3   OH237680   0.560   0.041   2.109  0.0640  0.0820  0.1634
 5374TIP3    H137681   0.470   0.070   2.127 -0.4879 -1.3236 -0.2177
 5374TIP3    H237682   0.578   0.070   2.020 -0.4325 -0.5898 -0.1639
 5375TIP3   OH237683   6.428   2.199   1.801 -0.2444 -0.4863 -0.4704
 5375TIP3    H137684   6.367   2.159   1.863 -0.5921  1.4940  0.5705
 5375TIP3    H237685   6.490   2.130   1.781 -1.4906 -1.8799  0.2686
 5376TIP3   OH237686   5.042   6.758   2.332  1.0811  0.2411  0.3413
 5376TIP3    H137687   4.995   6.711   2.401 -0.6642 -0.8287 -1.4662
 5376TIP3    H237688   5.098   6.691   2.292 -0.1835  0.0032 -1.1688
 5377TIP3   OH237689   6.693   3.245   8.175 -0.1560  0.0870  0.5629
 5377TIP3    H137690   6.618   3.269   8.230 -0.5487  1.0972 -0.3938
 5377TIP3    H237691   6.762   3.223   8.238 -0.9004  0.2370  1.4538
 5378TIP3   OH237692   4.202   3.437   1.402  0.2538 -0.4432  0.0734
 5378TIP3    H137693   4.109   3.438   1.377  0.3434  2.3717 -0.4967
 5378TIP3    H237694   4.249   3.451   1.321  1.0998 -0.2766  0.5836
 5379TIP3   OH237695   0.952   4.607   7.903  0.2801  0.0537 -0.6161
 5379TIP3    H137696   0.906   4.676   7.856 -0.4273 -0.3503 -0.5250
 5379TIP3    H237697   0.939   4.528   7.850 -0.9740 -0.5256  0.4861
 5380TIP3   OH237698   2.383   0.187   8.177 -0.3564  0.2729  0.3026
 5380TIP3    H137699   2.467   0.201   8.221  0.9725  0.1114 -2.0076
 5380TIP3    H237700   2.335   0.127   8.234  0.4823  1.5263  2.3969
 5381TIP3   OH237701   3.106   3.899   2.440  0.5730  0.6068  0.2109
 5381TIP3    H137702   3.143   3.877   2.526  1.2544 -0.3713 -0.3121
 5381TIP3    H237703   3.092   3.994   2.444 -1.4225  0.3279  2.1612
 5382TIP3   OH237704   1.661   1.851   0.865 -0.4847  0.9751  0.4025
 5382TIP3    H137705   1.755   1.830   0.867 -0.4482  1.0653 -0.1885
 5382TIP3    H237706   1.654   1.920   0.798 -0.7533  2.0467  1.4877
 5383TIP3   OH237707   6.012   2.437   2.518 -0.0415  0.3229  0.0665
 5383TIP3    H137708   5.947   2.507   2.506 -0.1826  0.3196  0.7697
 5383TIP3    H237709   5.961   2.356   2.520  0.0688  0.2453 -0.2076
 5384TIP3   OH237710   6.391   6.512   0.635  0.0899  0.1703 -0.3796
 5384TIP3    H137711   6.429   6.562   0.563  0.1578  0.1287 -0.3725
 5384TIP3    H237712   6.446   6.434   0.642  0.2505  0.3080 -0.0993
 5385TIP3   OH237713   4.553   3.053   2.986 -0.1536 -0.1133 -0.6199
 5385TIP3    H137714   4.574   2.968   3.024  0.4765 -1.1484 -3.0710
 5385TIP3    H237715   4.458   3.056   2.983 -0.2769  0.4900  1.9170
 5386TIP3   OH237716   5.069   4.911   8.717  0.1661 -0.0178  0.1153
 5386TIP3    H137717   5.149   4.860   8.705 -0.1224 -0.1692 -1.4257
 5386TIP3    H237718   5.063   4.926   8.811  0.6761 -2.1530  0.5248
 5387TIP3   OH237719   0.680   3.069   1.639 -0.0604 -0.1752 -0.2154
 5387TIP3    H137720   0.624   3.066   1.561 -0.5939  0.9695  0.1093
 5387TIP3    H237721   0.626   3.111   1.705  0.1441 -1.7395  1.0048
 5388TIP3   OH237722   1.178   6.363   8.053 -0.5745  0.1939 -0.3539
 5388TIP3    H137723   1.120   6.291   8.077  0.2685 -0.0572  1.0909
 5388TIP3    H237724   1.166   6.374   7.959 -2.8943  0.1236 -0.1189
 5389TIP3   OH237725   4.483   6.774   0.510 -0.0038 -0.5577 -0.4135
 5389TIP3    H137726   4.435   6.776   0.593 -1.1033 -0.5662 -1.0261
 5389TIP3    H237727   4.575   6.769   0.536 -0.3412 -0.9372  0.8011
 5390TIP3   OH237728   1.721   6.499   2.494 -0.0600  0.2522 -0.0146
 5390TIP3    H137729   1.696   6.408   2.479 -0.5105  0.3177  0.3230
 5390TIP3    H237730   1.721   6.508   2.590 -0.0541  0.6191 -0.0470
 5391TIP3   OH237731   0.501   3.253   1.741  0.2084  0.2043  0.5842
 5391TIP3    H137732   0.452   3.326   1.704 -1.3913 -1.2091 -0.2191
 5391TIP3    H237733   0.468   3.245   1.831 -1.0414 -0.6801  0.0770
 5392TIP3   OH237734   3.192   2.617   2.202  0.0619  0.5013 -0.1994
 5392TIP3    H137735   3.114   2.571   2.231  0.3186 -0.8574 -1.5406
 5392TIP3    H237736   3.178   2.633   2.109  1.3391  0.3135 -0.4511
 5393TIP3   OH237737   3.191   1.767   1.782  0.3972 -0.5255 -0.1432
 5393TIP3    H137738   3.180   1.745   1.875  1.6065  2.1502  0.7546
 5393TIP3    H237739   3.268   1.716   1.755  1.5838  0.5032  1.1066
 5394TIP3   OH237740   0.541   2.135   0.719  0.0168 -0.1222  0.7858
 5394TIP3    H137741   0.450   2.123   0.690  0.2828  0.6777 -0.4707
 5394TIP3    H237742   0.582   2.050   0.703  0.0363  0.1564 -0.8430
 5395TIP3   OH237743   2.169   4.122   7.986  0.2758 -0.1536 -0.2259
 5395TIP3    H137744   2.228   4.192   7.958 -0.1099  0.0837 -0.4479
 5395TIP3    H237745   2.184   4.052   7.922 -0.5318  0.3499 -0.9863
 5396TIP3   OH237746   0.379   1.916   8.593 -0.2058 -0.3849  0.2711
 5396TIP3    H137747   0.377   1.841   8.652 -1.9140 -0.5980 -0.0238
 5396TIP3    H237748   0.452   1.970   8.625 -0.7950 -0.7127  2.3001
 5397TIP3   OH237749   0.747   5.781   1.842 -0.2876 -0.6667 -0.5814
 5397TIP3    H137750   0.692   5.718   1.890 -0.7586  0.5833  0.5960
 5397TIP3    H237751   0.702   5.865   1.854  1.2837  0.1929 -0.5421
 5398TIP3   OH237752   5.783   5.587   7.916 -0.2120  0.1940  0.1382
 5398TIP3    H137753   5.826   5.510   7.879 -1.1266  0.7102 -2.1115
 5398TIP3    H237754   5.766   5.644   7.841 -1.2369  1.7767  1.5025
 5399TIP3   OH237755   0.357   5.640   0.550 -0.5549  0.2464 -0.2862
 5399TIP3    H137756   0.438   5.602   0.515 -0.0587  1.2868 -0.2824
 5399TIP3    H237757   0.288   5.596   0.501 -0.0259 -1.0400  0.0808
 5400TIP3   OH237758   1.311   4.592   8.499 -0.3628 -0.1559  0.2985
 5400TIP3    H137759   1.246   4.653   8.463  0.8061  0.5871 -0.6427
 5400TIP3    H237760   1.302   4.513   8.445  0.8145  0.6566 -1.1710
 5401TIP3   OH237761   1.512   5.903   2.851  0.1434  0.8813  0.1074
 5401TIP3    H137762   1.436   5.856   2.815  1.4631 -0.5076 -0.9589
 5401TIP3    H237763   1.572   5.835   2.879  2.3333  1.8453 -1.9128
 5402TIP3   OH237764   4.586   3.849   7.942 -0.1995  0.2185 -0.1855
 5402TIP3    H137765   4.535   3.928   7.927 -2.6071 -1.2328 -0.2414
 5402TIP3    H237766   4.545   3.783   7.886  1.6129 -1.1336 -0.0165
 5403TIP3   OH237767   1.222   4.626   8.000 -0.7283 -0.3389  0.0208
 5403TIP3    H137768   1.129   4.604   7.993 -0.4635 -2.6575  2.5281
 5403TIP3    H237769   1.265   4.544   8.022  1.3852  1.3390  2.8320
 5404TIP3   OH237770   5.509   2.742   7.206  0.7835 -0.1077 -0.1577
 5404TIP3    H137771   5.499   2.686   7.129  0.7849 -0.4053  0.0538
 5404TIP3    H237772   5.600   2.732   7.232  1.3714  1.6795 -1.3843
 5405TIP3   OH237773   1.619   0.693   8.180 -0.1264 -0.4177 -0.3284
 5405TIP3    H137774   1.659   0.780   8.183  1.3487 -1.0798  0.6609
 5405TIP3    H237775   1.641   0.660   8.093 -0.6309  0.1662 -0.6810
 5406TIP3   OH237776   3.836   4.970   1.891  0.1834 -0.4895 -0.0207
 5406TIP3    H137777   3.910   4.924   1.930  0.1798 -0.7087 -0.2727
 5406TIP3    H237778   3.779   4.990   1.965  1.5811  1.7506  0.5372
 5407TIP3   OH237779   3.316   2.274   0.849  0.5007  0.0233  0.7307
 5407TIP3    H137780   3.356   2.328   0.917 -0.1803  0.4669  0.7912
 5407TIP3    H237781   3.329   2.184   0.879 -0.0121  0.2212  1.5826
 5408TIP3   OH237782   0.106   2.153   3.184 -0.2365 -0.1385  0.7087
 5408TIP3    H137783   0.060   2.185   3.107  1.2385  2.0994  0.6786
 5408TIP3    H237784   0.063   2.196   3.258  0.5725  0.5100  0.8204
 5409TIP3   OH237785   3.693   2.152   1.086  0.2184  0.0140 -0.4068
 5409TIP3    H137786   3.605   2.189   1.085 -0.5142 -1.6011  0.2865
 5409TIP3    H237787   3.705   2.116   0.998 -0.2296 -0.6164 -0.2229
 5410TIP3   OH237788   4.309   3.294   1.604 -0.1783 -0.2107  0.5161
 5410TIP3    H137789   4.239   3.326   1.548 -0.9357 -0.8715  1.0555
 5410TIP3    H237790   4.345   3.372   1.646 -0.0625  0.2081 -0.3513
 5411TIP3   OH237791   5.252   4.701   3.545  0.4974 -0.0849  0.1323
 5411TIP3    H137792   5.273   4.608   3.547  1.4487  0.1202  0.3948
 5411TIP3    H237793   5.208   4.714   3.461  1.3814 -0.5746 -0.4261
 5412TIP3   OH237794   1.747   5.199   2.056  0.7070  0.5140 -0.1152
 5412TIP3    H137795   1.775   5.130   1.995 -0.6659  0.9656 -1.3055
 5412TIP3    H237796   1.701   5.262   2.001 -0.7962  0.8201  1.4226
 5413TIP3   OH237797   6.690   3.543   8.267 -0.3136 -0.1385 -0.3194
 5413TIP3    H137798   6.645   3.616   8.224  0.0373  0.0032 -0.4486
 5413TIP3    H237799   6.619   3.489   8.301 -0.6381 -0.6603 -1.7425
 5414TIP3   OH237800   5.147   1.346   1.266 -0.0351  0.0095  0.2141
 5414TIP3    H137801   5.114   1.258   1.284  0.1602 -0.2899 -0.7971
 5414TIP3    H237802   5.069   1.396   1.241 -0.3062  0.4278  1.8069
 5415TIP3   OH237803   0.462   2.291   7.977  0.2142 -0.0118 -0.2313
 5415TIP3    H137804   0.455   2.386   7.988 -0.0442  0.4586 -3.4550
 5415TIP3    H237805   0.460   2.256   8.067 -1.5411  2.8743  1.0095
 5416TIP3   OH237806   4.060   6.127   0.036  0.4054 -0.1809  0.0165
 5416TIP3    H137807   3.992   6.108   0.100 -0.6406 -1.0538 -1.2923
 5416TIP3    H237808   4.135   6.074   0.064  0.8561  1.3298  1.8685
 5417TIP3   OH237809   1.080   4.481   0.235  0.1251  0.2242  0.9403
 5417TIP3    H137810   1.140   4.544   0.274 -0.4556  1.6263 -0.2706
 5417TIP3    H237811   1.077   4.506   0.142 -1.5531 -0.4187  0.7836
 5418TIP3   OH237812   3.823   5.314   8.413  0.0042  0.0704 -0.5141
 5418TIP3    H137813   3.898   5.321   8.354  1.4816  0.2019  1.2854
 5418TIP3    H237814   3.801   5.405   8.434 -1.6150  0.1065 -2.0779
 5419TIP3   OH237815   2.962   5.866   0.104  0.0904  0.3735 -0.1918
 5419TIP3    H137816   3.036   5.895   0.158 -1.2389  2.0830  0.8294
 5419TIP3    H237817   2.906   5.818   0.166  0.3635 -1.0373 -0.9916
 5420TIP3   OH237818   3.124   2.374   8.218  0.3904 -0.1093 -0.0517
 5420TIP3    H137819   3.074   2.297   8.194 -1.6110  0.4713  1.8939
 5420TIP3    H237820   3.160   2.354   8.304  3.0272 -0.2236 -1.0844
 5421TIP3   OH237821   3.343   5.579   2.889 -0.1750  0.1194 -0.4880
 5421TIP3    H137822   3.266   5.553   2.938 -0.9807 -0.1323 -1.8373
 5421TIP3    H237823   3.400   5.621   2.954 -0.6233 -1.3422  0.9045
 5422TIP3   OH237824   3.205   4.124   8.121 -0.4099 -0.5267  0.3199
 5422TIP3    H137825   3.285   4.159   8.160  0.9429 -0.2440 -2.5254
 5422TIP3    H237826   3.144   4.198   8.121 -0.0024 -0.1870  0.6778
 5423TIP3   OH237827   4.335   6.480   3.175 -0.2201  0.6677 -0.1718
 5423TIP3    H137828   4.326   6.523   3.090 -0.0702 -0.0069 -0.5354
 5423TIP3    H237829   4.347   6.387   3.154  1.3046  0.6878  0.5268
 5424TIP3   OH237830   5.678   3.402   0.091 -0.2690  0.2266  0.6368
 5424TIP3    H137831   5.604   3.456   0.118 -1.3019 -1.3310  1.0824
 5424TIP3    H237832   5.688   3.420  -0.003 -2.4614 -0.8629  0.1071
 5425TIP3   OH237833   3.770   0.763   1.622 -0.2392 -0.7548 -0.0004
 5425TIP3    H137834   3.860   0.738   1.643 -0.5732 -2.7689 -0.7226
 5425TIP3    H237835   3.717   0.691   1.655 -1.8213  1.1534  1.9092
 5426TIP3   OH237836   6.199   1.208   8.730  0.2916  0.6125  0.1042
 5426TIP3    H137837   6.124   1.163   8.768 -0.9684  2.1630 -0.4718
 5426TIP3    H237838   6.239   1.256   8.802  1.2966 -0.8710  0.5951
 5427TIP3   OH237839   5.466   1.033   8.412  0.2417  0.6178  0.3858
 5427TIP3    H137840   5.540   1.089   8.437 -0.5952  1.8569  0.1691
 5427TIP3    H237841   5.501   0.976   8.344  1.5563 -0.2793  1.7487
 5428TIP3   OH237842   3.133   2.120   2.046  0.7493 -0.5136 -0.6094
 5428TIP3    H137843   3.222   2.148   2.026  0.3806 -1.5955 -4.6991
 5428TIP3    H237844   3.078   2.178   1.994 -0.7949 -1.3243  0.0716
 5429TIP3   OH237845   6.647   4.575   1.121 -0.2079  0.5444 -0.1246
 5429TIP3    H137846   6.677   4.495   1.077  1.1370  0.4627  0.8508
 5429TIP3    H237847   6.556   4.585   1.095 -0.1171 -0.7764 -1.0342
 5430TIP3   OH237848   3.086   4.117   2.742  0.2714 -0.3810 -0.1189
 5430TIP3    H137849   3.118   4.178   2.808  0.0003 -0.0578 -0.2854
 5430TIP3    H237850   3.154   4.118   2.674  0.5547 -0.7205  0.1573
 5431TIP3   OH237851   6.041   6.746   8.774 -0.1755 -0.6618  0.8310
 5431TIP3    H137852   5.964   6.696   8.747 -1.0024  1.0762 -0.2434
 5431TIP3    H237853   6.012   6.796   8.851  0.4979 -1.4330  1.6106
 5432TIP3   OH237854   4.933   2.129   8.284  0.2235  0.4892 -0.1158
 5432TIP3    H137855   4.893   2.043   8.270 -0.1927  1.0134 -2.5653
 5432TIP3    H237856   4.907   2.153   8.373  0.7248 -2.0787  0.8071
 5433TIP3   OH237857   2.258   3.208   0.316  0.1261  0.5847 -0.2078
 5433TIP3    H137858   2.236   3.241   0.229 -0.6464  0.5539 -0.0312
 5433TIP3    H237859   2.175   3.175   0.350  0.8552 -1.4601 -0.3331
 5434TIP3   OH237860   2.553   3.960   2.824  0.1550 -0.2427 -0.4654
 5434TIP3    H137861   2.601   3.882   2.854  0.4512 -0.1872 -0.7810
 5434TIP3    H237862   2.463   3.946   2.854  0.5353  0.0419  0.8613
 5435TIP3   OH237863   4.553   1.111   0.221  0.5950  0.3596  0.6401
 5435TIP3    H137864   4.506   1.080   0.299  0.6835 -0.1944  0.4778
 5435TIP3    H237865   4.644   1.115   0.248  0.7576 -0.7013  0.3193
 5436TIP3   OH237866   0.085   6.130   8.398  0.2445 -0.1346 -0.7477
 5436TIP3    H137867   0.145   6.118   8.472 -1.8893 -4.8446  0.5810
 5436TIP3    H237868   0.013   6.182   8.434  1.4535  2.0092 -1.1969
 5437TIP3   OH237869   2.399   4.097   1.249  0.4742 -0.0118  0.3029
 5437TIP3    H137870   2.447   4.027   1.205  0.4989  0.0600  0.2162
 5437TIP3    H237871   2.336   4.127   1.184  1.5969  1.2044 -0.2637
 5438TIP3   OH237872   1.039   4.830   3.180  0.1764  0.3373 -0.3617
 5438TIP3    H137873   1.134   4.834   3.182  0.2120  0.0158 -1.2317
 5438TIP3    H237874   1.013   4.897   3.116 -0.1890  0.4768 -0.0740
 5439TIP3   OH237875   6.247   6.560   8.386  0.4626 -0.1888 -0.2170
 5439TIP3    H137876   6.298   6.481   8.372 -0.1200 -0.6221  0.0809
 5439TIP3    H237877   6.305   6.616   8.439  0.3666 -0.9577  0.7272
 5440TIP3   OH237878   6.333   5.538   7.474  0.2737  0.3803  0.1104
 5440TIP3    H137879   6.244   5.517   7.500 -0.1552  0.2261 -1.3927
 5440TIP3    H237880   6.388   5.483   7.530 -0.5931  0.0238  0.6312
 5441TIP3   OH237881   5.829   6.707   1.683  0.3656  0.2757 -0.1357
 5441TIP3    H137882   5.764   6.688   1.751  0.5631  0.0932  0.0035
 5441TIP3    H237883   5.897   6.756   1.729  0.7801 -0.3482 -0.0718
 5442TIP3   OH237884   0.817   1.701   2.319  0.2809 -0.3088 -0.5652
 5442TIP3    H137885   0.795   1.738   2.404  0.2905 -0.0801 -0.6616
 5442TIP3    H237886   0.860   1.618   2.339 -0.7978 -0.8444 -0.3742
 5443TIP3   OH237887   0.775   2.450   0.932  0.1555 -0.1775 -0.5826
 5443TIP3    H137888   0.870   2.455   0.947  0.1393  0.5858 -0.7086
 5443TIP3    H237889   0.756   2.356   0.931  0.9275 -0.3388 -0.6453
 5444TIP3   OH237890   1.599   2.083   2.248 -0.0855 -0.2491 -0.5110
 5444TIP3    H137891   1.521   2.070   2.194 -0.0029  0.1149 -0.7210
 5444TIP3    H237892   1.622   2.175   2.235  0.8503 -0.5599 -1.0870
 5445TIP3   OH237893   0.968   2.166   8.352  0.0598 -0.4588 -0.1587
 5445TIP3    H137894   0.883   2.129   8.326  0.5888 -1.2580 -0.7894
 5445TIP3    H237895   0.983   2.131   8.440  0.1324 -1.0227 -0.3912
 5446TIP3   OH237896   2.133   5.778   7.367 -0.1253 -0.0915  0.8769
 5446TIP3    H137897   2.091   5.854   7.326  0.6197  0.6703  1.4715
 5446TIP3    H237898   2.113   5.705   7.309  0.7496  0.9146 -0.7605
 5447TIP3   OH237899   4.641   0.940   0.553 -0.0234  0.3614 -0.1927
 5447TIP3    H137900   4.691   0.861   0.574  1.4586  1.3450  0.1498
 5447TIP3    H237901   4.559   0.908   0.516  1.0928 -1.3225 -1.3346
 5448TIP3   OH237902   4.895   0.110   8.413  0.8450 -0.2761  0.0510
 5448TIP3    H137903   4.966   0.174   8.414 -0.6568  1.4637  0.2612
 5448TIP3    H237904   4.887   0.082   8.505 -0.1734  1.2244  0.4451
 5449TIP3   OH237905   0.125   5.194   8.703 -0.4523  0.3376  0.1687
 5449TIP3    H137906   0.048   5.139   8.718 -0.7410  0.8207  0.4978
 5449TIP3    H237907   0.128   5.207   8.608  0.6511 -1.6994 -0.1183
 5450TIP3   OH237908   3.081   1.445   7.941 -0.0643 -0.2846  0.1158
 5450TIP3    H137909   3.086   1.519   7.881  2.1351  0.3690  1.0183
 5450TIP3    H237910   3.120   1.372   7.893 -0.7150 -0.4562 -0.1678
 5451TIP3   OH237911   1.554   4.648   8.009 -0.1828  0.4690  0.5416
 5451TIP3    H137912   1.612   4.573   8.022  2.2171  1.6523 -2.2187
 5451TIP3    H237913   1.468   4.617   8.039  1.0455 -2.7044  1.2449
 5452TIP3   OH237914   1.954   3.061   1.790  0.0742 -0.0960 -0.9298
 5452TIP3    H137915   2.043   3.032   1.810 -0.4492 -1.2225 -0.1489
 5452TIP3    H237916   1.964   3.153   1.766  1.2903  0.1529  0.3967
 5453TIP3   OH237917   2.831   4.041   3.073  0.7842 -0.8905  0.0841
 5453TIP3    H137918   2.793   3.953   3.068  0.5611 -0.8993  1.4294
 5453TIP3    H237919   2.910   4.036   3.020 -0.1813 -1.3652 -1.3609
 5454TIP3   OH237920   0.103   6.619   8.176 -0.1747  0.3125  1.0820
 5454TIP3    H137921   0.175   6.561   8.201 -1.7211 -1.4355  1.6952
 5454TIP3    H237922   0.144   6.706   8.167  2.0773 -0.7031  0.8731
 5455TIP3   OH237923   1.956   2.087   2.801 -0.0131 -0.0310  0.0701
 5455TIP3    H137924   1.909   2.016   2.844 -0.4244 -0.5574 -1.2091
 5455TIP3    H237925   2.012   2.124   2.869  0.1794 -1.5489  0.7573
 5456TIP3   OH237926   6.271   5.259   2.513 -0.1443 -0.0575 -0.1182
 5456TIP3    H137927   6.338   5.325   2.494  0.9675 -0.4293  2.1131
 5456TIP3    H237928   6.321   5.179   2.531 -1.4042 -1.2439 -1.5947
 5457TIP3   OH237929   5.505   1.119   2.666 -0.1837  0.0541 -0.1804
 5457TIP3    H137930   5.579   1.142   2.722 -2.1132  2.3127  1.6382
 5457TIP3    H237931   5.530   1.153   2.579  1.4927 -0.5881  0.0150
 5458TIP3   OH237932   6.337   4.027   7.701 -0.0236 -0.6175  0.4516
 5458TIP3    H137933   6.305   4.081   7.629 -1.1630 -0.0003  1.3867
 5458TIP3    H237934   6.339   3.938   7.665  1.9096 -0.0048 -1.1113
 5459TIP3   OH237935   0.079   2.338   0.515  0.0348  0.0036 -0.2164
 5459TIP3    H137936   0.036   2.373   0.437  2.7438 -2.0830 -2.8741
 5459TIP3    H237937   0.046   2.249   0.524  1.3201 -0.4998 -0.3004
 5460TIP3   OH237938   5.242   5.845   8.784 -0.7181  0.6509 -0.1844
 5460TIP3    H137939   5.306   5.774   8.779 -1.2153  0.0141  1.7050
 5460TIP3    H237940   5.158   5.804   8.764 -0.7718  1.1147 -0.9327
 5461TIP3   OH237941   5.880   1.651   7.634 -0.3078 -0.4008  0.3792
 5461TIP3    H137942   5.936   1.676   7.561 -1.2300  1.1915  0.1641
 5461TIP3    H237943   5.818   1.588   7.596  1.0654 -1.9302  0.5494
 5462TIP3   OH237944   3.664   3.495   7.841 -0.0249 -0.3118 -0.5609
 5462TIP3    H137945   3.745   3.546   7.842  0.9983 -1.8341  1.0803
 5462TIP3    H237946   3.673   3.436   7.916 -3.1235  0.1468  0.3188
 5463TIP3   OH237947   2.601   4.710   0.707 -0.3876 -0.5903  0.1927
 5463TIP3    H137948   2.630   4.700   0.798 -0.1013  0.0916  0.1770
 5463TIP3    H237949   2.506   4.720   0.713 -0.4236 -1.0061  0.3788
 5464TIP3   OH237950   6.336   1.922   7.444  0.4973  0.2803 -0.3411
 5464TIP3    H137951   6.365   1.871   7.368  1.5042  1.1438 -0.5587
 5464TIP3    H237952   6.328   2.011   7.411  1.0662  0.6915  0.5886
 5465TIP3   OH237953   5.273   4.846   2.383 -0.3600  0.3923 -0.2138
 5465TIP3    H137954   5.303   4.758   2.364 -1.6276  0.3311 -2.1361
 5465TIP3    H237955   5.305   4.899   2.311  0.8607  1.6736  1.1893
 5466TIP3   OH237956   2.420   0.250   1.989 -0.5091 -1.1246  0.6259
 5466TIP3    H137957   2.505   0.241   1.945 -0.9575 -1.0362 -0.2891
 5466TIP3    H237958   2.419   0.340   2.021  0.2872 -1.5271  1.8422
 5467TIP3   OH237959   2.411   0.150   7.336 -0.2830  0.3450 -0.1122
 5467TIP3    H137960   2.499   0.186   7.323 -0.3897  0.7252  0.2090
 5467TIP3    H237961   2.362   0.220   7.379 -0.8220  0.2307 -0.5374
 5468TIP3   OH237962   0.852   6.130   1.717  0.3338 -0.6613 -0.3005
 5468TIP3    H137963   0.769   6.089   1.739 -0.8694  1.0497 -1.3682
 5468TIP3    H237964   0.854   6.209   1.771  0.9839 -0.3794 -0.7303
 5469TIP3   OH237965   4.650   2.027   7.565  1.0654  0.0312 -0.2800
 5469TIP3    H137966   4.631   2.103   7.510  2.4919 -0.0975 -0.9754
 5469TIP3    H237967   4.594   1.958   7.530 -0.7097  0.8729  0.7424
 5470TIP3   OH237968   1.869   2.885   7.547 -0.3635  0.3073  0.1475
 5470TIP3    H137969   1.895   2.912   7.635 -0.0612 -1.1834  0.5429
 5470TIP3    H237970   1.950   2.858   7.505 -0.6339  0.0795 -0.2369
 5471TIP3   OH237971   5.520   3.083   8.325  0.3938  0.2037  0.5363
 5471TIP3    H137972   5.510   3.153   8.262  0.0280  2.6455  3.1084
 5471TIP3    H237973   5.432   3.046   8.336  0.0809  1.0605  0.9739
 5472TIP3   OH237974   1.095   3.893   7.944 -0.3911 -0.2074  0.2290
 5472TIP3    H137975   1.138   3.964   7.897  0.9696 -1.7753 -0.9859
 5472TIP3    H237976   1.157   3.868   8.012 -0.4012 -0.9438 -0.0308
 5473TIP3   OH237977   2.600   6.659   8.404  0.5541  0.0073 -0.5485
 5473TIP3    H137978   2.576   6.724   8.339 -0.6999 -0.3690 -0.4771
 5473TIP3    H237979   2.525   6.654   8.463  0.1625 -2.2226 -1.1452
 5474TIP3   OH237980   6.002   1.623   0.183  0.7818  0.1721 -0.0304
 5474TIP3    H137981   6.088   1.647   0.217  0.3595  3.3074 -0.8119
 5474TIP3    H237982   5.943   1.628   0.259  1.0127 -0.1242  0.1648
 5475TIP3   OH237983   4.763   0.698   0.096  0.1973 -0.1181  0.1855
 5475TIP3    H137984   4.678   0.685   0.139 -1.6547 -3.3168 -3.7697
 5475TIP3    H237985   4.741   0.740   0.013  2.5280 -0.7476 -0.8325
 5476TIP3   OH237986   6.057   5.530   1.190  0.0917 -0.1852 -0.0953
 5476TIP3    H137987   6.017   5.547   1.104 -0.4245  1.3796  0.4257
 5476TIP3    H237988   6.012   5.590   1.249 -0.0568 -1.7294  1.4301
 5477TIP3   OH237989   4.699   6.507   8.566  0.1152  0.6332  0.5908
 5477TIP3    H137990   4.667   6.419   8.584  0.7723 -0.0542 -1.2856
 5477TIP3    H237991   4.672   6.525   8.476  1.6541  1.5472  0.2562
 5478TIP3   OH237992   1.132   1.792   7.813 -0.1134 -0.4934  0.2442
 5478TIP3    H137993   1.119   1.740   7.892 -0.5733 -1.2476 -0.3104
 5478TIP3    H237994   1.226   1.811   7.813 -0.0437 -0.8061  0.7747
 5479TIP3   OH237995   0.832   2.686   1.679 -0.4854  0.3455  0.2599
 5479TIP3    H137996   0.790   2.632   1.746 -0.0610  0.6886  0.8124
 5479TIP3    H237997   0.922   2.699   1.711 -0.5292  1.2235  0.0571
 5480TIP3   OH237998   1.614   2.340   2.526  0.0454 -0.3583 -0.1521
 5480TIP3    H137999   1.659   2.257   2.539  0.6205 -0.1991 -1.0436
 5480TIP3    H238000   1.590   2.368   2.615  2.2693 -0.1426  0.4586
 5481TIP3   OH238001   5.044   1.912   1.126  0.3560 -0.2626 -0.3331
 5481TIP3    H138002   4.967   1.870   1.087  0.7637 -0.9738 -0.4067
 5481TIP3    H238003   5.110   1.842   1.127  0.9411  0.2894 -0.1142
 5482TIP3   OH238004   0.059   4.585   1.684 -0.4016  0.0837 -0.7547
 5482TIP3    H138005  -0.017   4.526   1.686 -1.8266  1.8409 -0.2015
 5482TIP3    H238006   0.098   4.576   1.771 -2.7716  2.4833  0.7255
 5483TIP3   OH238007   2.659   5.825   1.245  0.0771  0.1858 -0.6172
 5483TIP3    H138008   2.661   5.789   1.334  1.9833 -3.6942 -1.9966
 5483TIP3    H238009   2.566   5.836   1.226 -0.5698 -2.0792  0.7805
 5484TIP3   OH238010   4.742   3.940   8.671  0.1478  0.1149  0.1648
 5484TIP3    H138011   4.816   3.969   8.619 -0.5739  1.1135 -0.3427
 5484TIP3    H238012   4.668   3.941   8.610 -0.1348 -1.7906  0.3935
 5485TIP3   OH238013   1.572   6.543   1.248  0.2491 -0.1058  0.2941
 5485TIP3    H138014   1.492   6.516   1.294  0.3409 -1.5962 -0.3396
 5485TIP3    H238015   1.547   6.624   1.204 -0.8771 -0.4502  0.2460
 5486TIP3   OH238016   2.579   2.059   1.064 -0.5965 -0.0735  0.0341
 5486TIP3    H138017   2.658   2.109   1.082 -0.9667  0.6413 -0.2980
 5486TIP3    H238018   2.577   1.993   1.134  1.4737 -1.5932 -1.2264
 5487TIP3   OH238019   1.922   1.492   2.023  0.4262  0.3236 -0.0762
 5487TIP3    H138020   1.837   1.519   2.059 -0.1865 -1.5904  0.0024
 5487TIP3    H238021   1.976   1.475   2.101  0.9884  1.7105 -0.1239
 5488TIP3   OH238022   1.881   4.136   2.128 -0.5437 -0.1952  0.3325
 5488TIP3    H138023   1.922   4.053   2.149 -2.8977 -1.6219 -0.3130
 5488TIP3    H238024   1.884   4.186   2.210 -0.7817 -1.6991  1.2891
 5489TIP3   OH238025   3.873   3.102   7.193  0.0745 -0.1333  0.5362
 5489TIP3    H138026   3.946   3.155   7.223  0.5324  0.3817 -1.3642
 5489TIP3    H238027   3.888   3.016   7.233  1.0241  0.3090  1.1589
 5490TIP3   OH238028   0.443   2.282   7.361  0.2668 -0.3138 -0.3319
 5490TIP3    H138029   0.402   2.342   7.299 -0.7126 -0.5143  0.1048
 5490TIP3    H238030   0.527   2.261   7.321  0.8726  1.7425 -0.2457
 5491TIP3   OH238031   3.986   4.579   8.670 -0.2883 -0.7001 -0.9722
 5491TIP3    H138032   3.893   4.577   8.646 -0.2434  0.6209 -1.3465
 5491TIP3    H238033   3.992   4.521   8.746 -1.4236 -0.7670 -0.9059
 5492TIP3   OH238034   2.937   1.788   8.593  0.8344  0.1069 -0.2965
 5492TIP3    H138035   2.864   1.734   8.563  0.2899  1.1923 -0.9913
 5492TIP3    H238036   3.007   1.725   8.611 -0.3260 -0.9847  0.6190
 5493TIP3   OH238037   6.200   2.850   0.379 -0.2690  0.3207 -0.3123
 5493TIP3    H138038   6.296   2.843   0.379 -0.1349  1.6957 -0.9265
 5493TIP3    H238039   6.179   2.890   0.295 -1.2187  1.7353  0.5468
 5494TIP3   OH238040   4.377   3.511   2.688  0.3860 -0.6274  0.2071
 5494TIP3    H138041   4.366   3.514   2.593 -2.2396 -1.0481  0.4167
 5494TIP3    H238042   4.405   3.599   2.711  0.2420 -0.2680 -0.8921
 5495TIP3   OH238043   2.475   6.253   0.004  0.7086  0.4456  0.2570
 5495TIP3    H138044   2.478   6.203  -0.077  0.8482 -0.7991  0.9910
 5495TIP3    H238045   2.557   6.301   0.006  1.1512 -0.2877  0.1158
 5496TIP3   OH238046   4.525   2.792   3.079  0.3285  0.9487 -0.3676
 5496TIP3    H138047   4.511   2.750   3.164  1.3881  0.9254 -0.1991
 5496TIP3    H238048   4.494   2.728   3.015 -0.0170  0.7692 -0.0264
 5497TIP3   OH238049   4.384   3.360   3.004  0.0952 -0.4070 -0.3793
 5497TIP3    H138050   4.377   3.456   2.998 -0.8787 -0.5540 -2.3203
 5497TIP3    H238051   4.456   3.346   3.065  0.6125  1.5823 -0.4361
 5498TIP3   OH238052   5.241   3.522   7.970  0.2915 -0.0858  0.0143
 5498TIP3    H138053   5.322   3.492   8.011  1.4634  0.7498 -1.5949
 5498TIP3    H238054   5.269   3.587   7.905 -1.4943 -1.0173 -1.8028
 5499TIP3   OH238055   6.733   0.742   0.886  0.0440 -0.0807  0.3736
 5499TIP3    H138056   6.790   0.734   0.810 -1.8017  2.9190 -1.5583
 5499TIP3    H238057   6.790   0.776   0.955  0.9152  1.7703 -1.1708
 5500TIP3   OH238058   4.778   4.122   7.707  0.3805  0.2967 -0.8895
 5500TIP3    H138059   4.809   4.212   7.722 -0.6702  0.4349  0.6939
 5500TIP3    H238060   4.850   4.080   7.660  1.2909  1.7120 -0.8315
 5501TIP3   OH238061   1.015   3.386   8.315 -0.1294  0.4660 -0.5493
 5501TIP3    H138062   1.089   3.445   8.326  0.0869 -0.1087  1.6726
 5501TIP3    H238063   1.050   3.311   8.266  1.1793 -0.3742  1.5362
 5502TIP3   OH238064   1.029   4.887   1.256  0.2789 -0.3683  0.4589
 5502TIP3    H138065   1.067   4.821   1.313  0.5429 -1.3599 -0.8046
 5502TIP3    H238066   1.086   4.963   1.266 -0.0619 -0.2939  1.9745
 5503TIP3   OH238067   6.530   3.597   0.664  0.0250  0.2241  0.0981
 5503TIP3    H138068   6.511   3.504   0.654  0.6628  0.0080  0.7644
 5503TIP3    H238069   6.483   3.639   0.592 -1.7628 -0.4092  0.8256
 5504TIP3   OH238070   2.142   3.885   7.831  0.0395  0.0040 -0.5424
 5504TIP3    H138071   2.207   3.866   7.764 -1.5473 -1.5611 -1.7253
 5504TIP3    H238072   2.132   3.803   7.879 -1.3791  0.0766 -0.6878
 5505TIP3   OH238073   1.327   0.657   8.043 -0.0301 -0.5279  0.2898
 5505TIP3    H138074   1.291   0.655   7.954  0.0127  1.7358  0.1746
 5505TIP3    H238075   1.325   0.749   8.068  1.3008 -0.9367  2.1077
 5506TIP3   OH238076   2.979   5.641   1.864  0.0438 -0.2677  0.7778
 5506TIP3    H138077   2.950   5.705   1.928  1.8833  0.1484  1.2461
 5506TIP3    H238078   2.911   5.573   1.865 -0.7692  0.5385  1.9514
 5507TIP3   OH238079   0.730   2.763   0.639 -0.1375 -0.1310  0.0645
 5507TIP3    H138080   0.671   2.724   0.576  1.2261 -0.3785 -1.1212
 5507TIP3    H238081   0.711   2.718   0.721 -0.9722 -0.8132 -0.4901
 5508TIP3   OH238082   2.393   4.322   0.497 -0.2548 -0.1446 -0.2552
 5508TIP3    H138083   2.359   4.261   0.561 -1.6736  0.6409 -0.2080
 5508TIP3    H238084   2.463   4.274   0.452 -1.3276 -1.8021 -0.2451
 5509TIP3   OH238085   0.455   0.354   1.402 -0.7357 -0.4315  0.2460
 5509TIP3    H138086   0.541   0.394   1.387 -1.3960  0.4936 -1.2983
 5509TIP3    H238087   0.466   0.262   1.376 -0.3231 -0.2110 -0.3763
 5510TIP3   OH238088   2.113   1.020   2.712  0.6697 -0.3079  0.2008
 5510TIP3    H138089   2.111   1.109   2.677  1.3268 -1.2641 -2.4783
 5510TIP3    H238090   2.194   1.015   2.762  0.0303  0.9203  1.4091
 5511TIP3   OH238091   1.566   5.790   2.232 -0.0698  0.4320 -0.3069
 5511TIP3    H138092   1.643   5.828   2.274 -0.7456  0.8669  0.5985
 5511TIP3    H238093   1.596   5.759   2.147  0.8161  1.7367 -0.4805
 5512TIP3   OH238094   1.527   3.216   0.031 -0.1889 -0.3960 -0.4122
 5512TIP3    H138095   1.518   3.252   0.119 -0.5824 -0.6018 -0.3676
 5512TIP3    H238096   1.617   3.182   0.028  0.0372  0.1905 -0.3083
 5513TIP3   OH238097   5.823   1.017   1.994 -0.0023 -0.3764  0.0193
 5513TIP3    H138098   5.881   1.088   1.967 -1.3394  0.5367 -0.5091
 5513TIP3    H238099   5.849   0.998   2.084 -1.4429  2.7193  1.2223
 5514TIP3   OH238100   2.153   0.703   8.797 -0.2547 -0.3624 -0.2495
 5514TIP3    H138101   2.243   0.736   8.802 -0.0746 -0.8692 -0.1091
 5514TIP3    H238102   2.099   0.780   8.815  0.1631 -0.1485  0.1164
 5515TIP3   OH238103   2.843   2.909   0.032 -0.0692  0.3773  0.2197
 5515TIP3    H138104   2.763   2.950  -0.001  0.0189  0.7307  0.4318
 5515TIP3    H238105   2.914   2.958  -0.010  0.0469 -0.6758 -0.8625
 5516TIP3   OH238106   6.660   3.250   1.062  0.3360 -0.0451 -0.0129
 5516TIP3    H138107   6.734   3.213   1.014 -0.0916  0.1293 -0.8219
 5516TIP3    H238108   6.595   3.270   0.995 -0.2798  0.2047  0.6403
 5517TIP3   OH238109   3.069   5.873   8.205 -0.0112  0.3337  0.0938
 5517TIP3    H138110   3.079   5.868   8.110  1.4656  4.6105 -0.1793
 5517TIP3    H238111   2.993   5.930   8.219 -0.6904 -0.8548  1.5525
 5518TIP3   OH238112   3.390   5.464   1.160  0.8828  0.1233  0.3674
 5518TIP3    H138113   3.349   5.379   1.146  1.5833 -0.4928  1.8827
 5518TIP3    H238114   3.463   5.447   1.220 -0.9675  2.2132  3.5537
 5519TIP3   OH238115   5.545   4.867   8.670  0.0915  0.4505  0.5866
 5519TIP3    H138116   5.552   4.918   8.589 -1.5026  2.4171  1.5894
 5519TIP3    H238117   5.451   4.851   8.681  0.4709 -2.0052  0.8008
 5520TIP3   OH238118   0.867   4.321   2.962 -0.2547  0.0642 -0.3076
 5520TIP3    H138119   0.955   4.318   2.999  0.1321 -1.9262 -1.2172
 5520TIP3    H238120   0.826   4.240   2.992 -1.8409  1.0179  0.1889
 5521TIP3   OH238121   4.588   2.047   1.166 -0.3786  0.3131  0.1874
 5521TIP3    H138122   4.650   2.117   1.182 -1.2830  0.4942  3.6284
 5521TIP3    H238123   4.626   1.970   1.209 -1.5037 -0.1104  0.4830
 5522TIP3   OH238124   3.931   2.190   8.283 -0.2507  0.3619  0.2647
 5522TIP3    H138125   3.980   2.135   8.222  0.9789  0.9090  0.7289
 5522TIP3    H238126   3.942   2.279   8.248 -3.2026  0.2994 -1.1678
 5523TIP3   OH238127   3.398   4.524   1.150 -0.0014  0.1596  0.5409
 5523TIP3    H138128   3.490   4.546   1.161  0.0975  0.2396 -0.3698
 5523TIP3    H238129   3.362   4.598   1.101 -0.3469 -0.3004  0.1030
 5524TIP3   OH238130   6.223   4.652   0.815 -0.4866 -0.2211  0.4399
 5524TIP3    H138131   6.129   4.634   0.815 -0.4956 -0.3581 -1.4138
 5524TIP3    H238132   6.260   4.590   0.752  0.5818  0.9712 -0.1559
 5525TIP3   OH238133   3.034   5.234   0.789 -0.0764  0.1417  0.7467
 5525TIP3    H138134   3.028   5.157   0.733 -1.4891  0.4252  0.4639
 5525TIP3    H238135   3.031   5.308   0.729  0.5460  0.4378  1.0652
 5526TIP3   OH238136   1.424   0.018   7.888  0.0887  0.3047  0.0911
 5526TIP3    H138137   1.353   0.024   7.951  0.3595  1.8701  0.2745
 5526TIP3    H238138   1.486  -0.043   7.928  0.2277  1.2172  1.3078
 5527TIP3   OH238139   3.563   4.360   0.794 -0.0091 -0.5929  0.2684
 5527TIP3    H138140   3.576   4.365   0.889 -0.5391 -0.5385  0.3389
 5527TIP3    H238141   3.474   4.392   0.780 -0.4569 -1.9606 -0.1117
 5528TIP3   OH238142   3.896   2.892   1.346  0.4117 -0.0103 -0.3899
 5528TIP3    H138143   3.831   2.960   1.365  0.5853  0.1772 -0.4572
 5528TIP3    H238144   3.980   2.933   1.367  0.3684 -1.1390  2.3131
 5529TIP3   OH238145   6.763   0.215   7.400 -0.2374 -0.4356 -0.4187
 5529TIP3    H138146   6.774   0.310   7.393 -2.0295 -0.0930  0.9219
 5529TIP3    H238147   6.778   0.184   7.310  2.3260  0.8247 -0.5552
 5530TIP3   OH238148   5.032   4.641   2.082 -0.9076  0.9364 -0.2762
 5530TIP3    H138149   5.090   4.701   2.035 -1.0868 -0.0353 -1.8013
 5530TIP3    H238150   5.091   4.577   2.122 -0.8569 -0.1389 -1.9496
 5531TIP3   OH238151   2.008   2.854   2.071 -0.0470  0.4978 -0.4128
 5531TIP3    H138152   2.016   2.831   1.979  0.5703 -0.2313 -0.1881
 5531TIP3    H238153   1.914   2.864   2.085 -0.1210  0.9941 -1.2011
 5532TIP3   OH238154   3.233   6.740   3.617 -0.0806  1.0982  0.5358
 5532TIP3    H138155   3.138   6.750   3.618  0.0148  2.1431  0.3488
 5532TIP3    H238156   3.250   6.679   3.545 -0.6377  0.4586  0.9360
 5533TIP3   OH238157   3.957   4.891   0.241 -0.0444  0.9645  0.3025
 5533TIP3    H138158   3.915   4.867   0.158  0.8157  2.0314 -0.4777
 5533TIP3    H238159   4.006   4.971   0.220  3.0378 -0.6036  0.9468
 5534TIP3   OH238160   2.028   0.944   0.046  0.1063  0.1435  0.2266
 5534TIP3    H138161   2.083   1.006  -0.003  1.0925 -0.0385  1.0676
 5534TIP3    H238162   1.938   0.974   0.030  0.4914  0.9655 -0.4861
 5535TIP3   OH238163   0.086   4.138   8.580 -0.1405 -0.6207  0.8890
 5535TIP3    H138164   0.180   4.154   8.587 -0.2411  0.5780 -0.1254
 5535TIP3    H238165   0.064   4.165   8.491 -1.8868  1.6783  1.9035
 5536TIP3   OH238166   1.843   2.627   2.226 -0.1387 -0.3889  0.3420
 5536TIP3    H138167   1.798   2.703   2.187  0.7873 -0.2477 -0.4948
 5536TIP3    H238168   1.866   2.656   2.314 -1.2473 -0.2979  0.6260
 5537TIP3   OH238169   1.656   4.155   1.214  0.4325  0.5923  0.2568
 5537TIP3    H138170   1.564   4.179   1.224  0.8403  1.7891  1.3722
 5537TIP3    H238171   1.703   4.212   1.276  1.8876 -0.2207 -0.0512
 5538TIP3   OH238172   5.777   2.638   0.725 -0.0238  0.8695 -0.1357
 5538TIP3    H138173   5.744   2.651   0.636  0.7429  0.2619 -0.5231
 5538TIP3    H238174   5.871   2.625   0.714  0.1015  0.9469  0.7840
 5539TIP3   OH238175   5.849   2.550   8.557 -0.5125 -0.0834 -0.1856
 5539TIP3    H138176   5.890   2.617   8.503  0.9865 -1.2028 -0.5139
 5539TIP3    H238177   5.921   2.490   8.580 -1.2161 -0.0694  2.4266
 5540TIP3   OH238178   4.406   0.275   2.044  0.3541 -0.3066 -0.4985
 5540TIP3    H138179   4.478   0.212   2.036  0.8793  0.2932 -0.4942
 5540TIP3    H238180   4.413   0.309   2.133 -2.2692 -3.0320  0.9672
 5541TIP3   OH238181   1.070   3.346   0.623  0.0537 -0.2312  0.9229
 5541TIP3    H138182   1.073   3.442   0.629 -1.1739 -0.0305 -0.9433
 5541TIP3    H238183   1.082   3.317   0.713  1.5254  1.6324  1.3995
 5542TIP3   OH238184   0.772   5.458   1.046  0.5070 -0.2213  0.0251
 5542TIP3    H138185   0.823   5.390   1.091 -0.9979 -1.2848  0.2029
 5542TIP3    H238186   0.819   5.539   1.064  0.5824 -0.7553  2.6111
 5543TIP3   OH238187   2.549   5.116   0.580 -0.3730 -0.0669 -0.3523
 5543TIP3    H138188   2.599   5.101   0.661 -1.0566  1.0253  0.2964
 5543TIP3    H238189   2.496   5.193   0.599 -1.7279 -0.7261 -1.2978
 5544TIP3   OH238190   5.634   0.938   2.437  0.3211 -0.5475 -0.0298
 5544TIP3    H138191   5.604   0.853   2.470  0.4778 -1.7514 -2.6943
 5544TIP3    H238192   5.555   0.991   2.431  0.3329 -0.0876  2.4743
 5545TIP3   OH238193   6.777   3.395   7.435  0.6039  0.0711  0.2859
 5545TIP3    H138194   6.730   3.444   7.503  0.1249 -0.9764  0.7286
 5545TIP3    H238195   6.744   3.430   7.353  1.5219  1.6757  0.5630
 5546TIP3   OH238196   1.309   4.976   8.291  0.0264 -0.2069 -0.0329
 5546TIP3    H138197   1.340   4.933   8.212  0.3617  0.9137 -0.5309
 5546TIP3    H238198   1.371   4.949   8.359  1.4093  0.9648 -0.7426
 5547TIP3   OH238199   3.083   0.508   8.101 -0.1325  0.0575  0.0479
 5547TIP3    H138200   3.080   0.414   8.114 -0.9636 -0.1881 -1.6031
 5547TIP3    H238201   3.028   0.524   8.024  0.7384  1.7698 -0.2970
 5548TIP3   OH238202   3.800   2.577   2.964  0.5031  0.7302 -0.1819
 5548TIP3    H138203   3.778   2.513   3.032 -0.1684  0.2083 -0.8832
 5548TIP3    H238204   3.808   2.660   3.011  2.3031  0.0190  0.9050
 5549TIP3   OH238205   1.016   2.331   0.716 -0.5335  0.3865 -0.3713
 5549TIP3    H138206   0.950   2.275   0.757  0.2475  0.3211  0.8418
 5549TIP3    H238207   1.063   2.371   0.789  0.7185  0.5089 -1.2101
 5550TIP3   OH238208   4.078   6.256   2.807 -0.5759 -0.3256  0.5564
 5550TIP3    H138209   4.077   6.174   2.856  0.1144 -0.8164 -0.2274
 5550TIP3    H238210   4.020   6.315   2.857 -0.3140 -0.9725  1.6513
 5551TIP3   OH238211   5.374   0.992   2.104  0.1722 -0.0161  0.4947
 5551TIP3    H138212   5.409   0.932   2.170  2.1378  0.3867 -0.0989
 5551TIP3    H238213   5.288   0.956   2.082  0.7489 -1.8962  1.0888
 5552TIP3   OH238214   2.204   1.522   2.858  0.1941  0.0112  0.2666
 5552TIP3    H138215   2.287   1.517   2.811  0.9611 -0.7979  1.6204
 5552TIP3    H238216   2.186   1.432   2.885 -1.0017  0.2160  0.2099
 5553TIP3   OH238217   2.314   0.985   8.551 -0.7781 -0.0165  0.9258
 5553TIP3    H138218   2.309   1.026   8.465 -0.4616 -0.5389  0.6493
 5553TIP3    H238219   2.363   0.904   8.536  0.8813  0.7565  1.9091
 5554TIP3   OH238220   1.564   6.645   1.601 -0.1477  0.0924 -0.2074
 5554TIP3    H138221   1.555   6.565   1.550 -0.9502  0.5689 -0.8339
 5554TIP3    H238222   1.658   6.655   1.614 -0.0773 -1.5678  0.8904
 5555TIP3   OH238223   1.566   3.519   1.446 -0.4895 -0.4634 -0.0537
 5555TIP3    H138224   1.648   3.561   1.420 -0.4077  0.3661  1.4707
 5555TIP3    H238225   1.590   3.428   1.463 -0.3817 -0.8283 -1.9147
 5556TIP3   OH238226   1.673   4.994   1.888  0.4966  0.0643  0.3822
 5556TIP3    H138227   1.596   4.979   1.944  0.6762 -1.6204  0.2443
 5556TIP3    H238228   1.641   4.979   1.799  0.6164  1.0016  0.1729
 5557TIP3   OH238229   4.027   5.875   0.331 -0.0119  0.2179  0.7296
 5557TIP3    H138230   4.122   5.878   0.341  0.0428 -1.1962  0.9743
 5557TIP3    H238231   3.997   5.834   0.412 -0.6827 -0.6867  0.0444
 5558TIP3   OH238232   2.216   5.134   1.493  0.5025  0.4493  0.2896
 5558TIP3    H138233   2.289   5.131   1.432  1.1530  1.9238  0.9526
 5558TIP3    H238234   2.191   5.226   1.496 -2.5433 -0.2154 -1.2142
 5559TIP3   OH238235   4.173   3.430   2.856  0.5625  0.1041 -0.0886
 5559TIP3    H138236   4.216   3.346   2.873 -0.3987 -0.4253 -0.2177
 5559TIP3    H238237   4.244   3.488   2.828  1.1652 -0.7897 -0.4452
 5560TIP3   OH238238   0.116   1.315   1.391  0.3482 -0.7258 -0.0455
 5560TIP3    H138239   0.062   1.236   1.401  0.5852 -1.0601 -1.2787
 5560TIP3    H238240   0.146   1.335   1.480  0.2049 -1.9668  0.2977
 5561TIP3   OH238241   5.666   0.763   1.992 -0.0555 -0.1103 -0.1143
 5561TIP3    H138242   5.714   0.838   2.028  0.0590 -0.7230  1.0488
 5561TIP3    H238243   5.575   0.780   2.015 -0.3138  0.6160 -1.5583
 5562TIP3   OH238244   3.715   5.024   1.156 -0.0764  0.2688 -0.3062
 5562TIP3    H138245   3.798   5.069   1.170  1.0845 -1.4020 -1.4365
 5562TIP3    H238246   3.700   5.030   1.062 -0.4208 -0.7907 -0.3306
 5563TIP3   OH238247   0.423   4.647   1.566  0.0437  0.2111  0.3881
 5563TIP3    H138248   0.517   4.630   1.554  0.1532  1.0049  0.0029
 5563TIP3    H238249   0.415   4.673   1.658  0.2685  0.5310  0.3192
 5564TIP3   OH238250   2.291   4.668   2.356 -0.4738 -0.6791 -0.8346
 5564TIP3    H138251   2.235   4.696   2.283 -1.1159  0.1546 -0.0365
 5564TIP3    H238252   2.348   4.743   2.373 -1.8638  0.0179  0.9875
 5565TIP3   OH238253   4.487   2.596   1.854 -0.5871  0.4103  0.1085
 5565TIP3    H138254   4.533   2.666   1.807 -0.4246 -1.7656 -3.3162
 5565TIP3    H238255   4.397   2.628   1.862 -0.1997  1.5939 -0.0723
 5566TIP3   OH238256   4.876   5.330   8.098 -0.1668  0.0565 -0.3204
 5566TIP3    H138257   4.797   5.377   8.072 -0.3727 -1.3566 -2.4583
 5566TIP3    H238258   4.925   5.318   8.017  0.5852 -2.0624  0.3752
 5567TIP3   OH238259   2.506   4.040   2.350 -0.5167  0.2706 -0.3056
 5567TIP3    H138260   2.485   3.973   2.415 -1.4904 -0.4124 -1.2812
 5567TIP3    H238261   2.591   4.014   2.316 -0.9168 -0.5400 -0.7257
 5568TIP3   OH238262   2.699   2.693   2.087 -0.5343 -0.3516  0.1388
 5568TIP3    H138263   2.726   2.778   2.123  1.1005 -1.0040  0.5628
 5568TIP3    H238264   2.656   2.649   2.160  0.3485 -0.6138  0.5197
 5569TIP3   OH238265   5.175   6.422   7.613 -0.1873 -0.0221 -0.0433
 5569TIP3    H138266   5.265   6.394   7.598  0.4147  1.7466 -0.0095
 5569TIP3    H238267   5.172   6.512   7.580 -1.9220 -0.0081  0.0477
 5570TIP3   OH238268   4.450   4.970   1.729 -0.4664  0.4769  0.4117
 5570TIP3    H138269   4.499   4.986   1.810  1.7471 -2.5857 -0.1085
 5570TIP3    H238270   4.491   5.028   1.665  0.3104  0.2976  0.7265
 5571TIP3   OH238271   3.708   3.485   0.004  0.8120  0.1453  0.1504
 5571TIP3    H138272   3.641   3.548  -0.023 -0.5451  0.1966  3.1461
 5571TIP3    H238273   3.759   3.467  -0.075 -0.6265  2.7002 -1.4829
 5572TIP3   OH238274   6.214   1.681   0.983  0.2696 -0.4175  0.5367
 5572TIP3    H138275   6.219   1.671   0.888  0.3882  1.2129  0.3433
 5572TIP3    H238276   6.123   1.705   1.001 -0.8999 -4.6325  1.3329
 5573TIP3   OH238277   3.660   1.117   1.383  0.5549  0.1886 -0.0800
 5573TIP3    H138278   3.697   1.199   1.416  0.9343  1.0385 -2.4046
 5573TIP3    H238279   3.636   1.068   1.462  1.4635  1.9904  1.4053
 5574TIP3   OH238280   4.466   5.777   0.267  0.1107  0.4745 -0.2978
 5574TIP3    H138281   4.401   5.775   0.198  0.3617  3.1323 -0.7345
 5574TIP3    H238282   4.416   5.793   0.347 -0.1031 -1.7743  0.0640
 5575TIP3   OH238283   2.108   1.601   0.427  0.1559  0.3326 -0.1947
 5575TIP3    H138284   2.111   1.517   0.472  0.7819  0.3258 -0.2452
 5575TIP3    H238285   2.020   1.635   0.446 -0.7967 -1.1613 -1.7033
 5576TIP3   OH238286   5.192   5.453   8.475 -0.0348 -0.3704  1.0022
 5576TIP3    H138287   5.223   5.370   8.440 -0.5667  0.5714 -1.9915
 5576TIP3    H238288   5.098   5.441   8.489 -0.2261 -0.1149 -0.0183
 5577TIP3   OH238289   4.020   4.246   8.667 -0.8331  1.0130  0.0484
 5577TIP3    H138290   4.021   4.158   8.630  2.1746  0.9028  0.1509
 5577TIP3    H238291   3.948   4.290   8.622 -2.1679 -1.3370 -0.2935
 5578TIP3   OH238292   3.464   6.472   2.536 -0.0313  0.0537 -1.0120
 5578TIP3    H138293   3.480   6.500   2.626  0.2720  1.1006 -1.3815
 5578TIP3    H238294   3.517   6.393   2.525  1.8734  1.2787 -1.0063
 5579TIP3   OH238295   4.435   4.480   7.416 -0.4050 -0.7397  0.3456
 5579TIP3    H138296   4.496   4.500   7.487 -0.3388 -1.1945  0.4140
 5579TIP3    H238297   4.484   4.499   7.336  0.0560 -1.7391  0.3801
 5580TIP3   OH238298   1.673   2.138   7.614 -0.5207  0.5531  0.2986
 5580TIP3    H138299   1.760   2.101   7.629 -1.0737 -1.2706 -0.6428
 5580TIP3    H238300   1.676   2.172   7.524 -1.2784 -1.2270 -0.4517
 5581TIP3   OH238301   0.692   4.772   0.626 -1.1382  0.2389 -0.1686
 5581TIP3    H138302   0.753   4.741   0.560  0.0025  0.2576  0.8457
 5581TIP3    H238303   0.668   4.860   0.597  1.1734  1.1866  0.6047
 5582TIP3   OH238304   6.216   0.729   8.707  0.0294  0.0379 -0.3539
 5582TIP3    H138305   6.123   0.750   8.716  0.0195  0.6869 -1.6163
 5582TIP3    H238306   6.220   0.673   8.629  0.5688 -1.0558  0.4347
 5583TIP3   OH238307   1.316   6.347   0.553 -0.2551 -0.0475 -0.3534
 5583TIP3    H138308   1.349   6.319   0.468  0.2432 -0.6132  0.0238
 5583TIP3    H238309   1.377   6.310   0.617 -0.0062  1.2519  0.2011
 5584TIP3   OH238310   0.690   0.016   2.331 -0.1221  0.4445  0.5050
 5584TIP3    H138311   0.770  -0.037   2.324 -0.4021 -0.0793  1.1378
 5584TIP3    H238312   0.664   0.033   2.241  1.4608  1.7763  0.2625
 5585TIP3   OH238313   6.734   0.873   2.894  0.1277 -0.2967  0.6502
 5585TIP3    H138314   6.735   0.829   2.979 -0.6784  1.0298  1.3780
 5585TIP3    H238315   6.826   0.876   2.868  0.5709  0.4932  2.1598
 5586TIP3   OH238316   6.041   5.338   2.008 -0.3254 -0.5392  0.1433
 5586TIP3    H138317   6.091   5.418   1.989 -0.0674 -1.0641 -1.4768
 5586TIP3    H238318   6.108   5.272   2.026 -0.4868 -0.7871 -0.1604
 5587TIP3   OH238319   1.956   0.667   0.443 -0.2058  0.3599 -0.4006
 5587TIP3    H138320   1.947   0.575   0.417  0.3960  0.0230  0.5264
 5587TIP3    H238321   1.951   0.715   0.361 -0.4006 -0.5123 -0.9189
 5588TIP3   OH238322   2.568   2.256   3.198 -0.0701 -0.9680  0.5489
 5588TIP3    H138323   2.476   2.284   3.192  1.1311  3.3920 -2.3526
 5588TIP3    H238324   2.614   2.333   3.232  3.1257 -0.5375 -3.8493
 5589TIP3   OH238325   0.516   3.110   2.227 -0.1456  0.1023 -0.3312
 5589TIP3    H138326   0.554   3.038   2.177 -2.7659 -0.9309 -1.0285
 5589TIP3    H238327   0.552   3.189   2.187  1.5390 -0.7748 -0.6188
 5590TIP3   OH238328   5.224   0.539   2.346  0.2533 -0.0312 -0.2464
 5590TIP3    H138329   5.151   0.579   2.299 -1.4107 -1.1825  1.2459
 5590TIP3    H238330   5.284   0.511   2.277 -0.8418  0.6818 -1.5282
 5591TIP3   OH238331   4.925   0.389   0.525 -0.1523 -0.3048  0.1464
 5591TIP3    H138332   4.835   0.385   0.557  0.2374 -0.2438  1.2839
 5591TIP3    H238333   4.978   0.352   0.595  0.8008  0.4795 -0.1315
 5592TIP3   OH238334   0.976   6.311   0.177 -0.3531  0.2324 -0.6360
 5592TIP3    H138335   1.048   6.375   0.171  1.2557 -1.3425  0.7969
 5592TIP3    H238336   0.897   6.365   0.180  0.7811  2.0619 -1.7331
 5593TIP3   OH238337   3.317   5.598   0.773 -0.6629  0.1029  0.1650
 5593TIP3    H138338   3.330   5.642   0.857 -0.6972  0.2240  0.1073
 5593TIP3    H238339   3.224   5.613   0.753 -1.1171 -1.3827  0.9423
 5594TIP3   OH238340   6.222   4.643   2.552  0.6817 -0.1524  0.1680
 5594TIP3    H138341   6.301   4.672   2.597  1.5699 -1.7486 -0.3222
 5594TIP3    H238342   6.235   4.550   2.537 -1.0756 -0.3412 -0.3874
 5595TIP3   OH238343   3.022   6.429   2.324 -0.1434 -0.0959  1.0329
 5595TIP3    H138344   3.086   6.364   2.353  1.1569  1.0008  0.7211
 5595TIP3    H238345   3.026   6.425   2.229  0.6014  1.0109  0.9932
 5596TIP3   OH238346   3.453   3.178   8.184 -0.0098 -0.1317 -0.0004
 5596TIP3    H138347   3.472   3.185   8.091  1.1383  1.5717  0.3034
 5596TIP3    H238348   3.538   3.163   8.225 -0.4295 -0.3715  0.8033
 5597TIP3   OH238349   5.881   1.311   8.041  0.1395  0.5271  0.1959
 5597TIP3    H138350   5.849   1.280   8.126 -1.0933 -0.0227 -0.4436
 5597TIP3    H238351   5.814   1.284   7.979  1.1358  0.7138 -0.9997
 5598TIP3   OH238352   3.153   3.781   2.207  0.2837  0.0379  0.1781
 5598TIP3    H138353   3.240   3.807   2.175  0.8673 -0.6977  1.0955
 5598TIP3    H238354   3.142   3.830   2.289  0.1515 -0.4139  0.4335
 5599TIP3   OH238355   6.589   3.363   1.285 -0.0619 -0.3866  0.2379
 5599TIP3    H138356   6.619   3.309   1.357 -0.8872 -0.1859  0.7533
 5599TIP3    H238357   6.609   3.313   1.206 -0.1983 -1.1281  0.6739
 5600TIP3   OH238358   1.254   1.550   8.227 -0.7303  0.1487  0.3727
 5600TIP3    H138359   1.269   1.645   8.226  0.4990 -0.0065  1.1564
 5600TIP3    H238360   1.165   1.539   8.194 -0.3554  1.4625 -1.1678
 5601TIP3   OH238361   3.954   3.227   1.414 -0.2296  0.4912 -0.6922
 5601TIP3    H138362   3.911   3.184   1.340  0.7641 -0.8888 -0.5183
 5601TIP3    H238363   3.890   3.224   1.485  0.7220 -3.4657  0.2300
 5602TIP3   OH238364   0.370   0.006   1.577  0.0023 -0.2357 -0.0302
 5602TIP3    H138365   0.461  -0.022   1.561 -0.1732 -0.9112  0.1248
 5602TIP3    H238366   0.324  -0.017   1.497  0.2461  1.4298 -0.6911
 5603TIP3   OH238367   3.317   2.387   1.958 -0.1879 -0.4291 -0.5504
 5603TIP3    H138368   3.228   2.412   1.984 -0.1523 -0.2918 -0.5643
 5603TIP3    H238369   3.310   2.374   1.863 -0.6707 -2.3406 -0.3028
 5604TIP3   OH238370   4.265   0.385   0.365  0.0589  0.3577 -0.0530
 5604TIP3    H138371   4.282   0.305   0.315 -0.6576  0.1577  0.0269
 5604TIP3    H238372   4.321   0.376   0.442 -1.5883 -1.0879  1.0431
 5605TIP3   OH238373   3.250   4.819   2.889  0.2484  0.3032  0.4509
 5605TIP3    H138374   3.260   4.893   2.830  0.2067 -0.3436 -0.3859
 5605TIP3    H238375   3.254   4.857   2.977 -1.2686  1.4940  0.0442
 5606TIP3   OH238376   5.892   6.363   8.243  0.4473 -0.1295  0.3705
 5606TIP3    H138377   5.809   6.395   8.206  0.5637 -1.6053 -1.3273
 5606TIP3    H238378   5.927   6.437   8.291 -1.7490  0.6054  0.9658
 5607TIP3   OH238379   5.269   2.335   2.260  0.3843 -0.1090 -0.5878
 5607TIP3    H138380   5.185   2.381   2.268  1.7969  2.4689  0.8554
 5607TIP3    H238381   5.304   2.364   2.176  1.0106  1.1307  0.0605
 5608TIP3   OH238382   3.024   6.146   7.286 -0.0298  0.7817 -0.0550
 5608TIP3    H138383   3.064   6.158   7.372  2.3335  1.7211 -1.1891
 5608TIP3    H238384   3.085   6.188   7.225 -1.1404 -0.6544 -2.3046
 5609TIP3   OH238385   3.158   3.436   1.853  0.5237 -0.1894 -0.4925
 5609TIP3    H138386   3.093   3.465   1.789  0.7384  1.9530  0.1858
 5609TIP3    H238387   3.236   3.488   1.833  0.6953  0.2933  1.2947
 5610TIP3   OH238388   4.965   1.019   2.161  0.0215 -0.0535 -1.0734
 5610TIP3    H138389   5.002   1.095   2.206  1.1939  0.5400 -2.9416
 5610TIP3    H238390   4.880   1.049   2.129 -0.5841 -0.3160  0.2066
 5611TIP3   OH238391   1.040   4.831   2.481 -0.0659 -0.5974 -0.2506
 5611TIP3    H138392   1.131   4.854   2.462  0.0338 -0.4817  0.3714
 5611TIP3    H238393   1.032   4.739   2.455  0.8849 -1.3497  1.9070
 5612TIP3   OH238394   2.465   3.966   7.135 -0.5392 -0.3241 -0.1500
 5612TIP3    H138395   2.491   3.877   7.110 -0.6108 -0.6221  0.7866
 5612TIP3    H238396   2.532   3.994   7.197 -0.2263  0.4915 -0.8413
 5613TIP3   OH238397   5.761   0.096   7.905  0.0422  0.1566  0.1227
 5613TIP3    H138398   5.669   0.073   7.918 -1.0571  2.9843 -1.6350
 5613TIP3    H238399   5.763   0.141   7.821  3.7149 -2.7372 -1.6149
 5614TIP3   OH238400   3.323   5.862   2.825 -0.0345 -0.2871  0.1183
 5614TIP3    H138401   3.367   5.799   2.882 -1.3328  1.2450  3.0843
 5614TIP3    H238402   3.232   5.863   2.856 -0.4699  1.7082 -1.0324
 5615TIP3   OH238403   3.763   2.210   2.124 -0.3169 -0.1476 -0.0626
 5615TIP3    H138404   3.798   2.155   2.194 -0.6661  1.6578  1.6101
 5615TIP3    H238405   3.676   2.235   2.155 -0.9395 -0.2027 -1.6846
 5616TIP3   OH238406   3.811   1.684   1.264  0.0832  0.2378 -0.5455
 5616TIP3    H138407   3.789   1.604   1.216 -0.9258  0.9428 -1.3167
 5616TIP3    H238408   3.906   1.688   1.261  0.1867 -1.1300 -0.1387
 5617TIP3   OH238409   3.648   3.220   7.325 -0.1063 -0.1194 -0.2259
 5617TIP3    H138410   3.677   3.217   7.416 -0.3756  2.2759 -0.0094
 5617TIP3    H238411   3.724   3.190   7.275  0.2565 -0.8552  0.7272
 5618TIP3   OH238412   4.105   1.662   0.406 -0.3732  0.3160 -0.9093
 5618TIP3    H138413   4.111   1.729   0.337 -0.9699  0.9623 -0.3426
 5618TIP3    H238414   4.026   1.684   0.455 -0.6235 -0.8600 -0.7542
 5619TIP3   OH238415   3.696   4.138   1.688  0.3336 -0.1425  0.1146
 5619TIP3    H138416   3.772   4.110   1.739  0.7109  1.2287  0.3486
 5619TIP3    H238417   3.632   4.165   1.754  0.1814  0.0444 -0.1092
 5620TIP3   OH238418   5.285   0.671   0.498 -0.2334 -0.4231  0.3948
 5620TIP3    H138419   5.331   0.754   0.485 -0.1667 -0.5119  0.0619
 5620TIP3    H238420   5.200   0.684   0.457 -0.7825 -0.0171  1.6162
 5621TIP3   OH238421   6.080   4.358   2.732 -0.9987  0.2289 -0.4073
 5621TIP3    H138422   6.041   4.387   2.814 -1.2966 -0.3873 -0.3284
 5621TIP3    H238423   6.028   4.402   2.664 -1.0025  0.4292 -0.2735
 5622TIP3   OH238424   4.286   5.909   3.122  0.4225  0.2251  0.3019
 5622TIP3    H138425   4.334   5.885   3.201 -0.4570 -0.3998  0.6710
 5622TIP3    H238426   4.315   5.846   3.056  0.3721  0.0677  0.4299
 5623TIP3   OH238427   3.232   0.344   2.654 -0.1546  0.4516  0.3973
 5623TIP3    H138428   3.190   0.285   2.716  0.4443 -0.2679  0.1294
 5623TIP3    H238429   3.174   0.420   2.650 -1.6623 -0.6866 -0.2867
 5624TIP3   OH238430   0.621   6.716   1.501 -0.1037 -0.0341  0.2514
 5624TIP3    H138431   0.608   6.627   1.468 -0.3949  0.7812 -1.9546
 5624TIP3    H238432   0.683   6.706   1.573  2.1253 -1.7486 -1.7626
 5625TIP3   OH238433   1.345   1.125   0.895 -0.0460 -0.4127 -0.0017
 5625TIP3    H138434   1.283   1.195   0.875  1.0838  0.1503 -1.7616
 5625TIP3    H238435   1.350   1.124   0.991 -0.3893  1.6546  0.0852
 5626TIP3   OH238436   0.588   5.831   3.650  0.7146 -0.1420 -0.5184
 5626TIP3    H138437   0.626   5.801   3.568  0.8987 -0.7355 -0.2199
 5626TIP3    H238438   0.628   5.776   3.717  0.1432 -0.0467 -0.0892
 5627TIP3   OH238439   1.956   0.329   0.463 -0.2618  0.2772 -0.0245
 5627TIP3    H138440   1.988   0.382   0.390 -0.4480  1.6841  0.8906
 5627TIP3    H238441   2.035   0.286   0.496 -0.1753 -0.3874 -1.0266
 5628TIP3   OH238442   2.608   0.432   1.192  0.0193  0.7015 -0.1190
 5628TIP3    H138443   2.593   0.434   1.098 -0.8362  0.2388 -0.0000
 5628TIP3    H238444   2.589   0.521   1.222  0.2856  0.8461 -0.3766
 5629TIP3   OH238445   6.382   2.681   8.306  0.1390 -0.4167 -0.2491
 5629TIP3    H138446   6.416   2.769   8.315  0.7165 -0.7249  0.8434
 5629TIP3    H238447   6.364   2.670   8.213  2.1324  0.0965 -0.7378
 5630TIP3   OH238448   0.805   3.941   1.801 -0.9076  0.5057 -0.1212
 5630TIP3    H138449   0.774   3.851   1.792  2.1678 -0.6284 -0.5478
 5630TIP3    H238450   0.834   3.948   1.892 -1.7247  1.3044  0.0928
 5631TIP3   OH238451   6.199   0.448   2.652  0.1208  0.1507  0.4437
 5631TIP3    H138452   6.180   0.420   2.563 -1.1926  1.4102  0.2904
 5631TIP3    H238453   6.194   0.368   2.705 -0.6529 -0.3473 -0.3674
 5632TIP3   OH238454   1.971   5.362   0.086  0.0914  0.2165 -0.5206
 5632TIP3    H138455   2.040   5.369   0.152  0.0088  1.9123 -0.5735
 5632TIP3    H238456   1.954   5.268   0.079  0.3527 -0.0322  1.5827
 5633TIP3   OH238457   3.842   1.243   8.582  0.3176 -0.2816  0.6302
 5633TIP3    H138458   3.881   1.323   8.547 -1.4647  0.5111  0.3593
 5633TIP3    H238459   3.829   1.187   8.505  0.4281 -0.3371  0.6510
 5634TIP3   OH238460   2.131   0.608   2.246 -0.7815 -0.1734  0.1891
 5634TIP3    H138461   2.069   0.536   2.261 -1.3683  0.2749 -0.0226
 5634TIP3    H238462   2.098   0.679   2.301 -0.9460  0.3410 -0.5573
 5635TIP3   OH238463   5.658   2.896   0.090 -0.4867 -0.1079  0.2889
 5635TIP3    H138464   5.618   2.819   0.132  1.7887 -1.8651 -0.5187
 5635TIP3    H238465   5.606   2.910   0.011 -1.4997 -0.2116  0.9183
 5636TIP3   OH238466   3.677   4.243   2.267 -0.4848 -0.7429 -0.1598
 5636TIP3    H138467   3.699   4.291   2.347 -2.4178  1.3495 -0.7717
 5636TIP3    H238468   3.582   4.236   2.268 -0.6657  0.1361 -2.6595
 5637TIP3   OH238469   0.114   4.822   8.726  0.3483  0.8681  0.3452
 5637TIP3    H138470   0.125   4.881   8.651  0.2229 -0.1650 -0.5121
 5637TIP3    H238471   0.200   4.820   8.768  0.1041  2.4159  0.9853
 5638TIP3   OH238472   3.815   5.267   2.267  0.5220 -0.1805 -0.4124
 5638TIP3    H138473   3.857   5.347   2.236  0.1097  0.8520  1.5413
 5638TIP3    H238474   3.721   5.287   2.263  0.3249 -1.2376 -1.5696
 5639TIP3   OH238475   2.622   5.280   0.968 -0.5588  0.2512 -0.1887
 5639TIP3    H138476   2.655   5.210   0.911  0.0067  0.5433 -0.2290
 5639TIP3    H238477   2.527   5.276   0.958 -0.5800 -0.9855  0.3653
 5640TIP3   OH238478   6.354   6.402   1.512 -0.0687  0.1436 -0.3426
 5640TIP3    H138479   6.262   6.399   1.488 -0.5844 -0.9018  1.5589
 5640TIP3    H238480   6.375   6.495   1.518 -1.2410  0.3896  0.0375
 5641TIP3   OH238481   4.004   4.984   0.518  0.0089  0.0564  0.2430
 5641TIP3    H138482   4.018   4.961   0.427 -0.4302  0.3024  0.1127
 5641TIP3    H238483   4.070   5.050   0.537  1.0381 -1.0066  0.5128
 5642TIP3   OH238484   5.561   4.169   2.458 -0.2030 -0.2900 -0.2635
 5642TIP3    H138485   5.476   4.126   2.452  0.1266 -1.0798  0.4460
 5642TIP3    H238486   5.562   4.208   2.545  0.0805 -0.1238 -0.3414
 5643TIP3   OH238487   3.809   3.729   3.097 -0.0221 -0.5669  0.0210
 5643TIP3    H138488   3.888   3.740   3.044  0.2998  1.8330  0.8529
 5643TIP3    H238489   3.827   3.655   3.154  2.8790  1.5227  2.1222
 5644TIP3   OH238490   2.406   2.856   1.123  0.4241  0.7081  0.6594
 5644TIP3    H138491   2.412   2.761   1.119  0.9922  0.6278  2.6163
 5644TIP3    H238492   2.472   2.887   1.061  2.2149 -0.2142  2.0041
 5645TIP3   OH238493   2.461   1.534   1.691 -0.4143 -0.3921 -0.2575
 5645TIP3    H138494   2.413   1.454   1.666 -2.9646  0.5223  1.3979
 5645TIP3    H238495   2.424   1.602   1.635  0.7372 -0.0653 -0.6526
 5646TIP3   OH238496   1.101   4.103   0.243 -0.2809  0.6081  0.1817
 5646TIP3    H138497   1.023   4.073   0.289  0.2648 -0.9316  0.1450
 5646TIP3    H238498   1.069   4.171   0.184 -1.3194  1.1586  1.3278
 5647TIP3   OH238499   3.410   2.461   1.013  0.1230 -0.3090 -0.3998
 5647TIP3    H138500   3.388   2.554   1.008 -0.8535 -0.5260 -0.3420
 5647TIP3    H238501   3.425   2.445   1.107 -1.2119 -0.5253 -0.2072
 5648TIP3   OH238502   4.388   1.804   8.085  0.3028 -0.4395 -0.5629
 5648TIP3    H138503   4.365   1.787   8.176 -1.6283  1.3619 -0.6593
 5648TIP3    H238504   4.429   1.722   8.056 -0.9010 -1.8062  1.3144
 5649TIP3   OH238505   4.043   3.117   1.116 -0.2062 -0.1819  0.7519
 5649TIP3    H138506   4.119   3.136   1.171 -0.4869  0.7375  0.8287
 5649TIP3    H238507   4.078   3.063   1.044 -0.0769 -2.7284  2.5728
 5650TIP3   OH238508   1.612   6.117   0.078 -0.4529  0.0547 -0.0066
 5650TIP3    H138509   1.615   6.134  -0.016 -0.7226 -1.7714 -0.3926
 5650TIP3    H238510   1.551   6.043   0.086  0.5671 -0.6523  1.4547
 5651TIP3   OH238511   2.341   6.017   0.224  0.2012  0.1676 -0.2632
 5651TIP3    H138512   2.406   5.995   0.157  0.7443 -0.4560  0.4563
 5651TIP3    H238513   2.291   5.937   0.236 -1.4984  0.9470 -1.6325
 5652TIP3   OH238514   4.276   1.521   0.602 -0.0886 -0.2585 -0.3807
 5652TIP3    H138515   4.240   1.600   0.561 -1.8456 -0.1805  1.1918
 5652TIP3    H238516   4.324   1.553   0.678 -0.5005 -0.6739  0.0583
 5653TIP3   OH238517   3.612   4.647   2.753  0.0428 -0.5496  0.0948
 5653TIP3    H138518   3.676   4.582   2.723 -0.4062 -1.0217  0.1406
 5653TIP3    H238519   3.626   4.653   2.847 -1.2743 -2.1346  0.4466
 5654TIP3   OH238520   3.537   3.839   2.664  0.1699  0.4565 -0.0120
 5654TIP3    H138521   3.480   3.773   2.702  0.9213 -0.6042 -0.6797
 5654TIP3    H238522   3.538   3.910   2.728 -0.4270 -0.2878  0.8431
 5655TIP3   OH238523   4.962   2.152   0.104  0.1567 -0.4347 -0.1158
 5655TIP3    H138524   4.914   2.235   0.098  0.3889 -0.3107 -0.2975
 5655TIP3    H238525   5.014   2.160   0.184 -0.0301 -0.5162  0.0126
 5656TIP3   OH238526   6.099   0.605   0.548 -0.4515  0.7860  0.3116
 5656TIP3    H138527   6.121   0.527   0.598 -0.7014 -1.4061 -2.7571
 5656TIP3    H238528   6.005   0.597   0.530 -0.5311  1.9156  0.1281
 5657TIP3   OH238529   0.381   0.599   1.672 -0.0334  0.0566 -0.0202
 5657TIP3    H138530   0.390   0.651   1.592  1.6278  2.8154  1.7986
 5657TIP3    H238531   0.459   0.619   1.723 -2.0153  0.1652  3.2592
 5658TIP3   OH238532   0.682   1.655   0.988 -0.1222 -0.0777 -0.2330
 5658TIP3    H138533   0.620   1.649   0.915 -1.2265  1.9942  0.4518
 5658TIP3    H238534   0.669   1.573   1.037 -2.0615  0.1215 -0.3326
 5659TIP3   OH238535   5.124   0.175   2.828  0.2541  0.3223 -0.2209
 5659TIP3    H138536   5.047   0.133   2.790 -1.0019 -0.0770  2.5503
 5659TIP3    H238537   5.122   0.264   2.793 -0.4015 -0.1989 -1.5919
 5660TIP3   OH238538   3.524   6.802   2.678 -0.1908  0.6912 -0.0197
 5660TIP3    H138539   3.608   6.833   2.644  1.3805 -1.3134  1.7159
 5660TIP3    H238540   3.537   6.798   2.773 -1.8043 -0.8699  0.1889
 5661TIP3   OH238541   1.295   1.868   7.513  0.3903 -0.0675  0.0214
 5661TIP3    H138542   1.224   1.927   7.487 -0.4702 -0.1023  2.0845
 5661TIP3    H238543   1.259   1.780   7.499  0.9496 -0.1082 -1.2217
 5662TIP3   OH238544   4.897   0.829   2.757 -0.6149 -0.3656  0.2685
 5662TIP3    H138545   4.967   0.834   2.692 -0.6343  4.1280  0.3365
 5662TIP3    H238546   4.943   0.818   2.840 -0.3028 -1.3940 -0.0240
 5663TIP3   OH238547   3.683   2.341   3.167  0.1044  0.1471 -0.5534
 5663TIP3    H138548   3.591   2.333   3.189 -0.3632 -0.6650 -2.5409
 5663TIP3    H238549   3.696   2.277   3.097  2.5244 -0.7915  0.6339
 5664TIP3   OH238550   0.918   5.870   2.339 -0.3530 -0.3787  0.2269
 5664TIP3    H138551   0.913   5.793   2.283 -0.7750 -0.6182  0.5808
 5664TIP3    H238552   1.009   5.898   2.334 -0.2342 -0.7987 -0.0394
 5665TIP3   OH238553   6.498   3.509   7.911  0.1638 -0.4335  0.5040
 5665TIP3    H138554   6.581   3.471   7.885  0.3516 -0.7425  1.5179
 5665TIP3    H238555   6.496   3.594   7.867  0.1153 -1.2239 -1.1031
 5666TIP3   OH238556   0.602   2.490   8.546 -0.1745 -0.0798  0.0218
 5666TIP3    H138557   0.531   2.552   8.527 -0.7511 -0.1601  1.6975
 5666TIP3    H238558   0.581   2.457   8.634  1.5502 -0.6711  0.2398
 5667TIP3   OH238559   3.522   5.601   1.431 -0.2597 -0.3933  0.5118
 5667TIP3    H138560   3.486   5.567   1.513  0.3661  1.8420  1.7748
 5667TIP3    H238561   3.601   5.549   1.417 -0.5864 -1.0678  1.0833
 5668TIP3   OH238562   0.808   3.208   0.055 -0.1981 -0.1962  0.2074
 5668TIP3    H138563   0.873   3.163   0.108  0.7246 -0.8678 -1.4113
 5668TIP3    H238564   0.855   3.284   0.019 -0.2573 -0.7321 -1.0414
 5669TIP3   OH238565   2.703   0.327   1.941  0.3320  0.2824 -0.3689
 5669TIP3    H138566   2.741   0.381   1.871 -0.4661  2.1411  0.5601
 5669TIP3    H238567   2.742   0.361   2.022 -2.1082  1.3003  0.4862
 5670TIP3   OH238568   2.010   3.011   8.631  0.4368  0.1448 -0.0563
 5670TIP3    H138569   1.954   3.069   8.682  0.2642 -1.2917  1.4867
 5670TIP3    H238570   2.017   3.053   8.546  0.1729  2.3096  0.9180
 5671TIP3   OH238571   5.648   5.753   3.244 -0.3573  0.8626  0.1628
 5671TIP3    H138572   5.643   5.847   3.224  0.3821  0.5944 -1.4943
 5671TIP3    H238573   5.610   5.745   3.331  0.4239  2.8318  0.7411
 5672TIP3   OH238574   2.953   1.506   2.213 -0.4510 -0.0755  0.5779
 5672TIP3    H138575   2.896   1.559   2.269 -0.5288 -1.3038  1.6998
 5672TIP3    H238576   2.943   1.417   2.245 -3.1462 -1.5592 -3.5115
 5673TIP3   OH238577   5.980   5.764   2.791 -0.2760  0.2389 -0.4159
 5673TIP3    H138578   6.052   5.814   2.828  0.3576 -0.6546 -0.4203
 5673TIP3    H238579   5.916   5.830   2.763  1.1741  1.1280 -1.7811
 5674TIP3   OH238580   6.524   0.399   8.629 -0.5693 -0.3848  0.4553
 5674TIP3    H138581   6.517   0.461   8.556  1.2254 -0.4311  0.2059
 5674TIP3    H238582   6.489   0.446   8.704 -3.8951 -0.8449 -0.6237
 5675TIP3   OH238583   0.722   0.571   2.994 -0.1022 -0.4779 -0.2025
 5675TIP3    H138584   0.808   0.610   3.011  0.0488 -1.0408  0.3622
 5675TIP3    H238585   0.734   0.478   3.012 -0.4211 -0.8278 -1.6596
 5676TIP3   OH238586   2.827   4.295   2.123 -0.1537  0.0899 -0.0551
 5676TIP3    H138587   2.744   4.268   2.083 -1.4421 -0.0290  2.4758
 5676TIP3    H238588   2.810   4.384   2.155  0.7004  0.0662  0.5048
 5677TIP3   OH238589   3.048   1.643   1.989  0.4644  0.1759  0.0709
 5677TIP3    H138590   3.022   1.632   2.081  0.4882  1.1742  0.2124
 5677TIP3    H238591   3.013   1.566   1.945 -2.2357  1.1162  0.3707
 5678TIP3   OH238592   5.421   3.856   8.162 -0.3997  0.1749 -0.0453
 5678TIP3    H138593   5.387   3.846   8.252 -0.7123 -3.2675 -0.4064
 5678TIP3    H238594   5.507   3.816   8.165 -0.5697 -0.3373 -1.3400
 5679TIP3   OH238595   5.895   3.177   2.448  0.0737 -0.0939  0.3590
 5679TIP3    H138596   5.958   3.240   2.414 -0.6882  0.4201 -0.1307
 5679TIP3    H238597   5.832   3.165   2.377  0.4828 -1.8005  0.2570
 5680TIP3   OH238598   6.679   1.216   0.445 -0.6032 -0.2981  0.1982
 5680TIP3    H138599   6.714   1.204   0.533  0.6588  0.5494 -0.1610
 5680TIP3    H238600   6.694   1.309   0.425 -1.1603 -0.4019 -0.7831
 5681TIP3   OH238601   5.715   1.243   8.235 -0.3248  0.1813  0.0464
 5681TIP3    H138602   5.701   1.321   8.289  0.8633  1.4130 -1.3063
 5681TIP3    H238603   5.737   1.174   8.298  2.8097  1.9665  1.1489
 5682TIP3   OH238604   3.444   2.116   1.975 -0.2649 -0.7325 -0.2766
 5682TIP3    H138605   3.477   2.188   2.029 -0.9100 -0.5224 -0.1599
 5682TIP3    H238606   3.455   2.148   1.885 -0.8252 -0.3601 -0.2182
 5683TIP3   OH238607   4.202   3.648   7.577 -0.8585  0.2695 -0.5298
 5683TIP3    H138608   4.128   3.635   7.518 -0.9667 -0.1606 -0.2987
 5683TIP3    H238609   4.178   3.725   7.629 -1.5720 -0.4384  0.2058
 5684TIP3   OH238610   5.782   4.331   0.957  0.6204  0.1887 -0.9416
 5684TIP3    H138611   5.818   4.419   0.972 -1.1164  0.6564  1.0490
 5684TIP3    H238612   5.692   4.347   0.928  0.4957 -0.9456 -1.2182
 5685TIP3   OH238613   2.073   0.828   8.493 -0.6524 -0.0703  0.1057
 5685TIP3    H138614   2.149   0.861   8.540 -1.4857  2.1590 -0.0130
 5685TIP3    H238615   2.110   0.774   8.423  1.0498  3.0927 -1.6143
 5686TIP3   OH238616   6.369   3.618   0.959  0.0147  1.2659 -1.0636
 5686TIP3    H138617   6.433   3.557   0.924 -0.4614 -1.1748  1.8792
 5686TIP3    H238618   6.291   3.565   0.976 -0.1697  2.3398  2.3404
 5687TIP3   OH238619   0.929   5.040   2.989 -0.1126  0.5666  0.3822
 5687TIP3    H138620   0.858   5.055   2.927 -1.4016  0.8394  1.8734
 5687TIP3    H238621   1.009   5.054   2.938 -1.1008 -0.1399 -1.4329
 5688TIP3   OH238622   0.220   6.236   2.220 -0.9870 -0.1855 -0.6113
 5688TIP3    H138623   0.279   6.311   2.218 -1.0183 -0.1472 -0.1004
 5688TIP3    H238624   0.233   6.193   2.135 -2.0503  1.2338 -1.5340
 5689TIP3   OH238625   2.702   1.634   8.487 -0.3714  0.2027 -0.4064
 5689TIP3    H138626   2.630   1.664   8.431 -0.3504  2.9455  0.8514
 5689TIP3    H238627   2.660   1.573   8.548 -1.1363  0.0108 -1.0968
 5690TIP3   OH238628   4.374   4.963   1.329 -0.1348  0.0039 -0.7439
 5690TIP3    H138629   4.438   5.027   1.296 -0.4362 -0.4635 -2.3166
 5690TIP3    H238630   4.427   4.890   1.360  0.1332 -0.1599 -1.5588
 5691TIP3   OH238631   6.126   0.237   8.214 -0.1460 -0.7477  0.3080
 5691TIP3    H138632   6.078   0.221   8.133 -0.1037  0.2761  0.0644
 5691TIP3    H238633   6.162   0.326   8.203 -0.8128 -0.2688  1.7750
 5692TIP3   OH238634   5.821   5.900   2.620  0.1681  0.1850 -0.5120
 5692TIP3    H138635   5.846   5.975   2.564  0.7135 -1.0163 -1.9501
 5692TIP3    H238636   5.769   5.844   2.562 -1.5772  0.1625  0.9978
 5693TIP3   OH238637   2.604   3.990   8.650  0.1078  0.2986  0.0943
 5693TIP3    H138638   2.531   4.020   8.705 -0.0158 -0.3673  0.2950
 5693TIP3    H238639   2.656   4.069   8.636 -0.9449  0.9209 -0.5244
 5694TIP3   OH238640   6.452   6.710   0.432 -0.0166  0.0117  0.0896
 5694TIP3    H138641   6.418   6.652   0.364 -1.2493  1.2309 -0.3653
 5694TIP3    H238642   6.507   6.773   0.386  0.8506 -0.4005  0.5160
 5695TIP3   OH238643   2.028   5.568   7.839 -0.5726  0.0557  0.2828
 5695TIP3    H138644   2.071   5.653   7.834  1.9464 -1.2062 -1.8699
 5695TIP3    H238645   2.020   5.551   7.933 -0.0078  2.0997  0.7574
 5696TIP3   OH238646   5.787   4.871   3.001 -0.6448  0.2763  0.0548
 5696TIP3    H138647   5.850   4.830   2.941  0.8709  2.1871  0.2225
 5696TIP3    H238648   5.724   4.914   2.943 -0.4952  0.2149 -0.1546
 5697TIP3   OH238649   0.127   4.549   1.937  0.0618  0.5379 -0.2153
 5697TIP3    H138650   0.181   4.489   1.988  0.0032 -0.8224 -1.6839
 5697TIP3    H238651   0.148   4.636   1.973  0.1688 -0.3016  1.9356
 5698TIP3   OH238652   5.876   2.519   0.098 -0.3302  0.5105 -0.6773
 5698TIP3    H138653   5.789   2.481   0.085  0.0719 -0.9411  0.5926
 5698TIP3    H238654   5.929   2.484   0.026 -1.1847  2.9476 -2.6302
 5699TIP3   OH238655   6.516   3.367   8.371  0.0348 -0.4830 -0.4257
 5699TIP3    H138656   6.506   3.442   8.430 -2.2279  0.8434 -2.2884
 5699TIP3    H238657   6.434   3.318   8.381  0.7819 -1.7698 -0.4843
 5700TIP3   OH238658   1.129   5.613   8.522 -0.0361  0.3324 -0.0836
 5700TIP3    H138659   1.068   5.612   8.448 -1.0400  2.8890  0.5797
 5700TIP3    H238660   1.094   5.550   8.584 -0.7278  0.1378 -0.6629
 5701TIP3   OH238661   5.131   2.812   2.420  0.0068 -0.2477 -0.0415
 5701TIP3    H138662   5.069   2.869   2.375  0.9013  0.6562 -0.1556
 5701TIP3    H238663   5.139   2.849   2.508  0.2035 -0.5059  0.0524
 5702TIP3   OH238664   2.536   5.716   2.258 -0.2782  0.0873 -0.1653
 5702TIP3    H138665   2.623   5.752   2.276 -0.5160  0.2243  0.7179
 5702TIP3    H238666   2.512   5.668   2.337 -0.8818 -0.2127 -0.5192
 5703TIP3   OH238667   2.141   1.758   8.550  0.7199 -0.4800 -0.3245
 5703TIP3    H138668   2.103   1.845   8.539  0.6500 -0.7036 -2.3016
 5703TIP3    H238669   2.235   1.773   8.553  0.7047 -0.3083 -0.6038
 5704TIP3   OH238670   2.196   5.883   3.360 -0.4123  0.3709  0.3988
 5704TIP3    H138671   2.111   5.840   3.372 -0.6105  0.0629 -1.6646
 5704TIP3    H238672   2.253   5.813   3.330  0.3722  0.7491  0.9839
 5705TIP3   OH238673   5.242   0.626   2.632 -0.1358  0.1568 -0.0647
 5705TIP3    H138674   5.331   0.653   2.657 -0.7274  1.9579  0.2562
 5705TIP3    H238675   5.253   0.583   2.547  1.2234 -1.1324  0.7178
 5706TIP3   OH238676   2.035   6.367   1.958  0.2923 -0.7862 -0.8821
 5706TIP3    H138677   2.120   6.322   1.960 -0.3991 -2.1250 -0.9165
 5706TIP3    H238678   1.996   6.347   2.043 -0.0503 -0.2767 -0.9160
 5707TIP3   OH238679   0.199   3.619   1.746  0.1830 -0.2122 -0.2292
 5707TIP3    H138680   0.239   3.669   1.674 -0.2545 -0.4059 -0.6088
 5707TIP3    H238681   0.215   3.527   1.723 -1.8112 -0.3685 -1.1926
 5708TIP3   OH238682   5.887   0.880   0.651  1.0520  0.1385  0.2577
 5708TIP3    H138683   5.924   0.801   0.611  0.6584  0.3831 -0.5943
 5708TIP3    H238684   5.901   0.867   0.745  3.2471  0.1913  0.0045
 5709TIP3   OH238685   6.135   5.653   2.569 -0.5696  0.5410 -0.7211
 5709TIP3    H138686   6.226   5.661   2.596 -0.0198 -0.0232 -2.3057
 5709TIP3    H238687   6.085   5.683   2.645  0.9254  1.0731  0.0964
 5710TIP3   OH238688   6.606   1.335   0.944 -0.2740 -0.5227  0.2094
 5710TIP3    H138689   6.645   1.418   0.919  1.8208 -1.1862  1.0549
 5710TIP3    H238690   6.512   1.347   0.930 -0.0901  2.1351  0.8459
 5711TIP3   OH238691   1.117   2.622   8.175 -0.3089 -0.4483  0.1393
 5711TIP3    H138692   1.188   2.577   8.221 -0.4270 -0.3478  0.4260
 5711TIP3    H238693   1.142   2.714   8.176 -0.5652 -0.3781  0.4743
 5712TIP3   OH238694   4.676   5.771   1.090  0.3205 -0.0747  0.6729
 5712TIP3    H138695   4.687   5.752   0.996 -3.0211  0.6548  0.0141
 5712TIP3    H238696   4.678   5.685   1.132 -1.2388 -0.7477 -0.5259
 5713TIP3   OH238697   4.217   6.575   0.847  0.3510  0.7546 -0.1192
 5713TIP3    H138698   4.255   6.494   0.814  0.6855  0.1416  1.6675
 5713TIP3    H238699   4.162   6.547   0.921 -0.0350  2.0898  0.1223
 5714TIP3   OH238700   6.753   5.392   3.256  0.3201 -0.4884  0.1990
 5714TIP3    H138701   6.744   5.322   3.191  0.3458 -0.7266  0.4530
 5714TIP3    H238702   6.782   5.468   3.205  0.4751 -0.7112 -0.0481
 5715TIP3   OH238703   1.654   2.244   0.845 -0.0980 -0.4149  0.2052
 5715TIP3    H138704   1.721   2.176   0.842 -0.4696 -0.7576 -0.7427
 5715TIP3    H238705   1.696   2.320   0.805  0.5122  0.1136  1.7891
 5716TIP3   OH238706   2.449   3.880   8.214  0.4020  0.3704  0.2002
 5716TIP3    H138707   2.425   3.858   8.124 -1.6133  2.1349  0.2165
 5716TIP3    H238708   2.526   3.936   8.205 -0.9353  2.1932 -0.6603
 5717TIP3   OH238709   2.589   0.058   2.443  0.5859 -0.3854  0.3479
 5717TIP3    H138710   2.538  -0.018   2.416  0.3203 -0.4352  0.9867
 5717TIP3    H238711   2.572   0.067   2.537  0.7865  0.3263  0.3231
 5718TIP3   OH238712   2.538   5.017   6.910  0.0698 -0.3791  0.0894
 5718TIP3    H138713   2.542   5.113   6.907 -1.1445 -0.3464 -0.8373
 5718TIP3    H238714   2.511   4.998   7.000  1.3308  0.0775  0.6004
 5719TIP3   OH238715   1.830   0.371   0.703  0.5454  0.0317  0.0695
 5719TIP3    H138716   1.882   0.310   0.755  2.2781  1.7742  0.4895
 5719TIP3    H238717   1.872   0.373   0.617  0.6555  0.8147  0.1363
 5720TIP3   OH238718   0.308   5.221   2.694  0.3142  0.7505  0.0991
 5720TIP3    H138719   0.383   5.239   2.750 -1.6143 -0.0896  3.2236
 5720TIP3    H238720   0.276   5.308   2.669  1.3573  1.1529  0.1178
 5721TIP3   OH238721   1.048   3.379   0.950  0.1676 -0.0275  0.4121
 5721TIP3    H138722   1.100   3.440   1.002 -0.4752 -0.1683  1.2493
 5721TIP3    H238723   0.971   3.361   1.004 -0.6192 -0.0322 -0.6803
 5722TIP3   OH238724   3.938   0.792   1.977  0.2191  0.9220 -0.6734
 5722TIP3    H138725   4.023   0.773   1.939 -0.2592 -0.0075 -1.3380
 5722TIP3    H238726   3.914   0.878   1.943  0.1448  0.4421 -1.8759
 5723TIP3   OH238727   2.275   1.523   3.286 -0.2365 -0.4896  0.1975
 5723TIP3    H138728   2.221   1.446   3.269 -0.3622 -0.2242 -0.6376
 5723TIP3    H238729   2.315   1.505   3.372 -0.9273 -1.0939  0.4055
 5724TIP3   OH238730   5.157   1.587   3.046 -0.2992 -0.0498 -0.3278
 5724TIP3    H138731   5.105   1.651   2.998  0.6781 -0.2374 -1.7180
 5724TIP3    H238732   5.247   1.602   3.016  0.1244 -1.2329  0.2701
 5725TIP3   OH238733   6.096   6.367   0.885 -0.6028 -0.2216  0.4410
 5725TIP3    H138734   6.126   6.457   0.871 -0.7183 -0.1176  0.8486
 5725TIP3    H238735   6.002   6.375   0.899 -0.6040 -0.4013  0.5335
 5726TIP3   OH238736   0.758   6.574   2.486  0.8650  0.3901 -0.9245
 5726TIP3    H138737   0.718   6.644   2.435  1.3291  0.0132 -1.8404
 5726TIP3    H238738   0.851   6.578   2.462  0.8489 -0.7175 -1.2281
 5727TIP3   OH238739   1.494   3.151   8.086 -0.3363 -0.6996  0.2538
 5727TIP3    H138740   1.555   3.224   8.077 -0.8949 -0.1644  0.7276
 5727TIP3    H238741   1.440   3.174   8.161  0.1162 -2.0747  1.0413
 5728TIP3   OH238742   1.975   1.338   0.557  0.8003  0.5169 -0.1263
 5728TIP3    H138743   1.974   1.263   0.616  1.3024 -0.0577 -0.8310
 5728TIP3    H238744   2.012   1.304   0.475  0.4342  1.3764 -0.6643
 5729TIP3   OH238745   5.808   3.634   7.338  0.5523 -0.0358 -0.1309
 5729TIP3    H138746   5.886   3.672   7.298 -0.6580  1.9410 -0.7408
 5729TIP3    H238747   5.812   3.541   7.315  2.1856  0.2180 -1.0100
 5730TIP3   OH238748   5.604   0.223   8.750  0.3431 -0.5544  0.3443
 5730TIP3    H138749   5.518   0.250   8.781 -0.0627 -2.8487  1.3719
 5730TIP3    H238750   5.587   0.148   8.693  1.6556 -1.3860  0.9863
 5731TIP3   OH238751   1.215   2.325   8.002  0.4976 -0.0505 -0.1332
 5731TIP3    H138752   1.202   2.291   8.090  1.4191 -0.5807 -0.1974
 5731TIP3    H238753   1.140   2.293   7.952  0.3207 -0.2991  0.2900
 5732TIP3   OH238754   2.132   0.236   1.240 -0.3494  0.1842  0.3012
 5732TIP3    H138755   2.145   0.324   1.205 -1.3736  0.0468 -0.4635
 5732TIP3    H238756   2.176   0.237   1.325  1.2310  0.8599 -0.5001
 5733TIP3   OH238757   2.673   5.614   0.065  0.2426 -0.0682 -0.4655
 5733TIP3    H138758   2.727   5.667   0.123  0.3075 -0.3793 -0.2446
 5733TIP3    H238759   2.583   5.629   0.095  0.1753  0.6802 -1.0182
 5734TIP3   OH238760   5.786   0.133   2.734  0.3654 -0.5378 -0.2057
 5734TIP3    H138761   5.795   0.146   2.829 -2.5034 -1.1410  0.2404
 5734TIP3    H238762   5.771   0.039   2.724 -1.7277 -0.1750 -0.9551
 5735TIP3   OH238763   1.381   0.641   8.698 -0.8702 -0.4187 -0.3700
 5735TIP3    H138764   1.420   0.699   8.764  1.6054 -1.3020 -0.9268
 5735TIP3    H238765   1.290   0.669   8.692  0.0602  3.1644 -0.3302
 5736TIP3   OH238766   1.737   6.603   2.815 -0.5949 -0.2596  0.3042
 5736TIP3    H138767   1.756   6.534   2.879 -0.0747  1.5093  2.1707
 5736TIP3    H238768   1.649   6.632   2.837 -0.8011 -0.2869 -0.4553
 5737TIP3   OH238769   1.570   0.122   0.664  0.3181 -0.4000 -0.2041
 5737TIP3    H138770   1.546   0.183   0.734 -1.1489  1.4771 -2.2196
 5737TIP3    H238771   1.505   0.052   0.671 -1.5788  1.1444 -1.2784
 5738TIP3   OH238772   2.080   3.164   1.435  0.2740 -0.9845 -0.1742
 5738TIP3    H138773   2.124   3.202   1.359  0.0158  0.4423  0.3491
 5738TIP3    H238774   1.990   3.194   1.428 -0.0596 -1.9041  0.0343
 5739TIP3   OH238775   6.327   3.089   3.033  0.1243  0.1358  0.0902
 5739TIP3    H138776   6.344   3.013   3.089 -2.4560 -2.5765 -2.4407
 5739TIP3    H238777   6.413   3.125   3.013  1.4407 -2.0475  1.4988
 5740TIP3   OH238778   3.335   2.832   8.185  0.4059 -0.0497 -0.1868
 5740TIP3    H138779   3.310   2.870   8.101 -1.2481 -0.5125  0.0713
 5740TIP3    H238780   3.406   2.889   8.216  0.9838  0.1873 -1.8274
 5741TIP3   OH238781   4.177   3.814   0.502 -0.3950  0.7891 -0.0735
 5741TIP3    H138782   4.229   3.745   0.461  1.3598  1.0326  1.6084
 5741TIP3    H238783   4.164   3.783   0.592 -2.0509  1.3689 -0.0882
 5742TIP3   OH238784   6.352   5.818   8.640  0.1641 -0.3132 -0.2282
 5742TIP3    H138785   6.343   5.769   8.722  0.0856 -2.2701 -1.3326
 5742TIP3    H238786   6.261   5.835   8.613  0.0954  3.6982  1.8609
 5743TIP3   OH238787   1.136   2.089   7.431  0.8775 -0.1780  0.0956
 5743TIP3    H138788   1.052   2.056   7.463  0.5880  0.0986 -0.3734
 5743TIP3    H238789   1.139   2.180   7.459  0.1266  0.3972 -1.5854
 5744TIP3   OH238790   6.627   1.611   2.997  0.3039  0.3246 -0.1799
 5744TIP3    H138791   6.664   1.667   3.065  1.7649  1.6070 -1.9302
 5744TIP3    H238792   6.537   1.595   3.025  1.1311 -0.0265  2.5088
 5745TIP3   OH238793   3.425   2.991   1.403 -0.0545 -0.7604  0.3213
 5745TIP3    H138794   3.345   3.020   1.447  0.4578  1.2688  0.0197
 5745TIP3    H238795   3.400   2.981   1.311  0.2153  0.9375  0.0175
 5746TIP3   OH238796   5.328   3.269   8.153 -0.1591  0.3767  0.0818
 5746TIP3    H138797   5.348   3.362   8.144 -0.9426  0.4172 -1.3670
 5746TIP3    H238798   5.289   3.243   8.070 -1.5457 -0.8536  1.0433
 5747TIP3   OH238799   1.497   6.649   3.210  0.2415 -0.5481 -0.2659
 5747TIP3    H138800   1.498   6.744   3.202 -2.2042 -0.2037  2.1808
 5747TIP3    H238801   1.590   6.624   3.211  0.9435  1.8105 -0.4760
 5748TIP3   OH238802   3.899   0.318   8.430  0.2331 -0.3007 -0.1716
 5748TIP3    H138803   3.906   0.225   8.453  0.1489 -0.4445 -0.7041
 5748TIP3    H238804   3.808   0.329   8.402  0.1141  0.0520  0.3291
 5749TIP3   OH238805   5.974   3.303   2.871 -0.0492 -0.0331  0.5210
 5749TIP3    H138806   5.937   3.388   2.897 -0.7624  0.1957 -1.1549
 5749TIP3    H238807   5.898   3.250   2.847  0.5327 -0.4137 -0.5303
 5750TIP3   OH238808   2.587   2.877   1.328  0.4299 -0.2925  0.1389
 5750TIP3    H138809   2.558   2.926   1.405 -0.2385 -1.8007  0.8978
 5750TIP3    H238810   2.516   2.887   1.265  0.5444  0.1715  0.0857
 5751TIP3   OH238811   3.946   3.968   8.553 -0.3287 -0.0758 -0.4188
 5751TIP3    H138812   3.872   4.029   8.554 -0.6923 -0.4420 -1.9111
 5751TIP3    H238813   3.910   3.887   8.588 -0.2304  0.1409  0.2060
 5752TIP3   OH238814   4.834   3.735   7.800  0.4217  0.3967  0.0377
 5752TIP3    H138815   4.801   3.645   7.803  0.0298  0.5217 -0.4752
 5752TIP3    H238816   4.909   3.731   7.742  0.0445  0.5097 -0.4658
 5753TIP3   OH238817   3.078   0.978   2.989  0.1238  0.4483  0.2186
 5753TIP3    H138818   3.067   1.068   2.961 -0.9757  0.4526  0.6227
 5753TIP3    H238819   3.173   0.965   2.991  0.3212  1.8251  0.8728
 5754TIP3   OH238820   1.231   5.195   8.644 -0.4225  0.5818  0.2021
 5754TIP3    H138821   1.212   5.244   8.724 -1.5878 -0.8013  0.8135
 5754TIP3    H238822   1.285   5.121   8.673 -1.3863 -0.2933 -0.1400
 5755TIP3   OH238823   6.626   1.664   7.398 -0.4729 -0.4609  0.6618
 5755TIP3    H138824   6.677   1.600   7.349 -0.9392 -0.8961  0.7292
 5755TIP3    H238825   6.657   1.656   7.488  1.8577  1.7974  0.1505
 5756TIP3   OH238826   2.531   1.162   7.968 -0.1945  0.0445  0.0248
 5756TIP3    H138827   2.586   1.237   7.989 -0.0735 -0.1364  0.3658
 5756TIP3    H238828   2.592   1.096   7.936  0.0045 -0.6834  1.7917
 5757TIP3   OH238829   4.435   1.930   2.213  0.1858 -0.0332  0.3836
 5757TIP3    H138830   4.405   1.880   2.289  0.1107 -1.1856 -0.3951
 5757TIP3    H238831   4.386   2.012   2.219  0.4730  0.0769  1.7949
 5758TIP3   OH238832   4.218   4.627   8.535  0.3805 -0.3963  0.1271
 5758TIP3    H138833   4.134   4.587   8.558  0.3104 -0.2838  0.0688
 5758TIP3    H238834   4.207   4.720   8.554 -0.6734  0.2362 -3.0293
 5759TIP3   OH238835   4.416   3.649   2.950 -0.1267  0.4098  0.2707
 5759TIP3    H138836   4.421   3.700   2.869  0.1828  2.1475  1.3432
 5759TIP3    H238837   4.480   3.690   3.008  0.5202 -1.5508  1.0232
 5760TIP3   OH238838   4.652   2.784   1.681 -0.8229  0.4567 -0.1824
 5760TIP3    H138839   4.635   2.772   1.587  1.6082 -2.2652 -0.4145
 5760TIP3    H238840   4.743   2.812   1.686 -0.4929 -0.7607  1.4060
 5761TIP3   OH238841   2.978   5.596   8.098 -0.0451  0.1219 -0.0019
 5761TIP3    H138842   2.994   5.541   8.022  1.2051  0.1065  0.2584
 5761TIP3    H238843   2.913   5.660   8.068  0.8781  0.4974 -1.2883
 5762TIP3   OH238844   4.265   1.877   1.741  0.2588 -0.0712 -0.1931
 5762TIP3    H138845   4.297   1.787   1.734  0.1484 -0.0462 -1.0937
 5762TIP3    H238846   4.215   1.878   1.823  0.2219 -0.8455 -0.1978
 5763TIP3   OH238847   1.147   3.141   0.830 -0.5940  0.0085  0.1786
 5763TIP3    H138848   1.082   3.071   0.829 -0.7753  0.1809  0.0029
 5763TIP3    H238849   1.102   3.215   0.870 -0.5728  0.1941 -0.1421
 5764TIP3   OH238850   3.205   4.992   7.668  0.3068  0.0532 -0.0352
 5764TIP3    H138851   3.220   4.963   7.758  1.5015  2.3203  0.5670
 5764TIP3    H238852   3.274   4.949   7.617  0.3439 -0.3204  0.3279
 5765TIP3   OH238853   2.995   6.247   7.665  0.1483  0.9378  0.0415
 5765TIP3    H138854   2.905   6.215   7.657  0.2147  0.6576  0.4214
 5765TIP3    H238855   3.049   6.177   7.629  0.4112 -0.0892  2.2621
 5766TIP3   OH238856   3.071   3.516   2.122  0.2703  0.0947  0.3276
 5766TIP3    H138857   3.123   3.484   2.048  0.1040  0.3521  0.1018
 5766TIP3    H238858   3.091   3.609   2.128  0.1403  0.1130  0.4909
 5767TIP3   OH238859   4.015   0.605   7.622  0.9281  0.2223 -0.0562
 5767TIP3    H138860   4.047   0.610   7.532 -3.6142  0.6312 -1.9558
 5767TIP3    H238861   3.971   0.689   7.636  2.2777  0.5435  3.0234
 5768TIP3   OH238862   5.347   0.300   0.002  0.1948 -0.1622 -0.1092
 5768TIP3    H138863   5.308   0.386   0.019  0.0304 -0.1990 -0.2878
 5768TIP3    H238864   5.282   0.255  -0.053 -0.0538 -0.6667  0.5833
 5769TIP3   OH238865   2.590   0.584   2.472 -0.9550 -0.0795  0.2080
 5769TIP3    H138866   2.581   0.498   2.432 -1.5063 -1.3162  2.7265
 5769TIP3    H238867   2.564   0.570   2.563 -1.1682  2.7984  0.6814
 5770TIP3   OH238868   1.199   1.959   1.598 -0.0874 -0.1985  0.8061
 5770TIP3    H138869   1.142   1.990   1.668 -1.1906  0.1168 -0.2026
 5770TIP3    H238870   1.169   1.870   1.580  0.1873 -0.2769  0.7305
 5771TIP3   OH238871   1.884   3.657   0.346  0.1102  0.1900 -0.1314
 5771TIP3    H138872   1.905   3.746   0.317  0.5113 -0.2863 -1.4002
 5771TIP3    H238873   1.895   3.603   0.267  1.9147 -1.3175  1.0477
 5772TIP3   OH238874   1.850   3.948   8.785  0.2844  0.2135  0.1053
 5772TIP3    H138875   1.932   3.899   8.779  1.2466  1.8768 -1.0454
 5772TIP3    H238876   1.877   4.035   8.816 -1.1436  0.5688  0.3902
 5773TIP3   OH238877   1.667   4.298   1.463 -0.8408 -0.2049  0.3161
 5773TIP3    H138878   1.708   4.302   1.549  1.0184  0.8164 -0.5414
 5773TIP3    H238879   1.683   4.385   1.425  3.0090 -1.9993 -2.9905
 5774TIP3   OH238880   5.083   5.833   3.162 -0.1061 -0.3886 -0.2182
 5774TIP3    H138881   5.119   5.844   3.074  1.7727 -0.6728  0.4488
 5774TIP3    H238882   5.161   5.829   3.218 -1.2599 -0.1804  1.4536
 5775TIP3   OH238883   4.340   1.511   1.181  0.2151 -0.0105 -0.4966
 5775TIP3    H138884   4.338   1.425   1.139  0.2051  0.4994 -1.5849
 5775TIP3    H238885   4.424   1.548   1.154  0.5982 -0.0071  0.6672
 5776TIP3   OH238886   4.921   1.939   8.513 -0.2542  0.5511  0.3430
 5776TIP3    H138887   4.973   1.917   8.590 -0.0671 -0.6962 -0.1196
 5776TIP3    H238888   4.979   1.922   8.439 -2.0684 -3.8462 -0.4061
 5777TIP3   OH238889   2.863   1.695   0.249 -0.3606 -0.1642 -0.6326
 5777TIP3    H138890   2.926   1.766   0.250  0.5872 -0.9696 -1.2969
 5777TIP3    H238891   2.784   1.732   0.290  0.2864  1.0769 -0.4658
 5778TIP3   OH238892   4.342   1.333   1.508 -0.1091 -0.3078 -0.2403
 5778TIP3    H138893   4.418   1.311   1.453 -0.0755 -1.0943  0.1165
 5778TIP3    H238894   4.270   1.282   1.472 -0.0820 -0.8456  0.4564
 5779TIP3   OH238895   4.442   0.773   1.738  0.2883  0.0851  0.1583
 5779TIP3    H138896   4.439   0.768   1.642 -0.3004 -0.5395  0.1983
 5779TIP3    H238897   4.497   0.699   1.764  0.0300 -0.0509  0.3237
 5780TIP3   OH238898   4.097   5.600   8.032  0.2108 -0.1162  0.1670
 5780TIP3    H138899   4.013   5.561   8.056 -1.2444  2.0322 -1.1260
 5780TIP3    H238900   4.088   5.620   7.938  2.5097 -0.6055 -0.2097
 5781TIP3   OH238901   3.831   3.873   0.710  0.3748 -0.3523  0.0370
 5781TIP3    H138902   3.741   3.840   0.707 -1.5582  4.1267  0.1323
 5781TIP3    H238903   3.859   3.874   0.618 -0.4038 -0.1926 -0.2094
 5782TIP3   OH238904   0.764   0.461   8.294 -0.3987 -0.1847 -0.4403
 5782TIP3    H138905   0.777   0.475   8.388  1.6547  2.6562 -0.9998
 5782TIP3    H238906   0.815   0.383   8.273  1.3142  0.6259  0.4701
 5783TIP3   OH238907   1.800   5.266   1.640 -0.2649 -0.0455 -0.0444
 5783TIP3    H138908   1.814   5.361   1.637 -0.3694  0.1141  2.4357
 5783TIP3    H238909   1.728   5.255   1.702  1.1001 -1.8312  1.3062
 5784TIP3   OH238910   6.597   4.782   0.424  0.2802  0.4981 -0.1555
 5784TIP3    H138911   6.643   4.834   0.490  2.1283  1.5922 -2.1734
 5784TIP3    H238912   6.667   4.740   0.374 -1.0597 -0.4805 -1.2726
 5785TIP3   OH238913   3.005   3.782   0.391 -0.6870 -0.5009  0.3576
 5785TIP3    H138914   2.947   3.716   0.352  0.1280 -1.0414  0.0282
 5785TIP3    H238915   3.021   3.845   0.321 -0.4538 -0.6393  0.2861
 5786TIP3   OH238916   0.955   5.236   2.055 -0.1813 -0.2293 -0.5175
 5786TIP3    H138917   1.001   5.244   2.138 -1.5923 -0.7099  0.3586
 5786TIP3    H238918   0.953   5.325   2.020 -1.5593  0.4359  1.1186
 5787TIP3   OH238919   0.002   5.698   8.596 -0.4999 -0.3386 -0.0707
 5787TIP3    H138920   0.059   5.687   8.520  0.3756  0.2977  0.4651
 5787TIP3    H238921  -0.084   5.715   8.560 -0.5523 -2.1208 -0.9134
 5788TIP3   OH238922   4.842   2.420   7.682  0.5046  0.2634  0.4301
 5788TIP3    H138923   4.875   2.382   7.600  0.1295  0.0549  0.3740
 5788TIP3    H238924   4.832   2.346   7.741 -1.5157  0.0456 -0.1066
 5789TIP3   OH238925   1.476   2.463   0.513  0.0342  0.0741  0.2473
 5789TIP3    H138926   1.403   2.405   0.533  0.3080  0.0294  1.1412
 5789TIP3    H238927   1.480   2.464   0.417 -1.6073  0.6859  0.1688
 5790TIP3   OH238928   0.693   1.506   8.654  0.2828 -0.3557  0.3487
 5790TIP3    H138929   0.755   1.444   8.693  0.2073  0.2212  1.4158
 5790TIP3    H238930   0.607   1.473   8.678  0.1606 -0.9017 -0.7473
 5791TIP3   OH238931   3.411   2.606   7.832 -0.8252  0.5711 -0.3956
 5791TIP3    H138932   3.423   2.587   7.739 -1.0851  1.6488 -0.6585
 5791TIP3    H238933   3.327   2.651   7.837 -1.0688  0.0455  0.4372
 5792TIP3   OH238934   4.949   0.900   8.415  0.8280 -0.4342  0.1450
 5792TIP3    H138935   4.998   0.981   8.429  2.3443 -1.1336 -0.8273
 5792TIP3    H238936   4.946   0.858   8.501  0.2823  0.4847  0.5963
 5793TIP3   OH238937   0.715   3.091   2.764 -0.1094  0.2543 -0.7006
 5793TIP3    H138938   0.656   3.055   2.830 -0.6131  0.0251 -1.2697
 5793TIP3    H238939   0.797   3.108   2.812 -0.5621  0.3762  0.0436
 5794TIP3   OH238940   0.755   2.778   2.619 -0.0117  0.3007  0.0048
 5794TIP3    H138941   0.717   2.737   2.541  0.1789  0.7253 -0.3154
 5794TIP3    H238942   0.688   2.840   2.648  0.1053  0.4765 -0.0958
 5795TIP3   OH238943   1.816   6.520   0.347 -0.0688  0.3797  0.4704
 5795TIP3    H138944   1.843   6.610   0.333  0.4979  0.3417  1.2404
 5795TIP3    H238945   1.879   6.467   0.298 -0.0238  0.3820  0.5249
 5796TIP3   OH238946   3.386   3.091   7.404  0.2744  0.5295 -0.7021
 5796TIP3    H138947   3.470   3.130   7.378  1.1105 -0.3686  0.5026
 5796TIP3    H238948   3.397   2.997   7.386  0.8879 -0.1461  2.5631
 5797TIP3   OH238949   3.978   5.426   7.694 -0.1663  0.0292 -0.2359
 5797TIP3    H138950   4.052   5.388   7.645 -0.6505  0.6682 -1.5008
 5797TIP3    H238951   4.010   5.511   7.723 -0.2313  0.0915 -0.3472
 5798TIP3   OH238952   3.423   5.813   7.559 -0.5362 -0.4196  0.4170
 5798TIP3    H138953   3.437   5.787   7.650  0.4121 -0.3534  0.2942
 5798TIP3    H238954   3.485   5.760   7.509 -0.7699 -0.1640 -0.1483
 5799TIP3   OH238955   5.875   0.284   1.860 -0.1856 -0.6672  0.5333
 5799TIP3    H138956   5.779   0.281   1.855 -0.1636 -1.7287  0.5778
 5799TIP3    H238957   5.899   0.209   1.913  0.7217 -0.9041 -0.1828
 5800TIP3   OH238958   2.169   2.010   0.504 -0.0420  0.4178 -0.2232
 5800TIP3    H138959   2.250   1.984   0.549 -0.6551  2.1764  2.1173
 5800TIP3    H238960   2.170   1.960   0.422  1.1896 -2.9979  1.6645
 5801TIP3   OH238961   1.268   5.511   0.987 -0.7790 -0.3686 -0.0516
 5801TIP3    H138962   1.175   5.523   0.969 -0.3153  2.7111 -0.9952
 5801TIP3    H238963   1.311   5.519   0.902  0.5394  1.8139  0.7196
 5802TIP3   OH238964   1.756   3.650   1.326 -0.8224  0.6104  0.2656
 5802TIP3    H138965   1.720   3.725   1.279  1.6698  0.7179 -1.6934
 5802TIP3    H238966   1.827   3.688   1.379  0.4560 -0.2918 -0.7409
 5803TIP3   OH238967   4.195   5.444   0.105 -0.2330 -0.5737 -0.2231
 5803TIP3    H138968   4.175   5.364   0.153  0.0057  0.3966  1.5986
 5803TIP3    H238969   4.141   5.511   0.147  1.5889  0.7384  0.1665
 5804TIP3   OH238970   1.919   0.900   1.378 -0.1382  0.1303 -0.3298
 5804TIP3    H138971   2.004   0.856   1.385  0.5030  1.5121  0.9883
 5804TIP3    H238972   1.872   0.873   1.457 -1.7088 -2.0662 -1.8751
 5805TIP3   OH238973   5.639   1.193   7.952 -0.0631 -0.2657  0.5331
 5805TIP3    H138974   5.635   1.097   7.957 -0.0957 -0.2245  1.4637
 5805TIP3    H238975   5.634   1.222   8.043  0.6738  0.6004  0.3086
 5806TIP3   OH238976   0.020   5.881   8.271  0.0102  0.2860 -0.4062
 5806TIP3    H138977   0.062   5.798   8.293 -0.1809  0.2379 -0.2208
 5806TIP3    H238978   0.067   5.946   8.324 -0.0002  0.2631 -0.3692
 5807TIP3   OH238979   5.873   3.820   2.605 -0.0211 -0.3104  0.4633
 5807TIP3    H138980   5.784   3.854   2.598 -0.1442 -0.7253 -0.0916
 5807TIP3    H238981   5.875   3.776   2.690  0.2996  1.4821  1.4390
 5808TIP3   OH238982   3.078   4.361   8.146 -0.2851  0.4942 -0.4826
 5808TIP3    H138983   3.090   4.404   8.061  0.7041  0.2822 -0.4580
 5808TIP3    H238984   3.076   4.433   8.209 -1.5630  0.6954 -0.7133
 5809TIP3   OH238985   6.228   3.722   7.525  0.6912 -0.5821 -0.0300
 5809TIP3    H138986   6.213   3.709   7.431  2.3544 -1.1317 -0.2588
 5809TIP3    H238987   6.321   3.746   7.531  0.2990  0.7741  1.3734
 5810TIP3   OH238988   0.018   2.077   2.147  0.1640 -0.0499 -0.1686
 5810TIP3    H138989  -0.039   2.014   2.102  1.8807 -0.2306 -2.3011
 5810TIP3    H238990  -0.035   2.156   2.156 -0.3327 -0.0192 -2.5877
 5811TIP3   OH238991   0.707   6.315   2.245  0.0924  0.0585 -0.3424
 5811TIP3    H138992   0.655   6.395   2.235  1.7138  1.0286 -1.4190
 5811TIP3    H238993   0.788   6.344   2.285 -0.0244 -1.3845  1.0118
 5812TIP3   OH238994   0.946   6.701   2.781 -0.0013  0.1845  0.0143
 5812TIP3    H138995   0.959   6.778   2.725  0.7167  0.2486  0.2604
 5812TIP3    H238996   0.981   6.628   2.731 -0.3807  0.0665 -0.0813
 5813TIP3   OH238997   4.184   5.713   2.100 -0.3883  0.3787  0.0556
 5813TIP3    H138998   4.118   5.729   2.168 -0.4664  1.8582 -0.3439
 5813TIP3    H238999   4.230   5.796   2.090  1.0423 -0.4015 -0.2313
 5814TIP3   OH239000   2.053   5.073   7.990  0.5857 -0.4901  0.2445
 5814TIP3    H139001   2.003   4.993   7.977  0.4023 -0.6330  1.6695
 5814TIP3    H239002   2.087   5.095   7.903 -1.3904 -0.7406 -0.6373
 5815TIP3   OH239003   3.605   4.867   0.075 -0.0433  0.2449  0.2633
 5815TIP3    H139004   3.559   4.829  -0.000 -0.7017  1.9091 -0.2321
 5815TIP3    H239005   3.633   4.792   0.126  0.1895 -0.9478 -1.5070
 5816TIP3   OH239006   1.819   0.652   2.036  0.2460  0.1255 -0.4682
 5816TIP3    H139007   1.901   0.699   2.027 -0.4090  1.1575 -1.3822
 5816TIP3    H239008   1.802   0.649   2.130  3.3159 -3.7723  0.2154
 5817TIP3   OH239009   6.005   3.781   3.455  0.5053  0.0516  0.5498
 5817TIP3    H139010   5.916   3.773   3.489  0.3692  2.2018  0.8107
 5817TIP3    H239011   6.019   3.700   3.406 -2.8516  1.0179 -2.4276
 5818TIP3   OH239012   3.958   1.574   2.804  0.4367 -0.1722  0.1837
 5818TIP3    H139013   3.932   1.555   2.894  1.4093  2.1839  1.0394
 5818TIP3    H239014   4.054   1.573   2.806  0.4873  1.0595 -0.5060
 5819TIP3   OH239015   4.834   2.492   1.624 -0.5995 -0.0668 -0.1294
 5819TIP3    H139016   4.849   2.421   1.562 -3.1932  1.8019 -3.2788
 5819TIP3    H239017   4.739   2.503   1.626 -0.3529  3.3327  0.0088
 5820TIP3   OH239018   2.112   1.305   1.983  0.0684 -0.1515  0.3772
 5820TIP3    H139019   2.113   1.252   2.063 -1.5693 -0.8122 -0.0141
 5820TIP3    H239020   2.042   1.368   1.997 -0.5242 -0.5499 -0.7012
 5821TIP3   OH239021   2.487   4.663   0.393 -0.2061 -0.3747  0.6885
 5821TIP3    H139022   2.478   4.748   0.434 -0.8350 -0.4450  0.7039
 5821TIP3    H239023   2.581   4.653   0.377 -0.2905  1.2093 -1.1752
 5822TIP3   OH239024   2.391   1.252   8.396  0.0417 -0.3960 -0.4807
 5822TIP3    H139025   2.469   1.307   8.386  1.1857 -1.4664  1.6986
 5822TIP3    H239026   2.331   1.305   8.447  1.3835 -1.2256  2.1569
 5823TIP3   OH239027   5.200   2.677   8.261 -0.1356  0.3953 -0.9317
 5823TIP3    H139028   5.155   2.601   8.224  1.0586 -0.9361  0.2051
 5823TIP3    H239029   5.143   2.751   8.241 -2.6100 -1.1106  0.0205
 5824TIP3   OH239030   2.662   5.007   7.355  0.7437 -0.2863  0.0578
 5824TIP3    H139031   2.754   5.008   7.327  0.7304  0.9512 -0.0263
 5824TIP3    H239032   2.651   4.923   7.399  1.7226 -0.7589 -0.5681
 5825TIP3   OH239033   2.816   3.346   0.645 -0.0759 -0.1008  0.2141
 5825TIP3    H139034   2.898   3.375   0.605  0.1284 -0.7158  0.1813
 5825TIP3    H239035   2.813   3.390   0.730  1.4490 -1.8842  1.2531
 5826TIP3   OH239036   2.903   4.061   8.378  0.3385  0.2063 -0.3309
 5826TIP3    H139037   2.885   3.991   8.440 -0.3030 -0.1037 -0.8516
 5826TIP3    H239038   2.973   4.112   8.418 -0.6907  0.5723  1.0990
 5827TIP3   OH239039   3.169   3.265   7.337  0.1493 -0.0818 -0.3696
 5827TIP3    H139040   3.187   3.289   7.246  2.0037  0.6525  0.1425
 5827TIP3    H239041   3.239   3.204   7.360  1.8196  2.3361  1.5318
 5828TIP3   OH239042   3.067   3.496   1.353  0.2362 -0.7019  0.3763
 5828TIP3    H139043   3.109   3.424   1.305 -1.1593 -0.7961 -0.7720
 5828TIP3    H239044   2.975   3.491   1.328  0.1502  1.6903  0.0189
 5829TIP3   OH239045   0.169   2.591   0.016  0.2396  0.4477  0.3854
 5829TIP3    H139046   0.189   2.679  -0.015  0.6898 -0.0164 -0.7112
 5829TIP3    H239047   0.090   2.566  -0.032  0.3859  0.0801  0.3293
 5830TIP3   OH239048   6.108   3.537   7.139 -0.3545  0.0858 -0.3705
 5830TIP3    H139049   6.072   3.599   7.203 -2.7979 -0.5743 -0.9877
 5830TIP3    H239050   6.134   3.592   7.065  1.0195  0.6958  0.5304
 5831TIP3   OH239051   2.378   0.879   0.084 -0.2640 -0.7942  0.2775
 5831TIP3    H139052   2.374   0.974   0.092  0.1441 -0.8826  1.7991
 5831TIP3    H239053   2.472   0.859   0.080 -0.2969 -1.2154  1.3139
 5832TIP3   OH239054   0.274   0.462   8.131 -0.1252  0.1864  0.6502
 5832TIP3    H139055   0.188   0.421   8.140 -0.1475  0.2198  0.5897
 5832TIP3    H239056   0.320   0.408   8.067  0.3778 -0.6110  1.6762
 5833TIP3   OH239057   1.900   3.149   0.256 -0.5532  0.0146  0.0125
 5833TIP3    H139058   1.913   3.077   0.318  0.6666  0.1607 -0.0527
 5833TIP3    H239059   1.890   3.227   0.311 -0.0667  0.0539  0.0521
 5834TIP3   OH239060   2.112   0.400   3.002  0.1005  0.2934 -0.1994
 5834TIP3    H139061   2.127   0.332   2.936 -0.9522  1.1436 -1.3662
 5834TIP3    H239062   2.197   0.443   3.012  0.4573 -0.3532 -0.4078
 5835TIP3   OH239063   3.296   5.931   8.303 -0.0286 -0.1813 -0.2166
 5835TIP3    H139064   3.362   5.913   8.235 -0.3000 -1.9002 -0.0687
 5835TIP3    H239065   3.216   5.892   8.269 -0.7442  0.9559  0.0964
 5836TIP3   OH239066   4.737   5.890   0.739 -0.2367 -0.3519  0.4964
 5836TIP3    H139067   4.741   5.918   0.647  0.8969  0.4267  0.7603
 5836TIP3    H239068   4.828   5.876   0.763 -0.0935  3.0969  2.5546
 5837TIP3   OH239069   2.652   6.246   2.153  0.2058  0.0809 -0.0053
 5837TIP3    H139070   2.741   6.282   2.143  1.3117 -2.1219  1.2024
 5837TIP3    H239071   2.634   6.204   2.069 -0.6339  2.3167 -1.0174
 5838TIP3   OH239072   3.446   2.772   8.627  0.1292  0.0555 -0.1270
 5838TIP3    H139073   3.411   2.793   8.540 -0.7290  0.0990  0.2206
 5838TIP3    H239074   3.442   2.855   8.675  0.4339 -0.0104  0.0159
 5839TIP3   OH239075   2.381   2.748   8.391 -0.0813 -0.0281  0.0195
 5839TIP3    H139076   2.442   2.742   8.465  1.4418  1.4591 -1.0431
 5839TIP3    H239077   2.419   2.690   8.325 -0.6265 -0.2102 -0.1345
 5840TIP3   OH239078   0.947   6.314   0.538 -0.2811 -0.3906 -0.4477
 5840TIP3    H139079   1.014   6.260   0.495  1.0095  0.9091 -0.1401
 5840TIP3    H239080   0.990   6.347   0.617 -1.8652 -0.8814  0.6749
 5841TIP3   OH239081   1.978   6.534   0.975  0.0333 -0.2869 -0.3570
 5841TIP3    H139082   1.958   6.485   0.896  1.4203 -0.4682 -0.6239
 5841TIP3    H239083   1.924   6.494   1.043  0.0171 -1.1893 -0.8848
 5842TIP3   OH239084   1.107   0.985   2.108  0.1429 -0.3210 -0.1770
 5842TIP3    H139085   1.094   0.909   2.165 -1.0005  0.7805  1.1451
 5842TIP3    H239086   1.037   0.978   2.043 -0.9149  0.3438  0.8513
 5843TIP3   OH239087   3.575   0.967   1.611  0.8226  0.1125 -0.5684
 5843TIP3    H139088   3.571   0.983   1.705  0.4078  0.4689 -0.6415
 5843TIP3    H239089   3.643   0.902   1.600  1.6562  0.8927 -0.1249
 5844TIP3   OH239090   0.273   3.718   0.234  0.4031  0.0445  0.2881
 5844TIP3    H139091   0.356   3.729   0.280  0.3470  1.4351  0.0920
 5844TIP3    H239092   0.271   3.625   0.210  2.0672  0.0563 -0.0103
 5845TIP3   OH239093   1.592   1.144   2.744 -0.0713 -0.1917 -0.0416
 5845TIP3    H139094   1.578   1.060   2.790  0.4883 -0.6914 -0.7677
 5845TIP3    H239095   1.511   1.193   2.760 -0.5488 -1.0028  0.1149
 5846TIP3   OH239096   2.848   2.478   8.055 -0.3535 -0.2894  0.1735
 5846TIP3    H139097   2.867   2.384   8.050 -0.3763 -0.3355  0.9616
 5846TIP3    H239098   2.931   2.520   8.031 -0.7134 -0.4884 -1.6052
 5847TIP3   OH239099   6.453   2.135   2.873 -0.1738  0.4886  0.5837
 5847TIP3    H139100   6.365   2.164   2.900 -0.1069  0.6510  0.6324
 5847TIP3    H239101   6.502   2.217   2.860 -0.6671  0.5002 -1.6228
 5848TIP3   OH239102   6.526   1.161   1.385  0.0893  0.2371  0.3416
 5848TIP3    H139103   6.454   1.103   1.409 -0.5910  0.8658 -0.1041
 5848TIP3    H239104   6.544   1.140   1.293 -0.3577  0.9158  0.0915
 5849TIP3   OH239105   0.739   6.203   7.826 -0.1327 -0.0725  0.0618
 5849TIP3    H139106   0.651   6.223   7.794 -0.3780 -0.7512  0.2905
 5849TIP3    H239107   0.757   6.116   7.791  0.1478 -0.2458  0.6307
 5850TIP3   OH239108   2.221   4.502   7.546  1.1176 -0.1391  0.1475
 5850TIP3    H139109   2.202   4.416   7.583 -0.6275 -0.2879 -0.9462
 5850TIP3    H239110   2.290   4.486   7.482  1.9190 -0.4340  1.0775
 5851TIP3   OH239111   4.349   1.290   2.305 -0.6006  0.6609  0.1188
 5851TIP3    H139112   4.403   1.266   2.230 -1.8817  0.8198 -0.8651
 5851TIP3    H239113   4.412   1.324   2.369  0.6252 -0.3991 -0.4783
 5852TIP3   OH239114   5.101   6.807   3.308  0.2159  0.2122  0.4828
 5852TIP3    H139115   5.187   6.847   3.298  0.8698 -1.2650 -0.1325
 5852TIP3    H239116   5.063   6.808   3.220  0.4086 -0.8445  0.3791
 5853TIP3   OH239117   5.608   3.460   2.562 -0.4705  0.2246 -0.2394
 5853TIP3    H139118   5.581   3.371   2.585 -0.9680  0.4839  0.1939
 5853TIP3    H239119   5.530   3.514   2.577 -0.0653  0.7927 -0.1302
 5854TIP3   OH239120   3.224   2.385   7.817 -0.2308 -0.2581 -0.0012
 5854TIP3    H139121   3.276   2.409   7.741 -0.1332  0.5528  0.3069
 5854TIP3    H239122   3.196   2.295   7.800  0.6618 -0.4537 -0.5024
 5855TIP3   OH239123   2.472   3.693   8.800  0.1567 -0.1908 -0.2530
 5855TIP3    H139124   2.433   3.620   8.753  0.0474 -0.1676 -0.1990
 5855TIP3    H239125   2.465   3.669   8.892 -0.3376  0.1100 -0.2062
 5856TIP3   OH239126   2.028   1.842   7.848 -0.0535  0.3907  0.4034
 5856TIP3    H139127   1.968   1.831   7.774 -0.3368 -1.7703  0.8940
 5856TIP3    H239128   1.994   1.784   7.916  1.1642  1.0463  1.6394
 5857TIP3   OH239129   3.744   1.816   2.165  0.1016 -0.0960  0.2119
 5857TIP3    H139130   3.675   1.883   2.166 -0.6285 -0.8451  0.6891
 5857TIP3    H239131   3.817   1.858   2.211  0.6040  1.3288 -1.7620
 5858TIP3   OH239132   5.395   2.051   0.276 -0.2250  0.6339  0.2727
 5858TIP3    H139133   5.327   1.994   0.240  1.2822  0.5109 -2.6793
 5858TIP3    H239134   5.393   2.129   0.220  2.8137  0.0764 -0.8061
 5859TIP3   OH239135   0.272   2.176   8.680 -0.2252 -0.3734  0.4968
 5859TIP3    H139136   0.353   2.148   8.637  1.2529  1.0497  2.1764
 5859TIP3    H239137   0.277   2.272   8.681 -1.9073 -0.2539  0.7408
 5860TIP3   OH239138   6.085   3.505   7.643 -0.4746  0.8017 -0.4434
 5860TIP3    H139139   6.097   3.421   7.599  0.0726  0.8199 -0.3329
 5860TIP3    H239140   6.138   3.567   7.592 -2.5843  1.5590 -1.8653
 5861TIP3   OH239141   3.110   3.436   8.356 -0.0896 -0.1744  0.1640
 5861TIP3    H139142   3.017   3.456   8.347 -0.8004 -3.0356  0.2295
 5861TIP3    H239143   3.120   3.402   8.444  1.2515  0.9297  0.4821
 5862TIP3   OH239144   3.995   1.326   0.041  0.3443  0.3747 -0.2487
 5862TIP3    H139145   3.925   1.389   0.022  0.3875  0.3714 -0.4236
 5862TIP3    H239146   3.955   1.262   0.099  0.3870  0.7354  0.1866
 5863TIP3   OH239147   3.662   0.874   0.325  0.0400 -0.0971  0.5630
 5863TIP3    H139148   3.680   0.956   0.281 -0.8687 -0.3867 -0.3891
 5863TIP3    H239149   3.577   0.846   0.291  0.9072 -2.0886 -0.1608
 5864TIP3   OH239150   0.232   6.466   1.488 -0.2686  0.8496 -0.5003
 5864TIP3    H139151   0.231   6.550   1.442 -0.4705  1.4579  0.5910
 5864TIP3    H239152   0.235   6.489   1.581 -1.5597 -0.3446 -0.1342
 5865TIP3   OH239153   0.483   0.333   0.433  0.0205  0.2175  0.7514
 5865TIP3    H139154   0.504   0.362   0.522  1.1472 -1.0550  0.9382
 5865TIP3    H239155   0.506   0.240   0.432  3.2721  0.8475 -1.7805
 5866TIP3   OH239156   1.597   3.831   8.132 -0.7419 -0.1769 -0.5663
 5866TIP3    H139157   1.662   3.894   8.163 -0.8765 -1.0703  1.6756
 5866TIP3    H239158   1.609   3.754   8.188 -1.3515 -1.7518 -2.4604
 5867TIP3   OH239159   0.465   3.674   3.134  0.4107  0.2394  0.1661
 5867TIP3    H139160   0.477   3.735   3.207 -0.2148  0.9176 -0.2872
 5867TIP3    H239161   0.501   3.720   3.058 -1.8412  0.9080 -0.5659
 5868TIP3   OH239162   5.074   1.245   2.315 -0.1040 -0.1089  0.2530
 5868TIP3    H139163   5.126   1.243   2.396  1.7076  1.1722 -0.8145
 5868TIP3    H239164   4.985   1.262   2.345  0.0385 -2.1504  2.1452
 5869TIP3   OH239165   0.531   2.134   7.776 -0.1161  0.2134  0.3751
 5869TIP3    H139166   0.449   2.137   7.727 -0.4744  0.2100  0.9541
 5869TIP3    H239167   0.514   2.190   7.853  0.9840  1.5426 -0.3160
 5870TIP3   OH239168   0.165   4.816   1.583  0.8436 -0.3288 -0.1666
 5870TIP3    H139169   0.117   4.861   1.653  2.3552  0.7318  0.2321
 5870TIP3    H239170   0.142   4.724   1.594  0.6569 -0.1288  1.4146
 5871TIP3   OH239171   4.090   2.031   2.083  0.0904 -0.0202 -0.0097
 5871TIP3    H139172   4.063   2.020   1.992  1.4815  0.8976 -0.5682
 5871TIP3    H239173   4.074   1.946   2.123 -0.9539 -0.3112 -0.9886
 5872TIP3   OH239174   1.776   6.563   3.152 -0.0632  0.2797 -0.1050
 5872TIP3    H139175   1.759   6.490   3.093 -3.1198  1.0651 -0.3766
 5872TIP3    H239176   1.834   6.527   3.219 -1.2977 -2.3403 -0.3297
 5873TIP3   OH239177   2.161   3.966   2.531  0.1831 -0.5466  0.9191
 5873TIP3    H139178   2.166   4.050   2.484  2.9759 -0.5376  1.1173
 5873TIP3    H239179   2.154   3.900   2.463 -0.9971 -0.2549  0.7304
 5874TIP3   OH239180   4.036   6.320   8.660 -0.5085  0.0352  0.1375
 5874TIP3    H139181   4.048   6.259   8.734 -2.0447 -0.8751 -0.3200
 5874TIP3    H239182   4.116   6.309   8.608 -0.1567 -0.5867  0.7737
 5875TIP3   OH239183   0.611   6.155   2.994  0.6186  0.0583  0.2364
 5875TIP3    H139184   0.703   6.162   3.021  0.3587  1.4876  0.8890
 5875TIP3    H239185   0.606   6.073   2.946  1.9356 -0.7735  1.4174
 5876TIP3   OH239186   3.070   3.268   0.107  0.2179  0.0628 -0.1492
 5876TIP3    H139187   3.150   3.319   0.116 -0.7106  2.0308 -1.8469
 5876TIP3    H239188   3.001   3.326   0.141 -0.8825  0.0127 -2.1291
 5877TIP3   OH239189   3.284   5.282   8.177  0.1270  0.7189  0.4626
 5877TIP3    H139190   3.369   5.322   8.154  0.8879 -1.9193 -1.9158
 5877TIP3    H239191   3.305   5.216   8.243 -0.2738  0.8216  0.6957
 5878TIP3   OH239192   0.291   4.223   8.195  0.2439  0.4530  0.5646
 5878TIP3    H139193   0.333   4.291   8.143  1.6554 -0.7226  0.0861
 5878TIP3    H239194   0.264   4.267   8.276  1.2692  1.5354  0.3409
 5879TIP3   OH239195   3.902   4.954   7.726  0.0604  0.1415 -0.4203
 5879TIP3    H139196   3.933   4.865   7.708 -0.4513  0.1517 -1.3648
 5879TIP3    H239197   3.981   5.008   7.723  0.3714 -0.2679  0.1486
 5880TIP3   OH239198   4.044   3.481   2.036 -0.4156  0.6263 -0.9025
 5880TIP3    H139199   3.988   3.542   1.989  0.8635  1.9653 -0.7609
 5880TIP3    H239200   4.003   3.395   2.022 -2.5986  1.5560 -0.5998
 5881TIP3   OH239201   1.730   1.872   1.504  0.1142 -0.4297  0.6119
 5881TIP3    H139202   1.777   1.887   1.586  1.0707  1.2154 -0.1739
 5881TIP3    H239203   1.796   1.841   1.443  0.7889  3.5608 -1.0039
 5882TIP3   OH239204   0.655   4.160   2.344 -0.4237  0.1034 -0.1816
 5882TIP3    H139205   0.664   4.246   2.304  1.6881  0.8565  1.6697
 5882TIP3    H239206   0.745   4.134   2.364 -0.9045 -2.9616 -1.4360
 5883TIP3   OH239207   2.542   0.296   0.297 -0.2821  0.7484  0.4861
 5883TIP3    H139208   2.632   0.302   0.330  0.5598 -2.3291 -0.7808
 5883TIP3    H239209   2.506   0.219   0.340 -1.8358  1.1405 -0.0541
 5884TIP3   OH239210   1.361   4.393   8.029 -0.1898 -0.0608 -0.0101
 5884TIP3    H139211   1.364   4.404   7.934 -1.9934 -1.0863 -0.2146
 5884TIP3    H239212   1.397   4.306   8.045 -0.5620 -0.1787  0.1876
 5885TIP3   OH239213   5.383   6.423   8.146  0.1943 -0.3852 -0.6481
 5885TIP3    H139214   5.398   6.392   8.057  1.4967 -0.1361 -0.5303
 5885TIP3    H239215   5.294   6.395   8.167  0.0219 -0.7891 -1.8786
 5886TIP3   OH239216   5.570   2.455   8.637 -0.2011  0.3972 -0.6647
 5886TIP3    H139217   5.593   2.432   8.727 -3.0510 -1.4056 -0.2356
 5886TIP3    H239218   5.653   2.470   8.593  1.4530 -1.3748  1.6150
 5887TIP3   OH239219   4.862   0.679   8.192  0.3999 -0.3139  0.1883
 5887TIP3    H139220   4.939   0.642   8.236  0.8392  2.2455  1.8358
 5887TIP3    H239221   4.791   0.666   8.255  0.2551  0.3074  0.1584
 5888TIP3   OH239222   0.544   3.738   8.541  0.7066  0.1323 -0.2247
 5888TIP3    H139223   0.529   3.796   8.616 -0.2735 -0.6574  0.2117
 5888TIP3    H239224   0.480   3.669   8.552  3.0093 -2.0669  0.2985
 5889TIP3   OH239225   4.427   3.353   0.529  0.5564 -0.0181  0.4642
 5889TIP3    H139226   4.508   3.325   0.573  0.0738 -1.2940  0.5896
 5889TIP3    H239227   4.363   3.285   0.550 -0.3635  0.6066 -0.2120
 5890TIP3   OH239228   3.924   2.280   0.137 -0.6778 -0.1028  0.1999
 5890TIP3    H139229   3.910   2.207   0.196 -0.3166 -0.1812  0.1943
 5890TIP3    H239230   3.900   2.246   0.051  1.3183 -0.8581 -0.1215
 5891TIP3   OH239231   0.482   1.636   2.073  0.2781 -0.1929  0.0739
 5891TIP3    H139232   0.495   1.605   2.163  1.5351  1.2943  0.4517
 5891TIP3    H239233   0.439   1.721   2.083  1.1356  0.3481 -0.6699
 5892TIP3   OH239234   4.676   3.721   3.066 -0.0577 -0.1469 -0.6839
 5892TIP3    H139235   4.750   3.765   3.107 -1.0243 -0.7229  1.9071
 5892TIP3    H239236   4.711   3.637   3.037  0.3981 -0.2898  0.2342
 5893TIP3   OH239237   0.722   1.960   7.729 -0.1292  0.6082 -0.1559
 5893TIP3    H139238   0.651   2.011   7.769 -1.1661 -2.1056  1.7884
 5893TIP3    H239239   0.802   1.999   7.763 -0.7009  2.5731 -0.9105
 5894TIP3   OH239240   0.869   4.291   0.312 -0.3513 -0.8113  0.6314
 5894TIP3    H139241   0.878   4.196   0.301  2.0539 -0.8873  2.3729
 5894TIP3    H239242   0.957   4.325   0.296 -1.6994  1.6169 -3.0570
 5895TIP3   OH239243   1.590   0.792   3.470  0.2174 -0.0896 -0.2052
 5895TIP3    H139244   1.647   0.779   3.546 -1.0038  0.1247  0.7896
 5895TIP3    H239245   1.529   0.861   3.498  1.0299  1.5270 -2.1387
 5896TIP3   OH239246   3.412   1.188   3.087 -0.1575 -0.2129  0.0511
 5896TIP3    H139247   3.501   1.156   3.076  0.4154  1.0515  0.7660
 5896TIP3    H239248   3.392   1.173   3.179  0.8369  3.0296  0.9091
 5897TIP3   OH239249   2.473   2.724   7.191 -1.2261 -0.2646 -0.8768
 5897TIP3    H139250   2.520   2.805   7.210  0.9070 -1.4692 -0.6224
 5897TIP3    H239251   2.422   2.743   7.113 -0.7690  1.3149 -0.8260
 5898TIP3   OH239252   5.466   5.301   7.377  0.2506 -0.4367  0.0676
 5898TIP3    H139253   5.500   5.371   7.433  0.1019 -0.3150  0.0067
 5898TIP3    H239254   5.384   5.274   7.419  0.6717 -1.0813  0.4958
 5899TIP3   OH239255   4.781   5.791   2.414 -0.0324  0.2958 -0.4693
 5899TIP3    H139256   4.738   5.845   2.480  2.7743  0.4022  1.4801
 5899TIP3    H239257   4.712   5.735   2.380 -1.9649  1.4000  1.3340
 5900TIP3   OH239258   6.128   6.056   2.132 -0.1465 -0.4486 -0.6545
 5900TIP3    H139259   6.096   6.021   2.048  1.0397 -2.3125 -0.3740
 5900TIP3    H239260   6.101   5.992   2.197 -0.1525  0.4620  0.2604
 5901TIP3   OH239261   4.126   5.330   1.639 -0.3734  0.5370 -0.1952
 5901TIP3    H139262   4.039   5.293   1.656 -0.4362 -0.3633 -2.1158
 5901TIP3    H239263   4.150   5.294   1.554  2.5677 -0.4575  0.9480
 5902TIP3   OH239264   2.736   0.937   2.389  0.7329 -0.2599  0.4481
 5902TIP3    H139265   2.675   0.979   2.450 -0.1336 -0.3447 -0.3384
 5902TIP3    H239266   2.716   0.844   2.396  1.4665 -0.3876  0.9171
 5903TIP3   OH239267   2.171   5.129   1.000  0.3726 -0.3758 -0.5840
 5903TIP3    H139268   2.114   5.191   1.045  1.9771  1.2804 -0.6840
 5903TIP3    H239269   2.180   5.056   1.061 -0.7994 -0.0788 -0.0304
 5904TIP3   OH239270   4.728   6.197   0.832  0.0005 -0.0982 -0.3596
 5904TIP3    H139271   4.789   6.254   0.879  0.1617 -0.8959  0.4326
 5904TIP3    H239272   4.763   6.108   0.846 -1.6240 -0.6452  0.6023
 5905TIP3   OH239273   5.728   3.514   8.626 -0.2189  0.2764 -0.0035
 5905TIP3    H139274   5.811   3.498   8.579 -0.0242 -0.9678  0.7055
 5905TIP3    H239275   5.662   3.515   8.558  0.3178  0.7745 -0.5322
 5906TIP3   OH239276   4.605   4.339   7.917 -0.2803  0.3704 -0.5161
 5906TIP3    H139277   4.690   4.366   7.883 -0.2508  1.0410  0.0777
 5906TIP3    H239278   4.615   4.341   8.012 -0.0944 -2.2719 -0.3845
 5907TIP3   OH239279   0.104   1.640   3.501  0.3744  0.5460  0.0729
 5907TIP3    H139280   0.053   1.575   3.454 -0.0400  0.7998  0.1710
 5907TIP3    H239281   0.040   1.690   3.552  0.4627  2.1298 -1.2717
 5908TIP3   OH239282   0.606   4.258   8.796  0.3699  0.1578  0.2048
 5908TIP3    H139283   0.605   4.164   8.780 -0.3386 -0.1007  1.5911
 5908TIP3    H239284   0.537   4.293   8.741  2.4479  0.3232 -2.5078
 5909TIP3   OH239285   5.851   6.315   0.427 -0.0609 -0.4256 -0.0150
 5909TIP3    H139286   5.824   6.247   0.488  0.0854 -0.5538 -0.0936
 5909TIP3    H239287   5.946   6.310   0.426 -0.0018  0.3463  0.6310
 5910TIP3   OH239288   1.351   4.657   2.223  0.0064 -0.0126  0.7694
 5910TIP3    H139289   1.406   4.710   2.281  0.3853  0.5659 -0.1000
 5910TIP3    H239290   1.282   4.716   2.193 -1.3529 -0.8315  2.1383
 5911TIP3   OH239291   1.633   4.582   1.763  0.8949 -0.5129  0.4854
 5911TIP3    H139292   1.575   4.582   1.839  2.1869  1.0870  1.5456
 5911TIP3    H239293   1.662   4.491   1.756 -0.8711 -1.1244  0.5599
 5912TIP3   OH239294   0.001   5.134   2.538  0.6594  0.1270  0.3656
 5912TIP3    H139295  -0.069   5.198   2.551 -1.7661 -2.4737  1.2009
 5912TIP3    H239296   0.041   5.158   2.455 -0.0179  2.7572  0.7111
 5913TIP3   OH239297   4.158   4.495   7.111  0.4828  0.3845 -0.2863
 5913TIP3    H139298   4.071   4.463   7.088  1.7771 -2.3544 -1.8592
 5913TIP3    H239299   4.170   4.468   7.202  0.1131 -0.2067 -0.4112
 5914TIP3   OH239300   0.155   5.377   3.688 -0.4996  0.4429 -0.0343
 5914TIP3    H139301   0.207   5.310   3.644  0.2627  1.9854 -1.6010
 5914TIP3    H239302   0.207   5.403   3.764  0.4233  1.0408 -0.8543
 5915TIP3   OH239303   3.308   1.171   2.477  0.0557  0.1337 -0.1770
 5915TIP3    H139304   3.313   1.120   2.396 -0.0859  0.6913 -0.5443
 5915TIP3    H239305   3.233   1.135   2.524 -1.4768  1.4555 -1.4798
 5916TIP3   OH239306   1.418   1.528   1.886  0.0849  0.3456  0.0933
 5916TIP3    H139307   1.496   1.491   1.845 -0.5005  0.3847 -1.0915
 5916TIP3    H239308   1.345   1.486   1.841 -0.5812  1.0855  0.4659
 5917TIP3   OH239309   3.481   6.079   2.462  0.0139 -0.7254  0.3135
 5917TIP3    H139310   3.435   6.019   2.520  1.9137 -1.4331  1.1503
 5917TIP3    H239311   3.532   6.022   2.404 -1.6197 -0.0356 -1.9470
 5918TIP3   OH239312   0.271   0.362   3.313  0.1483  0.2977  0.0875
 5918TIP3    H139313   0.221   0.310   3.376 -0.4688  2.0235  1.0806
 5918TIP3    H239314   0.328   0.417   3.367 -1.0342  2.4763 -0.7356
 5919TIP3   OH239315   6.731   1.299   2.248  0.2844 -0.0164 -0.1440
 5919TIP3    H139316   6.745   1.278   2.341 -0.6411  0.2336  0.0595
 5919TIP3    H239317   6.819   1.304   2.211  0.6888  0.6444  0.8874
 5920TIP3   OH239318   0.706   0.098   0.510 -0.8805 -1.0959  0.2216
 5920TIP3    H139319   0.745   0.068   0.428 -0.8796 -2.2376  0.6316
 5920TIP3    H239320   0.731   0.191   0.516  0.6956 -1.4805 -0.1400
 5921TIP3   OH239321   3.077   6.407   0.001  0.4245 -0.1139  0.0845
 5921TIP3    H139322   3.052   6.390   0.092 -1.1975  1.1784 -0.0770
 5921TIP3    H239323   3.104   6.499   0.000 -1.1780  0.3785 -1.0322
 5922TIP3   OH239324   0.549   5.399   2.540 -0.9509  0.3638 -0.0225
 5922TIP3    H139325   0.613   5.467   2.519  0.0242 -0.3698  0.4733
 5922TIP3    H239326   0.536   5.407   2.635  0.5254 -1.2190  0.3774
 5923TIP3   OH239327   3.190   0.200   0.467  0.0695  0.5724  0.4802
 5923TIP3    H139328   3.244   0.123   0.485 -0.5549 -0.0436 -0.2144
 5923TIP3    H239329   3.139   0.214   0.547 -1.3833 -1.0547 -0.1016
 5924TIP3   OH239330   2.279   0.363   1.050  0.0436  0.0099  0.5433
 5924TIP3    H139331   2.229   0.359   0.969  0.3951 -0.7308  0.3521
 5924TIP3    H239332   2.319   0.277   1.057 -1.1336 -0.4457  2.2441
 5925TIP3   OH239333   2.588   5.888   3.235 -0.3770 -0.3909  0.4559
 5925TIP3    H139334   2.538   5.888   3.153 -1.3664 -0.0410  1.0382
 5925TIP3    H239335   2.593   5.796   3.261  2.1499 -0.8384 -1.2587
 5926TIP3   OH239336   0.167   6.737   2.178 -0.2876 -0.2282  0.3780
 5926TIP3    H139337   0.222   6.800   2.131  1.0773  0.4654  2.7353
 5926TIP3    H239338   0.149   6.669   2.114 -0.2127  1.5937 -1.7074
 5927TIP3   OH239339   4.900   2.749   1.533 -0.5106  0.0332 -0.1376
 5927TIP3    H139340   4.960   2.757   1.459 -1.2930  1.5481 -0.6696
 5927TIP3    H239341   4.908   2.658   1.561  0.3641 -0.3810 -1.6099
 5928TIP3   OH239342   1.445   0.541   2.068 -0.1053  0.3033 -0.0107
 5928TIP3    H139343   1.475   0.629   2.045 -1.5935  1.1788  1.2020
 5928TIP3    H239344   1.501   0.516   2.142 -0.5654  0.8144  0.5192
 5929TIP3   OH239345   5.285   2.146   8.349 -0.3468 -0.5479  0.1107
 5929TIP3    H139346   5.349   2.196   8.298  0.9405  1.3922  3.3302
 5929TIP3    H239347   5.241   2.211   8.404 -2.5813 -2.3291  0.6128
 5930TIP3   OH239348   6.046   0.358   1.622 -0.3667  0.2058 -0.5176
 5930TIP3    H139349   6.012   0.307   1.549 -1.8112  1.4232 -0.7377
 5930TIP3    H239350   5.996   0.328   1.698  1.3548 -1.2972  0.1126
 5931TIP3   OH239351   3.550   0.716   3.234 -0.1246  0.6307  0.6780
 5931TIP3    H139352   3.586   0.760   3.157 -0.5459  0.1461  0.2023
 5931TIP3    H239353   3.602   0.636   3.242 -0.4037  0.4428  0.6074
 5932TIP3   OH239354   3.894   3.620   0.807 -0.5535  0.0011 -1.0215
 5932TIP3    H139355   3.817   3.618   0.864 -1.4284  0.8379 -2.1217
 5932TIP3    H239356   3.897   3.710   0.774  1.8382  0.4733  0.2057
 5933TIP3   OH239357   6.643   3.486   8.750  0.1884 -0.4200  0.1694
 5933TIP3    H139358   6.578   3.419   8.771  0.9160 -0.5217  2.2611
 5933TIP3    H239359   6.697   3.445   8.682 -0.9962 -0.8968 -0.5221
 5934TIP3   OH239360   2.426   3.300   1.987  0.2435 -0.2005  0.5795
 5934TIP3    H139361   2.504   3.300   2.042 -0.1573 -0.5146  1.1749
 5934TIP3    H239362   2.376   3.223   2.017 -0.7588  0.5553  0.9167
 5935TIP3   OH239363   3.351   6.538   3.037 -0.0043 -0.2468 -0.3982
 5935TIP3    H139364   3.283   6.587   3.084  0.3417  0.6667 -0.8402
 5935TIP3    H239365   3.418   6.603   3.017  2.0082 -1.4851  1.8257
 5936TIP3   OH239366   2.772   3.956   2.214 -0.0001  0.1455  0.0462
 5936TIP3    H139367   2.758   3.867   2.180 -0.5067  1.0019 -2.2105
 5936TIP3    H239368   2.771   4.011   2.136  1.5021  2.0214  1.2653
 5937TIP3   OH239369   3.990   1.037   1.072 -0.3384 -0.4910  0.4123
 5937TIP3    H139370   3.907   1.006   1.107 -0.5340 -0.9715 -0.4530
 5937TIP3    H239371   4.046   0.959   1.071 -0.5177 -0.6229 -0.8481
 5938TIP3   OH239372   5.360   6.654   8.450 -0.1363  0.0186  0.1502
 5938TIP3    H139373   5.326   6.677   8.363  1.2720  0.6115 -0.2695
 5938TIP3    H239374   5.442   6.609   8.433  0.0050 -0.1423  1.1742
 5939TIP3   OH239375   5.666   1.076   0.895  0.9944 -0.4516 -0.0051
 5939TIP3    H139376   5.597   1.030   0.943 -0.3974  3.4904  2.1725
 5939TIP3    H239377   5.647   1.057   0.803 -2.3087 -0.5447  0.5645
 5940TIP3   OH239378   2.589   2.302   2.380 -0.7513  0.2785 -0.1840
 5940TIP3    H139379   2.584   2.393   2.410  2.8276  0.1040  1.4942
 5940TIP3    H239380   2.633   2.307   2.295 -0.8430  0.1503 -0.2391
 5941TIP3   OH239381   2.666   5.871   0.890  0.3382 -0.7568  0.0613
 5941TIP3    H139382   2.712   5.863   0.806 -0.9934 -0.3883 -0.7551
 5941TIP3    H239383   2.727   5.915   0.948  1.0712 -0.4708 -0.9094
 5942TIP3   OH239384   1.731   2.788   2.013  0.5305 -0.2217 -0.1428
 5942TIP3    H139385   1.699   2.860   1.959  1.5525  1.3595  1.2803
 5942TIP3    H239386   1.661   2.723   2.010 -0.5325  0.9250 -1.2660
 5943TIP3   OH239387   6.015   5.737   0.059 -0.1894 -0.2770  0.5394
 5943TIP3    H139388   5.980   5.741   0.148  2.1910 -0.7292  1.5751
 5943TIP3    H239389   6.057   5.652   0.054  3.3163  1.2776  0.5191
 5944TIP3   OH239390   5.784   1.696   7.989  0.3973 -0.0740  0.3566
 5944TIP3    H139391   5.861   1.731   7.945 -0.1049  2.1699  1.1215
 5944TIP3    H239392   5.810   1.686   8.080 -0.3714  1.3799  0.7653
 5945TIP3   OH239393   0.532   3.079   1.030  0.3933  0.3010  0.0015
 5945TIP3    H139394   0.498   3.105   0.944 -2.9696 -1.6615  0.5438
 5945TIP3    H239395   0.484   2.998   1.051  0.7039  0.9460  3.9224
 5946TIP3   OH239396   1.759   0.473   2.449  0.1029  0.5375  0.8657
 5946TIP3    H139397   1.829   0.438   2.393  0.1003 -0.1771  1.3003
 5946TIP3    H239398   1.763   0.419   2.528 -3.2770 -2.0797 -0.4721
 5947TIP3   OH239399   2.585   4.447   1.336  0.3379  0.2253 -0.7697
 5947TIP3    H139400   2.572   4.361   1.377  2.4777 -0.3364 -1.1426
 5947TIP3    H239401   2.515   4.453   1.271 -1.7924  0.1925  1.3923
 5948TIP3   OH239402   6.117   4.281   1.298 -0.0072 -0.6062  0.0142
 5948TIP3    H139403   6.111   4.205   1.241  1.0894 -2.0421  1.7187
 5948TIP3    H239404   6.087   4.249   1.383 -0.8747  1.2603  0.4610
 5949TIP3   OH239405   0.272   3.836   8.045  0.0099  0.2695 -0.2190
 5949TIP3    H139406   0.306   3.756   8.004 -2.0766 -2.8880  3.5683
 5949TIP3    H239407   0.332   3.852   8.118 -1.4272  0.2051  0.9932
 5950TIP3   OH239408   0.996   2.934   8.258  0.2124  0.7818  0.7497
 5950TIP3    H139409   0.962   2.930   8.348  1.6359 -0.6619  1.2672
 5950TIP3    H239410   1.084   2.897   8.264 -0.8156 -2.5020 -1.8253
 5951TIP3   OH239411   2.915   2.655   8.804 -0.1113 -0.4178  0.5935
 5951TIP3    H139412   2.901   2.749   8.816 -1.2596 -0.8262  2.9924
 5951TIP3    H239413   2.858   2.631   8.731  0.9316  0.8716 -0.7064
 5952TIP3   OH239414   1.049   0.174   3.430 -0.1549  0.1747  0.0747
 5952TIP3    H139415   1.075   0.246   3.372 -1.3278  1.1447  0.7066
 5952TIP3    H239416   1.112   0.104   3.411 -0.3054  0.5497 -2.1498
 5953TIP3   OH239417   4.618   5.389   0.720 -0.2420 -0.6120 -0.3181
 5953TIP3    H139418   4.584   5.300   0.706 -0.3080 -0.7435  0.6110
 5953TIP3    H239419   4.547   5.435   0.766  0.5197 -0.6694  0.9695
 5954TIP3   OH239420   0.363   1.357   0.614  0.4231 -0.5876 -0.0962
 5954TIP3    H139421   0.327   1.272   0.589  0.3418 -0.6455  0.2173
 5954TIP3    H239422   0.438   1.336   0.669  0.6183 -0.4590 -0.3086
 5955TIP3   OH239423   4.405   6.790   2.979  0.1044  0.6760 -0.1082
 5955TIP3    H139424   4.384   6.878   2.947 -0.5232  1.6472  2.6660
 5955TIP3    H239425   4.485   6.802   3.030 -0.1874 -0.2761  0.6119
 5956TIP3   OH239426   2.253   2.060   8.793 -0.2555 -0.1441  0.5963
 5956TIP3    H139427   2.311   2.103   8.730  0.4864  2.1301  2.6754
 5956TIP3    H239428   2.310   1.998   8.840 -0.5703 -1.0884 -0.2398
 5957TIP3   OH239429   2.160   6.464   3.004 -0.1186  0.4066  0.2930
 5957TIP3    H139430   2.107   6.414   2.943  0.5484  0.4016 -0.3013
 5957TIP3    H239431   2.102   6.532   3.037 -0.9419 -0.5404  0.8584
 5958TIP3   OH239432   2.604   2.511   1.696 -0.1275 -0.2222 -0.2822
 5958TIP3    H139433   2.541   2.565   1.649  0.1468  0.3441 -0.0008
 5958TIP3    H239434   2.686   2.561   1.693  0.7169 -1.5729 -1.9092
 5959TIP3   OH239435   3.333   6.095   0.359  0.3071  0.1097 -0.5405
 5959TIP3    H139436   3.363   6.182   0.333 -0.2345 -0.1427 -2.1553
 5959TIP3    H239437   3.254   6.080   0.307  0.2525 -1.2455 -0.1136
 5960TIP3   OH239438   5.605   1.427   1.692  0.6219  0.0392  0.3769
 5960TIP3    H139439   5.611   1.435   1.788 -0.7847  0.6847  0.4268
 5960TIP3    H239440   5.640   1.509   1.659  3.4154 -1.1056  0.1913
 5961TIP3   OH239441   6.052   0.222   2.858 -0.3438  0.3841  0.0871
 5961TIP3    H139442   6.049   0.159   2.930  1.7253  0.7951  0.5782
 5961TIP3    H239443   6.099   0.176   2.788  0.6449  1.1319  0.2365
 5962TIP3   OH239444   5.445   0.085   1.605  0.4983 -0.2833  0.3141
 5962TIP3    H139445   5.397   0.157   1.646  0.1666  0.3100 -1.0740
 5962TIP3    H239446   5.377   0.029   1.568  0.7403 -1.4887  1.6032
 5963TIP3   OH239447   4.758   2.613   2.005 -0.1679  0.5473 -0.1947
 5963TIP3    H139448   4.690   2.565   1.958 -2.9020  1.5133  2.4403
 5963TIP3    H239449   4.814   2.545   2.043 -0.9175 -0.3799 -0.7193
 5964TIP3   OH239450   3.665   2.452   8.008 -0.5125 -0.0375  0.0335
 5964TIP3    H139451   3.596   2.488   8.064 -0.2169 -0.4262  0.6561
 5964TIP3    H239452   3.620   2.387   7.954 -0.7627  0.1982 -0.0431
 5965TIP3   OH239453   1.149   1.810   1.975  0.4454 -0.5822 -0.6734
 5965TIP3    H139454   1.087   1.835   1.907  1.3899  0.4590 -1.1655
 5965TIP3    H239455   1.100   1.820   2.057 -0.5141 -1.2935 -1.1386
 5966TIP3   OH239456   3.080   4.107   2.178  0.3358  0.2381 -0.2115
 5966TIP3    H139457   3.142   4.114   2.250 -0.4150  3.0444  0.2996
 5966TIP3    H239458   2.994   4.114   2.219 -0.2444 -1.0317 -1.1470
 5967TIP3   OH239459   3.974   5.363   8.162  0.2069  0.4242 -0.3476
 5967TIP3    H139460   3.990   5.286   8.107  0.8417 -1.5577  2.3679
 5967TIP3    H239461   3.910   5.414   8.114 -1.6952 -2.7554 -1.5162
 5968TIP3   OH239462   0.367   4.419   8.049  0.0128 -0.0230 -0.0506
 5968TIP3    H139463   0.455   4.438   8.081  0.4328 -2.8553  0.7218
 5968TIP3    H239464   0.318   4.500   8.063  2.2804  1.3979  0.1494
 5969TIP3   OH239465   2.254   4.631   1.274 -0.0191 -0.1629  0.3638
 5969TIP3    H139466   2.162   4.653   1.268 -0.6876 -2.3275  1.3792
 5969TIP3    H239467   2.270   4.572   1.201  0.6869  0.5139 -0.0465
 5970TIP3   OH239468   2.035   2.008   8.574  0.0361 -0.1753  0.0679
 5970TIP3    H139469   2.053   2.061   8.651  0.2114  0.0808 -0.1519
 5970TIP3    H239470   2.082   2.050   8.503 -0.3264 -0.2675 -0.2338
 5971TIP3   OH239471   3.938   4.855   8.481 -0.0700  0.1362  0.1858
 5971TIP3    H139472   3.979   4.901   8.554  3.8517 -2.7992  0.1417
 5971TIP3    H239473   3.920   4.923   8.416  1.7680  2.0658  1.6000
 5972TIP3   OH239474   4.664   5.772   1.617 -0.0745  0.0228  0.4622
 5972TIP3    H139475   4.593   5.759   1.554 -0.7166 -0.0242  1.1676
 5972TIP3    H239476   4.729   5.824   1.570 -1.5808  2.0746  0.4673
 5973TIP3   OH239477   0.027   3.694   0.633  0.1513  0.1100 -0.6284
 5973TIP3    H139478  -0.062   3.672   0.661 -0.6914  1.8785 -1.6721
 5973TIP3    H239479   0.054   3.621   0.577 -0.9714 -0.0915 -0.9298
 5974TIP3   OH239480   4.324   0.695   8.679 -0.0014 -0.0488  0.7320
 5974TIP3    H139481   4.345   0.602   8.689 -2.9798 -0.7261  1.9136
 5974TIP3    H239482   4.288   0.720   8.764 -0.4883  1.8301  0.0213
 5975TIP3   OH239483   4.176   4.395   7.377  0.1379 -0.1734  0.1129
 5975TIP3    H139484   4.264   4.432   7.376 -1.1332  3.2204 -0.9207
 5975TIP3    H239485   4.125   4.457   7.430 -1.9268 -1.1717 -0.6145
 5976TIP3   OH239486   4.501   3.076   0.820 -0.3732  0.0890  0.5531
 5976TIP3    H139487   4.427   3.100   0.877 -1.4648  0.9946 -1.1701
 5976TIP3    H239488   4.466   3.005   0.765 -0.1523  0.8845 -0.6404
 5977TIP3   OH239489   2.651   1.469   1.881 -0.2335 -0.4448  0.1052
 5977TIP3    H139490   2.617   1.519   1.955  2.2135 -1.2000  1.8516
 5977TIP3    H239491   2.593   1.492   1.808 -1.3031  2.1943  1.6448
 5978TIP3   OH239492   5.364   3.606   2.552  0.0247  0.0343  0.0260
 5978TIP3    H139493   5.321   3.641   2.474 -1.0485 -0.9917  0.1305
 5978TIP3    H239494   5.370   3.681   2.611 -1.9794  0.1597  0.1427
 5979TIP3   OH239495   6.430   1.256   2.317  0.2564  0.1390 -0.4997
 5979TIP3    H139496   6.507   1.270   2.262  0.0678  1.8334 -0.3918
 5979TIP3    H239497   6.357   1.260   2.255  0.1393  0.6182 -0.3386
 5980TIP3   OH239498   1.759   4.678   7.417  0.0164 -0.3592 -0.2168
 5980TIP3    H139499   1.730   4.598   7.374  0.8625 -1.0351  0.4236
 5980TIP3    H239500   1.760   4.744   7.348  1.0087 -1.3257 -1.1711
 5981TIP3   OH239501   4.162   0.010   1.663  0.0336 -0.0352 -0.2691
 5981TIP3    H139502   4.176  -0.041   1.742 -1.4796  0.1758  0.1506
 5981TIP3    H239503   4.150  -0.055   1.594  0.0905 -0.2217 -0.1039
 5982TIP3   OH239504   6.504   6.240   8.577  0.1536  0.8844  0.2996
 5982TIP3    H139505   6.537   6.153   8.553  1.4421  1.3697  0.2383
 5982TIP3    H239506   6.429   6.254   8.519  0.6907  0.3267 -0.5514
 5983TIP3   OH239507   3.513   5.761   0.626 -0.2035  0.8008  0.5918
 5983TIP3    H139508   3.473   5.686   0.672  0.0422  0.8273  0.8509
 5983TIP3    H239509   3.498   5.742   0.533  1.6358 -0.6085  0.5336
 5984TIP3   OH239510   5.109   0.803   1.375  0.0679 -0.6155  0.0193
 5984TIP3    H139511   5.109   0.860   1.452  0.0048 -0.3760 -0.1539
 5984TIP3    H239512   5.198   0.811   1.339  0.2981 -1.2541  0.4490
 5985TIP3   OH239513   1.792   1.435   7.697  0.2341 -0.0189 -0.0715
 5985TIP3    H139514   1.801   1.357   7.642  0.9659 -0.2014  0.2971
 5985TIP3    H239515   1.755   1.501   7.638  0.0726 -0.4985 -0.5168
 5986TIP3   OH239516   6.356   3.976   0.012  0.2236 -0.1745 -0.1952
 5986TIP3    H139517   6.414   3.977  -0.064  2.2767  0.9966  1.2769
 5986TIP3    H239518   6.399   4.032   0.076 -2.2198  0.1712  1.2893
 5987TIP3   OH239519   3.684   0.301   1.529  0.7433 -0.0928  0.8700
 5987TIP3    H139520   3.770   0.310   1.488  0.9299  1.2326  1.5301
 5987TIP3    H239521   3.702   0.262   1.615  0.9583  2.2239  1.9302
 5988TIP3   OH239522   2.317   0.386   7.864  0.7271  0.4103 -1.0698
 5988TIP3    H139523   2.347   0.299   7.892  1.3601  1.3208  1.3784
 5988TIP3    H239524   2.395   0.441   7.872 -0.1490  1.5998 -0.5281
 5989TIP3   OH239525   2.346   5.537   2.432 -0.4336  0.1329  0.4938
 5989TIP3    H139526   2.282   5.492   2.486 -0.8399  1.2649  0.9966
 5989TIP3    H239527   2.312   5.627   2.425  1.0480  0.7372  0.7084
 5990TIP3   OH239528   0.692   5.053   8.585 -0.7718  0.3550 -0.1508
 5990TIP3    H139529   0.689   5.054   8.489 -1.8322  0.6928 -0.1191
 5990TIP3    H239530   0.785   5.069   8.605 -0.4959  0.0666 -1.1160
 5991TIP3   OH239531   6.479   0.921   0.949  0.3412  0.2367 -0.8259
 5991TIP3    H139532   6.523   0.938   0.866  1.4698  0.6503 -0.1521
 5991TIP3    H239533   6.534   0.963   1.015  0.5902 -1.8877  0.3750
 5992TIP3   OH239534   0.921   1.220   2.036  0.8681  0.6132 -0.5710
 5992TIP3    H139535   0.933   1.204   2.129 -1.8216 -0.4045 -0.3154
 5992TIP3    H239536   0.905   1.314   2.030  0.5333  0.6032  0.0655
 5993TIP3   OH239537   6.435   5.641   2.094  0.0578 -0.4820  0.3083
 5993TIP3    H139538   6.395   5.631   2.180  1.2751 -2.1160  0.7318
 5993TIP3    H239539   6.373   5.601   2.033 -0.4184 -0.0747  0.5147
 5994TIP3   OH239540   0.341   1.377   3.018  0.0467 -0.6259  0.4881
 5994TIP3    H139541   0.343   1.292   2.974  1.3526 -0.1182 -0.4796
 5994TIP3    H239542   0.413   1.426   2.979  1.9764 -0.4582  3.8470
 5995TIP3   OH239543   2.212   1.179   3.181 -0.4874 -0.0314 -0.6502
 5995TIP3    H139544   2.158   1.107   3.214  1.2794  0.0514  2.8628
 5995TIP3    H239545   2.182   1.256   3.229  1.2617  0.4158 -0.2085
 5996TIP3   OH239546   5.166   4.256   8.672  0.1739  0.6994  0.1474
 5996TIP3    H139547   5.153   4.350   8.661 -0.0412  0.6479 -0.0381
 5996TIP3    H239548   5.082   4.217   8.649  0.6282  0.3632 -1.0036
 5997TIP3   OH239549   1.152   4.721   1.425 -0.6656  0.7106  0.3028
 5997TIP3    H139550   1.070   4.684   1.457 -0.2570  1.7278  2.6986
 5997TIP3    H239551   1.212   4.716   1.499  0.8288  1.8375 -0.7644
 5998TIP3   OH239552   4.424   6.228   3.523 -0.1257  0.3251  0.3513
 5998TIP3    H139553   4.343   6.180   3.505  0.0792  0.4618 -1.0850
 5998TIP3    H239554   4.404   6.318   3.500 -0.3498  0.8874  2.5590
 5999TIP3   OH239555   0.895   2.023   8.783  0.0062 -0.0059  0.8011
 5999TIP3    H139556   0.811   2.042   8.824 -1.1563  1.8018 -2.0797
 5999TIP3    H239557   0.873   1.974   8.704  2.0339 -2.5703  1.7021
 6000TIP3   OH239558   3.467   4.432   8.373  0.8593 -0.2589  0.5051
 6000TIP3    H139559   3.402   4.454   8.440  1.1102  0.5356  0.5027
 6000TIP3    H239560   3.503   4.517   8.347  0.5723 -0.5336 -0.8402
 6001TIP3   OH239561   2.476   0.655   7.601 -0.9373 -0.6011  0.3995
 6001TIP3    H139562   2.561   0.611   7.603  0.0854  1.1811 -1.0069
 6001TIP3    H239563   2.491   0.733   7.548 -3.3611 -0.0053  0.4964
 6002TIP3   OH239564   1.101   4.528   8.770  0.3695 -0.3717 -0.0183
 6002TIP3    H139565   1.174   4.588   8.784 -0.4026  0.4737  0.4440
 6002TIP3    H239566   1.120   4.486   8.686  0.7926  0.7101 -0.4804
 6003TIP3   OH239567   0.035   4.485   8.801 -0.2050 -0.6101 -0.5699
 6003TIP3    H139568   0.100   4.531   8.853 -1.4798  0.6332  0.0026
 6003TIP3    H239569   0.065   4.495   8.710  0.9153 -0.9589 -0.2525
 6004TIP3   OH239570   1.434   6.319   0.308 -0.6744 -0.0766 -0.2486
 6004TIP3    H139571   1.413   6.227   0.288  0.6958 -0.1796 -1.3287
 6004TIP3    H239572   1.506   6.313   0.371 -1.0878  0.2738  0.2648
 6005TIP3   OH239573   6.735   4.057   1.825  0.2309 -0.3067 -0.1524
 6005TIP3    H139574   6.828   4.053   1.849  0.5237  0.7566 -1.0596
 6005TIP3    H239575   6.711   4.149   1.838 -0.9431 -0.7320  0.9107
 6006TIP3   OH239576   6.740   1.602   2.734  0.1777  0.7462 -0.4410
 6006TIP3    H139577   6.793   1.523   2.746 -1.1210  0.1241  1.9379
 6006TIP3    H239578   6.702   1.619   2.821 -0.9149  3.0334 -1.2713
 6007TIP3   OH239579   6.603   1.749   1.869  0.4168 -0.7163  0.2777
 6007TIP3    H139580   6.509   1.742   1.851  0.2967  0.8795  0.1870
 6007TIP3    H239581   6.638   1.663   1.845 -1.0796 -1.4986  0.7624
 6008TIP3   OH239582   6.284   4.083   3.178  0.1852 -0.4665 -0.2209
 6008TIP3    H139583   6.239   4.167   3.188  0.7871 -0.2679  0.9853
 6008TIP3    H239584   6.305   4.056   3.267 -0.7074 -2.3087 -0.5098
 6009TIP3   OH239585   5.534   4.130   7.565  0.3869 -0.3004 -0.1976
 6009TIP3    H139586   5.457   4.076   7.585  1.0054 -1.9929 -2.0433
 6009TIP3    H239587   5.535   4.135   7.469  1.3551  1.5814 -0.1287
 6010TIP3   OH239588   4.964   2.862   8.745  0.0193  0.5968 -0.5085
 6010TIP3    H139589   5.017   2.884   8.822 -0.7267  1.3101 -0.1874
 6010TIP3    H239590   4.998   2.777   8.716  1.0630  0.8577 -0.0754
 6011TIP3   OH239591   1.275   0.045   7.518  0.3533  0.0800  0.1578
 6011TIP3    H139592   1.318   0.060   7.433  2.5549  0.6744  1.3186
 6011TIP3    H239593   1.204  -0.016   7.497  0.7475  0.2927 -2.1315
 6012TIP3   OH239594   0.267   5.781   8.113 -0.0667  1.0145  0.2694
 6012TIP3    H139595   0.216   5.840   8.168  2.0148  4.1194 -0.8551
 6012TIP3    H239596   0.230   5.792   8.025 -1.1011 -1.2172  0.3547
 6013TIP3   OH239597   0.821   3.734   0.423  0.4371 -0.1375  0.0337
 6013TIP3    H139598   0.739   3.740   0.472 -0.0433 -0.0084 -0.7705
 6013TIP3    H239599   0.808   3.660   0.363  1.5703 -1.2386  1.1001
 6014TIP3   OH239600   0.718   4.815   8.041  0.5259  0.0470 -0.0740
 6014TIP3    H139601   0.651   4.876   8.009 -0.8578 -1.4012 -0.0866
 6014TIP3    H239602   0.684   4.728   8.017  0.9722 -0.9263  2.4647
 6015TIP3   OH239603   0.588   5.455   2.209 -0.8752 -0.2312  0.0334
 6015TIP3    H139604   0.635   5.404   2.275  0.6072  0.8715 -0.1318
 6015TIP3    H239605   0.581   5.397   2.133  0.2959 -0.3903  0.0399
 6016TIP3   OH239606   6.545   6.558   8.138 -0.3845 -0.0438  0.2529
 6016TIP3    H139607   6.472   6.497   8.147  0.4197 -1.5312 -2.1575
 6016TIP3    H239608   6.516   6.621   8.072 -0.6938  1.4389  1.7430
 6017TIP3   OH239609   4.119   2.976   8.013  0.5436  0.4181  0.1780
 6017TIP3    H139610   4.097   2.998   8.103  1.3388 -1.7379  0.9700
 6017TIP3    H239611   4.131   2.881   8.014  0.6512  0.3505 -2.1936
 6018TIP3   OH239612   3.383   0.413   0.115  0.3980  0.5339 -0.1154
 6018TIP3    H139613   3.381   0.342   0.179 -0.5906 -0.8209 -1.5773
 6018TIP3    H239614   3.319   0.477   0.147  2.2101  1.4561  1.8876
 6019TIP3   OH239615   5.181   4.296   3.050  0.0134 -0.4299  0.1415
 6019TIP3    H139616   5.217   4.366   3.105  0.2786 -1.0600  0.7837
 6019TIP3    H239617   5.223   4.216   3.081 -1.4733 -1.1167  0.5144
 6020TIP3   OH239618   0.086   1.984   1.655  0.2808  0.0416 -0.0519
 6020TIP3    H139619   0.153   1.916   1.667 -0.3158 -0.8762 -1.6111
 6020TIP3    H239620   0.025   1.947   1.590 -0.7536  1.5758 -0.0194
 6021TIP3   OH239621   2.730   0.161   0.085  0.8723 -0.0547 -0.2152
 6021TIP3    H139622   2.663   0.146   0.151  0.7311 -0.8403 -0.5292
 6021TIP3    H239623   2.700   0.112   0.008  2.2631 -1.2572 -0.0533
 6022TIP3   OH239624   0.863   3.340   1.133  0.3003 -0.4821 -0.4022
 6022TIP3    H139625   0.891   3.413   1.188  0.5022 -0.3443 -0.6824
 6022TIP3    H239626   0.771   3.359   1.112 -0.0001 -0.9172  0.4937
 6023TIP3   OH239627   3.998   5.654   8.673 -0.1326 -0.1498  0.3245
 6023TIP3    H139628   4.017   5.654   8.767  1.9023  1.2432  0.0011
 6023TIP3    H239629   3.933   5.723   8.662 -0.8081 -0.7090  0.7769
 6024TIP3   OH239630   5.184   1.153   1.877 -0.1221 -0.4836  0.2532
 6024TIP3    H139631   5.169   1.217   1.946 -2.2401  0.9066 -1.3693
 6024TIP3    H239632   5.250   1.193   1.821 -0.5798 -0.2429 -0.1198
 6025TIP3   OH239633   5.395   0.891   8.654 -0.1916  0.3030 -0.6178
 6025TIP3    H139634   5.482   0.850   8.651 -0.0574  0.6343 -1.3845
 6025TIP3    H239635   5.381   0.924   8.566 -1.1782  0.1028 -0.5470
 6026TIP3   OH239636   1.482   5.577   8.592  0.4207 -0.1640  0.4392
 6026TIP3    H139637   1.427   5.563   8.515 -0.3100  2.1600  0.4452
 6026TIP3    H239638   1.572   5.577   8.559  0.2058 -0.6422 -0.1446
 6027TIP3   OH239639   0.711   6.238   2.554 -0.0746 -0.3143  0.0886
 6027TIP3    H139640   0.694   6.289   2.632 -1.4147 -0.4883 -0.0740
 6027TIP3    H239641   0.746   6.301   2.491 -1.2263  0.3170  0.0579
 6028TIP3   OH239642   2.160   5.541   2.136  0.2686 -0.5209 -0.1615
 6028TIP3    H139643   2.244   5.496   2.145  0.1693 -0.8119 -0.6698
 6028TIP3    H239644   2.182   5.633   2.144  0.2585 -0.6666  2.6746
 6029TIP3   OH239645   1.947   4.070   1.573 -0.0704  0.2021  0.5139
 6029TIP3    H139646   2.009   4.015   1.622 -0.3340 -1.0702 -0.5411
 6029TIP3    H239647   1.893   4.110   1.641 -0.0897 -1.1189  1.3227
 6030TIP3   OH239648   2.302   6.142   1.326  0.4348  0.4446  0.1190
 6030TIP3    H139649   2.210   6.163   1.312  0.8043  1.0250 -1.6250
 6030TIP3    H239650   2.344   6.156   1.241  1.8405 -1.4721  0.4166
 6031TIP3   OH239651   4.862   0.480   3.019 -0.2910  0.0580 -0.5250
 6031TIP3    H139652   4.787   0.503   3.075 -1.3087 -0.6527 -1.5687
 6031TIP3    H239653   4.889   0.393   3.050 -1.5698 -0.8375 -1.8283
 6032TIP3   OH239654   3.899   4.102   2.197 -0.4541 -0.2542  0.1922
 6032TIP3    H139655   3.811   4.130   2.224 -0.7647 -1.3430  0.3763
 6032TIP3    H239656   3.954   4.180   2.208 -0.8579 -0.2276  2.6161
 6033TIP3   OH239657   3.561   6.074   7.653  0.4408  0.3307 -0.1810
 6033TIP3    H139658   3.483   6.114   7.690  0.7012  0.8314 -0.1635
 6033TIP3    H239659   3.528   6.013   7.587 -0.0004 -0.1548  0.4811
 6034TIP3   OH239660   0.945   0.618   1.344  0.2010  0.4353 -0.6737
 6034TIP3    H139661   0.891   0.539   1.354  0.1891  0.5496  0.2409
 6034TIP3    H239662   0.907   0.663   1.269 -0.7927  0.3576 -0.2288
 6035TIP3   OH239663   0.034   5.108   2.177  0.1994  0.5277  0.8680
 6035TIP3    H139664  -0.023   5.088   2.102  1.0936 -0.8179  0.5215
 6035TIP3    H239665   0.049   5.202   2.171  1.4289  0.2596 -1.5380
 6036TIP3   OH239666   0.357   1.210   1.011  0.2308 -0.1556 -0.1154
 6036TIP3    H139667   0.304   1.261   1.073 -0.5395 -0.4892 -0.4870
 6036TIP3    H239668   0.435   1.264   0.997  0.6467 -0.2858  1.5002
 6037TIP3   OH239669   4.129   6.194   1.295  0.0948  0.3229 -0.1042
 6037TIP3    H139670   4.105   6.282   1.263  0.7476  0.5340 -0.0208
 6037TIP3    H239671   4.221   6.201   1.317 -0.3542  0.2360  2.0402
 6038TIP3   OH239672   5.385   2.201   0.068 -0.1976 -0.5188 -0.1772
 6038TIP3    H139673   5.466   2.250   0.080 -0.3575 -0.6325  1.6035
 6038TIP3    H239674   5.336   2.250   0.002  0.5024  0.6013  0.1191
 6039TIP3   OH239675   3.666   2.119   8.138  0.0519 -0.0708  0.3722
 6039TIP3    H139676   3.608   2.155   8.205  0.3934  0.9077  0.1530
 6039TIP3    H239677   3.728   2.189   8.119 -1.3526  0.5458 -2.5591
 6040TIP3   OH239678   2.580   3.852   1.663  0.1167 -0.4931 -0.1451
 6040TIP3    H139679   2.670   3.876   1.645  0.2194  0.0474  0.9853
 6040TIP3    H239680   2.537   3.850   1.577  0.6245  1.6082 -0.4908
 6041TIP3   OH239681   4.188   3.137   2.668 -0.3240 -0.0159 -0.0040
 6041TIP3    H139682   4.135   3.159   2.592 -0.0112 -0.2677 -0.2964
 6041TIP3    H239683   4.166   3.046   2.687  0.4820 -0.3286 -0.5245
 6042TIP3   OH239684   0.656   5.547   7.602 -0.6242 -0.4655 -0.2537
 6042TIP3    H139685   0.583   5.493   7.571 -0.4588  0.9854 -3.6223
 6042TIP3    H239686   0.733   5.512   7.557  0.3084 -0.2650  1.1363
 6043TIP3   OH239687   3.478   2.273   7.900 -0.6679 -0.4224 -0.2878
 6043TIP3    H139688   3.403   2.332   7.894 -0.8754 -0.5997  0.5337
 6043TIP3    H239689   3.439   2.187   7.916 -0.2446 -0.1060  3.1662
 6044TIP3   OH239690   2.935   0.484   3.003 -0.7937 -0.3015  0.0441
 6044TIP3    H139691   3.002   0.552   2.991 -2.8974  1.6036 -1.6625
 6044TIP3    H239692   2.934   0.436   2.921  0.1486 -2.0228  0.9720
 6045TIP3   OH239693   2.804   3.963   2.517 -0.3694  0.5457 -0.3690
 6045TIP3    H139694   2.866   4.036   2.510  1.6423 -0.9084  1.2323
 6045TIP3    H239695   2.771   3.952   2.428  1.8612  1.2494 -1.3660
 6046TIP3   OH239696   5.412   6.062   1.573 -0.0143  0.0635 -0.1898
 6046TIP3    H139697   5.459   6.027   1.649  0.0376 -1.2111 -0.7754
 6046TIP3    H239698   5.482   6.089   1.513  0.0134 -1.1747 -0.7629
 6047TIP3   OH239699   5.921   6.477   2.086  0.3858  0.0426  0.8413
 6047TIP3    H139700   6.012   6.508   2.077  0.8611 -1.5762 -0.5908
 6047TIP3    H239701   5.904   6.430   2.004 -1.5157 -0.3139  1.3923
 6048TIP3   OH239702   5.075   3.057   0.389  0.2681  0.0405 -0.3180
 6048TIP3    H139703   4.989   3.097   0.400 -0.0882 -1.2456  1.9785
 6048TIP3    H239704   5.063   2.965   0.411  1.9858 -0.4494 -1.1983
 6049TIP3   OH239705   2.365   0.941   1.378 -0.0390  0.5577  0.4668
 6049TIP3    H139706   2.359   0.911   1.288  1.1772  1.3193  0.1108
 6049TIP3    H239707   2.292   0.898   1.423  0.9729 -2.0586 -0.2151
 6050TIP3   OH239708   0.645   6.535   3.096 -0.3518  0.0514  0.3105
 6050TIP3    H139709   0.641   6.517   3.002 -0.0167  2.3758 -0.2171
 6050TIP3    H239710   0.600   6.461   3.137 -0.3420 -1.1023 -1.6541
 6051TIP3   OH239711   3.733   6.210   7.364 -0.7773 -0.1302 -0.4910
 6051TIP3    H139712   3.819   6.221   7.407 -1.0083 -0.4941  0.0840
 6051TIP3    H239713   3.672   6.259   7.420 -1.4988 -2.6085  1.0514
 6052TIP3   OH239714   1.044   0.273   0.629 -0.2602  0.0486 -0.2421
 6052TIP3    H139715   1.078   0.326   0.556  0.1002  1.7487  1.0905
 6052TIP3    H239716   1.094   0.191   0.624  1.7394  1.1860 -0.3217
 6053TIP3   OH239717   2.034   1.383   3.246 -0.3643  0.3366 -0.0597
 6053TIP3    H139718   1.961   1.412   3.301 -0.6188 -0.2459 -0.0862
 6053TIP3    H239719   1.993   1.333   3.176  0.1978 -2.1503  1.2925
 6054TIP3   OH239720   4.858   5.116   3.514 -0.4301  0.3686 -0.3611
 6054TIP3    H139721   4.816   5.031   3.524  0.0492  0.0451 -1.0455
 6054TIP3    H239722   4.824   5.151   3.431 -0.0486  0.5030 -0.4644
 6055TIP3   OH239723   3.413   3.889   2.188 -0.6764  0.1704  0.0016
 6055TIP3    H139724   3.398   3.984   2.192  0.0387  0.4521 -2.4999
 6055TIP3    H239725   3.480   3.873   2.254 -0.2893  1.5354 -0.0296
 6056TIP3   OH239726   5.599   1.717   8.496  0.6090 -0.1243  0.0324
 6056TIP3    H139727   5.642   1.731   8.580  0.2102  1.4191  0.0140
 6056TIP3    H239728   5.577   1.805   8.466 -2.9671 -0.8235  0.2332
 6057TIP3   OH239729   6.321   2.618   8.038  0.4505  0.7731  0.0796
 6057TIP3    H139730   6.345   2.693   7.983  0.1882 -0.1775 -1.3848
 6057TIP3    H239731   6.385   2.550   8.015 -1.3534 -0.5696 -1.1675
 6058TIP3   OH239732   6.453   1.930   1.578  0.2812 -0.0213  0.1437
 6058TIP3    H139733   6.431   1.837   1.573 -1.0410  0.2995 -0.3014
 6058TIP3    H239734   6.508   1.937   1.657 -0.6498 -0.9832  0.9068
 6059TIP3   OH239735   3.161   6.640   2.434  0.1852 -0.1410  0.4629
 6059TIP3    H139736   3.081   6.603   2.398 -1.5350  2.3816  1.4246
 6059TIP3    H239737   3.137   6.669   2.522  1.7612  1.7699  0.3461
 6060TIP3   OH239738   1.466   2.018   0.736  0.4935  0.4824 -0.6706
 6060TIP3    H139739   1.545   2.023   0.682  0.2524  1.4115 -0.9456
 6060TIP3    H239740   1.481   2.081   0.806 -0.1030  0.8384 -0.8605
 6061TIP3   OH239741   2.577   2.023   0.472  0.1474 -0.0425  0.1277
 6061TIP3    H139742   2.614   2.111   0.483 -0.7592  0.4792 -0.8016
 6061TIP3    H239743   2.507   2.017   0.537  0.3444 -0.1624  0.3309
 6062TIP3   OH239744   4.335   3.309   8.709 -0.0506 -0.5977  0.5013
 6062TIP3    H139745   4.419   3.350   8.732 -0.7618  0.8957  0.5484
 6062TIP3    H239746   4.337   3.303   8.613 -0.0167 -0.2857  0.4823
 6063TIP3   OH239747   5.816   4.579   2.314 -0.1988 -0.4571 -0.6041
 6063TIP3    H139748   5.812   4.653   2.374 -0.8634 -3.4348  3.4087
 6063TIP3    H239749   5.730   4.538   2.321  0.3212 -1.9550 -2.2640
 6064TIP3   OH239750   2.764   6.084   8.555  0.0893  0.2414 -0.0962
 6064TIP3    H139751   2.836   6.099   8.616  0.4104 -0.5901 -0.2627
 6064TIP3    H239752   2.771   5.992   8.531 -0.2371  0.4721 -1.1331
 6065TIP3   OH239753   4.321   3.130   0.099 -0.3632 -0.8980 -0.4428
 6065TIP3    H139754   4.320   3.054   0.041  0.1203  0.2333 -2.0167
 6065TIP3    H239755   4.323   3.205   0.039  0.5365  0.3153  1.0451
 6066TIP3   OH239756   3.429   2.439   1.296 -0.0994  0.2268  0.0004
 6066TIP3    H139757   3.361   2.494   1.337  0.2224 -0.9407  2.3188
 6066TIP3    H239758   3.506   2.453   1.350  0.4413 -1.2461 -0.3465
 6067TIP3   OH239759   1.094   3.642   8.404 -0.5340 -0.1342  0.4352
 6067TIP3    H139760   1.002   3.667   8.405 -0.1251  1.4497  1.4051
 6067TIP3    H239761   1.112   3.611   8.492 -0.0155  0.0796  0.4107
 6068TIP3   OH239762   5.375   2.476   0.335  0.1298  0.4441  0.4567
 6068TIP3    H139763   5.434   2.431   0.274 -0.5550 -0.3194  0.3402
 6068TIP3    H239764   5.307   2.513   0.280 -0.2890  0.0714  0.7146
 6069TIP3   OH239765   4.878   4.546   8.293  0.1018  0.1289  0.7915
 6069TIP3    H139766   4.900   4.635   8.319 -0.8333  1.1051 -1.5273
 6069TIP3    H239767   4.844   4.505   8.373  0.0599  2.0113  1.7824
 6070TIP3   OH239768   5.696   0.070   1.502  1.0324 -0.0489  0.1583
 6070TIP3    H139769   5.607   0.085   1.534  0.9363  0.4721 -0.3323
 6070TIP3    H239770   5.747   0.053   1.581  0.5313 -0.1797  0.4610
 6071TIP3   OH239771   3.562   1.199   2.254 -0.2713 -0.0873  0.0232
 6071TIP3    H139772   3.593   1.238   2.337  0.1863 -0.0677 -0.1510
 6071TIP3    H239773   3.578   1.268   2.189 -1.3422  0.1839  0.0405
 6072TIP3   OH239774   1.495   5.301   7.600 -0.0943  0.5035  0.1606
 6072TIP3    H139775   1.558   5.339   7.538  0.8266 -0.4886  0.4733
 6072TIP3    H239776   1.527   5.328   7.686  0.6164 -0.9932  0.3955
 6073TIP3   OH239777   3.550   2.312   0.041  0.3274  0.2871  0.5438
 6073TIP3    H139778   3.547   2.403   0.011  0.5215  1.2700  3.1658
 6073TIP3    H239779   3.544   2.319   0.137  3.5440 -2.2705  1.1032
 6074TIP3   OH239780   2.882   6.360   2.666 -0.4509 -0.2022  0.6403
 6074TIP3    H139781   2.845   6.321   2.588 -0.3243 -1.5953  1.2505
 6074TIP3    H239782   2.865   6.454   2.657 -1.2966 -0.4592 -0.5774
 6075TIP3   OH239783   3.814   3.130   1.657 -0.8584  0.3287 -0.2045
 6075TIP3    H139784   3.834   3.150   1.749 -0.6684  0.2041 -0.2167
 6075TIP3    H239785   3.781   3.040   1.659 -1.5831  0.5939 -0.1648
 6076TIP3   OH239786   4.844   4.090   0.973 -0.1412 -0.1089 -0.5691
 6076TIP3    H139787   4.924   4.043   0.997 -0.7863 -2.2515 -2.1922
 6076TIP3    H239788   4.777   4.055   1.032 -0.1048  0.7930  0.0061
 6077TIP3   OH239789   5.102   1.465   3.298  0.2363  0.8396 -0.4555
 6077TIP3    H139790   5.119   1.523   3.224 -0.4274  2.1605  0.3910
 6077TIP3    H239791   5.189   1.447   3.334  0.4541  1.3334 -0.7135
 6078TIP3   OH239792   4.250   5.196   8.128 -0.9922  0.4695  0.0831
 6078TIP3    H139793   4.291   5.239   8.053 -0.7019 -0.9290 -0.5904
 6078TIP3    H239794   4.279   5.247   8.203 -2.7280  2.9950 -0.8533
 6079TIP3   OH239795   0.292   0.730   1.420 -0.0351 -0.4935  0.2172
 6079TIP3    H139796   0.268   0.671   1.349 -1.3214 -1.3664  1.3414
 6079TIP3    H239797   0.340   0.801   1.376 -1.9059 -0.3184 -1.7164
 6080TIP3   OH239798   3.797   2.234   8.720  0.3220 -0.1645 -0.5917
 6080TIP3    H139799   3.782   2.267   8.631 -0.5334 -2.1793 -1.2423
 6080TIP3    H239800   3.714   2.250   8.765 -0.1540 -1.4594 -0.9573
 6081TIP3   OH239801   3.752   5.798   0.988 -0.1061 -0.6989  0.6227
 6081TIP3    H139802   3.723   5.873   1.041  1.6830 -1.0209  2.1863
 6081TIP3    H239803   3.736   5.825   0.898  0.4667  1.5823  1.1296
 6082TIP3   OH239804   3.519   5.722   3.042  0.3426  0.0365  0.2255
 6082TIP3    H139805   3.601   5.686   3.010  0.3760  1.0663 -0.9021
 6082TIP3    H239806   3.544   5.799   3.092  0.2231 -1.0711  2.0820
 6083TIP3   OH239807   0.719   0.277   1.648  0.0119  0.4914  0.1354
 6083TIP3    H139808   0.805   0.313   1.626 -0.2485 -0.0083 -1.9064
 6083TIP3    H239809   0.687   0.239   1.566 -0.9085 -1.9644  1.5226
 6084TIP3   OH239810   1.173   5.954   2.192  0.4681  0.1088 -0.3351
 6084TIP3    H139811   1.110   5.987   2.128 -0.0786  0.2455  0.2639
 6084TIP3    H239812   1.184   5.862   2.169  0.8346  0.3302 -1.0701
 6085TIP3   OH239813   1.747   5.523   7.714 -0.3175  0.6086 -0.3675
 6085TIP3    H139814   1.837   5.514   7.747 -0.1160  2.5933 -0.2299
 6085TIP3    H239815   1.753   5.501   7.621  0.0629 -0.4124 -0.1102
 6086TIP3   OH239816   4.538   3.522   1.689 -0.0332 -0.1239  0.2145
 6086TIP3    H139817   4.534   3.485   1.777 -0.2828  0.2229  0.3523
 6086TIP3    H239818   4.535   3.617   1.702 -1.1294 -0.0806 -0.2159
 6087TIP3   OH239819   4.132   3.090   0.287  0.3083 -0.4318  0.3208
 6087TIP3    H139820   4.052   3.087   0.233 -0.4147 -1.3620  1.3950
 6087TIP3    H239821   4.203   3.098   0.224 -0.6730  1.2285 -0.6258
 6088TIP3   OH239822   4.474   5.515   0.945 -0.2006  0.1126  0.6181
 6088TIP3    H139823   4.482   5.609   0.931 -1.3242  0.3444  1.3781
 6088TIP3    H239824   4.527   5.497   1.022 -2.1577  0.6448  2.1733
 6089TIP3   OH239825   2.348   0.101   1.144 -0.0375 -0.3087 -0.6639
 6089TIP3    H139826   2.280   0.154   1.183  0.0059 -0.6225 -0.1527
 6089TIP3    H239827   2.310   0.014   1.137  0.2674 -0.4622 -0.4704
 6090TIP3   OH239828   4.508   5.503   0.065 -0.1989  0.0308 -0.0640
 6090TIP3    H139829   4.531   5.482   0.155 -3.0426  0.6886  0.9089
 6090TIP3    H239830   4.474   5.421   0.029 -0.7314  0.1927  0.0617
 6091TIP3   OH239831   5.885   2.931   2.978  0.2950 -0.2493 -0.3796
 6091TIP3    H139832   5.801   2.949   2.936  0.8943  1.8705 -0.7954
 6091TIP3    H239833   5.948   2.981   2.927  1.0716  2.5100  2.8828
 6092TIP3   OH239834   2.648   6.494   0.570 -0.3262 -0.4537 -0.2648
 6092TIP3    H139835   2.608   6.406   0.567 -1.3669 -0.0218  0.3501
 6092TIP3    H239836   2.633   6.523   0.660 -0.0313  0.3747 -0.4844
 6093TIP3   OH239837   0.657   3.010   8.205 -0.0333 -0.4691  0.1050
 6093TIP3    H139838   0.681   3.012   8.113  1.5712 -0.5775  0.4973
 6093TIP3    H239839   0.740   3.018   8.252 -0.9331  1.0644  1.5523
 6094TIP3   OH239840   4.027   0.659   1.627 -0.5942  0.3448  0.1003
 6094TIP3    H139841   4.029   0.567   1.601 -0.9768  0.4205 -0.2104
 6094TIP3    H239842   4.091   0.665   1.698 -0.8215 -0.2344  0.3656
 6095TIP3   OH239843   6.688   6.220   2.083  0.0195  0.1309  0.2427
 6095TIP3    H139844   6.710   6.224   2.176  0.6645  2.7928  0.0614
 6095TIP3    H239845   6.767   6.185   2.042 -0.6463 -2.1008  0.7298
 6096TIP3   OH239846   2.039   3.620   1.719  0.3876  0.0502 -0.0665
 6096TIP3    H139847   2.001   3.637   1.805  0.2903 -0.9659  0.1013
 6096TIP3    H239848   2.128   3.589   1.737  0.5787  0.4264 -0.3607
 6097TIP3   OH239849   1.182   2.424   0.353  0.0230  0.5172  0.1134
 6097TIP3    H139850   1.150   2.379   0.431  1.0725 -3.4926 -1.5385
 6097TIP3    H239851   1.118   2.402   0.285  1.2070  0.5035 -1.0321
 6098TIP3   OH239852   1.560   0.451   8.394  0.2650  0.0718 -0.0097
 6098TIP3    H139853   1.617   0.489   8.461 -0.2474  3.2314 -1.1812
 6098TIP3    H239854   1.612   0.380   8.356  1.6046 -0.0438  1.9225
 6099TIP3   OH239855   5.585   5.665   0.967  0.4005  0.0306 -0.4011
 6099TIP3    H139856   5.552   5.575   0.962 -1.5935  0.7594 -2.4903
 6099TIP3    H239857   5.571   5.691   1.058 -0.1381 -1.3715 -0.0590
 6100TIP3   OH239858   2.994   1.847   1.612 -0.0559 -0.4267  0.3324
 6100TIP3    H139859   2.988   1.942   1.622  0.2462 -0.5088  1.3304
 6100TIP3    H239860   3.081   1.825   1.645  0.2531 -0.9515 -0.7657
 6101TIP3   OH239861   3.692   0.298   0.778 -0.4227  0.0014 -0.0709
 6101TIP3    H139862   3.724   0.379   0.818 -3.3656  0.9671  0.5761
 6101TIP3    H239863   3.727   0.299   0.689  0.0202  1.7048  0.0919
 6102TIP3   OH239864   2.761   0.962   1.244 -0.6801 -0.1591  0.0251
 6102TIP3    H139865   2.736   1.034   1.186 -0.8111 -0.3271 -0.1300
 6102TIP3    H239866   2.856   0.957   1.238 -0.7409 -0.5678 -0.6470
 6103TIP3   OH239867   6.483   5.923   0.496  0.1076  0.4516 -0.2456
 6103TIP3    H139868   6.563   5.871   0.509 -1.0562 -1.0577  1.2805
 6103TIP3    H239869   6.416   5.858   0.474 -1.2708  1.3186  1.1953
 6104TIP3   OH239870   5.467   5.530   2.151  0.7355  0.4536  0.4355
 6104TIP3    H139871   5.493   5.469   2.220  0.4665 -2.1334 -1.5843
 6104TIP3    H239872   5.377   5.552   2.172  0.3273 -1.0882  0.4397
 6105TIP3   OH239873   4.990   2.457   0.626  0.2820 -0.4480  0.0540
 6105TIP3    H139874   5.016   2.549   0.623  1.2826 -0.6864  0.8764
 6105TIP3    H239875   4.899   2.459   0.656  0.7309  0.2257  1.4360
 6106TIP3   OH239876   1.272   3.912   1.530  0.1421 -0.0189  0.2681
 6106TIP3    H139877   1.300   3.918   1.439 -1.6875 -0.4793 -0.3666
 6106TIP3    H239878   1.346   3.872   1.576  1.2634  0.6483 -0.9110
 6107TIP3   OH239879   0.701   1.274   7.868  0.3592 -0.0713  0.6083
 6107TIP3    H139880   0.653   1.219   7.930 -1.2093  1.2954  0.6906
 6107TIP3    H239881   0.698   1.226   7.786 -1.4144  0.0544  0.5584
 6108TIP3   OH239882   3.471   5.105   0.066 -0.2047 -0.2828 -0.4355
 6108TIP3    H139883   3.498   5.025   0.111 -1.7418 -1.5970 -1.6803
 6108TIP3    H239884   3.536   5.116  -0.004 -0.6710 -1.1968 -1.0342
 6109TIP3   OH239885   0.666   6.119   7.319  0.6360 -0.6563 -0.2780
 6109TIP3    H139886   0.750   6.111   7.363 -0.1484 -0.4615  1.3127
 6109TIP3    H239887   0.655   6.036   7.273  0.3287 -1.9887  2.0467
 6110TIP3   OH239888   6.164   3.767   2.779 -0.0466 -0.2205  0.2345
 6110TIP3    H139889   6.120   3.851   2.772 -0.4916 -0.1584  2.9971
 6110TIP3    H239890   6.097   3.702   2.757  0.3134  0.0523 -1.9583
 6111TIP3   OH239891   0.219   3.226   2.592 -0.0651 -0.3490  0.4268
 6111TIP3    H139892   0.261   3.163   2.534  0.2229 -0.4665  0.7604
 6111TIP3    H239893   0.130   3.193   2.603 -0.9862  1.0351 -2.0276
 6112TIP3   OH239894   5.203   3.665   0.221 -0.3035  0.3568  0.3383
 6112TIP3    H139895   5.139   3.602   0.256 -1.0419  1.4737  1.0622
 6112TIP3    H239896   5.159   3.749   0.227  1.0992  1.1031  0.4642
 6113TIP3   OH239897   0.920   0.390   2.512 -0.3320  0.3250  0.4274
 6113TIP3    H139898   0.872   0.416   2.434  0.7323  0.1583 -0.3068
 6113TIP3    H239899   0.853   0.363   2.574 -1.1663 -0.0196 -0.6046
 6114TIP3   OH239900   2.079   0.747   1.766  0.4170 -0.0453  0.7168
 6114TIP3    H139901   2.138   0.811   1.727  0.8733 -0.7154  0.2818
 6114TIP3    H239902   2.089   0.759   1.860  0.3325  0.6614  0.6432
 6115TIP3   OH239903   2.370   2.532   1.912 -0.1403 -0.3571  0.1883
 6115TIP3    H139904   2.304   2.498   1.852 -0.2612 -0.4283  0.3641
 6115TIP3    H239905   2.443   2.471   1.904 -0.4696 -0.8174  0.7229
 6116TIP3   OH239906   3.952   5.407   0.518 -0.2151  0.6845  0.5412
 6116TIP3    H139907   3.895   5.459   0.575 -1.5670 -0.3566  0.1937
 6116TIP3    H239908   3.893   5.369   0.453  1.1051  0.7719 -0.7570
 6117TIP3   OH239909   0.829   2.580   7.234  0.6358  0.4955 -0.5398
 6117TIP3    H139910   0.876   2.578   7.317  1.1388  1.0467 -0.7939
 6117TIP3    H239911   0.892   2.546   7.170  0.3308  0.2771 -0.7231
 6118TIP3   OH239912   4.572   4.842   0.670  0.2747  0.8991 -0.5249
 6118TIP3    H139913   4.549   4.784   0.597  0.1809  0.8760 -0.4777
 6118TIP3    H239914   4.493   4.843   0.725  0.7966 -0.1196  0.2654
 6119TIP3   OH239915   5.586   0.731   1.238  0.2507 -0.1980 -0.0710
 6119TIP3    H139916   5.642   0.737   1.315  0.2669 -0.7705 -0.0337
 6119TIP3    H239917   5.571   0.821   1.212  1.9711 -0.0532 -0.6472
 6120TIP3   OH239918   4.413   5.370   0.456 -0.5671  0.3124 -0.0606
 6120TIP3    H139919   4.430   5.425   0.532  1.0052 -1.6157  1.0874
 6120TIP3    H239920   4.474   5.402   0.389 -1.6627  1.7369 -0.4373
 6121TIP3   OH239921   0.496   0.893   1.116  0.1305  0.3263  0.1259
 6121TIP3    H139922   0.437   0.952   1.068 -1.4364 -1.2902 -0.0051
 6121TIP3    H239923   0.505   0.934   1.202  0.4556  1.6334 -0.5047
 6122TIP3   OH239924   0.018   5.031   0.226 -0.4690  0.0975 -0.1048
 6122TIP3    H139925   0.005   4.943   0.191 -0.9507  0.8834 -2.0690
 6122TIP3    H239926  -0.069   5.059   0.252 -0.1067 -0.4903  1.8554
 6123TIP3   OH239927   1.260   5.941   1.369 -0.7394  0.3632  0.2422
 6123TIP3    H139928   1.262   5.845   1.377  0.8684  0.1911 -1.3462
 6123TIP3    H239929   1.318   5.972   1.438  0.6496 -0.0081 -0.7131
 6124TIP3   OH239930   3.384   0.022   0.582  0.7166  0.3515 -0.0321
 6124TIP3    H139931   3.436   0.040   0.504 -0.6462  1.7910 -0.6758
 6124TIP3    H239932   3.445   0.031   0.655  1.2993  2.5497 -0.7163
 6125TIP3   OH239933   0.071   6.654   0.138  0.4638 -0.5538 -0.5635
 6125TIP3    H139934   0.068   6.690   0.227  0.8441  1.2696 -1.2278
 6125TIP3    H239935   0.117   6.571   0.147 -0.0858 -0.7255  1.0252
 6126TIP3   OH239936   1.917   2.452   8.515 -0.4790  0.1327  0.4792
 6126TIP3    H139937   1.871   2.430   8.596  0.1716  1.8609  1.3781
 6126TIP3    H239938   1.956   2.538   8.532  1.7634 -0.5525 -0.7816
 6127TIP3   OH239939   1.005   3.709   3.221 -0.5981 -0.7131 -0.1718
 6127TIP3    H139940   1.017   3.726   3.314  0.4417  0.1845 -0.4494
 6127TIP3    H239941   0.944   3.635   3.217 -2.2269  0.4823  1.1918
 6128TIP3   OH239942   2.921   5.577   8.368  0.0275  0.3438 -0.3773
 6128TIP3    H139943   2.950   5.605   8.281  0.3925  2.5685  0.4054
 6128TIP3    H239944   2.829   5.554   8.356  0.0039  0.8668 -1.2957
 6129TIP3   OH239945   6.758   3.597   2.350 -0.5001 -0.0071  0.0387
 6129TIP3    H139946   6.802   3.658   2.291 -1.3381 -0.0550 -0.6461
 6129TIP3    H239947   6.827   3.569   2.410  0.2003  0.5946 -0.4590
 6130TIP3   OH239948   0.251   1.241   0.047 -0.3380  0.2349 -0.0431
 6130TIP3    H139949   0.213   1.157   0.073  0.8910 -0.1636  0.5231
 6130TIP3    H239950   0.220   1.303   0.113  1.8712 -0.5607  1.8786
 6131TIP3   OH239951   6.400   6.148   2.809  0.0264  0.2411  0.0495
 6131TIP3    H139952   6.482   6.130   2.854 -0.2889  0.1659  0.6019
 6131TIP3    H239953   6.417   6.124   2.718  0.5470  0.0208  0.2009
 6132TIP3   OH239954   3.875   2.427   8.183 -0.0997 -0.3060 -0.3162
 6132TIP3    H139955   3.803   2.446   8.123  0.5368 -2.4569 -1.8673
 6132TIP3    H239956   3.917   2.512   8.197 -1.7100  0.6505 -0.9504
 6133TIP3   OH239957   5.303   1.807   8.761  0.1770 -0.3692 -0.3029
 6133TIP3    H139958   5.292   1.713   8.749 -0.1481 -0.3840  0.0801
 6133TIP3    H239959   5.346   1.837   8.681  1.5642 -1.0657  0.1502
 6134TIP3   OH239960   2.872   6.787   0.751  0.4571 -0.4106  0.4579
 6134TIP3    H139961   2.952   6.839   0.747 -1.5248  3.2782  2.7496
 6134TIP3    H239962   2.870   6.752   0.840 -0.8223  0.2308  0.7000
 6135TIP3   OH239963   3.992   3.096   2.470  0.1242 -0.1904 -0.5705
 6135TIP3    H139964   4.057   3.026   2.469  0.1633 -0.1543 -2.0101
 6135TIP3    H239965   3.955   3.097   2.382 -0.8147  0.7397 -0.1987
 6136TIP3   OH239966   1.453   4.144   7.897 -0.2673 -0.3591 -0.4293
 6136TIP3    H139967   1.533   4.193   7.878 -1.5004  1.1818 -1.9292
 6136TIP3    H239968   1.459   4.123   7.990  1.7787 -0.1240 -0.4685
 6137TIP3   OH239969   1.524   2.646   2.151 -0.3427 -0.2422  0.1015
 6137TIP3    H139970   1.500   2.731   2.188 -0.7879 -0.3871  0.1481
 6137TIP3    H239971   1.538   2.590   2.226 -2.0686 -0.7669  0.0786
 6138TIP3   OH239972   1.694   5.543   0.192  0.4166 -0.0268  0.6810
 6138TIP3    H139973   1.722   5.626   0.154  0.9686 -0.2356  0.6174
 6138TIP3    H239974   1.671   5.489   0.116 -1.4934  0.5852  0.7766
 6139TIP3   OH239975   0.897   2.446   8.153  0.9571 -0.0621 -0.1045
 6139TIP3    H139976   0.902   2.377   8.086  2.2398 -0.3168  0.2391
 6139TIP3    H239977   0.988   2.471   8.169  0.8828 -1.3705  2.9362
 6140TIP3   OH239978   3.280   4.902   2.344 -0.0849 -0.1862  0.5907
 6140TIP3    H139979   3.352   4.920   2.405  1.5062  2.2100 -1.7745
 6140TIP3    H239980   3.230   4.983   2.342  0.8175  0.3883 -2.3341
 6141TIP3   OH239981   2.037   0.316   7.757 -0.4455  0.2394  0.1970
 6141TIP3    H139982   2.119   0.274   7.779 -1.3120 -1.9934 -0.5697
 6141TIP3    H239983   1.970   0.267   7.805 -1.4995  0.8555 -0.5836
 6142TIP3   OH239984   2.451   4.891   7.917 -0.1456 -0.2233 -0.1984
 6142TIP3    H139985   2.370   4.857   7.880 -1.2161  1.4978  0.4513
 6142TIP3    H239986   2.482   4.953   7.851 -0.2365  0.3230  0.2686
 6143TIP3   OH239987   2.331   4.338   7.854  0.3569  0.1075  0.0500
 6143TIP3    H139988   2.345   4.296   7.769  0.4983  0.8372 -0.2991
 6143TIP3    H239989   2.398   4.406   7.858 -0.0034  0.4386  0.5046
 6144TIP3   OH239990   4.201   5.359   0.950  0.5269  0.0598 -0.3262
 6144TIP3    H139991   4.197   5.439   1.003 -1.0970  0.3965 -0.9272
 6144TIP3    H239992   4.181   5.387   0.861  0.4063 -0.9483 -0.6306
 6145TIP3   OH239993   4.866   6.021   3.454  0.2248  0.2140 -0.0470
 6145TIP3    H139994   4.792   6.082   3.455 -0.6682 -0.8321  0.2017
 6145TIP3    H239995   4.840   5.954   3.391  1.0049 -0.1256 -0.0108
 6146TIP3   OH239996   1.362   1.459   7.779 -0.1087 -0.1203  0.2454
 6146TIP3    H139997   1.298   1.414   7.724 -0.5495 -1.2748  1.6675
 6146TIP3    H239998   1.412   1.513   7.717 -0.5868 -1.3533 -1.2842
 6147TIP3   OH239999   0.435   0.039   1.217 -0.5351 -0.1762  0.2976
 6147TIP3    H140000   0.486   0.059   1.138 -0.6215  0.4235  0.3912
 6147TIP3    H240001   0.418  -0.055   1.211 -0.0806 -0.2370 -0.1274
 6148TIP3   OH240002   4.714   0.680   8.567 -0.1535  0.4141  0.1591
 6148TIP3    H140003   4.709   0.744   8.497 -0.8021  1.3729  1.0576
 6148TIP3    H240004   4.624   0.652   8.581  0.0650 -0.3648  0.0929
 6149TIP3   OH240005   1.155   0.432   1.381 -0.4100  0.0814 -0.0321
 6149TIP3    H140006   1.112   0.398   1.460 -0.7938  1.0326  0.1741
 6149TIP3    H240007   1.104   0.508   1.356  0.0862  0.1619 -0.8433
 6150TIP3   OH240008   3.989   2.578   0.615  0.5819 -0.2132 -0.1294
 6150TIP3    H140009   3.929   2.505   0.628  1.3794 -0.9230 -0.3729
 6150TIP3    H240010   3.968   2.611   0.528  0.3878 -0.3146 -0.1212
 6151TIP3   OH240011   0.421   1.551   0.871  0.1563  0.3229  0.0355
 6151TIP3    H140012   0.430   1.485   0.803 -1.1316  1.4027 -1.2257
 6151TIP3    H240013   0.399   1.501   0.950  0.3374 -0.8426 -0.6389
 6152TIP3   OH240014   4.692   2.213   0.293 -0.0583  0.1092  0.4391
 6152TIP3    H140015   4.771   2.266   0.308 -0.1645  0.2234  0.5967
 6152TIP3    H240016   4.722   2.123   0.302  0.2646  0.1116 -0.4706
 6153TIP3   OH240017   2.349   3.835   7.639  0.5431  0.4485 -0.0686
 6153TIP3    H140018   2.409   3.764   7.620 -0.4345 -0.4259  0.0173
 6153TIP3    H240019   2.370   3.902   7.574 -0.3795 -1.0574 -2.0288
 6154TIP3   OH240020   2.634   1.883   1.250  0.0601 -0.2138  0.6813
 6154TIP3    H140021   2.709   1.852   1.199  0.0524  0.9512 -0.0710
 6154TIP3    H240022   2.664   1.877   1.341  0.7499 -0.5820  0.4443
 6155TIP3   OH240023   5.222   0.343   0.778 -0.1529 -0.4081 -0.5240
 6155TIP3    H140024   5.194   0.252   0.788 -0.3014 -0.3388 -0.2835
 6155TIP3    H240025   5.150   0.394   0.816  0.6199 -0.2644  0.7990
 6156TIP3   OH240026   6.577   3.758   8.131 -0.2264 -0.1536 -0.0524
 6156TIP3    H140027   6.537   3.769   8.045  0.8640  0.5351 -0.4895
 6156TIP3    H240028   6.570   3.843   8.173 -0.1649 -0.3119  0.2863
 6157TIP3   OH240029   0.698   1.800   2.093 -0.6168  0.0073  0.0801
 6157TIP3    H140030   0.626   1.738   2.076 -0.6574 -0.2675  1.1903
 6157TIP3    H240031   0.751   1.758   2.160  0.3326  0.4281 -0.3814
 6158TIP3   OH240032   3.356   1.399   1.858  0.9864  0.2907  0.2266
 6158TIP3    H140033   3.377   1.465   1.792 -1.2209  0.6343 -0.2051
 6158TIP3    H240034   3.439   1.355   1.875  1.8043  0.7795 -2.1223
 6159TIP3   OH240035   2.707   3.596   0.542  0.2826  0.2056  0.1425
 6159TIP3    H140036   2.669   3.596   0.454 -2.4801 -1.8321  1.1712
 6159TIP3    H240037   2.745   3.509   0.552  0.8292  0.5186  0.8872
 6160TIP3   OH240038   3.464   4.948   8.425 -0.4268  0.1063  1.0324
 6160TIP3    H140039   3.454   5.037   8.391 -0.2474  0.0296  0.7756
 6160TIP3    H240040   3.433   4.953   8.515  0.5789  0.6766  1.3666
 6161TIP3   OH240041   3.348   1.060   8.386 -0.2325 -0.0883 -0.1542
 6161TIP3    H140042   3.255   1.080   8.379 -0.2177 -0.1078 -0.4170
 6161TIP3    H240043   3.392   1.132   8.340 -0.0551  0.5364  0.9721
 6162TIP3   OH240044   5.724   4.383   3.355  0.5118  0.2704 -0.5993
 6162TIP3    H140045   5.817   4.392   3.337  1.2508 -2.6590  1.1682
 6162TIP3    H240046   5.700   4.299   3.315 -0.7694 -0.1462  0.9485
 6163TIP3   OH240047   2.251   1.528   7.429  0.5673  0.0939  0.3886
 6163TIP3    H140048   2.293   1.546   7.345 -0.9175 -0.3252 -0.4860
 6163TIP3    H240049   2.210   1.611   7.453 -2.9743 -0.8100 -1.7153
 6164TIP3   OH240050   1.607   5.165   0.656 -0.1740  0.6331  0.0420
 6164TIP3    H140051   1.562   5.238   0.698  1.0332  1.1421  0.4931
 6164TIP3    H240052   1.645   5.115   0.729  1.9327  1.5162 -0.3776
 6165TIP3   OH240053   0.833   1.251   1.413 -0.0272  0.2708  0.1388
 6165TIP3    H140054   0.842   1.217   1.502  0.9896 -0.6694 -0.2926
 6165TIP3    H240055   0.878   1.336   1.415  0.4438  0.0217  0.4084
 6166TIP3   OH240056   6.671   2.705   1.619 -0.9053  0.2266 -0.0217
 6166TIP3    H140057   6.676   2.616   1.653 -1.2628 -0.0565 -0.6948
 6166TIP3    H240058   6.585   2.711   1.578 -0.2428  0.3303 -1.4716
 6167TIP3   OH240059   0.745   1.038   0.341  0.0620 -0.2717  0.3721
 6167TIP3    H140060   0.738   1.096   0.265 -0.2935 -0.4336  0.2767
 6167TIP3    H240061   0.726   0.951   0.306  2.2292 -0.7226  0.1746
 6168TIP3   OH240062   0.854   4.003   0.383  0.4617  0.0848  0.7825
 6168TIP3    H140063   0.843   3.910   0.404 -2.3182 -0.7885 -3.3190
 6168TIP3    H240064   0.809   4.048   0.454  1.6348 -1.6414  2.7350
 6169TIP3   OH240065   1.460   6.354   8.741 -0.8224 -0.7538 -0.0554
 6169TIP3    H140066   1.485   6.410   8.815  1.3465 -2.0338  0.2799
 6169TIP3    H240067   1.368   6.334   8.755 -0.4588 -0.9700  2.3302
 6170TIP3   OH240068   5.089   5.908   0.508 -0.3366  0.3044  0.3227
 6170TIP3    H140069   5.181   5.919   0.486 -0.4948  0.2403 -0.4049
 6170TIP3    H240070   5.066   5.822   0.472  0.1883 -1.3218  3.5154
 6171TIP3   OH240071   4.956   0.129   1.442 -0.0494 -0.2820  0.4594
 6171TIP3    H140072   4.875   0.153   1.486 -0.6159  0.3902 -0.9077
 6171TIP3    H240073   5.001   0.212   1.427 -0.2170 -0.4144 -0.8764
 6172TIP3   OH240074   0.995   5.912   8.353  0.9149 -0.1297  0.2288
 6172TIP3    H140075   0.985   5.817   8.350  1.9391 -0.2243 -0.9670
 6172TIP3    H240076   0.939   5.940   8.426 -1.8373 -1.3270 -1.2798
 6173TIP3   OH240077   4.360   4.064   7.944 -0.3216  0.1534 -0.0578
 6173TIP3    H140078   4.376   4.093   8.033 -0.8003  0.1280  0.0377
 6173TIP3    H240079   4.277   4.017   7.948  0.0006 -0.4566 -0.3834
 6174TIP3   OH240080   1.320   4.159   0.796  0.0791 -0.7293  0.5236
 6174TIP3    H140081   1.262   4.095   0.755  0.9605 -0.7255 -0.7756
 6174TIP3    H240082   1.360   4.207   0.723  0.5678  0.2947  1.4268
 6175TIP3   OH240083   5.492   6.328   2.186 -0.4660  0.4845 -0.4135
 6175TIP3    H140084   5.531   6.301   2.103  1.3411  0.1973  0.4630
 6175TIP3    H240085   5.546   6.403   2.214 -0.9115  0.4603  0.5687
 6176TIP3   OH240086   3.158   1.992   1.302 -0.2465 -0.1644  0.0493
 6176TIP3    H140087   3.211   1.932   1.354 -0.9822  0.8618  2.1121
 6176TIP3    H240088   3.195   2.078   1.320 -1.1028  0.3110 -0.3915
 6177TIP3   OH240089   4.072   1.355   0.568 -0.3988 -0.0037  0.2030
 6177TIP3    H140090   4.143   1.413   0.540 -0.8924  0.6903  0.3740
 6177TIP3    H240091   3.996   1.412   0.576 -1.1239 -0.8459 -0.5325
 6178TIP3   OH240092   3.551   5.826   2.347  0.4344 -0.6800 -0.1416
 6178TIP3    H140093   3.645   5.844   2.357  0.4462 -0.2565 -0.9711
 6178TIP3    H240094   3.541   5.801   2.256 -0.4275  0.3913 -0.3581
 6179TIP3   OH240095   1.350   4.075   1.783 -0.8905  0.2781  0.0710
 6179TIP3    H140096   1.369   4.123   1.703  0.7872  0.3927  0.4868
 6179TIP3    H240097   1.255   4.071   1.788 -1.0246  1.2302 -1.3441
 6180TIP3   OH240098   6.505   5.043   7.142  0.0593  0.7264 -0.0110
 6180TIP3    H140099   6.498   5.114   7.206 -0.5500 -0.6264  1.4749
 6180TIP3    H240100   6.417   5.005   7.138  0.6838 -0.8122  0.2559
 6181TIP3   OH240101   6.393   3.631   2.073  0.3125 -0.2427 -0.9614
 6181TIP3    H140102   6.387   3.711   2.125 -1.0950 -0.9083 -0.0422
 6181TIP3    H240103   6.351   3.564   2.127  0.3724 -1.3437 -2.2295
 6182TIP3   OH240104   0.877   4.776   8.287 -0.1658 -0.2852 -0.1700
 6182TIP3    H140105   0.847   4.860   8.322  2.4036  1.5581 -2.0288
 6182TIP3    H240106   0.870   4.785   8.192  2.1048 -1.3215 -0.5114
 6183TIP3   OH240107   4.402   0.813   0.472 -0.0004  0.4880  0.0367
 6183TIP3    H140108   4.369   0.740   0.524  1.7624 -0.2699  0.1410
 6183TIP3    H240109   4.353   0.889   0.504  1.5445  0.2312  3.4757
 6184TIP3   OH240110   3.155   5.178   1.346  0.6356 -0.1896  0.5592
 6184TIP3    H140111   3.195   5.193   1.260 -2.0600 -0.4554 -0.8514
 6184TIP3    H240112   3.117   5.090   1.341 -2.5373  1.0340  0.6359
 6185TIP3   OH240113   5.421   2.011   2.258 -0.0768  0.5087  0.0566
 6185TIP3    H140114   5.340   2.054   2.283  0.2198  0.4963  1.1258
 6185TIP3    H240115   5.415   1.998   2.164 -1.7500 -0.3921  0.2553
 6186TIP3   OH240116   5.066   3.644   1.571  0.2440 -0.0246  0.0682
 6186TIP3    H140117   5.100   3.697   1.643 -1.2758 -0.0973  0.8892
 6186TIP3    H240118   4.973   3.633   1.592  0.0234 -1.0205 -1.3214
 6187TIP3   OH240119   2.866   3.918   0.561  0.3169  0.4194  0.1369
 6187TIP3    H140120   2.774   3.890   0.551  0.2296  0.9797 -0.7150
 6187TIP3    H240121   2.916   3.847   0.520  0.2918 -0.0378  0.8793
 6188TIP3   OH240122   2.580   1.623   2.088 -0.0790  0.7247  0.7897
 6188TIP3    H140123   2.537   1.708   2.098  0.7969  1.1019  1.5240
 6188TIP3    H240124   2.662   1.632   2.136  2.1134  0.9243 -2.6249
 6189TIP3   OH240125   3.905   5.868   7.471 -0.5941  0.6066 -0.0250
 6189TIP3    H140126   3.993   5.838   7.448  0.2198  1.1981  2.0232
 6189TIP3    H240127   3.881   5.929   7.401  0.9460  0.9547 -0.2856
 6190TIP3   OH240128   0.741   2.320   7.731 -0.1576 -0.1410  0.5883
 6190TIP3    H140129   0.647   2.305   7.730 -0.0201 -1.2978  2.0441
 6190TIP3    H240130   0.771   2.293   7.644 -1.2496  1.0191 -0.1822
 6191TIP3   OH240131   5.439   3.594   0.075 -1.2986  0.2435  0.4758
 6191TIP3    H140132   5.377   3.660   0.107 -1.4083  1.6679 -2.3369
 6191TIP3    H240133   5.388   3.540   0.015 -0.8023 -1.4322  1.4950
 6192TIP3   OH240134   4.092   4.782   1.961 -0.3425 -0.0562  0.8538
 6192TIP3    H140135   4.115   4.811   1.872 -3.1512 -1.5052 -0.4724
 6192TIP3    H240136   4.175   4.786   2.009  1.0329  2.0725 -1.4270
 6193TIP3   OH240137   5.363   2.718   2.314  0.3212 -0.0718 -0.0060
 6193TIP3    H140138   5.274   2.724   2.349  0.1479  0.6850 -0.5460
 6193TIP3    H240139   5.394   2.808   2.314  1.0903 -0.3325  0.1623
 6194TIP3   OH240140   1.994   4.921   1.511 -0.1218 -0.1898  0.0158
 6194TIP3    H140141   2.078   4.962   1.490 -0.6316  0.8354 -0.0914
 6194TIP3    H240142   1.929   4.983   1.478 -0.9445  0.0994  2.0786
 6195TIP3   OH240143   2.318   4.215   2.269 -0.4613  0.1774 -0.6382
 6195TIP3    H140144   2.398   4.162   2.264  0.5012  1.3326  1.1962
 6195TIP3    H240145   2.283   4.213   2.180  1.1399 -1.0796 -1.3045
 6196TIP3   OH240146   3.323   0.590   1.015  0.4645 -0.0144 -0.3371
 6196TIP3    H140147   3.388   0.648   1.054 -0.3691  1.9816 -1.8002
 6196TIP3    H240148   3.278   0.643   0.950 -0.2972 -2.3289 -1.8387
 6197TIP3   OH240149   1.036   0.117   1.219  0.2368 -0.0897  0.4465
 6197TIP3    H140150   0.997   0.064   1.289 -0.0167 -0.0609  0.3275
 6197TIP3    H240151   0.982   0.097   1.142  1.5719 -1.4797 -0.1845
 6198TIP3   OH240152   6.737   0.201   2.867  0.1414 -0.0445  0.0597
 6198TIP3    H140153   6.755   0.290   2.838 -0.0670  0.2333  0.7637
 6198TIP3    H240154   6.787   0.145   2.807 -0.7886  0.4784 -1.2431
 6199TIP3   OH240155   5.056   3.803   1.807  0.1986 -0.0539 -0.4533
 6199TIP3    H140156   5.120   3.823   1.875  0.4282  0.7587 -0.8886
 6199TIP3    H240157   5.005   3.884   1.798  0.5732  0.0801 -1.6557
 6200TIP3   OH240158   5.630   3.331   1.165  0.1506  0.4226 -0.3020
 6200TIP3    H140159   5.551   3.326   1.111 -0.8725  1.6317  1.0120
 6200TIP3    H240160   5.613   3.402   1.227  1.9909  0.2464  0.4780
 6201TIP3   OH240161   5.305   2.068   1.376 -0.3848  0.5806  0.2192
 6201TIP3    H140162   5.240   2.090   1.310 -1.8733 -1.2081  0.9909
 6201TIP3    H240163   5.386   2.053   1.327 -0.9925  1.0606 -0.9625
 6202TIP3   OH240164   4.050   6.378   8.003 -0.3934 -1.0854  0.3271
 6202TIP3    H140165   4.141   6.350   8.005  0.0404  0.1674 -0.6210
 6202TIP3    H240166   4.044   6.435   7.926 -1.3480  0.8573  1.7463
 6203TIP3   OH240167   6.737   6.364   0.489  0.3977 -0.4014  1.0443
 6203TIP3    H140168   6.648   6.344   0.519  0.1210  1.0724  1.2581
 6203TIP3    H240169   6.726   6.393   0.399  0.5547  0.5395  1.3207
 6204TIP3   OH240170   6.519   0.382   2.445 -0.2904  0.5278  0.2850
 6204TIP3    H140171   6.465   0.449   2.404 -0.0710 -0.1131 -1.1297
 6204TIP3    H240172   6.551   0.329   2.371  1.0450 -0.0061  1.2065
 6205TIP3   OH240173   4.218   5.903   8.088 -0.5261 -0.0786 -0.4097
 6205TIP3    H140174   4.235   5.892   7.995  3.0530 -0.4497  0.1174
 6205TIP3    H240175   4.214   5.814   8.122  3.2601 -0.1475  0.3369
 6206TIP3   OH240176   2.468   3.513   8.491  0.2933 -0.0105 -0.1433
 6206TIP3    H140177   2.520   3.541   8.416 -0.8640  0.2424 -0.8771
 6206TIP3    H240178   2.395   3.575   8.494 -0.7489 -1.2014 -0.0444
 6207TIP3   OH240179   5.944   5.768   1.266 -0.1951 -0.3183 -0.3929
 6207TIP3    H140180   5.908   5.844   1.312  1.5564 -0.6497  1.7249
 6207TIP3    H240181   5.898   5.766   1.182 -2.0206  1.6349  0.4638
 6208TIP3   OH240182   1.999   3.568   8.088 -0.1294  0.2100 -0.5216
 6208TIP3    H140183   2.088   3.590   8.116  0.2185  0.0865 -1.4977
 6208TIP3    H240184   1.963   3.651   8.056 -0.3456  0.2422 -0.2031
 6209TIP3   OH240185   4.260   4.560   7.798 -0.5071  0.6762  0.5945
 6209TIP3    H140186   4.212   4.590   7.720 -1.2485 -0.4959  0.5621
 6209TIP3    H240187   4.229   4.470   7.810  1.8732 -0.2206  0.4500
 6210TIP3   OH240188   4.656   1.199   0.683 -0.0375  0.1406  0.3739
 6210TIP3    H140189   4.606   1.220   0.604  1.5556  1.5323 -0.3266
 6210TIP3    H240190   4.697   1.115   0.665 -0.6239 -0.1100  0.2082
 6211TIP3   OH240191   5.906   6.044   1.460  0.1791  0.1715  0.1550
 6211TIP3    H140192   5.886   6.129   1.420 -2.7631 -0.1305  0.7471
 6211TIP3    H240193   5.979   6.062   1.519 -1.4066  2.7564  1.5106
 6212TIP3   OH240194   0.588   5.191   1.585 -0.9391 -0.0386 -0.8547
 6212TIP3    H140195   0.589   5.106   1.541  2.8014 -0.1871 -0.8118
 6212TIP3    H240196   0.599   5.254   1.514  1.5525 -0.0544 -0.5878
 6213TIP3   OH240197   2.087   0.784   2.030 -0.3282  0.5334 -0.0621
 6213TIP3    H140198   2.117   0.873   2.049 -2.2104  1.7135 -2.1526
 6213TIP3    H240199   2.114   0.733   2.106  1.2223  2.7750  1.0007
 6214TIP3   OH240200   2.304   0.864   3.420 -0.5730  0.0879  0.1222
 6214TIP3    H140201   2.392   0.869   3.458 -0.4036  0.3941 -0.3029
 6214TIP3    H240202   2.319   0.866   3.326 -1.0853  0.9813  0.0574
 6215TIP3   OH240203   5.000   4.768   8.444 -0.2531 -0.4562  0.0909
 6215TIP3    H140204   5.069   4.833   8.434 -1.4361  0.7307 -0.8142
 6215TIP3    H240205   4.940   4.806   8.508  0.8909 -2.3835  2.4373
 6216TIP3   OH240206   3.368   4.518   8.078 -0.2093  0.6231 -0.6077
 6216TIP3    H140207   3.432   4.451   8.101 -0.5671  0.9095  1.3675
 6216TIP3    H240208   3.298   4.470   8.034 -0.0622 -0.1744  0.0114
 6217TIP3   OH240209   6.788   4.280   2.264  0.1342 -0.2781  0.2858
 6217TIP3    H140210   6.744   4.302   2.346  0.7778  0.4267  0.4492
 6217TIP3    H240211   6.843   4.205   2.286 -1.1948 -1.3768  0.0032
 6218TIP3   OH240212   2.219   6.464   0.357  0.0039  0.0597  0.2546
 6218TIP3    H140213   2.154   6.455   0.287 -0.8067  2.7105  0.5551
 6218TIP3    H240214   2.275   6.387   0.348 -2.2168 -1.5053 -1.0202
 6219TIP3   OH240215   5.283   4.373   1.311  0.5306 -0.5435 -0.7068
 6219TIP3    H140216   5.231   4.307   1.264  1.0747 -0.6345 -1.1972
 6219TIP3    H240217   5.334   4.415   1.243  0.1017  0.4836 -0.4083
 6220TIP3   OH240218   6.224   5.037   7.827 -0.5484  0.1875  0.4675
 6220TIP3    H140219   6.147   5.004   7.781 -1.0858 -1.2300  2.2838
 6220TIP3    H240220   6.219   5.132   7.817 -1.2353  0.0021 -1.4039
 6221TIP3   OH240221   2.869   0.283   8.522  0.1026  0.6540 -0.5473
 6221TIP3    H140222   2.817   0.357   8.551  1.2513  0.6190  1.8877
 6221TIP3    H240223   2.817   0.206   8.544 -0.6162  0.6736 -2.0736
 6222TIP3   OH240224   5.026   3.490   0.360  0.0367 -0.3515  0.2891
 6222TIP3    H140225   4.974   3.435   0.419 -1.8798  0.4181 -0.6345
 6222TIP3    H240226   5.022   3.577   0.398 -3.1550  0.6841 -1.9953
 6223TIP3   OH240227   0.122   6.759   2.440 -0.6018  0.5834 -0.3364
 6223TIP3    H140228   0.212   6.781   2.463  0.0610 -0.6662 -1.5653
 6223TIP3    H240229   0.126   6.735   2.348 -2.1297  0.1168 -0.3091
 6224TIP3   OH240230   5.817   1.664   3.306  0.4423  0.0832 -0.5820
 6224TIP3    H140231   5.739   1.719   3.309 -0.2407 -0.8915  0.2056
 6224TIP3    H240232   5.890   1.726   3.310 -0.3015  0.8946  1.3567
 6225TIP3   OH240233   4.816   0.229   1.908 -0.4781 -0.1361  0.2378
 6225TIP3    H140234   4.867   0.214   1.828 -0.2263  0.5529  0.2571
 6225TIP3    H240235   4.831   0.322   1.928  0.9107 -0.6918  2.0873
 6226TIP3   OH240236   6.190   2.386   0.030  0.2971  0.2951  0.3330
 6226TIP3    H140237   6.118   2.396  -0.032  0.9593  0.5030 -0.4148
 6226TIP3    H240238   6.194   2.292   0.048 -0.2674  0.3016  0.5209
 6227TIP3   OH240239   6.068   1.780   3.292  0.1562  0.8925 -0.6581
 6227TIP3    H140240   6.048   1.867   3.325 -1.2735  0.0137  0.9786
 6227TIP3    H240241   6.162   1.770   3.305  0.0411  1.5423  0.7942
 6228TIP3   OH240242   6.517   5.660   1.006  0.3791  0.0235  0.4690
 6228TIP3    H140243   6.514   5.630   0.915 -0.3762 -0.9452  0.7920
 6228TIP3    H240244   6.485   5.750   1.003  1.7052  0.4980 -0.4004
 6229TIP3   OH240245   1.359   0.951   2.180  0.2384 -0.1453  0.3798
 6229TIP3    H140246   1.268   0.977   2.165  0.0341  0.3430  2.1648
 6229TIP3    H240247   1.385   0.999   2.259  1.4806 -1.5852  0.8985
 6230TIP3   OH240248   0.159   3.920   3.397  0.1106  0.5405 -0.8806
 6230TIP3    H140249   0.135   3.834   3.431  2.1871 -0.7430 -2.4244
 6230TIP3    H240250   0.087   3.943   3.339 -0.2396 -0.4006 -0.8411
 6231TIP3   OH240251   5.363   1.557   8.635 -0.0469  0.0828 -0.5444
 6231TIP3    H140252   5.409   1.594   8.560  1.5631 -0.1141  0.3035
 6231TIP3    H240253   5.281   1.523   8.599  0.0576  1.2428 -1.9495
 6232TIP3   OH240254   3.207   3.885   7.571  0.3728 -0.2570 -0.4087
 6232TIP3    H140255   3.135   3.847   7.521  0.3390 -1.7575  0.7207
 6232TIP3    H240256   3.272   3.815   7.579  2.1115  1.1207 -1.5829
 6233TIP3   OH240257   0.005   2.271   0.074  0.0239 -0.1089 -0.1646
 6233TIP3    H140258   0.025   2.320  -0.006  0.9380 -1.8328 -1.0565
 6233TIP3    H240259  -0.025   2.185   0.042 -0.6483 -0.4706  1.3426
 6234TIP3   OH240260   1.649   4.765   8.689  0.3997 -0.4274 -0.1858
 6234TIP3    H140261   1.704   4.699   8.646  2.9952  1.1967  0.3702
 6234TIP3    H240262   1.625   4.726   8.773 -0.8063 -1.8267 -1.1324
 6235TIP3   OH240263   2.398   4.011   8.460 -0.2446  0.4240  0.2326
 6235TIP3    H140264   2.406   3.957   8.381  0.0093  1.7373 -0.6848
 6235TIP3    H240265   2.484   4.006   8.501  0.5806  2.0290 -1.1731
 6236TIP3   OH240266   1.988   0.371   2.313  0.1841  0.5952 -0.2001
 6236TIP3    H140267   2.037   0.320   2.248  1.4381  2.1722 -0.5662
 6236TIP3    H240268   1.980   0.313   2.389 -0.6748 -1.0218 -1.4754
 6237TIP3   OH240269   1.312   4.393   8.320 -0.7142 -0.1954 -0.3480
 6237TIP3    H140270   1.302   4.298   8.320 -2.2869 -0.0575  0.0057
 6237TIP3    H240271   1.315   4.418   8.228 -2.3153 -0.4418 -0.5019
 6238TIP3   OH240272   2.070   2.246   2.995 -0.9722 -0.0312 -0.8773
 6238TIP3    H140273   2.092   2.337   3.017 -0.6913 -0.7889  2.5304
 6238TIP3    H240274   2.152   2.198   3.006 -2.0175 -1.3558  2.2223
 6239TIP3   OH240275   4.622   0.771   1.410  0.1723 -0.0185 -0.4762
 6239TIP3    H140276   4.622   0.697   1.350  1.3340  0.3946 -1.0072
 6239TIP3    H240277   4.714   0.796   1.418  0.5773 -1.8760  3.7507
 6240TIP3   OH240278   5.069   5.359   0.296  0.1696  0.3089  0.5128
 6240TIP3    H140279   5.024   5.281   0.328  1.3709 -0.9077 -0.6498
 6240TIP3    H240280   5.154   5.328   0.266  0.9705  2.1967  0.6709
 6241TIP3   OH240281   4.817   1.726   0.530 -0.0441 -0.2367  0.4089
 6241TIP3    H140282   4.810   1.635   0.559  1.1046 -0.5090 -0.0780
 6241TIP3    H240283   4.867   1.770   0.598 -1.2062  0.2180  0.9885
 6242TIP3   OH240284   0.426   5.381   0.878 -0.1227  0.1841 -0.8150
 6242TIP3    H140285   0.481   5.414   0.948  0.6101  0.9601 -1.7384
 6242TIP3    H240286   0.471   5.405   0.797 -0.3226 -1.7385 -1.5692
 6243TIP3   OH240287   1.242   5.932   7.455  0.1222  0.2661  0.1375
 6243TIP3    H140288   1.310   5.912   7.390 -0.6810  0.3642 -0.7615
 6243TIP3    H240289   1.181   5.988   7.408 -1.0365 -0.5358  0.6560
 6244TIP3   OH240290   5.828   0.529   0.549 -0.1809  0.3769 -0.4029
 6244TIP3    H140291   5.752   0.499   0.598 -0.4257  0.5992 -0.6454
 6244TIP3    H240292   5.794   0.596   0.489  0.2905  0.8633 -0.1411
 6245TIP3   OH240293   6.416   6.208   0.235 -0.1810  0.7895  0.7549
 6245TIP3    H140294   6.431   6.114   0.225 -0.4187  0.5542  2.2892
 6245TIP3    H240295   6.337   6.226   0.184  0.0807  0.2323  0.1472
 6246TIP3   OH240296   1.470   1.556   1.488  0.2916  0.4435  0.3211
 6246TIP3    H140297   1.422   1.580   1.409  1.6197 -1.1549 -1.0415
 6246TIP3    H240298   1.402   1.530   1.550 -0.6804 -0.6089 -1.1302
 6247TIP3   OH240299   1.403   5.936   0.900 -0.3973 -0.1413  0.4425
 6247TIP3    H140300   1.391   5.897   0.813 -1.3491  1.1747 -0.0441
 6247TIP3    H240301   1.491   5.973   0.897 -0.8830  1.0081 -0.4472
 6248TIP3   OH240302   5.662   4.735   7.888 -0.1206  0.1062  0.3852
 6248TIP3    H140303   5.580   4.745   7.839 -0.5146  2.0698  1.3581
 6248TIP3    H240304   5.637   4.683   7.965 -0.6907  1.4940  1.1606
 6249TIP3   OH240305   0.887   4.404   7.712  0.1772  0.1095 -0.4215
 6249TIP3    H140306   0.833   4.396   7.633  0.9177  0.7375 -1.0174
 6249TIP3    H240307   0.966   4.355   7.691 -0.4042 -1.3859  0.7058
 6250TIP3   OH240308   5.837   5.491   2.756 -0.4673  0.5370  0.3712
 6250TIP3    H140309   5.763   5.548   2.776 -0.6209  1.4103 -2.3300
 6250TIP3    H240310   5.913   5.549   2.761 -0.3096  0.3406  0.2595
 6251TIP3   OH240311   1.598   5.324   7.849  0.2333  0.2831  0.1859
 6251TIP3    H140312   1.654   5.273   7.907  1.6013  1.1317 -0.3593
 6251TIP3    H240313   1.647   5.404   7.831 -0.4579  0.3675 -1.5438
 6252TIP3   OH240314   1.519   2.666   0.701 -0.4432 -0.1494 -0.4341
 6252TIP3    H140315   1.614   2.668   0.710 -0.5710  1.6431  1.1320
 6252TIP3    H240316   1.496   2.574   0.717  0.9929 -0.5476 -0.5172
 6253TIP3   OH240317   4.645   6.453   0.323 -0.2837 -0.7468  0.4888
 6253TIP3    H140318   4.550   6.460   0.320 -0.2794 -0.8095  0.1149
 6253TIP3    H240319   4.667   6.457   0.416 -0.7406 -1.8734  0.6608
 6254TIP3   OH240320   3.359   2.833   0.772  0.5051 -0.1363  0.3856
 6254TIP3    H140321   3.428   2.796   0.827 -0.3878  0.3060  1.8638
 6254TIP3    H240322   3.281   2.831   0.827 -0.9993 -1.7236 -1.6156
 6255TIP3   OH240323   5.266   3.754   0.807  0.0322 -0.2101 -0.5594
 6255TIP3    H140324   5.337   3.720   0.861  0.0223 -1.1755 -1.1364
 6255TIP3    H240325   5.278   3.849   0.809  2.2723 -0.3985 -1.8988
 6256TIP3   OH240326   3.577   3.239   0.127  0.2621  0.1658 -0.2247
 6256TIP3    H140327   3.650   3.300   0.133  1.2572 -1.0436  0.3851
 6256TIP3    H240328   3.588   3.181   0.202  0.0028 -1.4622 -1.3872
 6257TIP3   OH240329   3.953   0.884   7.657  0.1865 -0.5788 -0.0338
 6257TIP3    H140330   3.993   0.949   7.600  0.3254 -0.0209  0.6829
 6257TIP3    H240331   3.860   0.884   7.633  0.5513 -1.7642 -1.5918
 6258TIP3   OH240332   4.296   3.181   1.242  0.2859 -0.2138 -0.2598
 6258TIP3    H140333   4.315   3.273   1.259  0.2571 -0.3144  0.3243
 6258TIP3    H240334   4.381   3.137   1.245  0.5190  0.0128 -2.0734
 6259TIP3   OH240335   2.902   1.464   8.442  0.0745 -0.5788  0.0606
 6259TIP3    H140336   2.827   1.523   8.450 -0.7880 -1.4443 -1.2757
 6259TIP3    H240337   2.967   1.514   8.391 -0.7875 -0.8650 -1.3689
 6260TIP3   OH240338   3.344   6.078   1.272 -0.7551  0.2574  0.1304
 6260TIP3    H140339   3.286   6.108   1.342 -1.4198  0.2036 -0.3906
 6260TIP3    H240340   3.406   6.150   1.261  0.0462 -0.1815  1.5095
 6261TIP3   OH240341   0.490   4.492   2.432  0.0103  0.3324  0.4049
 6261TIP3    H140342   0.444   4.562   2.477 -1.9097  0.3180 -1.3774
 6261TIP3    H240343   0.504   4.425   2.499  0.0909  1.5549  1.6640
 6262TIP3   OH240344   2.850   4.612   1.199  0.1966  0.0260  0.1416
 6262TIP3    H140345   2.942   4.618   1.173  0.8305 -0.0679  2.2391
 6262TIP3    H240346   2.839   4.522   1.227 -0.0525  0.4876  1.5743
 6263TIP3   OH240347   2.338   3.944   8.762 -0.2361  0.2142  0.2001
 6263TIP3    H140348   2.373   3.855   8.769 -0.1333  0.1982 -0.4482
 6263TIP3    H240349   2.259   3.935   8.709  0.2809  0.6308 -0.6707
 6264TIP3   OH240350   5.233   4.469   8.312 -0.2902 -1.1106 -0.1208
 6264TIP3    H140351   5.210   4.433   8.226 -1.6388 -0.5255 -0.0280
 6264TIP3    H240352   5.321   4.436   8.329  0.4561 -0.3932 -2.2088
 6265TIP3   OH240353   6.238   3.299   8.417 -0.1872  0.2101  0.3393
 6265TIP3    H140354   6.187   3.349   8.354 -0.6096  1.1977  1.4445
 6265TIP3    H240355   6.191   3.216   8.426  0.5205 -0.4581 -1.4990
 6266TIP3   OH240356   5.254   6.802   1.952  0.6778  0.1330 -0.1425
 6266TIP3    H140357   5.307   6.749   2.011  2.2973  1.3188 -0.4781
 6266TIP3    H240358   5.265   6.892   1.984 -0.6595  0.4775 -0.5886
 6267TIP3   OH240359   5.971   2.180   1.893 -0.3313  0.0663  0.2230
 6267TIP3    H140360   6.028   2.191   1.970 -1.3789  0.7693  0.9246
 6267TIP3    H240361   5.999   2.249   1.833  0.4624 -0.4569 -0.0318
 6268TIP3   OH240362   3.316   3.412   3.168 -0.0170  0.2547  0.1681
 6268TIP3    H140363   3.317   3.361   3.088 -1.9053 -0.0737  0.2967
 6268TIP3    H240364   3.350   3.497   3.143 -1.1809  0.3665 -1.1605
 6269TIP3   OH240365   2.547   4.286   0.965  0.1090  0.0333  0.1926
 6269TIP3    H140366   2.620   4.277   1.025  1.1353  2.5484 -0.5527
 6269TIP3    H240367   2.586   4.275   0.878 -0.8898 -1.0144 -0.1574
 6270TIP3   OH240368   1.381   4.462   0.119 -0.0034 -0.2834 -0.0814
 6270TIP3    H140369   1.298   4.416   0.106 -0.5628  0.4364  0.7624
 6270TIP3    H240370   1.396   4.509   0.037 -0.5067 -0.3114 -0.1919
 6271TIP3   OH240371   3.475   0.110   1.447  0.2872  0.4262 -0.3396
 6271TIP3    H140372   3.436   0.049   1.510 -1.5931  0.0023 -1.8056
 6271TIP3    H240373   3.459   0.196   1.484 -0.2713  0.1613  0.0513
 6272TIP3   OH240374   6.293   5.920   3.115  0.2217 -0.2437  0.3655
 6272TIP3    H140375   6.329   5.900   3.029  0.8559  0.4941  0.4405
 6272TIP3    H240376   6.362   5.971   3.159  0.5416 -1.8853  1.8904
 6273TIP3   OH240377   3.832   2.552   0.073  0.7545  0.2323 -0.4131
 6273TIP3    H140378   3.740   2.530   0.093  0.2394  1.1750 -1.6269
 6273TIP3    H240379   3.882   2.479   0.109 -0.5118 -0.5836 -0.2251
 6274TIP3   OH240380   2.800   3.492   1.760  0.3151 -0.4734  0.4233
 6274TIP3    H140381   2.879   3.526   1.720  0.5531  1.1232  2.1491
 6274TIP3    H240382   2.828   3.457   1.845 -1.0224  1.8478  1.9298
 6275TIP3   OH240383   4.937   1.754   3.027  0.1624  0.1595  0.3512
 6275TIP3    H140384   4.848   1.721   3.015 -0.2159  1.1133  0.4194
 6275TIP3    H240385   4.961   1.727   3.116  0.5243 -1.3868 -0.1929
 6276TIP3   OH240386   1.016   0.810   0.177  0.5818  0.1603 -0.4037
 6276TIP3    H140387   1.049   0.733   0.223  0.3926  0.0264 -0.4904
 6276TIP3    H240388   0.951   0.847   0.237 -0.8562 -0.9320 -1.2241
 6277TIP3   OH240389   2.017   5.069   0.678 -0.2661  1.0189 -0.3093
 6277TIP3    H140390   1.980   4.998   0.731  0.4795  1.4308  0.8074
 6277TIP3    H240391   1.946   5.095   0.619 -1.0895  0.4786  0.4194
 6278TIP3   OH240392   1.815   0.176   0.954 -0.3235 -0.0582  0.7634
 6278TIP3    H140393   1.844   0.151   1.042 -0.0831  0.5903  0.8712
 6278TIP3    H240394   1.795   0.093   0.911  0.3371 -0.4265  1.1613
 6279TIP3   OH240395   0.708   0.783   1.814  0.8186 -0.3318 -0.3762
 6279TIP3    H140396   0.798   0.752   1.805  0.6754 -1.1461  0.7145
 6279TIP3    H240397   0.684   0.758   1.903 -0.1762  0.7082 -0.3337
 6280TIP3   OH240398   0.157   6.734   2.852 -0.0956 -0.0603  0.8157
 6280TIP3    H140399   0.074   6.723   2.806  0.4993  0.2824 -0.3931
 6280TIP3    H240400   0.222   6.696   2.793  0.9203  1.9918  0.5186
 6281TIP3   OH240401   1.910   6.751   8.625  0.0439  0.0328  0.5698
 6281TIP3    H140402   1.854   6.818   8.584  2.6124  2.0544  0.0738
 6281TIP3    H240403   1.908   6.773   8.719 -0.1353 -0.0283  0.5813
 6282TIP3   OH240404   3.635   1.021   2.034 -0.2186  0.2679 -0.1828
 6282TIP3    H140405   3.617   1.052   2.123  2.1153  0.8797  0.1543
 6282TIP3    H240406   3.705   0.956   2.045 -1.7957 -1.7647 -1.3596
 6283TIP3   OH240407   1.234   1.792   8.618  0.0417 -0.0993  0.3248
 6283TIP3    H140408   1.215   1.845   8.541  1.3079  0.2638  0.2449
 6283TIP3    H240409   1.148   1.760   8.647 -0.9368  2.7898  0.9631
 6284TIP3   OH240410   3.794   3.450   8.578 -0.2451  0.0210  0.5526
 6284TIP3    H140411   3.871   3.395   8.591 -0.3000  0.1909  1.7814
 6284TIP3    H240412   3.764   3.430   8.490  2.2519  1.2666 -0.6736
 6285TIP3   OH240413   3.037   4.752   0.881 -0.1694 -0.2651  0.5412
 6285TIP3    H140414   3.043   4.847   0.893 -0.0284 -0.5224  2.8932
 6285TIP3    H240415   3.103   4.733   0.814 -1.3962  1.4449 -1.2953
 6286TIP3   OH240416   5.608   2.096   8.555 -0.2137  0.3266 -0.4456
 6286TIP3    H140417   5.521   2.074   8.590  0.0520 -1.0915 -0.6508
 6286TIP3    H240418   5.651   2.142   8.628 -1.4459  1.9417 -0.6614
 6287TIP3   OH240419   1.895   3.297   2.954  0.5171  0.2190  0.0826
 6287TIP3    H140420   1.918   3.221   3.008 -0.7218  1.1726  2.0415
 6287TIP3    H240421   1.799   3.295   2.949  0.3567  2.3679  1.3229
 6288TIP3   OH240422   0.860   4.608   8.572  0.0461  0.8374  0.3796
 6288TIP3    H140423   0.919   4.608   8.496  1.7890 -0.8779  1.6201
 6288TIP3    H240424   0.918   4.591   8.646 -1.8855  0.3263  1.8399
 6289TIP3   OH240425   5.905   2.937   1.654  0.2137  0.1301  0.0823
 6289TIP3    H140426   5.930   2.997   1.725  0.6719 -0.0398  0.0687
 6289TIP3    H240427   5.904   2.992   1.576  0.4461  0.1605  0.1000
 6290TIP3   OH240428   2.162   4.946   0.480  0.1305  0.1551  0.1308
 6290TIP3    H140429   2.123   5.000   0.549 -0.2626  0.8591 -0.6191
 6290TIP3    H240430   2.096   4.880   0.461  0.9141 -1.1019  1.5765
 6291TIP3   OH240431   0.751   4.625   2.507 -0.2848  0.0140 -0.0533
 6291TIP3    H140432   0.677   4.573   2.474 -0.1409 -1.8924  2.3749
 6291TIP3    H240433   0.712   4.710   2.530 -1.2524 -0.1921 -0.8922
 6292TIP3   OH240434   3.099   4.379   1.827 -0.3821 -0.0944  0.2986
 6292TIP3    H140435   3.086   4.433   1.749 -0.1329  0.1411  0.4172
 6292TIP3    H240436   3.120   4.442   1.897 -2.4745 -0.1267  1.0142
 6293TIP3   OH240437   1.043   4.876   2.743 -0.4473 -0.0296  0.0277
 6293TIP3    H140438   1.124   4.828   2.762 -0.5969 -0.0006  0.8006
 6293TIP3    H240439   1.027   4.862   2.650  0.3210 -0.2293 -0.0812
 6294TIP3   OH240440   4.180   0.700   0.095 -0.0334  0.4738 -1.0647
 6294TIP3    H140441   4.117   0.658   0.154 -0.8902  2.0119 -0.8171
 6294TIP3    H240442   4.178   0.792   0.121  0.1198  1.0609 -3.0249
 6295TIP3   OH240443   6.439   1.131   8.623 -0.1181  0.6182  0.1384
 6295TIP3    H140444   6.507   1.197   8.638  0.9414 -0.6956  1.4048
 6295TIP3    H240445   6.368   1.155   8.682  1.0661 -0.4069  2.0955
 6296TIP3   OH240446   2.109   2.512   0.659  0.5612  0.4116  0.3098
 6296TIP3    H140447   2.092   2.431   0.611  0.3496  0.4597  0.3066
 6296TIP3    H240448   2.115   2.579   0.591  2.0246  0.1974  0.1851
 6297TIP3   OH240449   6.775   1.845   0.835 -0.5236  0.2142 -0.4685
 6297TIP3    H140450   6.805   1.804   0.916 -1.9896 -2.2733 -1.0850
 6297TIP3    H240451   6.684   1.870   0.853 -0.1737  1.7251 -0.6702
 6298TIP3   OH240452   6.742   6.165   2.361  0.5350  1.0659  0.1341
 6298TIP3    H140453   6.705   6.211   2.437  0.0074  0.2335  0.3891
 6298TIP3    H240454   6.790   6.091   2.398 -0.4013  0.1793 -0.3685
 6299TIP3   OH240455   0.294   1.991   0.100  0.0798 -0.0081  0.3178
 6299TIP3    H140456   0.259   2.013   0.014  0.9676  1.2404  0.2582
 6299TIP3    H240457   0.297   2.074   0.148 -0.1554 -0.6353  1.4721
 6300TIP3   OH240458   1.495   4.383   7.320 -0.1338  0.0811 -0.7071
 6300TIP3    H140459   1.565   4.443   7.291 -0.0071 -0.1503 -0.8840
 6300TIP3    H240460   1.488   4.319   7.250  1.0459 -1.2311  0.3024
 6301TIP3   OH240461   0.722   6.239   8.355  0.3338 -0.4449 -0.1623
 6301TIP3    H140462   0.626   6.242   8.354  0.3249  0.7459  1.2182
 6301TIP3    H240463   0.745   6.192   8.275 -1.4407 -1.8705  0.0915
 6302TIP3   OH240464   3.625   2.664   1.226  0.0094  0.3898 -0.5080
 6302TIP3    H140465   3.647   2.637   1.137 -1.6414 -1.7967 -0.3402
 6302TIP3    H240466   3.702   2.641   1.277 -0.6229 -2.6231 -0.7036
 6303TIP3   OH240467   4.377   2.095   8.226  0.1954  0.8366 -0.0286
 6303TIP3    H140468   4.388   2.020   8.167  0.8411  0.4637  0.5448
 6303TIP3    H240469   4.466   2.126   8.242 -0.1287  2.6694 -1.4101
 6304TIP3   OH240470   0.637   6.676   8.795 -0.0613  0.2414  0.0110
 6304TIP3    H140471   0.597   6.647   8.877  0.2892  1.4279  0.6188
 6304TIP3    H240472   0.728   6.695   8.818  0.3790 -0.5744 -0.9349
 6305TIP3   OH240473   2.850   5.668   0.283  0.4134 -0.1269 -0.2779
 6305TIP3    H140474   2.781   5.638   0.342 -0.1695  2.6519  0.6118
 6305TIP3    H240475   2.929   5.671   0.338  0.3272  0.4678 -0.1724
 6306TIP3   OH240476   6.579   2.744   8.752  0.1660 -0.6215  0.1143
 6306TIP3    H140477   6.544   2.657   8.770 -0.9153 -0.7227 -2.0944
 6306TIP3    H240478   6.501   2.800   8.748  0.7180  0.1451  0.0542
 6307TIP3   OH240479   0.474   2.801   7.527 -0.3782 -0.1923  0.1622
 6307TIP3    H140480   0.548   2.856   7.499 -0.6723 -0.4108 -1.1343
 6307TIP3    H240481   0.402   2.826   7.469 -0.5815 -1.7472 -0.3238
 6308TIP3   OH240482   3.225   6.602   7.830  0.1804 -0.8890  0.0091
 6308TIP3    H140483   3.283   6.627   7.902 -0.4475  0.8647 -0.0444
 6308TIP3    H240484   3.281   6.556   7.768  1.2154 -0.4213  0.5788
 6309TIP3   OH240485   2.643   0.419   8.751 -0.0456  0.3252 -0.2421
 6309TIP3    H140486   2.694   0.363   8.810 -2.1212 -2.5687 -0.9426
 6309TIP3    H240487   2.590   0.474   8.809 -1.3188 -1.7739  0.6958
 6310TIP3   OH240488   4.389   5.448   8.140 -0.0972 -0.3410  0.0287
 6310TIP3    H140489   4.346   5.529   8.168 -0.8656 -1.0002  0.8346
 6310TIP3    H240490   4.351   5.428   8.055  1.3902  1.0600 -1.0127
 6311TIP3   OH240491   4.501   4.669   1.676 -0.1091  0.5119  0.1032
 6311TIP3    H140492   4.545   4.669   1.761  1.7730  1.6818 -0.8000
 6311TIP3    H240493   4.456   4.754   1.673 -2.4076 -0.5996  0.9432
 6312TIP3   OH240494   1.139   1.202   8.528 -0.2399  0.2004 -0.2604
 6312TIP3    H140495   1.167   1.112   8.510 -1.9865 -0.5483  0.4665
 6312TIP3    H240496   1.220   1.249   8.549  0.5803 -1.5931  0.8698
 6313TIP3   OH240497   3.009   3.016   7.325 -0.1445 -0.2321 -1.0230
 6313TIP3    H140498   3.044   3.105   7.337 -2.0200  0.3952  0.4499
 6313TIP3    H240499   2.925   3.030   7.281  0.1999 -1.4498 -2.1276
 6314TIP3   OH240500   5.251   2.407   8.757 -0.0120  0.2273  0.1561
 6314TIP3    H140501   5.176   2.444   8.803 -1.1493 -0.3604 -1.1474
 6314TIP3    H240502   5.320   2.473   8.765 -0.7626  0.9208  1.1036
 6315TIP3   OH240503   4.049   1.425   1.780 -0.0204  0.1275  0.6904
 6315TIP3    H140504   4.106   1.498   1.806  0.8473 -0.3516  0.1618
 6315TIP3    H240505   4.014   1.451   1.695  1.0266 -0.4812  0.0688
 6316TIP3   OH240506   5.976   4.025   3.331 -0.5480 -0.5188 -0.2441
 6316TIP3    H140507   6.051   4.062   3.286  0.2687 -1.5251  0.2589
 6316TIP3    H240508   6.013   3.961   3.392 -1.7507 -0.5041  0.5476
 6317TIP3   OH240509   1.071   6.392   1.790 -0.1880 -0.2849  0.5160
 6317TIP3    H140510   1.003   6.373   1.854  1.2545 -1.1584  1.8605
 6317TIP3    H240511   1.133   6.447   1.837  0.2801  0.1179 -0.5448
 6318TIP3   OH240512   1.534   1.973   1.695 -0.1010 -0.1845 -0.2848
 6318TIP3    H140513   1.454   1.960   1.644 -0.0769  0.9209 -0.6166
 6318TIP3    H240514   1.605   1.948   1.636 -0.1714 -0.8117 -0.1130
 6319TIP3   OH240515   4.256   1.516   2.823 -0.2059  0.0349  0.4803
 6319TIP3    H140516   4.265   1.517   2.918 -1.1255 -0.4232  0.5858
 6319TIP3    H240517   4.339   1.482   2.791  0.1995  0.4060  1.1021
 6320TIP3   OH240518   0.736   0.102   0.222  0.1903 -0.9363 -0.2870
 6320TIP3    H140519   0.641   0.104   0.218  0.2040  1.0545 -0.4451
 6320TIP3    H240520   0.763   0.191   0.201  2.0130 -0.9714  1.6145
 6321TIP3   OH240521   2.003   6.693   3.032 -0.0759 -0.2601  0.1778
 6321TIP3    H140522   1.976   6.774   2.991 -0.6256 -1.3686 -1.7582
 6321TIP3    H240523   1.925   6.662   3.079  0.4647  0.8520  1.8959
 6322TIP3   OH240524   2.517   5.763   1.507 -0.1403  0.1819  0.0188
 6322TIP3    H140525   2.509   5.858   1.515  0.8846  0.1281  2.8555
 6322TIP3    H240526   2.521   5.732   1.598 -1.7294 -2.7153 -0.7881
 6323TIP3   OH240527   0.137   5.315   2.027  0.2643 -0.0745  0.3831
 6323TIP3    H140528   0.136   5.411   2.019  0.6541 -0.2108 -1.8681
 6323TIP3    H240529   0.148   5.284   1.938  1.0805 -2.2275  1.1782
 6324TIP3   OH240530   1.944   4.889   8.580  0.5768  0.8371 -0.5035
 6324TIP3    H140531   2.025   4.873   8.531  1.1983 -3.7439  1.4898
 6324TIP3    H240532   1.884   4.821   8.549 -0.3197  0.2558  2.2816
 6325TIP3   OH240533   0.107   5.877   0.254 -0.1494 -0.5322 -0.5496
 6325TIP3    H140534   0.081   5.958   0.210 -0.5813 -0.7729 -0.7342
 6325TIP3    H240535   0.100   5.809   0.187  3.6223 -0.2376 -1.4908
 6326TIP3   OH240536   0.329   1.905   3.331 -0.1941 -0.0058  0.6364
 6326TIP3    H140537   0.333   1.996   3.299  2.3541 -0.1544  0.3709
 6326TIP3    H240538   0.372   1.908   3.416 -0.9966 -0.8169  1.0874
 6327TIP3   OH240539   1.880   1.201   3.124 -0.2426  0.1339 -0.4014
 6327TIP3    H140540   1.826   1.161   3.192  1.4180 -1.3177  0.1723
 6327TIP3    H240541   1.841   1.172   3.042  0.2562 -1.8729  0.0060
 6328TIP3   OH240542   2.078   0.585   2.731  0.4852  0.1091  0.3757
 6328TIP3    H140543   2.072   0.630   2.647 -0.2829 -1.2295 -0.3139
 6328TIP3    H240544   2.144   0.635   2.780  1.7436  0.2769 -1.4035
 6329TIP3   OH240545   3.737   2.195   7.754  0.2301  0.5176 -0.6247
 6329TIP3    H140546   3.709   2.189   7.662  1.2362  1.8316 -1.0512
 6329TIP3    H240547   3.660   2.231   7.799 -0.4309 -0.5734 -0.8532
 6330TIP3   OH240548   0.798   2.579   1.271  0.6808  0.1640 -0.3438
 6330TIP3    H140549   0.730   2.512   1.268  0.5849  0.1859  0.8879
 6330TIP3    H240550   0.761   2.648   1.327  1.2483  0.7093 -0.6277
 6331TIP3   OH240551   6.726   5.500   2.259  0.7087 -0.1011 -0.2653
 6331TIP3    H140552   6.715   5.585   2.301 -0.2991  0.0124 -0.7262
 6331TIP3    H240553   6.803   5.509   2.203  1.4379  0.0684  0.7427
 6332TIP3   OH240554   1.972   3.692   0.923 -0.4574 -0.3299 -0.5159
 6332TIP3    H140555   1.881   3.723   0.918  0.0177  1.4423  0.6166
 6332TIP3    H240556   1.979   3.654   1.011  0.3459  1.3361  0.1911
 6333TIP3   OH240557   5.623   4.426   3.594  0.1270 -0.1108  0.1395
 6333TIP3    H140558   5.706   4.400   3.635 -0.7737 -1.3478  1.2628
 6333TIP3    H240559   5.644   4.433   3.500  2.1507  2.4200  0.6507
 6334TIP3   OH240560   3.398   2.759   2.675 -0.1676 -0.1862  0.5138
 6334TIP3    H140561   3.419   2.851   2.658 -0.0020 -0.3934 -0.4699
 6334TIP3    H240562   3.303   2.755   2.670 -0.1046 -0.5111 -2.1197
 6335TIP3   OH240563   4.502   1.805   8.600 -0.1465 -0.3610 -0.1311
 6335TIP3    H140564   4.544   1.884   8.632 -0.4742 -0.1945 -0.1112
 6335TIP3    H240565   4.486   1.752   8.678 -1.1592  0.1461  0.0312
 6336TIP3   OH240566   3.612   2.931   2.115 -0.8183  0.5893 -0.4953
 6336TIP3    H140567   3.654   2.980   2.044 -0.8433 -0.3796 -1.2050
 6336TIP3    H240568   3.603   2.842   2.080 -0.2454 -0.0670  0.9737
 6337TIP3   OH240569   6.331   6.394   7.951 -0.4324 -0.6268 -0.0168
 6337TIP3    H140570   6.288   6.355   7.874 -0.0797 -1.4304  0.1834
 6337TIP3    H240571   6.372   6.320   7.996  0.7021  0.0473  0.0993
 6338TIP3   OH240572   2.989   2.901   1.923  0.3047 -0.1763 -0.2332
 6338TIP3    H140573   3.016   2.966   1.859 -0.4376  0.2968 -0.0808
 6338TIP3    H240574   2.935   2.949   1.985 -1.4315 -1.1725 -0.8893
 6339TIP3   OH240575   2.638   4.132   1.362  0.4802  0.4106  0.2291
 6339TIP3    H140576   2.693   4.053   1.360 -0.6733 -0.6295  3.3318
 6339TIP3    H240577   2.568   4.115   1.300  2.0650  0.5699 -1.7050
 6340TIP3   OH240578   3.933   6.447   0.727 -0.1158  0.1817  0.0586
 6340TIP3    H140579   3.852   6.480   0.687  0.2093  1.4688  0.4340
 6340TIP3    H240580   4.003   6.484   0.673  0.2478 -1.3101 -0.5563
 6341TIP3   OH240581   1.888   4.067   7.915 -0.3809  0.3150  0.2407
 6341TIP3    H140582   1.839   4.146   7.893 -1.6451 -0.5684 -0.2356
 6341TIP3    H240583   1.957   4.097   7.974 -2.1330  1.4865  1.8194
 6342TIP3   OH240584   1.154   2.021   1.137  0.1260  0.3368  0.2621
 6342TIP3    H140585   1.215   2.042   1.208  0.4650  1.4138 -0.3356
 6342TIP3    H240586   1.093   2.094   1.134  0.1540  0.3371 -0.5960
 6343TIP3   OH240587   5.285   6.489   3.205 -0.2200 -0.0886 -0.5532
 6343TIP3    H140588   5.229   6.526   3.137  1.5127  0.5482 -1.7007
 6343TIP3    H240589   5.374   6.506   3.175  0.6949 -3.6045 -0.2688
 6344TIP3   OH240590   4.542   6.552   0.717  0.5318 -1.3463 -0.1263
 6344TIP3    H140591   4.619   6.509   0.678  0.4438  0.0495 -1.9951
 6344TIP3    H240592   4.578   6.609   0.785  1.0304 -1.6655 -0.1221
 6345TIP3   OH240593   2.153   0.218   2.151 -0.0622  0.2176 -0.3955
 6345TIP3    H140594   2.213   0.165   2.203  0.3619  1.3462  0.3172
 6345TIP3    H240595   2.210   0.283   2.109 -0.6361  0.5229 -0.7100
 6346TIP3   OH240596   2.676   1.901   3.126 -0.3048  0.2396 -0.5073
 6346TIP3    H140597   2.646   1.969   3.065  1.1978  0.7721 -0.6946
 6346TIP3    H240598   2.744   1.944   3.178 -1.3277 -0.3119  1.3371
 6347TIP3   OH240599   5.011   0.875   2.986 -0.8434  0.2126  0.8853
 6347TIP3    H140600   5.092   0.926   2.993 -2.2377  2.6622  0.4033
 6347TIP3    H240601   4.979   0.870   3.076  1.4235 -3.7684  1.6681
 6348TIP3   OH240602   2.166   0.757   1.434  0.0708 -0.2755 -0.1098
 6348TIP3    H140603   2.221   0.732   1.508 -0.3848 -0.9090  0.0219
 6348TIP3    H240604   2.134   0.674   1.398 -0.9199  0.0772 -0.0876
 6349TIP3   OH240605   4.744   5.628   8.701 -0.5689  0.4364  0.3753
 6349TIP3    H140606   4.724   5.601   8.611  2.0024 -2.5737  0.5883
 6349TIP3    H240607   4.680   5.581   8.755  1.4460 -2.4306  0.4393
 6350TIP3   OH240608   1.557   1.861   7.382  0.0764  0.5901  0.2214
 6350TIP3    H140609   1.483   1.839   7.438 -2.4790  0.9075 -2.7595
 6350TIP3    H240610   1.551   1.956   7.369  0.6536  0.5460 -0.4953
 6351TIP3   OH240611   1.228   3.147   7.776 -0.3921 -0.3325  0.0717
 6351TIP3    H140612   1.259   3.084   7.841 -0.7082 -1.8477 -1.1892
 6351TIP3    H240613   1.133   3.139   7.779 -0.4156 -0.2608 -0.4227
 6352TIP3   OH240614   3.035   6.800   8.084 -0.1143 -0.3392 -0.0670
 6352TIP3    H140615   3.074   6.713   8.096 -2.4964 -1.5583 -0.5099
 6352TIP3    H240616   3.000   6.799   7.995  1.1150  1.7057 -0.6615
 6353TIP3   OH240617   3.373   1.158   2.808  0.3812  0.5321 -0.1934
 6353TIP3    H140618   3.358   1.172   2.902  1.0168 -0.8053  0.1272
 6353TIP3    H240619   3.289   1.128   2.775  0.7562 -1.3427  0.4553
 6354TIP3   OH240620   0.466   0.950   0.070 -1.0023  0.1873 -0.7046
 6354TIP3    H140621   0.455   0.868   0.117 -0.0364 -0.4134 -1.4803
 6354TIP3    H240622   0.377   0.976   0.045 -1.7615  1.3290  2.6749
 6355TIP3   OH240623   1.044   4.273   8.278 -0.3543  0.0293  0.9247
 6355TIP3    H140624   1.082   4.341   8.335  1.3894 -1.2455  1.3762
 6355TIP3    H240625   0.950   4.278   8.294 -0.6556  3.8672 -0.7990
 6356TIP3   OH240626   1.355   6.136   1.182  0.0443  0.7207  0.4602
 6356TIP3    H140627   1.282   6.143   1.120  0.2083  0.9567  0.2902
 6356TIP3    H240628   1.341   6.052   1.226  0.1922  0.3258 -0.2353
 6357TIP3   OH240629   1.024   5.613   1.071  0.4151 -0.1899  0.7567
 6357TIP3    H140630   1.001   5.626   1.163  3.4163  0.9146  1.4664
 6357TIP3    H240631   1.057   5.698   1.042 -0.1054 -0.6234 -1.2613
 6358TIP3   OH240632   3.842   1.309   1.921 -0.0828  1.1663  0.2098
 6358TIP3    H140633   3.914   1.355   1.878 -0.0131  1.5685  0.7475
 6358TIP3    H240634   3.830   1.355   2.004  0.8913 -0.6039  1.4103
 6359TIP3   OH240635   1.799   6.074   1.776  0.0873  0.2865 -0.1580
 6359TIP3    H140636   1.893   6.062   1.790 -0.3924 -2.7111  1.1381
 6359TIP3    H240637   1.773   6.138   1.842  0.4724 -2.6007  3.0673
 6360TIP3   OH240638   3.802   2.343   2.509  0.0767  0.4601 -0.0151
 6360TIP3    H140639   3.774   2.387   2.588 -2.2490  2.8081 -1.9653
 6360TIP3    H240640   3.735   2.276   2.493  1.3610 -1.0769  0.7185
 6361TIP3   OH240641   4.616   5.175   8.522 -0.0862 -0.5888 -0.5870
 6361TIP3    H140642   4.646   5.183   8.432 -0.9677  0.0104 -0.8459
 6361TIP3    H240643   4.523   5.198   8.518  0.2172  1.0721  0.7266
 6362TIP3   OH240644   5.791   3.168   0.202  0.2115 -0.3682 -0.1460
 6362TIP3    H140645   5.711   3.116   0.196 -0.5369  0.8646 -1.4076
 6362TIP3    H240646   5.775   3.244   0.146  1.1239  1.4475  1.9206
 6363TIP3   OH240647   3.801   1.062   0.811 -0.0408  0.2780  0.0558
 6363TIP3    H140648   3.738   0.996   0.840  1.1939 -1.4682 -1.0406
 6363TIP3    H240649   3.878   1.049   0.867 -0.4922  2.2491  1.2487
 6364TIP3   OH240650   5.415   5.889   1.333  0.4222 -0.4137 -0.1296
 6364TIP3    H140651   5.437   5.982   1.331  1.0229 -0.5379  0.2709
 6364TIP3    H240652   5.354   5.881   1.406  0.1763 -0.3012 -0.3185
 6365TIP3   OH240653   3.966   1.631   1.554 -0.6618 -0.1397  0.1065
 6365TIP3    H140654   3.960   1.725   1.541 -2.3634 -0.1651  0.4510
 6365TIP3    H240655   4.059   1.614   1.570 -0.4454  1.5894  0.8777
 6366TIP3   OH240656   2.259   3.185   0.645  0.4082 -0.4014 -0.1865
 6366TIP3    H140657   2.300   3.217   0.725 -0.2968  2.6938 -0.9462
 6366TIP3    H240658   2.294   3.240   0.576 -0.5179 -1.6810 -1.7419
 6367TIP3   OH240659   5.083   4.462   0.417  0.0613 -0.0035 -0.1007
 6367TIP3    H140660   5.031   4.404   0.474  0.8967  0.9768  1.7645
 6367TIP3    H240661   5.057   4.438   0.328 -4.2997  1.0142  0.6492
 6368TIP3   OH240662   0.803   0.366   0.339  0.1746 -0.7444  0.3847
 6368TIP3    H140663   0.789   0.436   0.275  1.9835 -2.1999 -1.7603
 6368TIP3    H240664   0.721   0.361   0.388 -0.0146  2.8959  0.7478
 6369TIP3   OH240665   3.799   6.077   1.081 -1.2700  0.1886  0.4938
 6369TIP3    H140666   3.789   6.132   1.003 -1.3066  0.7544  0.8965
 6369TIP3    H240667   3.711   6.074   1.120 -1.2825 -0.2080  0.4407
 6370TIP3   OH240668   6.406   4.689   1.000 -0.0204 -0.2131  0.1051
 6370TIP3    H140669   6.371   4.712   1.086  0.4229  0.2050  0.1807
 6370TIP3    H240670   6.329   4.678   0.944 -0.2724  1.3877  0.0899
 6371TIP3   OH240671   0.999   3.311   6.850 -0.0118  0.4268 -0.3083
 6371TIP3    H140672   1.069   3.247   6.835 -0.0892  0.3588 -0.3792
 6371TIP3    H240673   0.998   3.324   6.945 -1.7454 -1.6609  0.0504
 6372TIP3   OH240674   1.837   6.687   1.635 -0.1853 -0.1100 -0.5608
 6372TIP3    H140675   1.921   6.663   1.597  0.6684  0.7173  0.7013
 6372TIP3    H240676   1.834   6.782   1.629 -0.6821 -0.0752  0.0817
 6373TIP3   OH240677   0.238   5.924   1.135 -0.3937  0.2683  0.5699
 6373TIP3    H140678   0.297   5.851   1.117  0.3075  1.2659 -1.3817
 6373TIP3    H240679   0.286   6.002   1.109 -2.7058  1.0899 -1.6038
 6374TIP3   OH240680   2.155   1.130   2.414  0.5539  0.3227  0.4017
 6374TIP3    H140681   2.071   1.094   2.440  0.0363  1.0662 -0.1985
 6374TIP3    H240682   2.189   1.171   2.493  1.5919 -2.1940  1.3670
 6375TIP3   OH240683   6.492   3.588   1.424 -0.3012  0.4263 -0.4715
 6375TIP3    H140684   6.508   3.497   1.398  0.3104  0.4853 -0.2970
 6375TIP3    H240685   6.430   3.621   1.358 -0.2342  0.0014 -0.7507
 6376TIP3   OH240686   5.646   5.935   2.920 -0.1345 -0.2511  0.2731
 6376TIP3    H140687   5.586   6.008   2.935  0.8593  0.5934  0.2715
 6376TIP3    H240688   5.705   5.937   2.996  0.0013 -0.9569  0.1950
 6377TIP3   OH240689   2.700   3.431   7.734 -0.2707 -0.5326 -0.0347
 6377TIP3    H140690   2.729   3.345   7.705 -0.8083 -0.3403 -1.2072
 6377TIP3    H240691   2.773   3.490   7.712  0.0664 -0.6603  0.7003
 6378TIP3   OH240692   6.343   6.032   1.425  0.3583  0.4084  0.0641
 6378TIP3    H140693   6.296   5.956   1.393 -1.7125  1.0612  1.3455
 6378TIP3    H240694   6.347   6.091   1.349  0.3040 -0.2115 -0.4295
 6379TIP3   OH240695   1.364   0.305   1.961  0.0685  0.4776 -0.7679
 6379TIP3    H140696   1.373   0.396   1.988 -1.8647  1.0333 -1.8357
 6379TIP3    H240697   1.398   0.303   1.872  0.7371 -0.0118 -0.5110
 6380TIP3   OH240698   0.156   1.892   0.644 -0.0851  0.1180  0.1574
 6380TIP3    H140699   0.216   1.819   0.660 -0.5767 -0.2658  0.2355
 6380TIP3    H240700   0.081   1.876   0.701 -0.7241  0.0581 -0.6844
 6381TIP3   OH240701   4.198   1.294   3.058 -0.1852  0.0695 -0.7081
 6381TIP3    H140702   4.240   1.380   3.061 -1.2304  0.7204 -2.4912
 6381TIP3    H240703   4.253   1.243   2.999  0.4866 -0.5434  0.4246
 6382TIP3   OH240704   4.360   6.221   1.448  0.3116  0.4107  0.5292
 6382TIP3    H140705   4.442   6.203   1.402  0.5462  2.4669  0.0554
 6382TIP3    H240706   4.370   6.310   1.481 -1.6534  0.6234  0.6609
 6383TIP3   OH240707   3.417   5.731   0.380 -0.2836  0.1935 -0.3652
 6383TIP3    H140708   3.367   5.649   0.373 -0.5793  0.3964 -0.6324
 6383TIP3    H240709   3.444   5.750   0.291  0.4022  0.0097 -0.2026
 6384TIP3   OH240710   3.883   3.799   2.438 -0.2107  0.2663  0.7154
 6384TIP3    H140711   3.864   3.835   2.524 -1.1903 -0.9168  1.0331
 6384TIP3    H240712   3.977   3.780   2.439  0.1959  2.1013  0.7669
 6385TIP3   OH240713   5.018   4.233   0.570  0.9224  0.0237  0.0938
 6385TIP3    H140714   4.923   4.239   0.559  0.7106 -3.3961 -1.3950
 6385TIP3    H240715   5.031   4.231   0.665 -0.3887  1.3102  0.3288
 6386TIP3   OH240716   0.405   5.822   0.257 -0.1130 -0.2566 -0.0205
 6386TIP3    H140717   0.316   5.850   0.238  0.5790  1.4143 -1.1052
 6386TIP3    H240718   0.416   5.837   0.351 -0.3142  1.6955 -0.2602
 6387TIP3   OH240719   6.552   5.691   8.486  0.4090 -0.4146 -0.0548
 6387TIP3    H140720   6.511   5.643   8.414 -1.4071 -2.7002  2.3276
 6387TIP3    H240721   6.479   5.726   8.537  1.5840  0.0136  1.4093
 6388TIP3   OH240722   3.306   6.531   7.342  0.3060  0.1724  0.5875
 6388TIP3    H140723   3.358   6.605   7.375  0.6318 -0.1403  0.7858
 6388TIP3    H240724   3.291   6.476   7.419 -0.4818  0.3500  0.5669
 6389TIP3   OH240725   0.699   1.395   1.831  0.3440  0.0033  0.0302
 6389TIP3    H140726   0.777   1.421   1.880 -0.1389 -0.0679  0.8673
 6389TIP3    H240727   0.717   1.304   1.805  1.0241  0.3703 -0.8102
 6390TIP3   OH240728   5.980   2.335   8.684 -0.2122 -0.0076  1.0142
 6390TIP3    H140729   6.040   2.277   8.638 -0.4408  0.2700  0.3507
 6390TIP3    H240730   5.896   2.290   8.680 -0.9827  1.4210 -1.7068
 6391TIP3   OH240731   4.285   6.145   8.201 -0.3365  0.3589 -0.5767
 6391TIP3    H140732   4.288   6.192   8.118 -1.2086  0.5107 -0.5283
 6391TIP3    H240733   4.304   6.054   8.178  1.2456  0.6856 -0.6842
 6392TIP3   OH240734   6.419   4.697   7.872 -0.7116  0.0282 -0.1780
 6392TIP3    H140735   6.394   4.616   7.829  1.2438 -1.3945  1.1527
 6392TIP3    H240736   6.352   4.710   7.939 -0.0003 -1.6563  0.9260
 6393TIP3   OH240737   1.336   5.573   8.350 -0.3161 -0.1537  0.6191
 6393TIP3    H140738   1.285   5.627   8.412 -0.6288  0.2265  0.0498
 6393TIP3    H240739   1.281   5.496   8.336  0.6198 -1.1713  2.2666
 6394TIP3   OH240740   0.445   6.357   8.042  0.3551  0.0067 -0.0052
 6394TIP3    H140741   0.432   6.393   7.955  0.8899  1.7114  0.5816
 6394TIP3    H240742   0.420   6.265   8.034  1.1015 -0.0636 -2.1294
 6395TIP3   OH240743   6.172   1.391   1.474 -0.1214  0.2157 -0.2799
 6395TIP3    H140744   6.198   1.437   1.554  1.0698 -0.3865 -0.2913
 6395TIP3    H240745   6.219   1.437   1.404 -1.4451  0.9748 -0.7080
 6396TIP3   OH240746   0.647   1.839   1.393 -0.3912  0.4730 -0.1608
 6396TIP3    H140747   0.566   1.890   1.390 -0.8756 -0.2800 -2.4220
 6396TIP3    H240748   0.716   1.902   1.376 -0.9187  0.5788 -2.2066
 6397TIP3   OH240749   3.553   6.368   7.527 -0.3983 -0.3018 -0.2211
 6397TIP3    H140750   3.551   6.462   7.509  1.6007 -0.1638  0.0847
 6397TIP3    H240751   3.510   6.359   7.612  2.0368  0.7900  1.2215
 6398TIP3   OH240752   1.371   1.380   2.519  0.9514 -0.1451 -0.7488
 6398TIP3    H140753   1.407   1.416   2.600 -1.5756 -0.0951  0.4472
 6398TIP3    H240754   1.383   1.449   2.454 -1.0789  1.7446  0.7567
 6399TIP3   OH240755   3.749   0.557   0.393  0.0793  0.1647 -0.4486
 6399TIP3    H140756   3.677   0.574   0.333  0.7624  0.1442 -1.2921
 6399TIP3    H240757   3.739   0.465   0.418 -1.3601  0.6702  1.0720
 6400TIP3   OH240758   5.332   4.415   6.918 -0.1369 -0.1429 -0.4491
 6400TIP3    H140759   5.321   4.447   6.828  1.0683 -0.3686 -0.6958
 6400TIP3    H240760   5.309   4.489   6.973 -0.6458  0.0796 -0.9495
 6401TIP3   OH240761   0.139   0.391   0.954  0.0480 -0.0050  1.0150
 6401TIP3    H140762   0.200   0.341   1.009  0.8389 -0.1120  0.0712
 6401TIP3    H240763   0.178   0.478   0.949 -0.3597  0.1848  1.1556
 6402TIP3   OH240764   0.192   1.115   1.606  0.3585  0.1606 -0.3806
 6402TIP3    H140765   0.156   1.104   1.694  1.0439  0.1488 -0.0938
 6402TIP3    H240766   0.116   1.109   1.548  0.1879 -2.4592 -0.0117
 6403TIP3   OH240767   1.465   0.288   1.411 -0.1861 -0.2356 -0.3905
 6403TIP3    H140768   1.400   0.220   1.396  1.5768 -2.8448  2.6485
 6403TIP3    H240769   1.548   0.248   1.386  0.9619  0.5858  1.8693
 6404TIP3   OH240770   4.066   0.395   0.689  0.0014  0.0370  0.2816
 6404TIP3    H140771   4.140   0.349   0.730 -0.2637 -0.9328 -0.3085
 6404TIP3    H240772   4.049   0.468   0.748 -0.9445 -1.7942  2.4478
 6405TIP3   OH240773   3.113   1.307   1.411 -0.1263  0.2190 -0.5242
 6405TIP3    H140774   3.038   1.266   1.454 -1.2101  2.4811 -0.0920
 6405TIP3    H240775   3.178   1.316   1.480  0.3033 -1.1002 -0.7289
 6406TIP3   OH240776   3.886   3.068   2.184 -0.0497 -0.2079  0.3623
 6406TIP3    H140777   3.827   3.095   2.113  0.0589  1.7365  0.9620
 6406TIP3    H240778   3.937   2.996   2.146  0.3391  1.0725 -1.7158
 6407TIP3   OH240779   5.317   6.678   0.060  0.5295  0.3846  0.2113
 6407TIP3    H140780   5.271   6.607   0.104  2.0137 -1.0397 -0.4216
 6407TIP3    H240781   5.289   6.673  -0.031 -0.2159  1.3546  0.3766
 6408TIP3   OH240782   3.233   2.249   1.369 -0.5737  0.3400  0.2090
 6408TIP3    H140783   3.307   2.290   1.325 -0.6053 -1.0603 -1.2322
 6408TIP3    H240784   3.162   2.313   1.364 -0.5861  0.2060 -1.8635
 6409TIP3   OH240785   0.447   1.489   1.825  0.5729  0.0007 -0.4956
 6409TIP3    H140786   0.536   1.457   1.812  1.0136  0.3839  1.3356
 6409TIP3    H240787   0.453   1.547   1.901 -1.3595 -0.5437  0.1273
 6410TIP3   OH240788   4.319   4.014   1.389  0.1743 -0.9888 -0.1080
 6410TIP3    H140789   4.360   3.970   1.464 -2.2627  0.1523  2.0714
 6410TIP3    H240790   4.280   3.943   1.338 -0.7320 -1.6579  1.4463
 6411TIP3   OH240791   4.754   3.668   2.398  0.0752 -0.1168 -0.4255
 6411TIP3    H140792   4.744   3.656   2.492 -0.1614 -1.7839 -0.6340
 6411TIP3    H240793   4.765   3.579   2.363  0.2299  0.4701 -1.9612
 6412TIP3   OH240794   1.636   5.410   8.262 -0.2007 -0.8578  0.2318
 6412TIP3    H140795   1.564   5.349   8.279 -1.8449  0.5504 -1.2881
 6412TIP3    H240796   1.669   5.385   8.176  0.0705 -0.4843  0.2249
 6413TIP3   OH240797   0.801   5.684   8.069  0.4147  0.1093  0.2511
 6413TIP3    H140798   0.822   5.628   7.994 -0.6293  0.8553 -0.6482
 6413TIP3    H240799   0.709   5.708   8.055  0.6927  1.6460  0.8517
 6414TIP3   OH240800   5.773   3.881   1.116 -0.6806  0.0119  0.5799
 6414TIP3    H140801   5.762   3.909   1.206 -0.2918 -0.7302  0.8676
 6414TIP3    H240802   5.789   3.786   1.122  0.8421  0.1880 -0.1430
 6415TIP3   OH240803   3.174   4.673   0.606 -0.6916 -0.5034  0.1851
 6415TIP3    H140804   3.188   4.705   0.517 -1.7161  0.2288  0.2730
 6415TIP3    H240805   3.243   4.608   0.618 -0.5754 -0.6715 -1.1654
 6416TIP3   OH240806   5.285   4.755   8.719  0.5363  0.0292  0.2437
 6416TIP3    H140807   5.316   4.765   8.809  0.5407  0.2693  0.2147
 6416TIP3    H240808   5.296   4.662   8.700  0.2248 -0.0823  0.6051
 6417TIP3   OH240809   1.851   4.195   0.081 -0.1093 -0.1759  0.2442
 6417TIP3    H140810   1.761   4.227   0.083  0.2558  0.9113  0.3741
 6417TIP3    H240811   1.887   4.222   0.166  0.4141 -0.3438  0.0780
 6418TIP3   OH240812   5.224   2.385   8.494 -0.0209  0.5856 -0.3226
 6418TIP3    H140813   5.289   2.438   8.446  0.1152  0.1904 -0.5849
 6418TIP3    H240814   5.259   2.380   8.583  1.0226 -0.7344 -0.7717
 6419TIP3   OH240815   6.090   4.993   1.117  0.2708  0.1862  1.0200
 6419TIP3    H140816   5.994   4.997   1.124  0.3160 -0.7956  2.9866
 6419TIP3    H240817   6.118   5.084   1.125 -0.4998  0.4769  0.5184
 6420TIP3   OH240818   4.304   0.787   2.387  0.0317  0.7584  0.4961
 6420TIP3    H140819   4.253   0.745   2.318  0.3750  0.5690  0.3578
 6420TIP3    H240820   4.321   0.875   2.355 -0.3344  0.8737  0.6079
 6421TIP3   OH240821   5.138   6.160   7.518 -0.0348 -0.6282 -0.5006
 6421TIP3    H140822   5.209   6.141   7.457 -1.5085  0.1450 -2.5802
 6421TIP3    H240823   5.164   6.241   7.562  0.7557 -0.8436 -0.5716
 6422TIP3   OH240824   5.137   6.615   8.638 -0.3165  0.5917 -0.0804
 6422TIP3    H140825   5.101   6.591   8.553  1.3061  1.2228 -0.9920
 6422TIP3    H240826   5.111   6.544   8.697 -0.0926 -0.6893 -1.4747
 6423TIP3   OH240827   3.789   6.490   1.749 -0.2908  0.0214 -0.1984
 6423TIP3    H140828   3.800   6.490   1.653  1.5847 -0.3062 -0.0270
 6423TIP3    H240829   3.810   6.400   1.775 -3.1878 -0.5972  0.3485
 6424TIP3   OH240830   6.714   3.130   7.921  0.2149  0.4112  0.3905
 6424TIP3    H140831   6.699   3.182   8.000  1.4764  1.4441 -0.0223
 6424TIP3    H240832   6.767   3.056   7.951 -0.9589 -0.2888  0.8399
 6425TIP3   OH240833   3.196   6.680   0.057 -0.1551 -0.9453  0.0497
 6425TIP3    H140834   3.198   6.771   0.028 -1.6107 -0.9622 -0.1497
 6425TIP3    H240835   3.181   6.686   0.152 -1.2958 -0.9881 -0.1231
 6426TIP3   OH240836   6.596   2.129   8.256 -0.5033  0.7314  0.3733
 6426TIP3    H140837   6.550   2.212   8.240 -0.6372  0.6793  0.4854
 6426TIP3    H240838   6.575   2.107   8.347 -1.6148 -0.1279 -0.0587
 6427TIP3   OH240839   4.435   0.919   2.183  0.6434 -0.4802 -0.0438
 6427TIP3    H140840   4.491   0.863   2.129  1.2160  0.7362 -0.7324
 6427TIP3    H240841   4.355   0.929   2.132  1.0685  0.4243 -0.5477
 6428TIP3   OH240842   0.512   4.143   8.329  0.2202  0.0203  0.5309
 6428TIP3    H140843   0.597   4.152   8.286  0.7013  1.0205  1.6669
 6428TIP3    H240844   0.451   4.188   8.270  0.9386  1.7391  1.0489
 6429TIP3   OH240845   6.082   5.264   8.698 -0.0110 -0.2647 -0.1366
 6429TIP3    H140846   6.031   5.276   8.618 -2.1077  0.2727  1.1741
 6429TIP3    H240847   6.083   5.169   8.712 -0.0204 -0.3291 -0.5550
 6430TIP3   OH240848   1.812   1.503   3.306 -0.3397 -0.0512  0.4882
 6430TIP3    H140849   1.785   1.464   3.222  2.2686 -1.7094  0.2807
 6430TIP3    H240850   1.803   1.597   3.293  0.2368 -0.2529 -1.8002
 6431TIP3   OH240851   6.427   4.870   1.352 -0.4905  0.2658 -0.6056
 6431TIP3    H140852   6.504   4.925   1.343 -0.2496  0.0438  0.0850
 6431TIP3    H240853   6.461   4.786   1.382 -0.9484  0.0013 -0.8139
 6432TIP3   OH240854   2.254   6.743   0.019 -0.1901 -0.0199 -0.1425
 6432TIP3    H140855   2.338   6.704   0.040 -0.1509  0.1048 -0.0682
 6432TIP3    H240856   2.271   6.837   0.013 -0.4885  0.0941  0.7027
 6433TIP3   OH240857   2.972   6.790   1.210  0.2797  0.3024  0.1592
 6433TIP3    H140858   3.062   6.775   1.237  0.5847 -0.9932 -1.3705
 6433TIP3    H240859   2.926   6.813   1.290  1.2753 -2.4087  1.6277
 6434TIP3   OH240860   2.211   6.720   0.453 -0.0652  0.6737 -0.3407
 6434TIP3    H140861   2.117   6.722   0.473  0.4642 -1.7193  3.3808
 6434TIP3    H240862   2.228   6.630   0.424  1.0099  1.3151 -1.8427
 6435TIP3   OH240863   2.328   1.573   0.723 -0.3302 -0.3020 -0.4109
 6435TIP3    H140864   2.361   1.520   0.651 -0.3453 -1.2202  0.2326
 6435TIP3    H240865   2.238   1.543   0.735  0.5113 -2.2476  1.8073
 6436TIP3   OH240866   4.918   0.921   1.073  0.1069 -0.2445 -0.0834
 6436TIP3    H140867   5.005   0.882   1.079 -0.2061 -0.8796  0.3746
 6436TIP3    H240868   4.868   0.861   1.018  0.1666  0.5081 -0.9738
 6437TIP3   OH240869   0.002   5.015   7.296 -0.2128 -0.2168  0.9569
 6437TIP3    H140870   0.019   5.004   7.202 -0.3044  0.8957  0.7953
 6437TIP3    H240871  -0.092   5.001   7.306 -0.4048  0.7577  0.6838
 6438TIP3   OH240872   3.579   6.244   1.444  0.6248  0.2712  0.4242
 6438TIP3    H140873   3.628   6.162   1.442  1.2192  0.6089  0.7719
 6438TIP3    H240874   3.626   6.302   1.383  0.3723  0.4392  0.3865
 6439TIP3   OH240875   1.518   0.523   2.336  0.2517  0.2138 -0.5238
 6439TIP3    H140876   1.509   0.437   2.378 -0.3317 -0.5809 -2.1784
 6439TIP3    H240877   1.567   0.576   2.399 -0.3401 -0.9868  1.0121
 6440TIP3   OH240878   5.896   1.932   1.766 -0.1124 -0.3098  0.0027
 6440TIP3    H140879   5.934   1.978   1.841  0.0081  1.7058 -1.2351
 6440TIP3    H240880   5.841   1.997   1.723 -1.6124 -1.9449 -0.6737
 6441TIP3   OH240881   0.033   2.995   2.242  0.6806  1.0874  0.1082
 6441TIP3    H140882   0.092   2.984   2.167  0.8238  0.5321  0.3017
 6441TIP3    H240883   0.044   3.086   2.268  1.2292  1.0634 -0.0430
 6442TIP3   OH240884   2.113   2.791   8.403  0.2988  0.1739  0.2102
 6442TIP3    H140885   2.208   2.779   8.403  0.6908  2.6987  0.5513
 6442TIP3    H240886   2.086   2.765   8.491  0.7662 -0.0004  0.3057
 6443TIP3   OH240887   1.358   1.385   0.746  0.1993 -0.6165  0.4520
 6443TIP3    H140888   1.413   1.453   0.706 -0.8438 -0.1467 -0.2292
 6443TIP3    H240889   1.297   1.361   0.676 -2.3798  0.9573  2.0029
 6444TIP3   OH240890   1.997   6.551   2.651  0.2694 -0.2206 -0.3818
 6444TIP3    H140891   1.949   6.611   2.708  0.3483  0.7534 -1.3134
 6444TIP3    H240892   2.000   6.469   2.700 -2.2050 -0.2904 -0.2160
 6445TIP3   OH240893   1.449   4.204   2.665 -0.4750  0.1974 -0.4391
 6445TIP3    H140894   1.499   4.127   2.689 -0.1267  0.6873  0.4418
 6445TIP3    H240895   1.383   4.213   2.733  0.0181  1.1429 -0.0579
 6446TIP3   OH240896   2.299   3.519   1.889  0.3951  0.9077  0.0891
 6446TIP3    H140897   2.369   3.583   1.883  0.4287  0.7663 -1.5502
 6446TIP3    H240898   2.344   3.436   1.904  0.7083  0.6790 -1.8198
 6447TIP3   OH240899   5.896   1.485   2.268  0.0709 -0.6329 -0.0686
 6447TIP3    H140900   5.871   1.576   2.248 -0.3474 -0.6809  0.2102
 6447TIP3    H240901   5.965   1.493   2.333 -0.7400 -0.5225  0.8004
 6448TIP3   OH240902   1.691   4.260   7.794 -0.6931  0.5760 -0.4418
 6448TIP3    H140903   1.749   4.336   7.779 -0.1206  0.0281 -1.0575
 6448TIP3    H240904   1.655   4.240   7.708 -1.1648  0.3913 -0.2059
 6449TIP3   OH240905   6.663   5.799   1.810 -0.0544 -0.8570  0.6317
 6449TIP3    H140906   6.581   5.843   1.789 -0.1292 -0.9253  0.7769
 6449TIP3    H240907   6.671   5.806   1.906  1.3712  1.3724  0.4212
 6450TIP3   OH240908   6.766   3.449   7.785  0.0327  0.3214  0.3129
 6450TIP3    H140909   6.772   3.498   7.868 -2.7441 -0.4371  1.0464
 6450TIP3    H240910   6.748   3.515   7.719 -0.0631  0.6914  0.7048
 6451TIP3   OH240911   2.867   6.316   2.024 -0.9810 -0.7554 -0.4137
 6451TIP3    H140912   2.914   6.315   1.941  0.9458  0.4003  0.5804
 6451TIP3    H240913   2.846   6.408   2.039 -0.1337 -0.7481  0.9475
 6452TIP3   OH240914   3.657   3.394   1.512  0.2720  0.0571 -0.1361
 6452TIP3    H140915   3.650   3.468   1.573  1.2595  0.3537 -0.3522
 6452TIP3    H240916   3.681   3.320   1.568  1.3325  0.3627 -0.1633
 6453TIP3   OH240917   5.883   6.808   1.007  0.0590 -0.1982  0.2810
 6453TIP3    H140918   5.864   6.788   0.915  0.6105  0.8711 -0.0815
 6453TIP3    H240919   5.844   6.894   1.022 -0.1633 -0.4299  1.1030
 6454TIP3   OH240920   1.785   4.461   0.326 -0.3627  0.7784 -0.4525
 6454TIP3    H140921   1.855   4.426   0.271 -0.8782  0.9572 -1.2374
 6454TIP3    H240922   1.772   4.551   0.294  0.1241  1.2955  0.7363
 6455TIP3   OH240923   3.521   6.334   2.173  0.9014 -0.8572  0.2079
 6455TIP3    H140924   3.507   6.418   2.130  3.7411 -0.5648 -0.3500
 6455TIP3    H240925   3.438   6.315   2.217 -0.6480  0.9721 -1.7315
 6456TIP3   OH240926   4.665   0.473   1.543  0.2615 -0.5099  0.1334
 6456TIP3    H140927   4.675   0.378   1.551 -0.7544 -0.6605 -0.3067
 6456TIP3    H240928   4.746   0.501   1.499  0.9399 -1.0556  1.0057
 6457TIP3   OH240929   6.104   0.398   0.731 -0.0567  0.2448 -0.0581
 6457TIP3    H140930   6.022   0.362   0.766  0.8071 -1.0038  0.7712
 6457TIP3    H240931   6.171   0.369   0.793  1.0537  1.0154 -0.8633
 6458TIP3   OH240932   6.620   6.303   2.580 -0.0401 -0.3354 -0.7451
 6458TIP3    H140933   6.660   6.311   2.667  1.0317 -0.6885 -1.1903
 6458TIP3    H240934   6.616   6.392   2.546  0.7266 -0.3346 -0.8439
 6459TIP3   OH240935   2.723   1.159   0.175  0.4227  0.6931  0.2425
 6459TIP3    H140936   2.813   1.140   0.150  0.4449 -0.0417  0.8509
 6459TIP3    H240937   2.723   1.154   0.270 -0.2890  0.5569  0.2405
 6460TIP3   OH240938   1.585   3.046   1.087  0.3626 -0.1993 -0.6981
 6460TIP3    H140939   1.576   2.958   1.125 -1.0540 -0.0093 -0.5290
 6460TIP3    H240940   1.674   3.073   1.110  0.7900 -1.5601 -0.6895
 6461TIP3   OH240941   3.061   4.385   0.341 -0.6741 -0.4524  0.0368
 6461TIP3    H140942   3.022   4.300   0.358 -1.3115 -0.4747 -1.3864
 6461TIP3    H240943   3.147   4.381   0.384  0.6092 -2.9727 -2.4061
 6462TIP3   OH240944   2.018   5.670   0.521 -0.3422 -0.1627 -0.1525
 6462TIP3    H140945   1.936   5.620   0.520 -0.6271  0.2766 -1.5756
 6462TIP3    H240946   1.992   5.759   0.496  0.2341  0.6133  1.8128
 6463TIP3   OH240947   2.772   0.329   8.125 -0.0400  0.6425  0.3508
 6463TIP3    H140948   2.852   0.329   8.177 -1.1239 -0.6388  2.1496
 6463TIP3    H240949   2.798   0.295   8.040  1.2589 -0.2185  1.0597
 6464TIP3   OH240950   2.455   5.874   2.974 -0.2028 -0.3185 -0.1312
 6464TIP3    H140951   2.439   5.922   2.892 -0.0717  1.2739  0.7239
 6464TIP3    H240952   2.412   5.790   2.961 -0.7696  0.1534 -1.5770
 6465TIP3   OH240953   4.802   1.456   2.158  0.0820  0.8194  0.2792
 6465TIP3    H140954   4.710   1.482   2.165 -0.8629 -2.0669  0.0625
 6465TIP3    H240955   4.818   1.451   2.064  0.0276  0.1058  0.2982
 6466TIP3   OH240956   4.919   0.402   2.384  0.4420  0.0392  0.5025
 6466TIP3    H140957   5.008   0.434   2.397  0.2729  0.2101  1.3035
 6466TIP3    H240958   4.930   0.313   2.348  0.9303  0.0952  0.5079
 6467TIP3   OH240959   2.826   4.878   0.316 -0.3931  0.2031 -0.2912
 6467TIP3    H140960   2.811   4.852   0.407 -1.2546 -0.4370 -0.6073
 6467TIP3    H240961   2.804   4.971   0.314  1.5369  0.7411  0.5746
 6468TIP3   OH240962   2.954   1.083   8.142  0.5877 -0.0302 -0.3321
 6468TIP3    H140963   2.927   1.137   8.067 -0.1254 -0.0939 -0.1239
 6468TIP3    H240964   2.917   0.997   8.124  1.8719 -0.5251 -0.7504
 6469TIP3   OH240965   4.051   4.715   8.267 -0.1303  0.4072  0.2566
 6469TIP3    H140966   4.024   4.758   8.348  0.1636  0.2172  0.4600
 6469TIP3    H240967   4.034   4.622   8.283 -2.2868  0.5538 -0.7648
 6470TIP3   OH240968   0.845   5.204   7.643 -0.2309  0.3378  0.0383
 6470TIP3    H140969   0.876   5.279   7.694  0.5535  1.5095 -2.0405
 6470TIP3    H240970   0.777   5.164   7.698  1.1819  0.9336  2.3629
 6471TIP3   OH240971   6.774   1.457   3.331 -0.1456 -0.0151 -0.5042
 6471TIP3    H140972   6.831   1.429   3.259  0.1616 -0.4637 -0.0911
 6471TIP3    H240973   6.691   1.412   3.315  0.4427 -1.4259  0.3239
 6472TIP3   OH240974   0.210   2.404   2.029 -0.1634 -0.5731  0.1716
 6472TIP3    H140975   0.304   2.409   2.046 -0.5667 -0.1086  2.5462
 6472TIP3    H240976   0.198   2.322   1.981  1.2949 -1.3972  1.1562
 6473TIP3   OH240977   6.283   5.742   0.498  0.3699  0.8540  0.5087
 6473TIP3    H140978   6.313   5.658   0.533  1.4154  1.9290  2.2973
 6473TIP3    H240979   6.280   5.728   0.403 -0.8174 -1.6019  0.8110
 6474TIP3   OH240980   3.178   3.575   8.694  0.0045 -0.4930  0.3730
 6474TIP3    H140981   3.213   3.543   8.777 -1.8277 -1.0735  0.9796
 6474TIP3    H240982   3.131   3.655   8.717  0.8295  0.2278 -0.3947
 6475TIP3   OH240983   6.385   2.238   1.099 -0.3317  0.1959 -0.4662
 6475TIP3    H140984   6.291   2.244   1.118 -0.5806 -0.1572 -1.5038
 6475TIP3    H240985   6.427   2.233   1.185 -1.1645  1.5424  0.0439
 6476TIP3   OH240986   2.835   6.453   8.178 -0.2288 -0.1542 -0.2952
 6476TIP3    H140987   2.753   6.477   8.136  0.5880  0.4266 -1.5982
 6476TIP3    H240988   2.848   6.520   8.245 -1.2422 -0.7518  0.5345
 6477TIP3   OH240989   4.275   6.804   0.692 -0.0732 -0.2375 -0.1916
 6477TIP3    H140990   4.201   6.800   0.631 -2.1549  1.4501  2.0190
 6477TIP3    H240991   4.260   6.731   0.753 -0.1187  0.2997  0.4548
 6478TIP3   OH240992   3.129   5.613   2.379 -0.2747  0.6681 -0.3441
 6478TIP3    H140993   3.220   5.599   2.352 -0.1193  2.6710 -0.9997
 6478TIP3    H240994   3.121   5.562   2.460  0.9260 -0.8569 -1.1179
 6479TIP3   OH240995   0.682   0.979   8.272  0.1241 -0.2163 -0.0806
 6479TIP3    H140996   0.747   0.919   8.234  0.1689  0.3992 -1.0234
 6479TIP3    H240997   0.733   1.054   8.302 -0.2142  0.8754 -2.0240
 6480TIP3   OH240998   3.250   1.636   8.609  0.1593 -0.1634 -0.4838
 6480TIP3    H140999   3.182   1.571   8.588 -0.3405  0.2740 -0.2174
 6480TIP3    H241000   3.286   1.606   8.693 -1.4666  1.0076  0.6828
 6481TIP3   OH241001   1.106   6.521   1.065  0.6858  0.5872  0.0801
 6481TIP3    H141002   1.168   6.508   1.137  0.3078  0.2715  0.3482
 6481TIP3    H241003   1.040   6.579   1.102  0.5813  0.5603 -0.0677
 6482TIP3   OH241004   5.392   4.382   7.449  0.2717  0.9507  0.2637
 6482TIP3    H141005   5.439   4.317   7.502 -0.0226 -0.5326 -1.1923
 6482TIP3    H241006   5.386   4.459   7.505  2.1418  0.3101  1.4378
 6483TIP3   OH241007   1.907   6.657   2.354  0.2135 -0.4056 -0.3048
 6483TIP3    H141008   1.816   6.633   2.336  0.0021 -0.3740  0.6658
 6483TIP3    H241009   1.923   6.627   2.443  0.2012  2.1976  0.6615
 6484TIP3   OH241010   2.196   2.564   8.617 -0.1336  0.1869  0.1440
 6484TIP3    H141011   2.170   2.510   8.692  1.4091  0.1014  0.6485
 6484TIP3    H241012   2.158   2.651   8.636 -0.2521  0.0149  0.7208
 6485TIP3   OH241013   4.059   3.465   8.085  0.0548  0.0654 -0.2815
 6485TIP3    H141014   4.003   3.519   8.029  0.1922 -0.3133 -0.7881
 6485TIP3    H241015   3.999   3.427   8.149  0.1451  1.9271  0.9850
 6486TIP3   OH241016   2.424   5.549   8.428  0.3139  0.5855 -0.7915
 6486TIP3    H141017   2.340   5.567   8.470  1.5492  0.0343  2.1834
 6486TIP3    H241018   2.444   5.459   8.453  3.2607  1.7139  1.6244
 6487TIP3   OH241019   5.507   2.707   0.185 -0.4917  0.3006 -0.3416
 6487TIP3    H141020   5.551   2.623   0.178  0.9953  0.9144  1.0869
 6487TIP3    H241021   5.414   2.685   0.193 -0.1015 -1.2039  0.3519
 6488TIP3   OH241022   2.856   3.564   1.183 -0.5627  0.0738  0.2281
 6488TIP3    H141023   2.905   3.600   1.108 -2.9236  0.3131 -1.2979
 6488TIP3    H241024   2.797   3.635   1.209 -0.4819 -0.3751  1.7311
 6489TIP3   OH241025   1.521   2.976   8.682  0.4525 -0.7500 -0.4263
 6489TIP3    H141026   1.519   3.054   8.736  0.4456 -0.5514 -0.7137
 6489TIP3    H241027   1.527   2.903   8.745  2.7345 -0.4433 -0.2039
 6490TIP3   OH241028   4.782   2.948   0.886  0.0690  0.1194 -0.1532
 6490TIP3    H141029   4.706   3.006   0.882  0.4179  0.6063  0.0569
 6490TIP3    H241030   4.833   2.981   0.960  0.7361  0.1210 -0.6044
 6491TIP3   OH241031   3.279   2.007   0.336 -0.2887  0.3613  0.4737
 6491TIP3    H141032   3.234   2.056   0.404 -0.2372  1.3290 -0.1725
 6491TIP3    H241033   3.298   2.071   0.268 -1.6190 -0.8475 -1.1239
 6492TIP3   OH241034   0.567   2.382   0.614  0.1456 -0.1329 -0.0518
 6492TIP3    H141035   0.554   2.297   0.657  0.0360 -0.3688 -0.5460
 6492TIP3    H241036   0.490   2.394   0.559  0.9585 -0.5315 -1.3215
 6493TIP3   OH241037   4.825   5.294   1.177  0.1448 -0.5703  0.5822
 6493TIP3    H141038   4.814   5.236   1.101  1.0554  0.1888 -0.1456
 6493TIP3    H241039   4.906   5.342   1.160 -0.7105  1.1264  1.0143
 6494TIP3   OH241040   2.773   4.550   7.819  0.1128 -0.1062 -0.0898
 6494TIP3    H141041   2.705   4.564   7.753  0.7865  0.0958 -0.7648
 6494TIP3    H241042   2.794   4.638   7.851 -0.0546 -0.1840  0.2385
 6495TIP3   OH241043   1.312   1.299   8.183 -0.2316 -0.0558  0.8602
 6495TIP3    H141044   1.396   1.322   8.144 -0.5442 -0.8541 -0.3417
 6495TIP3    H241045   1.281   1.380   8.224  1.7362 -0.0808  2.5401
 6496TIP3   OH241046   0.070   3.982   0.274 -0.1208  0.3337 -0.2850
 6496TIP3    H141047   0.110   4.014   0.355  0.6654  0.1013 -0.5773
 6496TIP3    H241048   0.141   3.979   0.211 -0.3601 -1.1092 -0.5284
 6497TIP3   OH241049   4.018   0.381   1.662  0.1697 -0.2921  0.5151
 6497TIP3    H141050   4.020   0.417   1.750  0.6994 -1.4068  0.9867
 6497TIP3    H241051   3.994   0.289   1.674 -0.0319 -0.3911 -0.5253
 6498TIP3   OH241052   5.721   2.578   2.071  0.1029  0.0724 -0.0432
 6498TIP3    H141053   5.638   2.584   2.022  0.3634  1.3977 -0.3574
 6498TIP3    H241054   5.788   2.595   2.006  0.5151  0.8049  0.5533
 6499TIP3   OH241055   2.722   6.073   0.213 -0.3680 -0.9188 -0.1792
 6499TIP3    H141056   2.803   6.124   0.213  0.3395 -1.9992 -0.8736
 6499TIP3    H241057   2.659   6.130   0.169 -0.0658  0.0450  0.6033
 6500TIP3   OH241058   4.903   1.110   1.796 -0.0834 -0.1579  0.1534
 6500TIP3    H141059   4.851   1.180   1.757  0.4295 -0.6451 -1.4650
 6500TIP3    H241060   4.982   1.153   1.828  1.0269 -0.1857 -2.3797
 6501TIP3   OH241061   5.982   2.598   1.096 -0.2433  0.3165  0.1334
 6501TIP3    H141062   5.981   2.504   1.081  0.5039  0.0294  1.6875
 6501TIP3    H241063   6.073   2.624   1.078 -0.1978  0.5566  0.6778
 6502TIP3   OH241064   5.372   3.564   1.065 -0.4969  0.4828  0.6989
 6502TIP3    H141065   5.411   3.492   1.016 -0.4135  0.8133  0.2798
 6502TIP3    H241066   5.420   3.641   1.037  0.0173  0.5896  1.8162
 6503TIP3   OH241067   3.672   6.609   0.769  0.4422 -0.0448  0.4026
 6503TIP3    H141068   3.656   6.703   0.759  0.5517 -0.0400  0.2633
 6503TIP3    H241069   3.677   6.595   0.864  0.2782  0.0643  0.4269
 6504TIP3   OH241070   5.498   0.676   7.506 -0.0957  0.0050  0.8886
 6504TIP3    H141071   5.563   0.627   7.456 -2.0332 -0.1667 -1.7334
 6504TIP3    H241072   5.464   0.613   7.570 -0.3531 -1.1569 -0.3369
 6505TIP3   OH241073   5.707   1.280   2.265 -0.1656  0.1112  0.2860
 6505TIP3    H141074   5.669   1.249   2.182 -1.3474  0.0132  0.8362
 6505TIP3    H241075   5.778   1.338   2.239 -0.6981  0.3004 -0.8126
 6506TIP3   OH241076   4.054   0.572   0.298  0.1154 -0.5733 -0.4353
 6506TIP3    H141077   4.036   0.611   0.383  2.5241  0.6668 -0.4134
 6506TIP3    H241078   4.124   0.509   0.315  1.3195  0.3985 -1.5930
 6507TIP3   OH241079   1.660   6.006   0.947 -0.5093 -0.2460 -0.4582
 6507TIP3    H141080   1.713   6.018   0.868  0.4470  0.0896  0.2165
 6507TIP3    H241081   1.719   5.964   1.009 -0.4640  1.7131  0.8932
 6508TIP3   OH241082   5.071   3.638   3.267 -0.0372  0.5134 -0.5355
 6508TIP3    H141083   5.043   3.661   3.356 -0.0414 -0.2999 -0.3174
 6508TIP3    H241084   5.000   3.671   3.211 -1.1088 -0.8512 -0.0472
 6509TIP3   OH241085   2.917   6.046   2.093 -0.2602 -0.1004  0.1179
 6509TIP3    H141086   2.860   6.112   2.053 -2.1613 -2.3298 -1.1066
 6509TIP3    H241087   2.992   6.096   2.126 -1.1439  2.5343 -1.5247
 6510TIP3   OH241088   2.703   2.544   0.867  0.6948 -0.2834  0.6509
 6510TIP3    H141089   2.797   2.537   0.851  0.5345 -0.4321 -0.2862
 6510TIP3    H241090   2.663   2.522   0.783 -0.1564  0.4662  0.8451
 6511TIP3   OH241091   3.155   2.078   8.471 -0.0286  0.4686  0.1061
 6511TIP3    H141092   3.062   2.097   8.484 -0.3433  0.2365 -1.5199
 6511TIP3    H241093   3.200   2.131   8.536 -1.2812  0.9630  0.5948
 6512TIP3   OH241094   5.661   3.101   0.773 -0.4938  0.2129  0.6670
 6512TIP3    H141095   5.650   3.143   0.687  3.0627 -0.0665 -0.0854
 6512TIP3    H241096   5.608   3.021   0.767 -0.1951  0.1045 -1.3708
 6513TIP3   OH241097   5.686   5.605   0.250  0.4979  0.1247 -0.2992
 6513TIP3    H141098   5.621   5.644   0.310  0.7457  0.4624 -0.2441
 6513TIP3    H241099   5.644   5.526   0.217 -0.5503  1.0920 -1.3977
 6514TIP3   OH241100   6.433   3.774   7.891 -0.6826 -0.0566  0.1726
 6514TIP3    H141101   6.433   3.793   7.797 -0.4004  0.8431  0.3377
 6514TIP3    H241102   6.352   3.813   7.922 -0.8631 -0.5145  0.2776
 6515TIP3   OH241103   5.742   4.039   8.366 -0.3913 -0.4204  0.1198
 6515TIP3    H141104   5.777   4.098   8.299 -1.0675  1.0571  1.0362
 6515TIP3    H241105   5.660   4.079   8.394 -0.7626 -1.6843  0.9450
 6516TIP3   OH241106   4.826   2.187   8.539  0.0338  0.4768  0.2714
 6516TIP3    H141107   4.754   2.204   8.600  0.4761  1.7461  0.4708
 6516TIP3    H241108   4.849   2.095   8.554 -0.6325  0.4450  1.1802
 6517TIP3   OH241109   4.673   6.573   2.340 -0.1130 -0.5476  0.5431
 6517TIP3    H141110   4.613   6.557   2.267  0.6266 -0.7954 -0.0169
 6517TIP3    H241111   4.693   6.666   2.335  0.6299 -0.7355 -0.1160
 6518TIP3   OH241112   0.352   6.436   0.796  0.3035 -0.2898  0.3448
 6518TIP3    H141113   0.394   6.355   0.769 -0.0048 -0.0218 -1.0103
 6518TIP3    H241114   0.265   6.433   0.755  0.5695  1.0619 -0.3830
 6519TIP3   OH241115   6.070   3.884   1.029 -0.4554  0.1505 -0.8974
 6519TIP3    H141116   6.063   3.979   1.017 -1.6917  0.1271 -0.4950
 6519TIP3    H241117   6.015   3.847   0.961 -0.6477 -0.2495 -0.5275
 6520TIP3   OH241118   2.561   1.068   2.605 -0.0676  0.0498  0.5742
 6520TIP3    H141119   2.581   1.098   2.693  0.4149  1.4217  0.0296
 6520TIP3    H241120   2.605   1.131   2.547 -0.0785 -1.0097 -0.6508
 6521TIP3   OH241121   1.732   5.773   8.457 -0.4184 -0.1796  0.5906
 6521TIP3    H141122   1.691   5.778   8.370  1.3626 -0.3898 -0.3053
 6521TIP3    H241123   1.702   5.852   8.502 -0.7570  0.3389 -0.5008
 6522TIP3   OH241124   3.442   0.405   8.133  0.0847  0.3271  0.2644
 6522TIP3    H141125   3.394   0.464   8.076 -1.0854 -0.1257  0.7427
 6522TIP3    H241126   3.451   0.324   8.082 -1.4982 -0.2894  0.8868
 6523TIP3   OH241127   3.164   0.128   2.856  0.1370  0.1071  0.0473
 6523TIP3    H141128   3.207   0.054   2.815 -0.2835  0.9482 -2.0345
 6523TIP3    H241129   3.087   0.091   2.899  0.3473 -0.7552 -0.3097
 6524TIP3   OH241130   3.656   4.481   1.524  0.0119  0.1671  0.0237
 6524TIP3    H141131   3.664   4.473   1.619 -0.4386  1.3598  0.1790
 6524TIP3    H241132   3.579   4.429   1.501  0.6971 -0.9456  0.1615
 6525TIP3   OH241133   0.764   5.390   1.747  0.8126 -0.0873  0.1811
 6525TIP3    H141134   0.726   5.303   1.744  0.1504  0.2057 -0.1087
 6525TIP3    H241135   0.696   5.445   1.787  2.1169 -0.1420  2.7088
 6526TIP3   OH241136   5.748   5.728   8.337 -0.0442  0.0741 -0.0270
 6526TIP3    H141137   5.731   5.791   8.407  1.6617 -1.8223  2.2253
 6526TIP3    H241138   5.672   5.671   8.337 -0.1162  0.1695  0.1470
 6527TIP3   OH241139   2.076   2.411   1.225 -0.0219  0.4243 -0.2342
 6527TIP3    H141140   2.083   2.507   1.228 -0.9606  0.4860  0.6682
 6527TIP3    H241141   2.029   2.389   1.305  0.4106 -0.8269 -0.3111
 6528TIP3   OH241142   2.118   5.352   3.560 -0.6231 -0.3065 -0.3135
 6528TIP3    H141143   2.158   5.277   3.516 -1.2298 -0.4521 -0.6232
 6528TIP3    H241144   2.029   5.323   3.581 -0.9444  0.4003 -0.6576
 6529TIP3   OH241145   0.498   3.402   8.491  0.4898  0.2469  0.3387
 6529TIP3    H141146   0.528   3.370   8.577  0.0190  0.6809  0.6645
 6529TIP3    H241147   0.503   3.325   8.434  0.0852 -0.2267  0.9381
 6530TIP3   OH241148   4.598   4.599   2.405  0.0747  0.0134 -0.6070
 6530TIP3    H141149   4.687   4.634   2.406  0.2880 -0.5050 -1.1999
 6530TIP3    H241150   4.543   4.673   2.431  0.7343  0.1610  0.4340
 6531TIP3   OH241151   1.916   4.514   1.006  0.6281  0.0197  0.7031
 6531TIP3    H141152   1.851   4.521   0.936 -0.7050 -2.4492  1.5669
 6531TIP3    H241153   1.982   4.453   0.972 -0.3541 -1.6932  1.7571
 6532TIP3   OH241154   2.672   2.750   0.565 -0.5569 -0.2641 -0.1427
 6532TIP3    H141155   2.657   2.830   0.615 -0.9021 -0.3008 -0.1851
 6532TIP3    H241156   2.699   2.780   0.478 -0.1531 -0.1993  0.0020
 6533TIP3   OH241157   6.044   6.048   2.816 -0.6183  0.9363  0.5714
 6533TIP3    H141158   6.101   6.053   2.739  1.0830 -1.6934  1.5359
 6533TIP3    H241159   6.086   6.106   2.881 -1.8211  2.8156 -0.2328
 6534TIP3   OH241160   5.496   1.147   0.045 -0.3253 -0.1081  0.5519
 6534TIP3    H141161   5.422   1.148  -0.016  0.3872 -0.0299 -0.3423
 6534TIP3    H241162   5.486   1.065   0.093  0.3770 -1.3843 -1.3428
 6535TIP3   OH241163   1.549   2.584   1.048  0.0653  0.1123 -0.3773
 6535TIP3    H141164   1.479   2.548   0.993 -1.1791 -0.2902  1.3843
 6535TIP3    H241165   1.557   2.521   1.120  3.1254 -0.5029 -1.1218
 6536TIP3   OH241166   3.894   0.260   1.011  0.2215  0.3105 -0.3562
 6536TIP3    H141167   3.930   0.286   1.096  0.2967  0.2014 -0.3550
 6536TIP3    H241168   3.806   0.299   1.010  0.9315  2.0181 -1.0505
 6537TIP3   OH241169   3.768   6.510   8.055  0.1176  0.5644 -0.2089
 6537TIP3    H141170   3.774   6.573   7.983 -0.5629  2.5047  1.3687
 6537TIP3    H241171   3.731   6.559   8.128  1.5189 -1.1062  1.7542
 6538TIP3   OH241172   0.505   5.669   8.014  0.3385 -0.0735 -0.3243
 6538TIP3    H141173   0.476   5.579   7.999 -1.2607  0.0178  1.8111
 6538TIP3    H241174   0.435   5.708   8.067  1.1846  2.3206 -0.8617
 6539TIP3   OH241175   5.145   3.503   0.690 -0.0156  0.1062  0.1905
 6539TIP3    H141176   5.179   3.584   0.727  0.5964  0.4901 -1.1475
 6539TIP3    H241177   5.061   3.527   0.652  0.4074  0.2529 -0.6761
 6540TIP3   OH241178   4.082   3.729   7.894  0.0387 -0.4183  0.1800
 6540TIP3    H141179   4.036   3.653   7.859 -3.4300  1.1101  0.9900
 6540TIP3    H241180   4.096   3.786   7.819 -1.3371 -0.0475  0.1676
 6541TIP3   OH241181   0.007   4.172   7.191  0.5123  0.0663  0.9582
 6541TIP3    H141182  -0.072   4.129   7.160  0.8478 -0.5505  0.9402
 6541TIP3    H241183  -0.024   4.240   7.251 -0.0822  0.5027  0.1826
 6542TIP3   OH241184   3.151   4.340   2.868 -0.0035 -0.1304  0.4760
 6542TIP3    H141185   3.171   4.325   2.960 -1.0236  0.2371  0.7736
 6542TIP3    H241186   3.085   4.410   2.869 -0.4913 -0.5589 -0.5003
 6543TIP3   OH241187   6.434   0.553   1.973 -0.3087 -0.2219 -0.0008
 6543TIP3    H141188   6.369   0.592   2.033 -0.9001 -1.4166  0.1632
 6543TIP3    H241189   6.387   0.545   1.890  0.3078  0.8295 -0.4641
 6544TIP3   OH241190   5.238   0.331   1.565 -0.8501 -0.3128 -0.0015
 6544TIP3    H141191   5.191   0.334   1.481  1.4505  0.2198 -1.3351
 6544TIP3    H241192   5.192   0.395   1.620 -0.7669  1.3921 -1.7922
 6545TIP3   OH241193   6.451   5.634   8.229  0.3994 -0.0589 -0.1067
 6545TIP3    H141194   6.516   5.564   8.231 -1.4405 -1.9216  2.6238
 6545TIP3    H241195   6.379   5.598   8.177  0.0557  0.4135  0.0389
 6546TIP3   OH241196   0.681   1.429   7.461 -0.6492  0.1790  0.1846
 6546TIP3    H141197   0.671   1.368   7.534 -0.8393  1.4248  1.2487
 6546TIP3    H241198   0.598   1.425   7.414 -0.0539 -1.6196 -0.7947
 6547TIP3   OH241199   4.085   2.764   8.390 -0.3448  0.1952  0.1739
 6547TIP3    H141200   4.171   2.770   8.431  0.5611 -2.0136 -1.1808
 6547TIP3    H241201   4.032   2.716   8.453 -0.3184  0.7643  0.6324
 6548TIP3   OH241202   6.707   1.633   2.384  0.2829 -0.0270  0.0113
 6548TIP3    H141203   6.651   1.575   2.436  0.8423  0.0386  0.6961
 6548TIP3    H241204   6.675   1.622   2.294  0.3732 -1.3972  0.1252
 6549TIP3   OH241205   6.572   4.163   7.357  0.1733  0.1806  0.1306
 6549TIP3    H141206   6.569   4.130   7.267  1.8673 -0.1341  0.1583
 6549TIP3    H241207   6.614   4.249   7.349  0.5398  0.0506  0.6501
 6550TIP3   OH241208   6.273   2.069   0.393  0.3293  0.4066  0.3590
 6550TIP3    H141209   6.224   2.122   0.456  2.4222 -0.2059  2.6269
 6550TIP3    H241210   6.325   2.010   0.446  0.3397 -1.9274 -2.0322
 6551TIP3   OH241211   5.533   1.274   1.404  0.0309 -0.0360 -0.4023
 6551TIP3    H141212   5.552   1.272   1.498  1.3299 -0.2554 -0.6535
 6551TIP3    H241213   5.460   1.212   1.394  0.0337 -0.1954  0.4224
 6552TIP3   OH241214   6.315   1.808   1.899 -0.3486 -0.1662 -0.4180
 6552TIP3    H141215   6.262   1.832   1.823 -1.4835 -0.0317  0.3913
 6552TIP3    H241216   6.264   1.740   1.943  0.5033 -0.5502 -0.0068
 6553TIP3   OH241217   5.352   6.765   1.242 -0.0988 -0.0299 -0.0835
 6553TIP3    H141218   5.403   6.846   1.236  0.1545  0.0596  2.2662
 6553TIP3    H241219   5.261   6.794   1.244 -0.0871  0.0678 -0.9052
 6554TIP3   OH241220   2.689   1.484   2.722 -0.5331  0.3832 -0.4404
 6554TIP3    H141221   2.682   1.574   2.754 -1.0238  0.4174 -0.6357
 6554TIP3    H241222   2.766   1.449   2.766 -0.0906  1.0293 -0.6731
 6555TIP3   OH241223   4.851   1.520   8.183  0.1598  0.2833  0.0042
 6555TIP3    H141224   4.789   1.478   8.243 -0.0818 -0.7640 -0.9401
 6555TIP3    H241225   4.885   1.449   8.129  0.7607  1.1181 -0.7592
 6556TIP3   OH241226   3.360   4.570   0.820 -0.1936 -0.0914 -0.0978
 6556TIP3    H141227   3.351   4.625   0.897  0.1782 -1.8724  1.2715
 6556TIP3    H241228   3.449   4.587   0.788  0.0506 -0.1727  0.5369
 6557TIP3   OH241229   4.081   1.364   0.861  0.4810  0.0002  0.1004
 6557TIP3    H141230   4.135   1.303   0.912  1.7386  0.1657 -0.9737
 6557TIP3    H241231   4.106   1.347   0.770 -2.6361 -1.2245 -0.6772
 6558TIP3   OH241232   2.599   1.053   1.725  0.7919  0.0694  0.4366
 6558TIP3    H141233   2.636   1.098   1.801 -0.9973  0.4540  1.1389
 6558TIP3    H241234   2.623   1.108   1.651  1.6359  0.2822  0.8570
 6559TIP3   OH241235   1.954   0.618   7.588 -0.2342 -0.4354  0.0471
 6559TIP3    H141236   2.042   0.583   7.605  1.0582  2.4145 -0.2615
 6559TIP3    H241237   1.952   0.632   7.493 -1.8951 -2.4615 -0.2849
 6560TIP3   OH241238   6.392   3.368   0.275  0.4392  0.2132 -0.2257
 6560TIP3    H141239   6.455   3.435   0.299  0.4124  0.6346 -1.2590
 6560TIP3    H241240   6.307   3.410   0.286  0.4203  0.3425 -0.8035
 6561TIP3   OH241241   6.458   3.121   0.428  0.7778  0.9259 -0.1805
 6561TIP3    H141242   6.485   3.066   0.354  1.9837 -2.1732  2.3255
 6561TIP3    H241243   6.362   3.122   0.424  0.8385  1.4858 -2.1728
 6562TIP3   OH241244   1.879   4.695   7.679 -0.2096 -0.1361  0.3793
 6562TIP3    H141245   1.946   4.762   7.668  0.2375 -0.4386  1.1853
 6562TIP3    H241246   1.826   4.701   7.599  1.0491 -0.1974 -0.4847
 6563TIP3   OH241247   5.628   1.510   2.525 -0.1707  0.0844 -0.4050
 6563TIP3    H141248   5.629   1.455   2.446  1.5720 -0.4850 -0.0309
 6563TIP3    H241249   5.536   1.512   2.551 -0.7042 -0.1857 -2.1171
 6564TIP3   OH241250   0.288   3.863   2.361  0.4244  0.0035 -0.3386
 6564TIP3    H141251   0.337   3.798   2.412  0.0778  0.0629  0.0787
 6564TIP3    H241252   0.221   3.812   2.315  0.0749  0.0705  0.0831
 6565TIP3   OH241253   2.456   4.250   1.757  0.6839 -0.4908 -0.0647
 6565TIP3    H141254   2.529   4.271   1.698  1.4821  0.6045  1.2541
 6565TIP3    H241255   2.452   4.155   1.758  2.6209 -0.6114  0.4270
 6566TIP3   OH241256   0.010   3.068   0.924 -0.1429 -0.3500 -0.2474
 6566TIP3    H141257   0.059   3.138   0.881 -0.2845  0.3287  0.6619
 6566TIP3    H241258  -0.050   3.035   0.857  1.7749 -1.4469 -1.4967
 6567TIP3   OH241259   0.089   4.703   1.091 -0.3627  0.1444  0.2592
 6567TIP3    H141260   0.100   4.669   1.002 -1.3437 -1.0359  0.5688
 6567TIP3    H241261  -0.003   4.690   1.111 -0.1242  0.2661  1.5152
 6568TIP3   OH241262   0.750   6.166   1.329 -0.1445  0.2747  0.8481
 6568TIP3    H141263   0.738   6.124   1.414  1.9249 -0.6875  0.7529
 6568TIP3    H241264   0.728   6.098   1.265  0.4802  0.2459  0.6554
 6569TIP3   OH241265   3.956   1.369   1.463 -0.6405  0.8478 -0.5258
 6569TIP3    H141266   3.970   1.349   1.371  0.6095  2.1294 -0.6395
 6569TIP3    H241267   3.952   1.464   1.467 -1.8945  0.7720  0.5945
 6570TIP3   OH241268   1.781   3.664   7.580  0.6109 -0.2141  0.2658
 6570TIP3    H141269   1.829   3.587   7.550 -0.4837 -0.8519  0.0717
 6570TIP3    H241270   1.748   3.705   7.500 -0.6400 -0.7997  0.4492
 6571TIP3   OH241271   6.489   0.074   0.872  0.2660 -0.4727 -0.3051
 6571TIP3    H141272   6.395   0.056   0.868  0.3742 -1.2237  0.3514
 6571TIP3    H241273   6.523   0.012   0.937  1.0086  0.6548  0.4331
 6572TIP3   OH241274   1.702   0.572   7.951 -0.1525 -0.2004 -0.3680
 6572TIP3    H141275   1.703   0.594   7.858  1.3275  0.4176 -0.2316
 6572TIP3    H241276   1.790   0.540   7.970  0.6611  2.7642  1.4916
 6573TIP3   OH241277   5.998   6.437   0.035 -0.9087 -0.2467  0.5609
 6573TIP3    H141278   5.996   6.348   0.071 -0.5911 -1.1179 -1.4394
 6573TIP3    H241279   6.021   6.492   0.109 -0.4282 -1.9131  1.7177
 6574TIP3   OH241280   5.354   0.677   8.437 -0.1120 -0.4042  0.2085
 6574TIP3    H141281   5.448   0.698   8.445  0.6056 -3.6559  2.1069
 6574TIP3    H241282   5.329   0.645   8.524 -2.6121 -1.0405 -0.6680
 6575TIP3   OH241283   3.450   0.051   0.082  0.5661 -0.6172  0.0127
 6575TIP3    H141284   3.365   0.084   0.112  0.5792 -1.1859  0.7100
 6575TIP3    H241285   3.464   0.094  -0.002  0.5169  1.0070  0.8018
 6576TIP3   OH241286   2.423   5.835   0.569  0.2351  0.3447  0.5767
 6576TIP3    H141287   2.392   5.883   0.646 -0.6384 -0.3969  0.6984
 6576TIP3    H241288   2.509   5.874   0.549 -0.9685  2.8697 -0.1098
 6577TIP3   OH241289   0.600   4.216   0.390 -0.0300 -0.6169 -0.5739
 6577TIP3    H141290   0.546   4.246   0.317  2.0444  1.1477 -1.4804
 6577TIP3    H241291   0.688   4.244   0.368  0.4766  1.7308  3.4680
 6578TIP3   OH241292   1.333   2.066   1.375 -0.0110  0.0177  0.1798
 6578TIP3    H141293   1.388   1.989   1.362 -0.9624 -0.6291 -0.1175
 6578TIP3    H241294   1.277   2.043   1.449 -1.1748 -0.0930 -0.7084
 6579TIP3   OH241295   3.097   5.695   0.466 -0.2619 -0.2208 -0.9539
 6579TIP3    H141296   3.184   5.659   0.454  0.1857 -0.0159  1.1798
 6579TIP3    H241297   3.112   5.787   0.487 -0.8498 -0.4333  0.5902
 6580TIP3   OH241298   2.210   5.466   0.526  0.0270 -0.1722  0.4930
 6580TIP3    H141299   2.153   5.542   0.532 -0.0271 -0.3370  3.1766
 6580TIP3    H241300   2.208   5.427   0.614  0.9865 -2.5929 -0.4707
 6581TIP3   OH241301   0.798   3.519   0.225  0.3025  0.1369  0.2818
 6581TIP3    H141302   0.882   3.475   0.211  0.5101  0.4926  0.4120
 6581TIP3    H241303   0.739   3.449   0.252  0.7373  0.0050  0.8924
 6582TIP3   OH241304   2.554   0.264   7.966 -0.5275  0.0632  0.3095
 6582TIP3    H141305   2.491   0.243   8.035 -0.4123  1.6961  0.9575
 6582TIP3    H241306   2.638   0.270   8.011 -0.1093 -0.7823 -0.3263
 6583TIP3   OH241307   0.549   0.126   8.244  0.0241  0.5426 -0.3208
 6583TIP3    H141308   0.528   0.069   8.170 -1.4480 -0.9692  1.1523
 6583TIP3    H241309   0.606   0.073   8.299  0.5295  1.3800 -0.0261
 6584TIP3   OH241310   0.096   1.705   1.089  0.2771  0.0675 -0.4338
 6584TIP3    H141311   0.070   1.646   1.161  0.8085 -1.1593 -1.2093
 6584TIP3    H241312   0.129   1.646   1.021  0.9398  1.2901 -1.2030
 6585TIP3   OH241313   2.808   4.637   8.207 -0.1175 -0.0463  0.3159
 6585TIP3    H141314   2.809   4.733   8.208  1.9535  0.0765  4.3679
 6585TIP3    H241315   2.885   4.613   8.156 -0.5087  0.3957 -0.5092
 6586TIP3   OH241316   0.165   3.122   1.752 -0.8278 -0.4517 -0.4117
 6586TIP3    H141317   0.073   3.149   1.760 -0.9096 -0.3644 -1.4990
 6586TIP3    H241318   0.161   3.031   1.724 -0.5885 -0.3526 -0.7760
 6587TIP3   OH241319   1.737   3.911   0.895 -0.1114 -0.8288  0.3057
 6587TIP3    H141320   1.660   3.968   0.887 -0.1456 -0.7348  1.2347
 6587TIP3    H241321   1.722   3.842   0.830 -1.0305 -0.8636  0.5383
 6588TIP3   OH241322   1.954   2.725   8.623  0.3975  0.2680  0.8248
 6588TIP3    H141323   1.966   2.818   8.642 -1.3930  0.7808 -0.3309
 6588TIP3    H241324   1.873   2.702   8.669 -0.1143 -0.2656 -0.3233
 6589TIP3   OH241325   3.580   0.439   1.138 -0.0719  0.1269  0.3906
 6589TIP3    H141326   3.573   0.344   1.126  1.3779 -0.4115  3.0777
 6589TIP3    H241327   3.513   0.461   1.202 -0.6605  1.0314 -0.5002
 6590TIP3   OH241328   5.937   4.724   7.837 -0.4839  0.3747  0.0389
 6590TIP3    H141329   5.855   4.734   7.884 -0.2892  0.1743  0.4289
 6590TIP3    H241330   5.951   4.808   7.793 -1.0293  0.3197 -0.2483
 6591TIP3   OH241331   1.823   4.081   1.834 -0.4153 -0.5994 -0.2659
 6591TIP3    H141332   1.775   3.999   1.825  0.1109 -1.0677  1.0717
 6591TIP3    H241333   1.851   4.083   1.925 -2.2102  2.0512  0.3569
 6592TIP3   OH241334   3.445   6.591   1.268 -0.0025  0.6998  0.1862
 6592TIP3    H141335   3.391   6.568   1.343  0.3890  0.5700  0.4307
 6592TIP3    H241336   3.535   6.581   1.299  0.2887 -2.8837 -1.2864
 6593TIP3   OH241337   0.844   2.338   1.600 -0.5373 -0.1806 -0.1805
 6593TIP3    H141338   0.833   2.245   1.620 -0.1514 -0.0720  0.5557
 6593TIP3    H241339   0.939   2.350   1.589 -0.6994 -0.2131 -2.0346
 6594TIP3   OH241340   3.493   2.967   0.586  0.0696  0.3636  0.0155
 6594TIP3    H141341   3.453   3.048   0.555 -0.3733 -0.4721 -1.7345
 6594TIP3    H241342   3.436   2.936   0.656  1.1853  2.3956  1.9450
 6595TIP3   OH241343   6.521   1.576   8.019 -0.1357 -0.0865  0.3778
 6595TIP3    H141344   6.542   1.488   8.050  0.1408 -1.2475 -2.7486
 6595TIP3    H241345   6.460   1.610   8.084  2.0603 -1.3116  3.3327
 6596TIP3   OH241346   6.067   6.212   7.911  0.2049 -0.4017  0.0107
 6596TIP3    H141347   6.125   6.178   7.844  0.3660 -0.1366  0.0127
 6596TIP3    H241348   5.979   6.188   7.883  0.2169  0.2746 -0.6333
 6597TIP3   OH241349   6.417   4.416   8.746 -0.2501  0.6247  0.2373
 6597TIP3    H141350   6.337   4.376   8.714 -0.7083  0.8242  1.1150
 6597TIP3    H241351   6.449   4.355   8.813  0.0320  0.8210  0.2815
 6598TIP3   OH241352   5.425   2.259   1.018  0.1421  0.2989 -0.0396
 6598TIP3    H141353   5.471   2.183   1.055 -1.7523 -0.3712  1.0568
 6598TIP3    H241354   5.490   2.300   0.961  1.7815 -1.1422  0.6828
 6599TIP3   OH241355   0.638   6.526   8.134  0.3041 -0.4425  0.0293
 6599TIP3    H141356   0.595   6.444   8.107  1.9733 -1.8054  1.2678
 6599TIP3    H241357   0.699   6.499   8.203  0.7565  1.9070  0.6225
 6600TIP3   OH241358   6.488   3.069   8.089 -0.0826  0.5856 -0.5347
 6600TIP3    H141359   6.448   3.066   8.175 -0.6136 -0.7782 -0.8068
 6600TIP3    H241360   6.466   3.156   8.054 -0.0470  1.0566  0.5928
 6601TIP3   OH241361   0.940   5.522   0.770  0.1388 -0.0837  0.0783
 6601TIP3    H141362   1.026   5.509   0.731  0.2011 -3.1225  0.9914
 6601TIP3    H241363   0.946   5.481   0.856 -2.1967 -0.2673  0.2232
 6602TIP3   OH241364   4.764   2.537   1.308 -0.2114 -0.3201  0.4994
 6602TIP3    H141365   4.835   2.490   1.352  0.3276 -0.6146 -0.6467
 6602TIP3    H241366   4.721   2.471   1.254 -1.0467 -0.0262  0.7823
 6603TIP3   OH241367   0.823   5.364   7.402  0.1528  0.9604  0.0508
 6603TIP3    H141368   0.880   5.437   7.377  2.2021 -0.5726 -0.0214
 6603TIP3    H241369   0.873   5.318   7.470 -1.0686 -0.3930  0.0568
 6604TIP3   OH241370   4.167   2.503   1.396 -0.5459 -0.1768 -0.4387
 6604TIP3    H141371   4.230   2.517   1.467 -1.5284 -0.2851  0.4686
 6604TIP3    H241372   4.149   2.409   1.398 -1.1454 -0.0606 -0.3451
 6605TIP3   OH241373   5.059   0.301   0.156 -0.7806  0.2129  0.0896
 6605TIP3    H141374   4.967   0.281   0.176 -0.9881  0.3733 -0.6530
 6605TIP3    H241375   5.067   0.394   0.175 -0.9573  0.3481 -0.4672
 6606TIP3   OH241376   1.447   3.905   2.462 -0.0225 -0.5384  0.0050
 6606TIP3    H141377   1.393   3.953   2.525 -0.1669 -0.6117 -0.0622
 6606TIP3    H241378   1.384   3.854   2.411  0.0522 -0.1530 -0.4822
 6607TIP3   OH241379   3.250   5.551   1.881  0.0119  0.4947  0.0897
 6607TIP3    H141380   3.271   5.535   1.973 -0.5276  1.1669  0.3389
 6607TIP3    H241381   3.162   5.589   1.883  0.6725  2.1400 -0.5643
 6608TIP3   OH241382   3.818   6.552   8.801  0.3148  0.1073  0.2258
 6608TIP3    H141383   3.751   6.593   8.746  0.3926  0.4463  0.3840
 6608TIP3    H241384   3.862   6.490   8.743 -1.6291 -1.8342  0.6487
 6609TIP3   OH241385   1.214   2.164   2.303 -0.0361 -0.2276  0.2325
 6609TIP3    H141386   1.144   2.099   2.316 -0.4250  0.0020 -0.6080
 6609TIP3    H241387   1.270   2.125   2.236 -0.5856  0.5301 -0.6941
 6610TIP3   OH241388   5.372   4.868   1.360  0.7139  0.2936 -0.2236
 6610TIP3    H141389   5.316   4.814   1.303  0.1018  1.5687 -0.8740
 6610TIP3    H241390   5.315   4.940   1.386  1.4465  0.4924  0.8348
 6611TIP3   OH241391   2.984   5.023   0.623 -0.3583 -0.1076  0.2954
 6611TIP3    H141392   3.051   5.011   0.556 -1.4984  0.2560 -0.9639
 6611TIP3    H241393   2.916   4.960   0.600 -1.6800  1.4069 -0.1206
 6612TIP3   OH241394   2.449   2.544   7.707 -0.5813  0.5219 -0.1562
 6612TIP3    H141395   2.384   2.544   7.637  0.6014  0.0106 -1.3016
 6612TIP3    H241396   2.532   2.557   7.662  0.1117  1.2860  1.2787
 6613TIP3   OH241397   1.521   5.083   2.528  0.7368 -0.1875  0.8321
 6613TIP3    H141398   1.560   5.116   2.447  0.4675  0.4918  0.9699
 6613TIP3    H241399   1.458   5.017   2.499  0.8728 -0.1780  0.5078
 6614TIP3   OH241400   3.671   0.355   2.798  0.1471  0.1048 -0.1520
 6614TIP3    H141401   3.639   0.438   2.836 -2.1258  0.5666 -2.6923
 6614TIP3    H241402   3.642   0.288   2.860  1.6385  1.1223  1.7393
 6615TIP3   OH241403   2.740   4.142   0.076 -0.9073 -0.1894  0.4102
 6615TIP3    H141404   2.704   4.166   0.161 -0.0811  0.5096  0.5743
 6615TIP3    H241405   2.708   4.210   0.016 -0.9588 -0.3252  0.2800
 6616TIP3   OH241406   0.212   5.522   3.346 -0.0516 -0.1490  0.1375
 6616TIP3    H141407   0.301   5.550   3.368 -0.1190 -0.6002  1.0296
 6616TIP3    H241408   0.191   5.568   3.265  0.1365  1.7528  1.1354
 6617TIP3   OH241409   1.161   2.353   8.349 -0.5562  0.1040 -0.5532
 6617TIP3    H141410   1.098   2.281   8.342 -0.5346  0.1288 -1.0182
 6617TIP3    H241411   1.243   2.311   8.376 -0.2551 -0.1986 -1.9027
 6618TIP3   OH241412   3.718   3.183   0.778 -0.1608 -0.2551 -0.0403
 6618TIP3    H141413   3.752   3.131   0.706 -1.1479 -0.3801 -0.4300
 6618TIP3    H241414   3.724   3.274   0.747  0.4028 -0.2234  0.1492
 6619TIP3   OH241415   6.283   4.095   0.644 -0.5692  0.2912 -0.0560
 6619TIP3    H141416   6.229   4.016   0.637  0.4539 -0.4614  0.3437
 6619TIP3    H241417   6.371   4.062   0.661 -0.3752  1.5494  1.6158
 6620TIP3   OH241418   4.818   3.948   2.718 -0.4221 -0.7241 -0.0164
 6620TIP3    H141419   4.888   3.954   2.782 -1.5524 -1.0692  1.2891
 6620TIP3    H241420   4.796   4.038   2.697  0.6326 -0.6109 -0.7166
 6621TIP3   OH241421   2.516   5.283   8.487 -0.2942 -0.0153  0.7257
 6621TIP3    H141422   2.473   5.198   8.481 -0.7642 -0.0016  2.8706
 6621TIP3    H241423   2.564   5.279   8.570  1.0490  1.2222  0.0454
 6622TIP3   OH241424   3.915   0.307   1.350  0.1725  0.1600 -0.5199
 6622TIP3    H141425   3.935   0.214   1.339 -0.7632 -0.3704  1.7990
 6622TIP3    H241426   3.999   0.347   1.372  0.4656 -0.2374 -0.8948
 6623TIP3   OH241427   6.451   5.932   1.026  0.6125 -0.2079 -0.1934
 6623TIP3    H141428   6.359   5.930   0.998  1.2870 -1.7023 -2.5410
 6623TIP3    H241429   6.496   5.981   0.957  1.6278  0.5581  0.9677
 6624TIP3   OH241430   0.215   4.956   1.053 -0.0790  0.1679 -0.0102
 6624TIP3    H141431   0.142   5.010   1.084 -1.1417 -1.0357 -0.3218
 6624TIP3    H241432   0.185   4.866   1.064  2.1410 -0.4429  1.6963
 6625TIP3   OH241433   3.107   2.853   1.596  0.2467 -0.3346 -0.2211
 6625TIP3    H141434   3.194   2.820   1.619  0.5298  1.1960  1.1044
 6625TIP3    H241435   3.124   2.922   1.532  0.0014 -0.1146 -0.0513
 6626TIP3   OH241436   2.209   6.208   0.051  0.0962  0.2240  0.0957
 6626TIP3    H141437   2.287   6.254   0.023 -0.9024  1.7451 -0.2709
 6626TIP3    H241438   2.242   6.139   0.109  1.6369  1.3674  0.6480
 6627TIP3   OH241439   1.411   3.540   1.797 -0.5294 -0.3699  0.5187
 6627TIP3    H141440   1.424   3.598   1.722  0.2655  0.2451  1.1175
 6627TIP3    H241441   1.499   3.517   1.826 -0.8047  0.1221  1.8142
 6628TIP3   OH241442   4.648   0.993   2.387  0.3335 -0.2929  0.2434
 6628TIP3    H141443   4.587   0.988   2.313  1.8724  1.1358 -1.2078
 6628TIP3    H241444   4.687   0.906   2.391  0.6413 -0.2411 -1.0402
 6629TIP3   OH241445   0.556   0.274   1.002  0.3217  0.4220 -0.2206
 6629TIP3    H141446   0.632   0.255   1.057  1.2241  1.7923 -0.9395
 6629TIP3    H241447   0.522   0.356   1.037  0.0623  0.5796 -0.8448
 6630TIP3   OH241448   3.257   4.497   8.561 -0.5466 -0.4036 -0.1814
 6630TIP3    H141449   3.205   4.576   8.544 -1.1828 -1.2125 -2.4056
 6630TIP3    H241450   3.254   4.485   8.656 -0.9366  1.8824  0.1394
 6631TIP3   OH241451   1.682   2.516   1.629 -0.0770 -0.3336 -0.2050
 6631TIP3    H141452   1.757   2.514   1.569 -1.3412  0.3602 -1.8892
 6631TIP3    H241453   1.720   2.504   1.716  1.9135 -0.5874 -1.0649
 6632TIP3   OH241454   0.157   3.587   1.287  0.3055 -0.0929 -0.1602
 6632TIP3    H141455   0.205   3.591   1.370  2.2192  1.0258 -1.2614
 6632TIP3    H241456   0.065   3.593   1.313  0.3830 -4.6635  2.2070
 6633TIP3   OH241457   2.288   0.087   2.325 -0.2359  0.1917 -0.4333
 6633TIP3    H141458   2.367   0.033   2.326 -0.2681  0.1153 -1.3718
 6633TIP3    H241459   2.236   0.054   2.399  0.7852  0.5235  0.4557
 6634TIP3   OH241460   5.479   3.204   2.908 -0.3013 -0.5502 -0.0888
 6634TIP3    H141461   5.414   3.270   2.934  1.1089  0.8013  0.1595
 6634TIP3    H241462   5.484   3.212   2.813 -1.6946 -1.8710 -0.3191
 6635TIP3   OH241463   3.140   0.276   8.488 -0.0468 -0.3433  0.1416
 6635TIP3    H141464   3.164   0.323   8.568  1.7297 -1.5004  0.3503
 6635TIP3    H241465   3.045   0.271   8.491 -0.1495  1.4706  1.0971
 6636TIP3   OH241466   0.731   0.686   2.074 -0.0024  0.1039  0.2611
 6636TIP3    H141467   0.653   0.640   2.106  0.2622 -1.0544 -0.6819
 6636TIP3    H241468   0.803   0.626   2.094  0.3208 -0.0330 -1.2338
 6637TIP3   OH241469   2.677   2.199   8.540  0.2069  0.1923 -0.7290
 6637TIP3    H141470   2.750   2.139   8.551  0.5187  0.6551 -0.2013
 6637TIP3    H241471   2.697   2.248   8.460  0.8930  0.8812 -0.1511
 6638TIP3   OH241472   3.344   1.805   2.198  0.7843 -0.5711  0.2604
 6638TIP3    H141473   3.254   1.834   2.215  0.8657  0.1154 -0.4358
 6638TIP3    H241474   3.352   1.722   2.246  0.4454  0.3759  2.0203
 6639TIP3   OH241475   0.096   4.038   2.062 -0.0811  0.4096 -0.8359
 6639TIP3    H141476   0.106   4.047   2.157  2.5069 -1.1343 -0.8847
 6639TIP3    H241477   0.012   3.993   2.052 -0.2169  0.2463  0.7351
 6640TIP3   OH241478   5.155   0.454   0.394 -0.0342 -0.0051 -0.1464
 6640TIP3    H141479   5.227   0.465   0.456  0.2300  1.7563 -0.7232
 6640TIP3    H241480   5.079   0.430   0.448  0.4574  0.3675  0.7104
 6641TIP3   OH241481   4.493   3.672   8.170  0.0445  0.1033  0.2051
 6641TIP3    H141482   4.406   3.694   8.138 -0.1944  0.9324  1.3555
 6641TIP3    H241483   4.552   3.726   8.118 -0.1655 -0.0473 -0.1927
 6642TIP3   OH241484   5.648   3.945   7.197  0.1688 -0.1402 -0.4091
 6642TIP3    H141485   5.674   3.929   7.106  0.5084 -0.0075 -0.3358
 6642TIP3    H241486   5.730   3.959   7.244  0.0818 -1.2835  0.1324
 6643TIP3   OH241487   4.502   3.752   1.257  0.0302  0.5205  0.0531
 6643TIP3    H141488   4.412   3.784   1.253  0.8296  2.9398 -0.7475
 6643TIP3    H241489   4.521   3.742   1.350 -1.3570 -1.1481  0.2162
 6644TIP3   OH241490   5.243   0.620   1.859  0.3476 -0.5207  0.7181
 6644TIP3    H141491   5.246   0.703   1.811 -0.0814 -0.1807  1.2550
 6644TIP3    H241492   5.159   0.581   1.833  0.2186 -0.4422  1.0066
 6645TIP3   OH241493   0.454   0.739   0.235 -0.7487  0.2242  0.5594
 6645TIP3    H141494   0.471   0.751   0.328 -1.1843 -1.7300  0.9322
 6645TIP3    H241495   0.400   0.661   0.230 -0.3061 -0.0172 -1.3711
 6646TIP3   OH241496   0.238   5.745   0.764  0.6785  0.5814 -0.4349
 6646TIP3    H141497   0.310   5.733   0.702 -0.6715 -0.3552 -1.8978
 6646TIP3    H241498   0.180   5.670   0.748 -1.2246  1.9288 -0.1838
 6647TIP3   OH241499   0.763   5.670   1.560 -0.0063  0.4348 -0.1129
 6647TIP3    H141500   0.753   5.584   1.601  1.9881 -0.6530 -1.6934
 6647TIP3    H241501   0.792   5.727   1.630  1.6329 -0.9512  0.4009
 6648TIP3   OH241502   6.715   0.478   2.605 -0.6257  0.4700 -0.5021
 6648TIP3    H141503   6.702   0.478   2.700 -0.4577 -2.0313 -0.4065
 6648TIP3    H241504   6.645   0.422   2.572  0.0023  0.3854 -1.7349
 6649TIP3   OH241505   5.532   5.336   1.554 -0.7216  0.1009  0.1494
 6649TIP3    H141506   5.542   5.428   1.578 -0.3555 -0.1650  1.0528
 6649TIP3    H241507   5.561   5.287   1.631 -3.1077 -0.7708  0.5799
 6650TIP3   OH241508   3.954   5.598   0.966  0.2271 -0.2139 -0.3017
 6650TIP3    H141509   4.034   5.643   0.938  0.7226 -2.0059 -2.0442
 6650TIP3    H241510   3.885   5.665   0.960  1.3237  0.9316 -0.3844
 6651TIP3   OH241511   3.153   1.339   0.095 -0.1311 -0.0713  0.2102
 6651TIP3    H141512   3.235   1.289   0.101 -0.5249 -0.5645  2.2408
 6651TIP3    H241513   3.159   1.384   0.010  1.6315 -1.1239 -0.2896
 6652TIP3   OH241514   0.233   5.568   2.122  1.0537  0.9229 -0.2095
 6652TIP3    H141515   0.276   5.579   2.207  0.5400  1.3008  0.0118
 6652TIP3    H241516   0.233   5.656   2.084  0.9015  0.8347 -0.4171
 6653TIP3   OH241517   1.101   1.664   2.685  0.1126  0.1028 -0.3778
 6653TIP3    H141518   1.036   1.670   2.755  2.2876  2.0422  1.6199
 6653TIP3    H241519   1.104   1.570   2.664 -0.7451 -0.5331  2.0046
 6654TIP3   OH241520   0.354   1.583   0.454 -0.2942 -0.1297  0.2215
 6654TIP3    H141521   0.369   1.638   0.531  1.0018 -1.6182  1.0966
 6654TIP3    H241522   0.344   1.495   0.490 -0.4979 -0.7401 -1.2718
 6655TIP3   OH241523   5.679   0.574   1.059  0.1398 -0.6484 -0.0496
 6655TIP3    H141524   5.668   0.623   1.140  1.4683 -1.8966  0.9390
 6655TIP3    H241525   5.754   0.617   1.016 -0.0103 -0.5338 -0.1994
 6656TIP3   OH241526   4.491   1.686   1.749  0.5242 -0.6669  0.8708
 6656TIP3    H141527   4.495   1.758   1.812 -1.3404 -0.1877  0.5114
 6656TIP3    H241528   4.579   1.647   1.751  1.1985  0.8092  2.0032
 6657TIP3   OH241529   1.238   3.085   0.196 -0.0637  0.1115 -0.0087
 6657TIP3    H141530   1.305   3.084   0.265  0.2076 -0.3657 -0.2717
 6657TIP3    H241531   1.270   3.150   0.133  1.5709 -1.9842 -1.4831
 6658TIP3   OH241532   2.444   1.839   8.091 -0.2245 -0.7173  0.0882
 6658TIP3    H141533   2.416   1.774   8.026  0.1770  0.8998 -1.7831
 6658TIP3    H241534   2.373   1.839   8.156 -0.7306 -2.2527 -0.4078
 6659TIP3   OH241535   2.286   0.102   7.918  0.1972 -0.1289  0.8560
 6659TIP3    H141536   2.244   0.017   7.904 -1.4254  0.6687  0.7546
 6659TIP3    H241537   2.316   0.099   8.009 -1.4281 -0.1643  1.4169
 6660TIP3   OH241538   5.715   4.002   0.880  0.0885 -0.3301  0.3045
 6660TIP3    H141539   5.760   3.978   0.961 -1.4664  1.0772  1.6589
 6660TIP3    H241540   5.633   4.042   0.908 -0.2434  0.7745 -1.9438
 6661TIP3   OH241541   3.294   1.890   0.631 -0.2040  0.0589  0.3156
 6661TIP3    H141542   3.304   1.941   0.550 -2.3151 -0.6573 -0.4769
 6661TIP3    H241543   3.314   1.800   0.605 -1.7450 -0.3180  0.3147
 6662TIP3   OH241544   5.715   0.777   0.078  0.4800 -0.2946 -0.0141
 6662TIP3    H141545   5.627   0.790   0.114  1.4714  1.3592  2.0363
 6662TIP3    H241546   5.729   0.682   0.083 -1.3602 -0.6588 -0.9140
 6663TIP3   OH241547   5.018   4.569   1.697 -0.3580 -0.0871 -0.0172
 6663TIP3    H141548   4.934   4.524   1.692  0.0414 -0.7352 -1.6467
 6663TIP3    H241549   5.013   4.621   1.777 -1.2505 -2.1900  1.3971
 6664TIP3   OH241550   6.719   5.578   7.486 -0.1818 -0.1923  0.3160
 6664TIP3    H141551   6.673   5.520   7.425 -0.7280  1.7500 -1.2227
 6664TIP3    H241552   6.761   5.643   7.430 -0.3007  1.3958  1.9749
 6665TIP3   OH241553   5.792   1.663   1.186  0.8102 -0.0419  0.4329
 6665TIP3    H141554   5.803   1.605   1.111  4.1102 -0.2830  0.9371
 6665TIP3    H241555   5.720   1.626   1.235  0.3685 -1.4744 -1.2075
 6666TIP3   OH241556   4.128   3.023   1.416  0.4934  0.7149 -0.5135
 6666TIP3    H141557   4.072   3.100   1.426  0.1375  0.3826  0.1449
 6666TIP3    H241558   4.217   3.057   1.419  0.3763  0.9718  1.2489
 6667TIP3   OH241559   2.553   3.019   2.133 -0.0686  0.1977 -0.0324
 6667TIP3    H141560   2.588   2.962   2.201  1.0931  0.4482 -0.3995
 6667TIP3    H241561   2.585   3.106   2.156 -1.4900  0.6539  0.3048
 6668TIP3   OH241562   1.090   0.829   2.352 -0.0462 -0.0156 -0.1152
 6668TIP3    H141563   1.078   0.879   2.433 -2.0862 -1.7120  0.7208
 6668TIP3    H241564   1.006   0.836   2.307 -0.4344 -2.6034  0.0406
 6669TIP3   OH241565   3.432   0.317   1.827  0.4813 -0.0925  0.1455
 6669TIP3    H141566   3.394   0.290   1.911 -0.7550  1.2670  0.0641
 6669TIP3    H241567   3.497   0.250   1.807  0.3785 -0.7579  1.8995
 6670TIP3   OH241568   1.001   1.854   7.581  0.1471 -0.1667 -0.0830
 6670TIP3    H141569   0.934   1.915   7.611  1.7682  1.5200  0.3162
 6670TIP3    H241570   1.062   1.848   7.654  1.3869 -0.1911 -1.0845
 6671TIP3   OH241571   1.659   3.313   1.013  0.2772  0.4148  0.0625
 6671TIP3    H141572   1.602   3.352   1.078  1.2349  1.2164  0.4418
 6671TIP3    H241573   1.600   3.266   0.954 -0.8132  1.6427  0.1440
 6672TIP3   OH241574   5.360   1.937   8.498  0.0525 -0.2675  0.7606
 6672TIP3    H141575   5.356   2.012   8.439 -0.1585 -0.1233  0.9582
 6672TIP3    H241576   5.297   1.875   8.462  1.4896 -1.1073 -0.4362
 6673TIP3   OH241577   5.010   6.108   3.682 -0.6261  0.1335 -0.0495
 6673TIP3    H141578   5.040   6.188   3.640 -2.2717  0.7354 -0.1505
 6673TIP3    H241579   4.956   6.064   3.616 -0.9661 -0.3031  0.5086
 6674TIP3   OH241580   6.671   5.226   7.847  0.7342 -0.2728  0.0832
 6674TIP3    H141581   6.598   5.208   7.788 -1.8273 -2.3927  3.4904
 6674TIP3    H241582   6.740   5.164   7.820  0.5749  0.3389 -1.9144
 6675TIP3   OH241583   1.363   1.349   8.574 -0.4649 -0.1180 -0.3546
 6675TIP3    H141584   1.356   1.425   8.632  0.6986  0.3295 -0.7659
 6675TIP3    H241585   1.453   1.353   8.540 -0.8457 -0.8509 -1.5181
 6676TIP3   OH241586   2.192   2.748   1.872  0.0170  0.0697 -0.0102
 6676TIP3    H141587   2.239   2.828   1.894  0.7283 -0.2415 -0.3598
 6676TIP3    H241588   2.261   2.682   1.862 -0.3244 -0.0522 -2.0888
 6677TIP3   OH241589   4.698   6.616   0.088  0.4757 -0.0818 -0.0810
 6677TIP3    H141590   4.622   6.619   0.029  2.3790 -0.1099 -2.7143
 6677TIP3    H241591   4.680   6.543   0.147 -2.2059  0.8916  0.4330
 6678TIP3   OH241592   3.011   2.190   2.820  0.0915  0.3873  0.0141
 6678TIP3    H141593   2.970   2.258   2.873 -0.2418  0.6642 -0.5858
 6678TIP3    H241594   3.104   2.193   2.843  0.1008  1.1451 -0.1093
 6679TIP3   OH241595   6.261   4.202   7.928  0.5798 -0.1842 -0.1032
 6679TIP3    H141596   6.284   4.115   7.896 -0.8729 -0.6225 -0.0119
 6679TIP3    H241597   6.270   4.259   7.851  0.7791 -0.5459 -0.3521
 6680TIP3   OH241598   1.930   6.459   7.859 -0.2532  0.0043 -0.0653
 6680TIP3    H141599   2.019   6.438   7.832 -0.2395  0.4833 -0.4083
 6680TIP3    H241600   1.916   6.549   7.830 -1.1832 -0.3822 -0.8885
 6681TIP3   OH241601   1.156   2.830   0.083  0.0463 -0.3552 -0.5312
 6681TIP3    H141602   1.190   2.911   0.122  0.0930  0.4597 -2.1545
 6681TIP3    H241603   1.162   2.845  -0.011 -0.6103 -1.9926 -0.8674
 6682TIP3   OH241604   3.064   6.307   8.254 -0.0450 -0.4054  0.0816
 6682TIP3    H141605   3.050   6.303   8.349  2.4625 -1.2941  0.4908
 6682TIP3    H241606   2.978   6.288   8.217 -1.0430 -0.2703  2.1802
 6683TIP3   OH241607   5.213   6.486   0.222 -0.1807 -0.0176 -0.2348
 6683TIP3    H141608   5.256   6.492   0.307 -0.2294 -1.6997 -0.0549
 6683TIP3    H241609   5.266   6.424   0.173  0.5973  1.8881 -1.9357
 6684TIP3   OH241610   1.514   5.509   2.701  0.0837  0.2760 -0.1109
 6684TIP3    H141611   1.604   5.476   2.711  0.6441  1.3097 -1.5104
 6684TIP3    H241612   1.473   5.490   2.786  1.9837  0.9039  1.0124
 6685TIP3   OH241613   6.638   6.585   1.017  0.5638 -0.1225  0.6109
 6685TIP3    H141614   6.585   6.505   1.018  0.1720  0.1182 -0.0646
 6685TIP3    H241615   6.579   6.653   1.051 -0.0117  0.3980 -1.3285
 6686TIP3   OH241616   3.396   3.386   2.368 -0.5660  0.3446 -0.3228
 6686TIP3    H141617   3.390   3.398   2.273 -1.4131  1.1914 -0.1804
 6686TIP3    H241618   3.365   3.469   2.404  1.5459  0.7632  0.6926
 6687TIP3   OH241619   6.523   1.953   8.032  0.7401  0.6406 -0.3218
 6687TIP3    H141620   6.551   1.999   8.111  0.3565 -0.4525  0.4705
 6687TIP3    H241621   6.429   1.942   8.043  0.8781 -0.6843 -0.2892
 6688TIP3   OH241622   0.718   0.780   0.247 -0.3153  0.5100  0.5584
 6688TIP3    H141623   0.731   0.686   0.239 -0.4841  0.6426 -1.7482
 6688TIP3    H241624   0.633   0.797   0.208  0.3766  1.7949 -0.4785
 6689TIP3   OH241625   2.932   3.128   8.729  0.1389 -0.2427 -0.3452
 6689TIP3    H141626   2.922   3.196   8.662 -0.4916 -1.2391 -1.2937
 6689TIP3    H241627   2.978   3.172   8.801 -0.6685  1.3016 -0.7372
 6690TIP3   OH241628   2.937   0.768   0.683 -0.2591 -0.4961  0.3844
 6690TIP3    H141629   2.879   0.706   0.728 -2.9836  2.1654  0.8707
 6690TIP3    H241630   2.930   0.744   0.590 -0.9701 -1.1244  0.5852
 6691TIP3   OH241631   1.602   5.698   8.215 -0.0204  0.7597 -0.3982
 6691TIP3    H141632   1.538   5.756   8.258  2.5057  2.7574  0.9579
 6691TIP3    H241633   1.592   5.614   8.259 -0.6908  1.4503  0.8131
 6692TIP3   OH241634   2.827   5.186   8.281 -0.6135 -0.1262  0.2360
 6692TIP3    H141635   2.891   5.210   8.214  0.7584 -1.6379  0.9357
 6692TIP3    H241636   2.752   5.153   8.232 -0.4474  0.6686 -0.5761
 6693TIP3   OH241637   3.869   2.225   3.329  0.0365  0.1736  0.3689
 6693TIP3    H141638   3.889   2.135   3.301 -1.0223 -0.7157  2.3086
 6693TIP3    H241639   3.808   2.257   3.262 -1.0764 -1.2604  0.6425
 6694TIP3   OH241640   3.738   2.034   0.834  0.2043 -0.4374 -0.0100
 6694TIP3    H141641   3.703   2.046   0.746  0.5069 -1.9257 -0.3560
 6694TIP3    H241642   3.820   1.987   0.822  1.0508  0.7125  0.9799
 6695TIP3   OH241643   1.817   1.146   8.047  0.4976  0.0252 -0.1104
 6695TIP3    H141644   1.902   1.156   8.090  0.3872  1.3597 -0.1441
 6695TIP3    H241645   1.814   1.220   7.985 -0.9930  0.4448  0.4358
 6696TIP3   OH241646   3.671   3.008   8.430  0.4106 -0.3556  0.2276
 6696TIP3    H141647   3.577   2.991   8.436  0.5143 -2.3655 -2.0194
 6696TIP3    H241648   3.700   3.016   8.521 -2.0080  1.1135  0.9641
 6697TIP3   OH241649   3.490   1.706   1.311  0.6292 -0.2900 -0.2845
 6697TIP3    H141650   3.458   1.783   1.264  0.7173  0.3176  0.6249
 6697TIP3    H241651   3.585   1.712   1.306  0.6723 -1.7692 -2.4588
 6698TIP3   OH241652   5.905   2.003   1.366 -0.5082 -0.0820  0.1354
 6698TIP3    H141653   5.941   2.050   1.442 -0.1600 -1.9085  1.1474
 6698TIP3    H241654   5.944   2.048   1.290  1.7500 -0.2291  1.1173
 6699TIP3   OH241655   2.779   3.420   7.412  0.6400 -0.5589 -0.0458
 6699TIP3    H141656   2.763   3.327   7.425  1.6911 -0.8799 -0.8370
 6699TIP3    H241657   2.696   3.455   7.381  0.5046 -1.4373 -0.7049
 6700TIP3   OH241658   2.552   5.803   8.369  0.1728  0.8168 -0.0771
 6700TIP3    H141659   2.628   5.817   8.426 -0.4521  2.3949  0.4393
 6700TIP3    H241660   2.520   5.716   8.393  0.3435  1.1518  1.5308
 6701TIP3   OH241661   0.630   4.746   0.034  0.1981  0.1687  0.2909
 6701TIP3    H141662   0.674   4.663   0.053  0.2672 -0.2645 -1.5374
 6701TIP3    H241663   0.702   4.808   0.019  0.1462  0.5749  1.5899
 6702TIP3   OH241664   3.822   0.694   8.420  0.0590 -0.6647 -0.5699
 6702TIP3    H141665   3.899   0.664   8.469 -0.0324 -1.7497 -1.0705
 6702TIP3    H241666   3.804   0.781   8.455 -0.0897 -1.4454  1.4244
 6703TIP3   OH241667   2.359   3.986   1.769 -0.6545  0.5808 -0.4238
 6703TIP3    H141668   2.415   3.918   1.732  0.8850  1.1960  0.6627
 6703TIP3    H241669   2.338   4.043   1.694  0.2814  0.3936 -0.8401
 6704TIP3   OH241670   3.381   0.762   2.201 -0.8794  0.1320 -0.1643
 6704TIP3    H141671   3.438   0.816   2.256 -0.1419 -2.1909  1.4958
 6704TIP3    H241672   3.298   0.757   2.249 -0.1798 -2.0419  0.9559
 6705TIP3   OH241673   4.023   0.049   8.506  0.0268  0.7113 -0.4318
 6705TIP3    H141674   3.934   0.019   8.526 -0.4705  3.1949  1.4979
 6705TIP3    H241675   4.080  -0.010   8.554 -0.5913 -0.3275 -0.9319
 6706TIP3   OH241676   0.424   5.221   3.266 -0.1536 -0.2685  0.2624
 6706TIP3    H141677   0.494   5.158   3.282 -0.0731 -0.3089 -0.2299
 6706TIP3    H241678   0.366   5.177   3.203 -1.2481 -0.6970  1.5332
 6707TIP3   OH241679   6.759   6.108   0.235  0.0683  0.0852 -0.1369
 6707TIP3    H141680   6.717   6.190   0.262  0.0809 -0.1259  0.5434
 6707TIP3    H241681   6.707   6.079   0.160  0.4013  0.9941 -0.7333
 6708TIP3   OH241682   6.107   6.570   0.259  0.1229 -0.3461 -0.6785
 6708TIP3    H141683   6.125   6.664   0.270 -0.6333 -0.0971 -1.4926
 6708TIP3    H241684   6.193   6.532   0.239  0.3078  0.2969 -1.1388
 6709TIP3   OH241685   3.975   4.439   8.230 -0.4414 -0.3159  0.2662
 6709TIP3    H141686   4.059   4.396   8.248 -0.7874 -0.9460  0.4092
 6709TIP3    H241687   3.926   4.431   8.312 -1.5245 -2.0302 -0.4929
 6710TIP3   OH241688   3.785   6.240   7.727 -0.3253 -0.0955 -0.4585
 6710TIP3    H141689   3.850   6.181   7.689  0.6277 -0.0922  1.0927
 6710TIP3    H241690   3.703   6.217   7.682  1.0329  1.3314 -3.9947
 6711TIP3   OH241691   2.213   4.638   1.866 -0.0683  0.3867  0.1492
 6711TIP3    H141692   2.166   4.574   1.813  0.9355 -2.8028  2.7264
 6711TIP3    H241693   2.146   4.700   1.894 -1.5410 -0.6517 -0.9408
 6712TIP3   OH241694   0.232   6.292   1.004 -0.3155  0.3527 -0.0450
 6712TIP3    H141695   0.306   6.231   1.008 -0.1303  0.4750 -1.2679
 6712TIP3    H241696   0.254   6.351   0.932 -1.5291  0.4900 -0.3089
 6713TIP3   OH241697   4.000   3.624   1.195 -0.0360 -0.4868 -0.1616
 6713TIP3    H141698   4.001   3.544   1.142 -1.0833 -0.6563  0.0597
 6713TIP3    H241699   3.972   3.595   1.282 -2.5243  0.4124 -0.6109
 6714TIP3   OH241700   0.718   3.369   1.610 -0.0581  0.9976  0.9748
 6714TIP3    H141701   0.800   3.326   1.583 -0.7807  0.2955 -0.2368
 6714TIP3    H241702   0.665   3.298   1.646  0.1640  1.6019  2.5714
 6715TIP3   OH241703   1.577   2.156   8.633  0.6451 -0.2049  0.6799
 6715TIP3    H141704   1.633   2.117   8.565  0.4272  0.8165 -0.1148
 6715TIP3    H241705   1.629   2.228   8.668 -0.1476  0.7657 -0.0793
 6716TIP3   OH241706   5.274   3.735   1.394  0.0535  0.2360 -0.8128
 6716TIP3    H141707   5.248   3.677   1.465  1.3244 -0.8361 -1.1678
 6716TIP3    H241708   5.234   3.819   1.415  1.3952  0.3077  1.8607
 6717TIP3   OH241709   6.352   0.553   8.473 -0.3180 -0.1557  0.0030
 6717TIP3    H141710   6.339   0.518   8.385  0.1296 -3.8268  1.2338
 6717TIP3    H241711   6.440   0.589   8.472  0.0170 -0.9554 -0.8437
 6718TIP3   OH241712   1.700   2.325   0.516 -0.0261 -0.4564  0.1617
 6718TIP3    H141713   1.770   2.354   0.575 -0.3516 -1.9862  1.3556
 6718TIP3    H241714   1.628   2.385   0.534  0.5567  0.3992 -0.2351
 6719TIP3   OH241715   4.143   5.928   1.195 -1.0976  0.5587 -0.3595
 6719TIP3    H141716   4.238   5.937   1.194 -1.0232 -0.1385 -0.9944
 6719TIP3    H241717   4.111   6.008   1.236 -0.2020  0.4732  0.5362
 6720TIP3   OH241718   5.472   1.822   1.181 -0.0461  0.1537 -0.4057
 6720TIP3    H141719   5.513   1.896   1.225 -0.7532  0.2386  0.1313
 6720TIP3    H241720   5.488   1.748   1.239 -1.3079  0.3394  0.1945
 6721TIP3   OH241721   2.904   2.618   0.454  0.1611  0.3275 -0.1306
 6721TIP3    H141722   2.908   2.690   0.391  2.6007  0.9452  0.6068
 6721TIP3    H241723   2.852   2.653   0.527 -1.2286  0.2104 -1.0352
 6722TIP3   OH241724   6.755   2.392   0.293 -0.2790 -0.3616 -0.3994
 6722TIP3    H141725   6.660   2.396   0.301 -0.1697 -0.9546  1.9448
 6722TIP3    H241726   6.770   2.342   0.213 -1.9667 -1.3814 -0.1401
 6723TIP3   OH241727   0.624   2.694   0.893  0.4038  0.8970  0.0336
 6723TIP3    H141728   0.655   2.609   0.925 -2.0032  0.5883  1.9217
 6723TIP3    H241729   0.674   2.758   0.943  1.0276  0.5618 -0.1488
 6724TIP3   OH241730   4.404   5.570   0.648  0.2013 -0.0434  0.2291
 6724TIP3    H141731   4.397   5.630   0.722 -0.2899 -0.4750  0.5373
 6724TIP3    H241732   4.314   5.541   0.632  0.3665 -0.3019 -0.2460
 6725TIP3   OH241733   2.237   0.569   7.664 -0.1481  0.1825 -0.2849
 6725TIP3    H141734   2.246   0.511   7.739  0.5274  1.3541  0.5683
 6725TIP3    H241735   2.326   0.584   7.633 -0.5329 -2.2716 -2.9529
 6726TIP3   OH241736   4.685   4.349   1.238 -0.2723  0.3629 -0.0763
 6726TIP3    H141737   4.634   4.297   1.299 -0.6767  0.3259 -0.4444
 6726TIP3    H241738   4.741   4.403   1.294 -1.1972  0.9070  0.3512
 6727TIP3   OH241739   4.655   2.162   8.008 -0.6510  0.2602  0.0935
 6727TIP3    H141740   4.647   2.185   8.100 -0.9343 -1.3332  0.4979
 6727TIP3    H241741   4.597   2.087   7.996  1.6847 -1.5770 -0.6042
 6728TIP3   OH241742   4.820   0.398   7.939 -0.1870 -0.1017  0.8443
 6728TIP3    H141743   4.856   0.348   8.012  0.8085  0.0407  0.4674
 6728TIP3    H241744   4.798   0.333   7.873  1.4606 -0.0510  0.2028
 6729TIP3   OH241745   0.287   6.451   8.256  0.0188 -0.0972 -0.1158
 6729TIP3    H141746   0.312   6.394   8.330 -3.1947 -1.4561  0.0833
 6729TIP3    H241747   0.346   6.425   8.186  1.9658 -0.0497  1.4089
 6730TIP3   OH241748   5.067   5.081   2.539 -0.5863  0.1897 -0.1500
 6730TIP3    H141749   5.141   5.124   2.497 -1.8294  1.5163 -1.1092
 6730TIP3    H241750   4.995   5.144   2.529 -1.4056 -0.2450  2.3429
 6731TIP3   OH241751   3.211   2.455   0.038 -0.5205 -0.2822 -0.4231
 6731TIP3    H141752   3.253   2.522  -0.015 -0.9196 -1.7454 -2.7796
 6731TIP3    H241753   3.129   2.495   0.067  0.1331  0.8705 -0.1310
 6732TIP3   OH241754   1.329   4.668   8.763  0.6840 -0.1709  0.7140
 6732TIP3    H141755   1.346   4.646   8.671 -0.3180  1.4049  0.1209
 6732TIP3    H241756   1.385   4.743   8.781  1.4018 -0.9000  1.6354
 6733TIP3   OH241757   4.254   4.048   0.402  0.2703 -0.1167 -1.0747
 6733TIP3    H141758   4.342   4.068   0.434 -0.0923  0.5433 -0.4537
 6733TIP3    H241759   4.249   3.953   0.403  0.9599 -0.1542 -1.0601
 6734TIP3   OH241760   6.553   2.919   2.769  0.0319 -0.0768 -0.3975
 6734TIP3    H141761   6.559   3.014   2.775 -0.5586 -0.0793  0.4389
 6734TIP3    H241762   6.639   2.888   2.798  0.3580  0.2059 -1.0492
 6735TIP3   OH241763   5.213   4.467   2.162  0.0771 -0.3013  0.3530
 6735TIP3    H141764   5.302   4.498   2.175 -0.4476  1.2976  0.3216
 6735TIP3    H241765   5.223   4.385   2.113  1.5238 -0.2939  0.5993
 6736TIP3   OH241766   4.393   6.553   8.333  0.0123 -0.0421 -0.6135
 6736TIP3    H141767   4.400   6.578   8.241 -0.9516  1.7279 -0.2567
 6736TIP3    H241768   4.426   6.629   8.382  0.2495 -0.8408  0.5165
 6737TIP3   OH241769   4.993   3.114   8.486  0.6268 -0.1260 -0.3428
 6737TIP3    H141770   4.970   3.172   8.413 -1.6092 -0.3829  0.0839
 6737TIP3    H241771   4.918   3.055   8.495  0.2707  0.5971  2.8297
 6738TIP3   OH241772   3.822   4.101   0.890  0.0610 -0.0343  0.0927
 6738TIP3    H141773   3.807   4.013   0.855 -0.2810  0.2666 -0.5498
 6738TIP3    H241774   3.826   4.090   0.985 -0.4304 -0.6800  0.0443
 6739TIP3   OH241775   1.800   5.748   0.011 -0.7441 -0.3981  0.0013
 6739TIP3    H141776   1.876   5.753   0.068 -0.3106 -0.3149 -0.5718
 6739TIP3    H241777   1.812   5.820  -0.051 -1.0183 -0.7028 -0.4090
 6740TIP3   OH241778   4.990   0.985   0.134  0.2817 -0.0165  0.3713
 6740TIP3    H141779   5.053   1.055   0.115  1.7841 -1.3726  0.1277
 6740TIP3    H241780   4.993   0.929   0.056 -0.5379 -0.6097  0.7535
 6741TIP3   OH241781   1.705   3.614   0.916  0.3369 -0.0929  0.6907
 6741TIP3    H141782   1.674   3.533   0.955 -0.0948  0.0700  0.6880
 6741TIP3    H241783   1.771   3.586   0.852 -0.0978 -0.4718  0.4005
 6742TIP3   OH241784   3.360   0.730   8.618 -0.6138 -0.2055 -0.7605
 6742TIP3    H141785   3.320   0.645   8.636  0.0412 -0.3381  0.1284
 6742TIP3    H241786   3.442   0.729   8.667 -1.1956  1.4396  0.3405
 6743TIP3   OH241787   5.780   4.392   8.732  0.2022 -0.0853  0.0322
 6743TIP3    H141788   5.812   4.474   8.771  0.6416 -0.8216  1.2582
 6743TIP3    H241789   5.763   4.335   8.807  0.6673 -1.4120 -0.8461
 6744TIP3   OH241790   6.316   3.927   2.546 -0.3093  0.1369 -0.1592
 6744TIP3    H141791   6.315   4.022   2.539 -2.7106  0.2528  0.8077
 6744TIP3    H241792   6.267   3.908   2.625 -0.4889 -1.9473 -0.7035
 6745TIP3   OH241793   2.802   5.420   2.136 -0.6068  0.0318  0.1165
 6745TIP3    H141794   2.896   5.411   2.148 -0.7977 -0.5066  1.3376
 6745TIP3    H241795   2.769   5.449   2.221 -1.7658 -1.6849  0.3047
 6746TIP3   OH241796   2.354   3.035   1.417 -0.0024  0.4518 -0.2500
 6746TIP3    H141797   2.292   3.073   1.480  0.5856  0.0389  0.5996
 6746TIP3    H241798   2.302   3.021   1.338 -1.8706 -2.5724  1.3056
 6747TIP3   OH241799   0.015   4.219   3.415 -0.0895  0.0996 -0.1670
 6747TIP3    H141800  -0.012   4.140   3.368  0.6750 -0.8819  0.9719
 6747TIP3    H241801  -0.012   4.203   3.506  1.4430  0.4449  0.3832
 6748TIP3   OH241802   3.602   5.613   8.094  0.7251 -0.0542  0.6558
 6748TIP3    H141803   3.681   5.667   8.084  0.2254  0.4057 -1.1472
 6748TIP3    H241804   3.530   5.674   8.078  0.1539 -1.3249 -2.3996
 6749TIP3   OH241805   5.408   6.550   7.857  0.0259  0.3095  0.2713
 6749TIP3    H141806   5.393   6.455   7.865  2.2166 -0.0637  0.7155
 6749TIP3    H241807   5.352   6.588   7.924  0.9984 -0.9362  1.8915
 6750TIP3   OH241808   0.807   4.767   7.745 -0.6876 -0.1082  0.0678
 6750TIP3    H141809   0.808   4.807   7.658 -0.1085 -1.1595 -0.4297
 6750TIP3    H241810   0.716   4.778   7.775 -0.6802  1.0589 -0.2733
 6751TIP3   OH241811   0.542   3.507   0.103 -0.0824 -0.1816 -0.0729
 6751TIP3    H141812   0.503   3.590   0.077 -1.0863 -0.8180 -0.6961
 6751TIP3    H241813   0.631   3.528   0.129 -0.1233  0.9814 -0.8499
 6752TIP3   OH241814   0.670   6.748   7.551 -0.1073  0.2838 -0.0994
 6752TIP3    H141815   0.698   6.697   7.475  0.4706  0.3121  0.0841
 6752TIP3    H241816   0.744   6.741   7.612  0.2450  1.8201 -0.3103
 6753TIP3   OH241817   3.505   2.779   1.828  0.2528 -0.1180 -0.1729
 6753TIP3    H141818   3.510   2.731   1.911 -0.4134 -0.8827 -0.5590
 6753TIP3    H241819   3.415   2.765   1.797  0.0177  1.4405 -0.2819
 6754TIP3   OH241820   1.932   1.805   0.910  0.0535  0.0630 -0.2033
 6754TIP3    H141821   1.966   1.870   0.848  0.4853  0.6013  0.5772
 6754TIP3    H241822   1.988   1.814   0.986 -0.3211 -0.7631  0.1753
 6755TIP3   OH241823   1.847   6.322   8.374 -0.0309  0.0144 -0.0995
 6755TIP3    H141824   1.817   6.396   8.427 -1.9090  0.2926 -1.4729
 6755TIP3    H241825   1.897   6.362   8.303  0.9476 -0.2416  0.4175
 6756TIP3   OH241826   4.430   6.490   3.435 -0.0742 -0.4956 -0.5431
 6756TIP3    H141827   4.418   6.580   3.464  2.0160 -0.7447  1.3932
 6756TIP3    H241828   4.373   6.481   3.358 -3.1149  1.3820  1.2694
 6757TIP3   OH241829   6.657   0.948   0.734 -0.0221  0.1525  0.6596
 6757TIP3    H141830   6.676   0.877   0.795 -1.6438  0.1521  1.2062
 6757TIP3    H241831   6.664   0.908   0.647 -0.1151 -0.4653  0.9312
 6758TIP3   OH241832   0.557   6.337   1.911 -0.9287 -0.1686  0.0603
 6758TIP3    H141833   0.586   6.393   1.839 -0.0662 -0.3507  0.2514
 6758TIP3    H241834   0.562   6.248   1.875 -1.1434 -0.2140  0.1393
 6759TIP3   OH241835   0.766   2.877   1.018  0.1430 -0.5388  0.1480
 6759TIP3    H141836   0.849   2.871   1.066 -0.3748 -1.3188  0.9861
 6759TIP3    H241837   0.734   2.965   1.036  0.6985 -0.3022 -0.0141
 6760TIP3   OH241838   0.073   6.441   0.749  0.3718  0.0972 -0.0605
 6760TIP3    H141839   0.027   6.431   0.666  0.7243 -1.2287 -0.1121
 6760TIP3    H241840   0.021   6.391   0.812  0.4522  0.5644  0.3886
 6761TIP3   OH241841   4.243   0.625   7.433 -0.1154 -0.4103 -0.4146
 6761TIP3    H141842   4.313   0.617   7.368  1.1212 -0.9571  0.9286
 6761TIP3    H241843   4.269   0.567   7.504  0.2646  2.4805  2.0095
 6762TIP3   OH241844   4.748   3.710   1.432  0.1306  0.3163 -0.3413
 6762TIP3    H141845   4.688   3.768   1.480 -0.5719 -0.4029 -0.3184
 6762TIP3    H241846   4.731   3.730   1.340 -2.1879 -1.7523 -0.4746
 6763TIP3   OH241847   2.857   3.248   1.143  0.1803 -0.4807  0.0091
 6763TIP3    H141848   2.790   3.204   1.090 -1.9143  1.4047  0.9278
 6763TIP3    H241849   2.869   3.333   1.100 -0.4418  0.4739  1.6094
 6764TIP3   OH241850   4.040   4.929   1.477  0.7143 -0.4919  0.0441
 6764TIP3    H141851   4.057   5.020   1.452  1.2081 -0.4730  0.4204
 6764TIP3    H241852   4.047   4.880   1.395 -0.0669 -0.1267 -0.2436
 6765TIP3   OH241853   5.313   5.807   3.294  0.3405 -0.2117  0.9102
 6765TIP3    H141854   5.305   5.895   3.332  0.3867 -0.2112  0.9186
 6765TIP3    H241855   5.387   5.767   3.340  1.7330  0.5230 -0.6085
 6766TIP3   OH241856   5.819   5.079   1.989  0.1720 -0.1494  0.1509
 6766TIP3    H141857   5.896   5.112   1.942 -1.0273  1.7820 -0.6138
 6766TIP3    H241858   5.782   5.012   1.932  0.0673  0.5040 -0.5707
 6767TIP3   OH241859   1.658   5.149   0.136 -0.4625  0.0547 -0.4808
 6767TIP3    H141860   1.718   5.075   0.147  1.3952  1.7389  1.9123
 6767TIP3    H241861   1.642   5.179   0.226 -1.4012  2.3703 -1.3642
 6768TIP3   OH241862   2.083   5.001   2.402  0.4112 -0.3631 -0.1842
 6768TIP3    H141863   2.109   4.936   2.337  1.1891 -1.0420  0.7661
 6768TIP3    H241864   2.131   5.080   2.378  0.9074 -0.6912 -0.2932
 6769TIP3   OH241865   3.086   2.673   8.230 -0.0968  0.1953 -0.3357
 6769TIP3    H141866   3.180   2.684   8.242 -0.0252 -1.7180  1.4062
 6769TIP3    H241867   3.077   2.596   8.175 -0.6310 -0.6495  0.8963
 6770TIP3   OH241868   2.783   2.632   2.477  0.0068  0.0868  0.2602
 6770TIP3    H141869   2.798   2.726   2.480  0.9153 -0.0193 -0.2646
 6770TIP3    H241870   2.690   2.621   2.494  0.0950  1.0012  1.4026
 6771TIP3   OH241871   6.112   6.120   1.623 -0.0232  0.0111  1.2670
 6771TIP3    H141872   6.084   6.079   1.705  1.0786 -1.3356  1.0054
 6771TIP3    H241873   6.205   6.138   1.636 -0.1299  0.9517  0.7662
 6772TIP3   OH241874   5.280   3.361   1.252  0.2061  0.3535  0.8684
 6772TIP3    H141875   5.302   3.426   1.186  0.2168 -0.1607  0.3594
 6772TIP3    H241876   5.196   3.391   1.288  0.3559  0.8034  0.8525
 6773TIP3   OH241877   1.832   2.354   2.862 -0.8295 -0.7421  0.2620
 6773TIP3    H141878   1.865   2.273   2.899 -0.7833 -0.1396  1.5883
 6773TIP3    H241879   1.910   2.408   2.846 -0.9489 -0.4985  0.5006
 6774TIP3   OH241880   4.107   1.351   7.869  0.4062  0.5200 -0.2828
 6774TIP3    H141881   4.143   1.440   7.866  3.3876 -0.5715 -0.3547
 6774TIP3    H241882   4.082   1.339   7.961 -0.3168  1.4907 -0.3314
 6775TIP3   OH241883   3.023   6.790   2.652  0.1553 -0.2805 -0.1608
 6775TIP3    H141884   2.976   6.825   2.728  1.2122  1.7727 -0.3842
 6775TIP3    H241885   3.103   6.753   2.689  1.2525  1.8022 -0.3079
 6776TIP3   OH241886   6.706   5.343   0.377  0.0280  0.4029  0.5181
 6776TIP3    H141887   6.651   5.302   0.310 -1.4386  1.4025  1.0666
 6776TIP3    H241888   6.796   5.325   0.348 -0.5574  0.1788 -1.3073
 6777TIP3   OH241889   5.614   4.070   1.891  0.2171  0.1843 -0.6597
 6777TIP3    H141890   5.698   4.115   1.898 -0.3923  1.2373  0.3200
 6777TIP3    H241891   5.554   4.137   1.858 -0.4562 -0.2387 -0.3238
 6778TIP3   OH241892   5.844   1.279   1.634  0.3105  0.2486  0.0539
 6778TIP3    H141893   5.760   1.309   1.669  1.3520  3.8364 -0.1262
 6778TIP3    H241894   5.820   1.228   1.556 -1.7221  1.4207 -0.1558
 6779TIP3   OH241895   2.079   2.414   2.298  0.2530 -0.2806  0.4961
 6779TIP3    H141896   2.166   2.382   2.323  0.2463 -2.9163 -2.2026
 6779TIP3    H241897   2.090   2.445   2.208 -1.6392 -1.0890 -0.0630
 6780TIP3   OH241898   2.967   5.023   0.944 -0.0367  0.1136 -0.1474
 6780TIP3    H141899   2.898   5.044   1.006 -1.6540 -0.5709 -1.6245
 6780TIP3    H241900   2.992   5.107   0.906 -0.4080  0.3153  0.0531
 6781TIP3   OH241901   2.799   1.615   7.859 -0.6130  0.1145  0.1436
 6781TIP3    H141902   2.892   1.614   7.838  0.3417  0.1130  3.7273
 6781TIP3    H241903   2.761   1.546   7.804  1.3812  0.2884 -1.5971
 6782TIP3   OH241904   2.975   0.749   3.205  0.3369 -0.5053 -0.1672
 6782TIP3    H141905   2.992   0.671   3.258  3.5711  0.0598 -0.1676
 6782TIP3    H241906   3.053   0.804   3.217 -1.0335  1.9435 -1.5762
 6783TIP3   OH241907   2.973   0.355   1.453 -0.7378  0.4510 -0.1369
 6783TIP3    H141908   2.929   0.274   1.429  0.8813 -0.5553  0.1966
 6783TIP3    H241909   3.013   0.337   1.538  0.2315  1.3710 -0.3814
 6784TIP3   OH241910   1.311   0.962   0.590 -0.6120  0.2326  0.0399
 6784TIP3    H141911   1.218   0.985   0.592 -1.0356 -1.3397  0.0730
 6784TIP3    H241912   1.356   1.039   0.625 -1.9778  0.6903  0.8720
 6785TIP3   OH241913   2.568   2.086   2.587  0.2422  0.3755 -0.5453
 6785TIP3    H141914   2.520   2.017   2.542 -0.2035 -0.6116  1.3349
 6785TIP3    H241915   2.538   2.167   2.545 -0.5532 -0.4432 -1.6154
 6786TIP3   OH241916   0.490   5.559   1.484 -0.0358  0.8151 -0.3376
 6786TIP3    H141917   0.551   5.626   1.512  0.1171  0.8687 -0.7945
 6786TIP3    H241918   0.544   5.493   1.441 -0.1490  0.2650  0.3350
 6787TIP3   OH241919   0.813   1.978   1.022 -0.5547  0.1895 -0.7206
 6787TIP3    H141920   0.831   1.972   1.116 -5.6400 -1.0003  0.5095
 6787TIP3    H241921   0.808   1.887   0.992  0.9900  0.5533 -2.2362
 6788TIP3   OH241922   5.872   2.342   0.713  0.4604 -0.1275 -0.1222
 6788TIP3    H141923   5.785   2.381   0.720 -0.0250 -1.4719  2.7835
 6788TIP3    H241924   5.931   2.412   0.742  0.2969  0.5237 -1.3144
 6789TIP3   OH241925   3.455   3.261   0.703  0.2480  0.2305 -0.8038
 6789TIP3    H141926   3.533   3.213   0.730 -0.2848 -0.7750 -0.9995
 6789TIP3    H241927   3.409   3.280   0.784  0.6459  0.7621 -0.6942
 6790TIP3   OH241928   1.484   5.608   1.122  0.3776  0.0103  0.2704
 6790TIP3    H141929   1.408   5.574   1.075 -0.2207  1.0223  0.4794
 6790TIP3    H241930   1.447   5.659   1.194  1.2123  1.9000 -0.5787
 6791TIP3   OH241931   5.764   6.064   2.099  0.3370 -0.1209  0.0420
 6791TIP3    H141932   5.814   6.037   2.022 -0.1063  0.4818 -0.4637
 6791TIP3    H241933   5.828   6.112   2.152  0.6147 -0.4422  0.0089
 6792TIP3   OH241934   2.229   4.687   7.767  0.4199  0.2696 -0.6715
 6792TIP3    H141935   2.178   4.743   7.708 -0.5596  0.0459 -0.0672
 6792TIP3    H241936   2.242   4.606   7.717 -1.3576 -0.3395 -0.2182
 6793TIP3   OH241937   5.271   6.661   0.981 -0.2665  0.2006  0.1281
 6793TIP3    H141938   5.352   6.632   0.937 -1.2293 -1.6035 -0.5852
 6793TIP3    H241939   5.299   6.689   1.068  0.9163 -2.5771  0.7510
 6794TIP3   OH241940   3.190   3.840   8.097 -0.3373 -0.7023  0.3680
 6794TIP3    H141941   3.094   3.836   8.100 -0.3382 -0.3269  1.1717
 6794TIP3    H241942   3.211   3.931   8.120  0.1284  0.0741 -2.6867
 6795TIP3   OH241943   1.577   6.522   0.672 -0.6330 -0.3446  0.0207
 6795TIP3    H141944   1.575   6.438   0.626  0.7081 -0.2348 -0.2975
 6795TIP3    H241945   1.560   6.500   0.763 -0.9301 -0.8719 -0.1558
 6796TIP3   OH241946   5.376   0.558   0.729  0.1505  0.4351 -0.2237
 6796TIP3    H141947   5.330   0.612   0.665  0.2591  1.9850  0.9481
 6796TIP3    H241948   5.323   0.479   0.736 -1.5967  1.5872  0.0812
 6797TIP3   OH241949   5.493   1.308   0.485 -0.3029 -0.2421 -0.6843
 6797TIP3    H141950   5.581   1.294   0.521 -1.3147 -0.8933  1.7116
 6797TIP3    H241951   5.454   1.221   0.483 -1.7401  0.3145  0.7495
 6798TIP3   OH241952   2.393   1.177   1.184  0.3668  0.5565 -0.0055
 6798TIP3    H141953   2.342   1.236   1.238 -0.8434 -0.4305 -0.0200
 6798TIP3    H241954   2.350   1.092   1.193 -0.1238  0.3911 -2.7721
 6799TIP3   OH241955   0.497   5.024   0.566  0.2895 -0.5282  0.0558
 6799TIP3    H141956   0.468   4.932   0.568  0.1223 -0.4718  0.3800
 6799TIP3    H241957   0.431   5.068   0.513  0.0141 -0.4782  0.4384
 6800TIP3   OH241958   5.205   1.089   8.359  0.1287  0.2292  0.6383
 6800TIP3    H141959   5.298   1.067   8.360  0.1177  0.1864  0.9148
 6800TIP3    H241960   5.186   1.110   8.268 -0.0886 -1.7991  0.1884
 6801TIP3   OH241961   0.166   4.771   2.551  0.0075 -0.3093  0.1175
 6801TIP3    H141962   0.108   4.703   2.516  1.0101 -0.8467 -0.5511
 6801TIP3    H241963   0.246   4.725   2.576 -0.4184  0.1676  2.6042
 6802TIP3   OH241964   1.773   0.977   0.737  0.2761  0.0979  0.3287
 6802TIP3    H141965   1.862   0.999   0.711 -0.2550 -0.5475 -2.4055
 6802TIP3    H241966   1.724   1.059   0.725 -0.0145 -0.2573 -1.0980
 6803TIP3   OH241967   4.081   1.687   8.116  0.8397  0.4809  0.0622
 6803TIP3    H141968   4.148   1.656   8.176  1.1038  1.9075  0.5651
 6803TIP3    H241969   4.007   1.627   8.128  1.2468  0.1730  1.0992
 6804TIP3   OH241970   3.687   5.405   8.692 -0.3705  0.4920  0.1091
 6804TIP3    H141971   3.665   5.352   8.615 -0.7945  0.0366  0.5409
 6804TIP3    H241972   3.667   5.495   8.666 -0.1856  0.3820 -0.4295
 6805TIP3   OH241973   2.593   1.111   2.195  0.0311  0.4210 -0.1815
 6805TIP3    H141974   2.640   1.078   2.271 -0.2201  1.1375  0.2904
 6805TIP3    H241975   2.509   1.066   2.197 -0.3672  1.1811  0.5427
 6806TIP3   OH241976   6.253   3.682   3.041 -0.2771  0.6889 -0.7804
 6806TIP3    H141977   6.159   3.679   3.024 -0.8786 -0.5008  2.1982
 6806TIP3    H241978   6.277   3.591   3.061  1.1156  1.2352  0.2339
 6807TIP3   OH241979   0.061   4.200   7.915 -0.3457 -0.0984 -0.2310
 6807TIP3    H141980   0.062   4.291   7.944 -0.7588 -0.7519  2.1075
 6807TIP3    H241981   0.152   4.180   7.895 -0.1119  0.6096  0.0781
 6808TIP3   OH241982   0.528   6.291   2.756 -0.1718  0.0264  0.7197
 6808TIP3    H141983   0.562   6.378   2.779 -3.2203  1.5123  0.0631
 6808TIP3    H241984   0.530   6.242   2.838  0.3229  1.1615  1.4153
 6809TIP3   OH241985   1.570   0.978   2.505  0.0764 -0.3856 -0.6359
 6809TIP3    H141986   1.620   1.008   2.581 -1.6493  0.2610  0.2887
 6809TIP3    H241987   1.479   0.997   2.527 -0.6840 -2.2487 -1.9306
 6810TIP3   OH241988   5.906   5.606   2.200  0.0662 -0.8684  0.0875
 6810TIP3    H141989   5.816   5.639   2.196 -0.4644 -2.2504  0.2034
 6810TIP3    H241990   5.900   5.525   2.250  1.5147 -0.5840  0.7690
 6811TIP3   OH241991   2.349   2.434   2.923 -0.0916  1.0280 -0.4246
 6811TIP3    H141992   2.350   2.418   3.017  1.4223  3.0701 -0.0056
 6811TIP3    H241993   2.277   2.495   2.909 -0.5021  0.4940 -0.6308
 6812TIP3   OH241994   0.683   6.327   0.462 -0.2412  0.0668 -0.4212
 6812TIP3    H141995   0.778   6.315   0.473 -0.0613  2.3673  1.2561
 6812TIP3    H241996   0.652   6.242   0.432  2.4098 -0.6265 -1.5189
 6813TIP3   OH241997   1.126   4.898   8.071 -0.2961 -0.2026  0.2100
 6813TIP3    H141998   1.160   4.811   8.050 -2.4010 -1.1332  0.3506
 6813TIP3    H241999   1.170   4.922   8.153  0.4705 -1.0163  0.0502
 6814TIP3   OH242000   0.545   4.817   3.004  0.2070 -0.1811  0.2848
 6814TIP3    H142001   0.540   4.901   2.960  1.4191 -0.9608 -1.4460
 6814TIP3    H242002   0.582   4.837   3.091 -1.6798  1.3036  0.8007
 6815TIP3   OH242003   3.954   1.898   1.557 -0.7461 -0.2033  0.1460
 6815TIP3    H142004   3.872   1.896   1.507 -0.1111 -0.7560 -0.9032
 6815TIP3    H242005   4.020   1.926   1.494 -0.0111 -0.3805  0.8172
 6816TIP3   OH242006   4.364   2.140   0.466 -0.2272  0.1462 -0.2676
 6816TIP3    H142007   4.338   2.105   0.552  2.4008 -0.3188  0.4095
 6816TIP3    H242008   4.418   2.216   0.486 -1.0337  1.1113 -1.6082
 6817TIP3   OH242009   0.706   2.360   8.332  0.3997  0.0904  0.1338
 6817TIP3    H142010   0.787   2.391   8.291 -0.2221  1.3866 -0.1836
 6817TIP3    H242011   0.692   2.421   8.405 -0.5831  0.2488 -0.1736
 6818TIP3   OH242012   3.247   5.853   7.340  0.1452 -0.1898 -0.3011
 6818TIP3    H142013   3.311   5.837   7.410  1.8945  1.2810 -1.4574
 6818TIP3    H242014   3.287   5.923   7.287 -2.3445  0.6175 -1.2382
 6819TIP3   OH242015   3.919   5.971   7.758  0.1204 -0.5348 -0.1751
 6819TIP3    H142016   3.904   5.931   7.673  2.2878 -0.3313 -0.7322
 6819TIP3    H242017   4.014   5.964   7.771  0.3572  2.5035  0.6377
 6820TIP3   OH242018   0.280   1.775   1.748 -0.0660 -0.4582  0.2180
 6820TIP3    H142019   0.251   1.685   1.737 -0.0446 -0.6559  1.6096
 6820TIP3    H242020   0.375   1.770   1.742 -0.0054 -0.6890  1.2585
 6821TIP3   OH242021   6.141   6.000   8.286 -0.2431 -0.0635 -0.7087
 6821TIP3    H142022   6.230   5.988   8.255 -0.5530  1.3083 -2.2606
 6821TIP3    H242023   6.112   6.082   8.246 -2.2049 -0.4726 -0.2444
 6822TIP3   OH242024   1.184   1.165   7.992  0.3563  0.2658  0.1591
 6822TIP3    H142025   1.212   1.224   8.061  2.0575  0.0903 -0.3356
 6822TIP3    H242026   1.109   1.208   7.951 -1.7901 -0.3918  3.1227
 6823TIP3   OH242027   2.089   5.824   7.731 -0.3599 -0.5966 -0.3020
 6823TIP3    H142028   2.031   5.869   7.669 -0.8912  0.6366  1.0352
 6823TIP3    H242029   2.090   5.880   7.808  1.2293 -1.5019  0.3853
 6824TIP3   OH242030   5.723   5.205   8.669  0.2507 -0.9060 -0.2153
 6824TIP3    H142031   5.750   5.290   8.703  0.6816 -1.5446  1.1289
 6824TIP3    H242032   5.650   5.179   8.725 -0.5865 -0.9665 -1.2947
 6825TIP3   OH242033   2.117   0.506   0.760 -0.3666 -0.4597 -0.2427
 6825TIP3    H142034   2.152   0.568   0.697  0.8661 -0.4131  0.4588
 6825TIP3    H242035   2.022   0.512   0.750 -0.3490  2.2950  0.4922
 6826TIP3   OH242036   1.526   0.487   2.743  0.0719 -0.0731  0.4709
 6826TIP3    H142037   1.489   0.548   2.806  1.0422  0.6133  0.3936
 6826TIP3    H242038   1.529   0.536   2.661  1.5098  0.0395  0.5648
 6827TIP3   OH242039   6.494   4.539   0.494 -0.2197 -0.3452 -0.1963
 6827TIP3    H142040   6.525   4.535   0.585 -0.4860 -1.6223 -0.1483
 6827TIP3    H242041   6.484   4.633   0.477  0.0491 -0.0735  1.0194
 6828TIP3   OH242042   6.492   0.192   2.651  0.5539 -0.3405  0.3253
 6828TIP3    H142043   6.567   0.137   2.629  0.9799  0.1526  0.5173
 6828TIP3    H242044   6.496   0.264   2.588  0.2627 -0.2964  0.3570
 6829TIP3   OH242045   0.889   1.466   1.011 -0.0310  0.2411 -0.3209
 6829TIP3    H142046   0.934   1.520   1.077  1.7723  0.6286 -1.7659
 6829TIP3    H242047   0.941   1.386   1.007  0.3256  0.5184 -1.7323
 6830TIP3   OH242048   5.134   3.296   1.596  0.6659  0.1106 -0.1336
 6830TIP3    H142049   5.071   3.320   1.665  0.7911  1.4611 -0.4546
 6830TIP3    H242050   5.216   3.338   1.623  1.1994 -0.8810 -0.1829
 6831TIP3   OH242051   0.777   0.148   1.084  0.3383 -0.7013 -0.1445
 6831TIP3    H142052   0.733   0.072   1.046 -1.9582  0.0344  0.8628
 6831TIP3    H242053   0.834   0.180   1.014 -1.5905 -1.0625 -1.9648
 6832TIP3   OH242054   1.428   1.450   0.226  0.1105  0.2659  0.7099
 6832TIP3    H142055   1.336   1.466   0.248 -0.5612 -0.0833 -1.6097
 6832TIP3    H242056   1.468   1.537   0.225  0.1680  0.3303  2.9302
 6833TIP3   OH242057   2.290   0.809   8.201  0.1102  0.3524  0.0456
 6833TIP3    H142058   2.314   0.772   8.116  3.6759 -0.1209  1.0907
 6833TIP3    H242059   2.324   0.899   8.197 -2.1053  1.2467  0.0912
 6834TIP3   OH242060   3.429   2.187   1.108  0.1003 -0.5165 -0.0309
 6834TIP3    H142061   3.436   2.177   1.203 -0.1764 -2.3298 -0.1651
 6834TIP3    H242062   3.397   2.103   1.077  0.8813 -0.2085 -1.8233
 6835TIP3   OH242063   1.268   2.702   0.921 -0.3212 -0.1057  0.2773
 6835TIP3    H142064   1.357   2.670   0.907 -0.5349 -0.6586  0.1621
 6835TIP3    H242065   1.280   2.791   0.955  0.2144  0.9737 -2.5125
 6836TIP3   OH242066   6.180   1.391   2.868 -0.8055  0.1227  0.3200
 6836TIP3    H142067   6.149   1.306   2.839 -1.4840  1.2703 -2.7013
 6836TIP3    H242068   6.166   1.391   2.963 -1.4832 -2.7837  0.3121
 6837TIP3   OH242069   6.632   4.195   1.297  0.7675 -0.2752  0.3786
 6837TIP3    H142070   6.584   4.189   1.379  0.7427  1.6883  0.5668
 6837TIP3    H242071   6.668   4.107   1.283  2.0152 -0.3486  3.2608
 6838TIP3   OH242072   6.384   2.124   1.381  0.1006 -0.5428 -0.0937
 6838TIP3    H142073   6.319   2.079   1.326 -0.6182  0.7316 -0.3100
 6838TIP3    H242074   6.390   2.070   1.460 -2.4192  0.1402  0.6341
 6839TIP3   OH242075   3.775   2.917   8.194 -0.3314  0.5152 -0.0021
 6839TIP3    H142076   3.742   2.939   8.281  1.4239  0.7678  0.6619
 6839TIP3    H242077   3.698   2.914   8.138 -1.3791  1.5420  1.3196
 6840TIP3   OH242078   4.435   2.878   2.525 -0.7876  0.2752 -0.6430
 6840TIP3    H142079   4.435   2.783   2.539 -0.7415  0.5765  1.8066
 6840TIP3    H242080   4.345   2.905   2.544 -0.0338  1.0911  2.3606
 6841TIP3   OH242081   2.548   3.608   1.827  0.3233  0.3841  0.0288
 6841TIP3    H142082   2.558   3.692   1.782  1.0230 -0.1105 -0.7894
 6841TIP3    H242083   2.595   3.546   1.771 -1.2189 -0.7838 -0.0347
 6842TIP3   OH242084   6.185   0.377   2.385 -0.0722 -0.2300  0.2337
 6842TIP3    H142085   6.105   0.390   2.334 -0.6800 -0.1577  1.2016
 6842TIP3    H242086   6.194   0.281   2.391 -0.7413 -0.2414  1.1388
 6843TIP3   OH242087   3.270   5.595   8.084  0.1337 -0.3016 -0.2533
 6843TIP3    H142088   3.274   5.529   8.015 -1.2926 -0.1891 -0.4834
 6843TIP3    H242089   3.178   5.622   8.085  0.1252 -0.2705  1.6686
 6844TIP3   OH242090   1.351   5.996   2.423  0.1868  0.2506 -0.0635
 6844TIP3    H142091   1.374   5.904   2.433 -0.3213 -0.0364 -1.2736
 6844TIP3    H242092   1.318   6.002   2.333  2.0930  2.0050 -0.7374
 6845TIP3   OH242093   6.097   5.239   0.671  0.3025  0.4851  0.1395
 6845TIP3    H142094   6.092   5.290   0.589  1.9665  2.2077  1.0404
 6845TIP3    H242095   6.012   5.253   0.712  0.9383  3.2559  0.6943
 6846TIP3   OH242096   5.123   6.486   2.727 -0.1851 -0.4401 -0.4433
 6846TIP3    H142097   5.214   6.494   2.699 -0.2402  2.1123 -0.1128
 6846TIP3    H242098   5.116   6.396   2.760  2.3930 -0.5076  0.1552
 6847TIP3   OH242099   3.337   6.800   1.032 -0.5257 -0.0241 -0.7192
 6847TIP3    H142100   3.256   6.848   1.014 -0.2566  0.4809 -0.6203
 6847TIP3    H242101   3.309   6.725   1.084 -1.1951 -1.0388 -2.4627
 6848TIP3   OH242102   6.193   1.477   2.612  0.1541 -0.4797 -0.2064
 6848TIP3    H142103   6.214   1.437   2.696  3.0518 -0.7421 -0.9355
 6848TIP3    H242104   6.207   1.408   2.548  0.8204  0.4693 -1.1190
 6849TIP3   OH242105   3.923   0.723   2.566  0.2614  0.3161 -0.1408
 6849TIP3    H142106   3.868   0.730   2.644 -0.8980  0.2910 -0.9135
 6849TIP3    H242107   3.895   0.642   2.524  1.0102  0.2241 -0.4811
 6850TIP3   OH242108   4.991   5.383   2.059 -0.4501  0.3428 -0.2544
 6850TIP3    H142109   4.998   5.477   2.076  1.5607  0.4584 -1.3705
 6850TIP3    H242110   5.055   5.367   1.989 -0.0485 -2.0157  0.5608
 6851TIP3   OH242111   0.020   6.373   3.133 -0.0613  0.1812 -0.0599
 6851TIP3    H142112   0.107   6.370   3.171  0.0602 -1.2544 -0.3971
 6851TIP3    H242113  -0.007   6.465   3.141  1.7750  0.8143 -0.6226
 6852TIP3   OH242114   4.722   6.364   7.368 -0.0585  0.6172  0.0827
 6852TIP3    H142115   4.641   6.321   7.343 -0.2736  1.2901 -0.4076
 6852TIP3    H242116   4.698   6.456   7.380  0.5048  0.7153  0.5464
 6853TIP3   OH242117   4.037   2.865   7.727 -0.6195 -0.1947 -0.1910
 6853TIP3    H142118   3.968   2.853   7.793 -1.7066  1.0722 -1.0341
 6853TIP3    H242119   4.092   2.934   7.764 -0.4209 -0.4503 -0.0035
 6854TIP3   OH242120   2.005   1.254   1.743 -0.1202  0.6866 -0.1831
 6854TIP3    H142121   1.971   1.173   1.781 -0.4465  0.1297 -1.6199
 6854TIP3    H242122   2.082   1.275   1.796  0.1620 -0.7454 -0.0029
 6855TIP3   OH242123   6.737   5.620   0.349 -0.5646  0.5292  0.1688
 6855TIP3    H142124   6.717   5.530   0.376 -0.6188  0.5664  0.2529
 6855TIP3    H242125   6.830   5.631   0.371 -0.6364  0.5958  0.4440
 6856TIP3   OH242126   1.203   0.281   2.945 -0.2712  0.0409  0.1314
 6856TIP3    H142127   1.237   0.209   2.892 -0.6529  0.9369 -1.3957
 6856TIP3    H242128   1.270   0.349   2.938 -0.6420  0.4190  0.2318
 6857TIP3   OH242129   5.740   3.683   7.898  0.4108  0.7064  0.0373
 6857TIP3    H142130   5.678   3.734   7.846 -0.6475 -0.4262  0.1240
 6857TIP3    H242131   5.691   3.604   7.923  1.8592 -0.1972  0.1854
 6858TIP3   OH242132   2.625   0.827   1.009  0.0655 -0.1172 -0.7665
 6858TIP3    H142133   2.543   0.784   1.031 -1.1243  1.8655 -1.0980
 6858TIP3    H242134   2.674   0.828   1.091 -1.0327  0.3167 -0.0969
 6859TIP3   OH242135   5.363   4.715   8.129  0.0311 -0.0399  0.2021
 6859TIP3    H142136   5.396   4.625   8.126 -0.5629 -0.2861  0.6548
 6859TIP3    H242137   5.413   4.762   8.063  1.6268 -0.2783  1.1913
 6860TIP3   OH242138   1.842   5.904   7.075  0.5370  0.0155 -0.6876
 6860TIP3    H142139   1.862   5.817   7.041  1.4394  0.6866 -1.9837
 6860TIP3    H242140   1.907   5.918   7.144 -1.8137 -1.6801  2.0939
 6861TIP3   OH242141   2.029   4.507   1.673 -0.3156 -0.2865  0.5105
 6861TIP3    H142142   2.046   4.420   1.637  0.5468 -1.0595  2.6544
 6861TIP3    H242143   1.990   4.556   1.600 -0.8417 -2.4525 -0.7399
 6862TIP3   OH242144   1.586   1.278   8.249  0.1573  0.5606 -0.0989
 6862TIP3    H142145   1.662   1.304   8.195  0.5532  1.2244  0.7545
 6862TIP3    H242146   1.609   1.306   8.337 -1.6824  2.0485 -0.0446
 6863TIP3   OH242147   4.073   2.509   1.147 -0.1586  0.2318 -0.0671
 6863TIP3    H142148   4.100   2.498   1.238 -1.7369 -0.0021  0.3963
 6863TIP3    H242149   4.081   2.603   1.131 -0.1083  0.3073  0.3848
 6864TIP3   OH242150   0.787   5.522   8.548 -0.5186 -0.1513  0.3349
 6864TIP3    H142151   0.697   5.535   8.519 -0.4105  0.5211  0.2769
 6864TIP3    H242152   0.790   5.560   8.636 -0.6323 -1.4212  0.9010
 6865TIP3   OH242153   2.537   4.669   8.063  0.6095 -0.6930  0.1458
 6865TIP3    H142154   2.517   4.743   8.006  2.0282 -0.5975 -0.2592
 6865TIP3    H242155   2.626   4.644   8.040  0.4669 -1.9755  0.8911
 6866TIP3   OH242156   4.596   2.933   1.194  0.0873  0.0056 -0.0645
 6866TIP3    H142157   4.510   2.944   1.155  0.0127 -0.3962 -0.0157
 6866TIP3    H242158   4.644   3.013   1.170 -1.2597  1.7311  2.4679
 6867TIP3   OH242159   0.894   6.116   7.470  0.2882 -0.1282  0.0543
 6867TIP3    H142160   0.894   6.200   7.516 -2.3164 -1.0074  1.8858
 6867TIP3    H242161   0.964   6.124   7.405  1.1336  2.8629  1.1808
 6868TIP3   OH242162   0.625   5.749   2.191  0.0797 -0.3613  0.0023
 6868TIP3    H142163   0.555   5.810   2.215  0.0316 -0.3617 -0.1392
 6868TIP3    H242164   0.605   5.669   2.240 -0.5299 -0.6776 -0.7520
 6869TIP3   OH242165   0.187   1.661   8.504 -0.5573  0.7074  0.4573
 6869TIP3    H142166   0.224   1.579   8.473  0.4813  0.0878  3.0561
 6869TIP3    H242167   0.230   1.728   8.452 -2.0697 -0.3438 -2.3176
 6870TIP3   OH242168   2.178   1.966   1.651  0.3403  0.0124 -0.0562
 6870TIP3    H142169   2.140   1.923   1.727 -0.8752  0.6949 -0.2498
 6870TIP3    H242170   2.122   2.042   1.636  1.0764  0.3736 -1.1075
 6871TIP3   OH242171   4.015   4.561   1.774 -0.7047 -0.3904 -0.2088
 6871TIP3    H142172   3.946   4.628   1.771 -1.9315 -1.5531  0.6187
 6871TIP3    H242173   4.074   4.590   1.844  0.8555  1.6608 -2.2423
 6872TIP3   OH242174   3.388   1.076   8.662  0.4019 -0.4488  0.0442
 6872TIP3    H142175   3.389   1.059   8.568 -0.2962  0.3820 -0.1319
 6872TIP3    H242176   3.477   1.058   8.692  1.2089  1.2567 -1.1552
 6873TIP3   OH242177   0.447   6.123   1.086  0.2428 -0.8768 -0.7342
 6873TIP3    H142178   0.514   6.169   1.035 -0.7913  0.9060 -0.5503
 6873TIP3    H242179   0.481   6.123   1.175  0.4315 -0.8774 -0.8039
 6874TIP3   OH242180   6.116   0.111   0.364  0.7788  0.0289 -0.0745
 6874TIP3    H142181   6.170   0.140   0.437  0.3907 -1.7425  0.9630
 6874TIP3    H242182   6.056   0.047   0.401  0.2501 -0.5796 -1.8547
 6875TIP3   OH242183   4.333   3.555   1.980  0.0206  0.3192  0.2710
 6875TIP3    H142184   4.338   3.598   2.065  1.3994  1.7664 -0.4735
 6875TIP3    H242185   4.277   3.613   1.927 -0.3534 -0.2580  0.0300
 6876TIP3   OH242186   3.279   3.167   7.658 -0.5127  0.0671 -0.3159
 6876TIP3    H142187   3.347   3.164   7.591  0.9026  0.7443  1.0366
 6876TIP3    H242188   3.307   3.236   7.718 -1.1015 -1.2952  1.6133
 6877TIP3   OH242189   5.839   3.118   2.748 -0.4806  0.0286 -0.1325
 6877TIP3    H142190   5.785   3.039   2.754 -0.3723  0.0345  1.0828
 6877TIP3    H242191   5.872   3.117   2.658  1.1561 -2.3909  0.3730
 6878TIP3   OH242192   0.288   2.138   0.655 -0.0889  0.3178  0.1500
 6878TIP3    H142193   0.220   2.071   0.656  0.7494 -0.5455  0.4673
 6878TIP3    H242194   0.278   2.183   0.739 -2.1355  2.1870 -0.9561
 6879TIP3   OH242195   5.007   2.808   0.926 -0.0171  0.1653  0.1974
 6879TIP3    H142196   4.921   2.833   0.893 -0.4234  0.1854  1.2265
 6879TIP3    H242197   5.056   2.782   0.848 -0.2595  2.1123 -0.6491
 6880TIP3   OH242198   1.272   0.390   8.276 -0.5135  0.3489  0.2263
 6880TIP3    H142199   1.331   0.318   8.297 -0.2131 -0.1127 -1.9615
 6880TIP3    H242200   1.204   0.350   8.221 -1.2539  1.4257  0.3174
 6881TIP3   OH242201   5.721   1.591   0.559  0.1674 -0.3258 -0.1049
 6881TIP3    H142202   5.741   1.504   0.527  0.5445 -1.3591  2.6575
 6881TIP3    H242203   5.651   1.579   0.622  0.4827  1.2943  0.6301
 6882TIP3   OH242204   6.664   0.451   1.005 -0.0328 -0.1276 -0.1986
 6882TIP3    H142205   6.605   0.406   0.943 -1.0570  0.6833  0.1564
 6882TIP3    H242206   6.752   0.424   0.979 -0.5779 -1.6759 -0.5103
 6883TIP3   OH242207   1.559   3.277   1.603 -0.2835  0.1275 -0.3491
 6883TIP3    H142208   1.485   3.221   1.579  0.3269 -0.7989 -0.1378
 6883TIP3    H242209   1.544   3.299   1.695 -0.7716  0.7150 -0.5642
 6884TIP3   OH242210   2.466   2.547   1.283 -0.3056  0.0444  0.2933
 6884TIP3    H142211   2.383   2.501   1.286 -1.9119  2.4920 -2.3966
 6884TIP3    H242212   2.466   2.602   1.362 -1.8255  0.8706 -0.2541
 6885TIP3   OH242213   0.187   4.225   1.684 -0.0603  0.1034  0.0851
 6885TIP3    H142214   0.201   4.272   1.767  1.7354 -1.0825  0.5058
 6885TIP3    H242215   0.267   4.242   1.634 -1.3817  1.3060 -1.7075
 6886TIP3   OH242216   0.114   0.250   1.906  0.1455  0.2429  0.1955
 6886TIP3    H142217   0.129   0.165   1.864  1.9720  0.6180 -0.0133
 6886TIP3    H242218   0.091   0.229   1.996  0.5953 -0.4836  0.1526
 6887TIP3   OH242219   1.707   0.256   2.226 -0.3221 -0.7108  0.4376
 6887TIP3    H142220   1.763   0.219   2.294 -0.5153 -1.1000  0.3878
 6887TIP3    H242221   1.617   0.239   2.256 -0.4442  1.1768  1.2170
 6888TIP3   OH242222   1.355   4.036   0.130 -0.5285  0.8092  0.1716
 6888TIP3    H142223   1.358   3.991   0.045 -0.8177 -1.0848  1.1024
 6888TIP3    H242224   1.263   4.057   0.143 -0.5204  0.8702  0.1311
 6889TIP3   OH242225   6.793   5.874   0.523 -0.0586  0.3097  0.1146
 6889TIP3    H142226   6.832   5.891   0.438  1.1717  1.2310  0.8241
 6889TIP3    H242227   6.774   5.780   0.523  0.5138  0.1824 -0.9258
 6890TIP3   OH242228   2.380   0.849   2.627  0.3719  0.2196 -0.5822
 6890TIP3    H142229   2.440   0.909   2.582  0.7273  0.3381  0.0353
 6890TIP3    H242230   2.400   0.861   2.720  0.5983 -1.0045 -0.4615
 6891TIP3   OH242231   4.148   3.527   0.817 -0.0306  0.0298 -0.5652
 6891TIP3    H142232   4.065   3.573   0.809 -1.0676 -1.9400 -2.2827
 6891TIP3    H242233   4.125   3.434   0.810  2.0041 -0.8149  2.1788
 6892TIP3   OH242234   3.365   0.797   8.341 -0.1920 -0.0212  0.0165
 6892TIP3    H142235   3.354   0.891   8.353 -0.0730  0.1712 -1.2864
 6892TIP3    H242236   3.383   0.764   8.429  0.8822  1.3228  0.3333
 6893TIP3   OH242237   3.042   2.371   1.908  0.2909 -0.8302 -0.3428
 6893TIP3    H142238   2.953   2.382   1.942 -0.1077 -1.3175 -1.1991
 6893TIP3    H242239   3.059   2.450   1.858  0.4591 -0.6011  0.0730
 6894TIP3   OH242240   3.797   3.639   0.208  0.3043 -0.2961  0.2105
 6894TIP3    H142241   3.716   3.684   0.231  0.1327 -1.4719  2.1527
 6894TIP3    H242242   3.773   3.580   0.136 -0.4030 -0.1752  0.3428
 6895TIP3   OH242243   0.255   3.908   0.054 -0.7815 -0.2268 -0.2969
 6895TIP3    H142244   0.210   3.873  -0.023 -1.7899  0.4442 -0.0363
 6895TIP3    H242245   0.257   3.834   0.115 -2.0011 -0.1454 -0.1249
 6896TIP3   OH242246   4.507   3.992   8.506  0.1636  0.1797  0.3830
 6896TIP3    H142247   4.452   4.060   8.545  0.4031  0.5183  0.1398
 6896TIP3    H242248   4.448   3.917   8.494 -0.2008  0.4776  0.2886
 6897TIP3   OH242249   3.968   1.286   1.185  0.1135  0.1487 -0.3412
 6897TIP3    H142250   3.897   1.328   1.136  0.4197  0.7166 -0.3064
 6897TIP3    H242251   3.974   1.198   1.148 -1.5419 -0.4080  0.6064
 6898TIP3   OH242252   0.250   5.482   2.642 -0.4338  0.5632  0.6940
 6898TIP3    H142253   0.300   5.486   2.560 -2.1277  1.1240 -0.3640
 6898TIP3    H242254   0.316   5.496   2.711  1.1369 -0.5500 -0.4996
 6899TIP3   OH242255   6.579   6.403   7.789 -0.0609  0.3285 -0.3092
 6899TIP3    H142256   6.489   6.418   7.819  0.2045 -0.7993  1.1520
 6899TIP3    H242257   6.573   6.331   7.727  0.0015 -0.9643  1.1222
 6900TIP3   OH242258   4.376   1.679   0.359 -0.2942  0.1586  0.1263
 6900TIP3    H142259   4.301   1.737   0.373  0.7738  1.7558 -0.4096
 6900TIP3    H242260   4.447   1.718   0.411  0.6526 -0.2453 -0.8079
 6901TIP3   OH242261   6.328   0.819   1.175  0.2676 -0.0699 -0.0775
 6901TIP3    H142262   6.248   0.773   1.151  0.8236 -0.5701 -1.0391
 6901TIP3    H242263   6.344   0.880   1.103  1.0639 -0.4007 -0.1973
 6902TIP3   OH242264   0.506   5.975   7.529  0.5219 -0.0662 -0.1947
 6902TIP3    H142265   0.411   5.972   7.541  0.0642  2.4695 -2.2690
 6902TIP3    H242266   0.517   6.001   7.438  3.1628  1.5080  0.4898
 6903TIP3   OH242267   1.910   3.062   7.740  0.0524 -0.0028  0.4530
 6903TIP3    H142268   1.948   3.112   7.668 -0.0397 -0.3746  0.1378
 6903TIP3    H242269   1.846   3.121   7.779 -0.3471 -0.0132 -0.1710
 6904TIP3   OH242270   4.426   6.764   1.124  0.7324 -0.1170 -0.1999
 6904TIP3    H142271   4.404   6.680   1.083  2.1877 -0.1422 -0.9816
 6904TIP3    H242272   4.486   6.742   1.195 -0.8943  0.0457  1.3013
 6905TIP3   OH242273   1.733   4.039   2.441  0.1477 -0.4230 -0.2405
 6905TIP3    H142274   1.642   4.008   2.447 -0.2969  0.7020 -1.0198
 6905TIP3    H242275   1.774   4.009   2.523 -0.8832 -1.0541  0.0569
 6906TIP3   OH242276   1.549   2.876   0.359  0.6014 -0.2268  0.0704
 6906TIP3    H142277   1.473   2.844   0.406  0.3418 -1.3047 -1.0581
 6906TIP3    H242278   1.620   2.818   0.386  0.8172  0.1718  0.3733
 6907TIP3   OH242279   1.281   2.298   0.594  0.3555  0.6105  0.1180
 6907TIP3    H142280   1.275   2.218   0.542 -1.7206  1.8237 -1.6983
 6907TIP3    H242281   1.227   2.281   0.671  1.4140 -0.3403  0.6649
 6908TIP3   OH242282   5.876   4.599   0.999 -0.6379 -0.1397  0.0782
 6908TIP3    H142283   5.867   4.694   1.007 -0.4285 -0.1329  0.2501
 6908TIP3    H242284   5.900   4.570   1.086  0.1846 -0.2440 -0.1709
 6909TIP3   OH242285   3.078   4.281   8.516 -0.0887  0.6386 -0.0691
 6909TIP3    H142286   3.159   4.329   8.534 -0.0137 -0.0935  1.7809
 6909TIP3    H242287   3.042   4.323   8.438  2.2544  0.7232 -1.1758
 6910TIP3   OH242288   6.786   2.285   0.977 -0.4227  0.7033  0.7261
 6910TIP3    H142289   6.781   2.368   0.930 -0.1465  0.9955  1.2020
 6910TIP3    H242290   6.864   2.242   0.942 -1.4148 -0.0670 -0.6370
 6911TIP3   OH242291   6.520   2.088   7.068 -0.0899  0.6284 -0.0641
 6911TIP3    H142292   6.467   2.025   7.116 -2.3661  1.4870 -1.2655
 6911TIP3    H242293   6.545   2.154   7.133 -1.7330  0.9198  0.3075
 6912TIP3   OH242294   1.833   1.685   0.568 -0.3190  0.2237 -0.5922
 6912TIP3    H142295   1.802   1.768   0.605  0.8122  0.5963 -0.4631
 6912TIP3    H242296   1.773   1.669   0.495 -1.2792  0.5466  0.0931
 6913TIP3   OH242297   5.655   0.336   0.644 -0.0174 -0.5975 -0.4232
 6913TIP3    H142298   5.578   0.294   0.684  1.5509 -1.2977  2.0560
 6913TIP3    H242299   5.651   0.308   0.552 -3.1454  0.0976 -0.6298
 6914TIP3   OH242300   2.154   4.107   0.318 -0.1554 -0.1471  0.0763
 6914TIP3    H142301   2.170   4.018   0.289  0.3353 -0.1684  0.3979
 6914TIP3    H242302   2.140   4.100   0.413  0.0155  0.1319  0.1242
 6915TIP3   OH242303   6.800   4.247   2.882  0.5492  0.4994  0.6557
 6915TIP3    H142304   6.740   4.183   2.845  0.7720  1.1494 -0.9060
 6915TIP3    H242305   6.744   4.313   2.923  0.2463  0.3334  0.5068
 6916TIP3   OH242306   0.860   0.814   8.743  0.1985 -0.4060 -0.6229
 6916TIP3    H142307   0.903   0.825   8.827  1.9912  0.1166 -1.5628
 6916TIP3    H242308   0.766   0.823   8.763  0.6019  0.1434  1.2260
 6917TIP3   OH242309   3.692   4.037   8.508 -0.6063  0.2275 -0.1063
 6917TIP3    H142310   3.647   4.014   8.427 -1.4239 -0.0718  0.4168
 6917TIP3    H242311   3.645   3.988   8.576  0.6114 -0.2279  0.4419
 6918TIP3   OH242312   1.240   3.673   1.958  0.2235 -0.3600  0.3871
 6918TIP3    H142313   1.301   3.627   1.900  1.1402  0.1725  0.8975
 6918TIP3    H242314   1.288   3.751   1.987 -0.5264 -0.1690  1.1728
 6919TIP3   OH242315   5.607   1.338   8.556  0.0293  0.5988 -0.0493
 6919TIP3    H142316   5.670   1.267   8.565  0.2019  0.6055 -1.1013
 6919TIP3    H242317   5.614   1.387   8.638  1.5879  0.7628 -0.2582
 6920TIP3   OH242318   3.210   0.335   3.045  0.0990 -0.3981  0.0401
 6920TIP3    H142319   3.177   0.268   2.985 -1.1509  0.0923  0.1476
 6920TIP3    H242320   3.265   0.287   3.107  1.9377 -0.8316 -1.8233
 6921TIP3   OH242321   2.540   6.081   1.964  0.4217 -0.0519  0.3564
 6921TIP3    H142322   2.593   6.009   1.930  1.7040  0.6348  0.8210
 6921TIP3    H242323   2.548   6.150   1.898 -1.0982 -0.4383 -0.2635
 6922TIP3   OH242324   5.972   1.015   1.250 -0.4422  0.0742  0.4796
 6922TIP3    H142325   6.052   1.056   1.284 -0.8628  1.0182  0.3816
 6922TIP3    H242326   5.965   0.932   1.296  0.8011 -0.1964  0.2112
 6923TIP3   OH242327   4.556   0.999   8.152 -0.0260 -0.0822 -0.0628
 6923TIP3    H142328   4.621   1.048   8.101 -0.4862  2.3994  1.5469
 6923TIP3    H242329   4.474   1.008   8.104 -0.1442  0.9458  0.3103
 6924TIP3   OH242330   0.381   0.856   2.409  0.0236  0.2248 -0.5130
 6924TIP3    H142331   0.291   0.879   2.433  0.1384 -0.1330  0.2951
 6924TIP3    H242332   0.373   0.780   2.351 -0.1656 -0.4247  0.3419
 6925TIP3   OH242333   2.985   5.848   2.700 -0.2355 -0.5023 -0.3636
 6925TIP3    H142334   2.935   5.775   2.737  0.3502 -1.9937 -2.3254
 6925TIP3    H242335   2.939   5.869   2.618  0.0790  0.8040 -0.2202
 6926TIP3   OH242336   2.311   2.292   2.703  0.5940  0.0940  0.5468
 6926TIP3    H142337   2.217   2.281   2.716  0.5755  1.1068  1.4119
 6926TIP3    H242338   2.335   2.363   2.763  1.9356 -0.2550  0.4487
 6927TIP3   OH242339   3.979   6.076   8.073 -0.7371  0.1096  0.3188
 6927TIP3    H142340   4.071   6.051   8.068 -0.8314 -0.6252  1.8264
 6927TIP3    H242341   3.935   6.015   8.014 -0.7420 -2.3698  2.6803
 6928TIP3   OH242342   2.644   4.796   0.066 -0.1670  0.1006  0.1007
 6928TIP3    H142343   2.691   4.743   0.002 -0.1106  0.3484 -0.0665
 6928TIP3    H242344   2.564   4.747   0.084 -0.4793  0.3158 -0.6297
 6929TIP3   OH242345   2.589   0.531   0.923  0.5217  0.1489  0.8825
 6929TIP3    H142346   2.543   0.516   0.841 -0.5037  1.5198  1.1539
 6929TIP3    H242347   2.657   0.594   0.901  0.1662  0.6147  1.0756
 6930TIP3   OH242348   5.027   4.478   1.033 -0.0682  0.4063  0.0563
 6930TIP3    H142349   5.001   4.475   0.941 -1.6807 -1.0234  0.4997
 6930TIP3    H242350   4.976   4.549   1.071 -0.3265  0.2101  0.0823
 6931TIP3   OH242351   3.933   4.816   8.809  0.7534  0.8204 -0.0774
 6931TIP3    H142352   3.952   4.735   8.760  1.5134  1.3978 -0.7753
 6931TIP3    H242353   3.897   4.875   8.743  3.4569  2.2432 -0.4356
 6932TIP3   OH242354   4.965   4.999   2.007  0.1808 -0.2244 -0.0179
 6932TIP3    H142355   4.998   4.973   2.093 -0.4414  2.3326  1.0885
 6932TIP3    H242356   5.027   5.065   1.976  0.9630 -1.7822 -2.0949
 6933TIP3   OH242357   0.469   2.754   1.303 -0.0501  0.0739 -0.0117
 6933TIP3    H142358   0.518   2.827   1.340 -1.7873  1.7549 -0.8821
 6933TIP3    H242359   0.510   2.676   1.341  3.3050  1.3366 -0.7482
 6934TIP3   OH242360   6.399   2.682   0.648  0.3592 -0.5416 -0.2150
 6934TIP3    H142361   6.394   2.707   0.555  0.0478 -0.8548 -0.2868
 6934TIP3    H242362   6.439   2.595   0.646  3.0017  0.5557  0.1348
 6935TIP3   OH242363   6.027   4.213   0.485  0.2173 -0.2607  0.2788
 6935TIP3    H142364   5.992   4.178   0.567  0.6279  2.1057  1.5661
 6935TIP3    H242365   6.117   4.238   0.506  0.3515  0.3368 -0.9118
 6936TIP3   OH242366   3.198   5.611   8.790  0.6902  0.2990 -0.2496
 6936TIP3    H142367   3.155   5.576   8.867  1.3999  0.5544  0.2704
 6936TIP3    H242368   3.129   5.657   8.742 -0.5079 -2.4550 -1.4133
 6937TIP3   OH242369   0.021   2.297   1.233  0.0842 -0.2576  0.3079
 6937TIP3    H142370  -0.032   2.226   1.270  0.2632 -1.0054 -0.8391
 6937TIP3    H242371  -0.004   2.301   1.141  0.7010  0.6078  0.1641
 6938TIP3   OH242372   3.540   4.354   8.760 -0.2101 -0.2910  0.1732
 6938TIP3    H142373   3.457   4.362   8.712 -0.2674 -0.1991  0.2876
 6938TIP3    H242374   3.549   4.260   8.777 -0.2158 -0.3185  0.0294
 6939TIP3   OH242375   0.928   6.592   0.429  0.4895  0.1387  0.4448
 6939TIP3    H142376   0.999   6.586   0.494  1.5403 -1.0738 -0.7572
 6939TIP3    H242377   0.866   6.524   0.457 -0.6200  1.6763  1.9135
 6940TIP3   OH242378   6.668   0.587   0.544 -0.1861  0.1997 -0.0999
 6940TIP3    H142379   6.669   0.491   0.547  1.5927  0.1105 -1.8175
 6940TIP3    H242380   6.583   0.608   0.504 -0.6086 -0.6482  0.3177
 6941TIP3   OH242381   1.770   5.557   0.450 -0.0680  0.0163 -0.0158
 6941TIP3    H142382   1.703   5.534   0.514  0.0848  0.4330  0.3005
 6941TIP3    H242383   1.732   5.532   0.365 -0.1610 -0.7825  0.2577
 6942TIP3   OH242384   4.417   6.032   0.489 -0.6662 -0.3155 -0.1366
 6942TIP3    H142385   4.502   6.007   0.454 -0.5923  0.3813 -0.4804
 6942TIP3    H242386   4.386   6.101   0.430 -0.8309  0.4366  0.7978
 6943TIP3   OH242387   2.092   5.212   8.543  0.5092 -0.4263  0.0075
 6943TIP3    H142388   2.130   5.142   8.490 -0.2267 -0.7484 -0.1091
 6943TIP3    H242389   2.021   5.247   8.489 -0.4128 -0.9238  0.8649
 6944TIP3   OH242390   5.082   3.900   2.235 -0.0157 -0.0420  0.1008
 6944TIP3    H142391   5.109   3.836   2.300 -0.7610  0.1112  0.5777
 6944TIP3    H242392   5.045   3.973   2.286 -0.9681 -0.0915 -0.4820
 6945TIP3   OH242393   3.348   4.121   2.555  0.6340 -0.5196 -0.2479
 6945TIP3    H142394   3.344   4.215   2.572  0.4139 -0.5325 -0.2157
 6945TIP3    H242395   3.386   4.083   2.634 -0.6194 -0.6064  0.3474
 6946TIP3   OH242396   1.163   4.359   1.648 -0.2381 -0.2475 -0.3879
 6946TIP3    H142397   1.249   4.320   1.629  0.2028  0.9499 -0.9705
 6946TIP3    H242398   1.123   4.371   1.562 -0.1542  1.0195 -0.2620
 6947TIP3   OH242399   3.458   4.996   2.530  0.0988 -0.3831 -0.1011
 6947TIP3    H142400   3.431   4.986   2.621  2.6149 -0.4697  0.7097
 6947TIP3    H242401   3.514   5.074   2.529 -0.4720  0.0603 -1.7426
 6948TIP3   OH242402   4.612   2.940   7.890 -0.0307 -0.0635 -0.1518
 6948TIP3    H142403   4.680   2.877   7.867 -0.1732  0.1602 -1.2697
 6948TIP3    H242404   4.659   3.023   7.900  0.3091 -0.5023  2.3599
 6949TIP3   OH242405   5.511   1.538   8.136 -0.1155 -0.0699 -0.0715
 6949TIP3    H142406   5.434   1.495   8.173 -1.1358  1.3346 -0.4618
 6949TIP3    H242407   5.583   1.509   8.191 -1.2028  0.0066  1.4747
 6950TIP3   OH242408   4.092   6.658   8.039 -0.3597  0.2917 -0.7760
 6950TIP3    H142409   4.043   6.576   8.037 -0.0973 -0.0011  1.6154
 6950TIP3    H242410   4.106   6.680   7.947 -3.2451 -0.6098 -1.5324
 6951TIP3   OH242411   0.434   2.448   0.020 -0.4789  0.0024 -0.2679
 6951TIP3    H142412   0.377   2.432   0.095 -2.4433  2.4543 -1.1076
 6951TIP3    H242413   0.377   2.488  -0.046  1.3534 -1.1927 -2.7829
 6952TIP3   OH242414   1.840   0.812   1.633  0.0547  0.0186  0.0656
 6952TIP3    H142415   1.932   0.787   1.647  0.4855  1.1145 -0.6910
 6952TIP3    H242416   1.793   0.772   1.706  1.2872  0.3052  1.0448
 6953TIP3   OH242417   1.049   5.139   7.482  0.2839 -0.0359  0.0507
 6953TIP3    H142418   1.017   5.124   7.393 -1.0929  0.7677  0.3822
 6953TIP3    H242419   0.969   5.146   7.535  1.0536  0.6948  1.1458
 6954TIP3   OH242420   0.028   2.903   7.139 -0.1862  0.3000  0.1929
 6954TIP3    H142421  -0.059   2.939   7.123  0.4787  1.3219 -1.3638
 6954TIP3    H242422   0.073   2.910   7.055  0.8007 -1.9737  0.4573
 6955TIP3   OH242423   6.188   3.570   0.312  0.2742 -0.2144  0.2618
 6955TIP3    H142424   6.179   3.661   0.283  1.0625  1.0376  3.4814
 6955TIP3    H242425   6.136   3.567   0.393 -0.0911 -2.7889 -0.0108
 6956TIP3   OH242426   2.786   4.526   2.366 -0.6413  0.2472  0.3406
 6956TIP3    H142427   2.836   4.460   2.413  0.8231  0.0926 -1.3147
 6956TIP3    H242428   2.749   4.581   2.434 -0.4376 -1.2393  1.7089
 6957TIP3   OH242429   2.547   2.603   7.435  0.1330 -0.2569 -0.2984
 6957TIP3    H142430   2.536   2.630   7.343 -0.1498 -1.4800 -0.6456
 6957TIP3    H242431   2.513   2.513   7.437 -0.9180  0.1392  1.2477
 6958TIP3   OH242432   2.308   2.175   2.078 -0.2161  0.7701  0.1583
 6958TIP3    H142433   2.347   2.128   2.152 -0.4604 -0.3291 -0.3811
 6958TIP3    H242434   2.381   2.221   2.038  0.1199  0.5038  0.4558
 6959TIP3   OH242435   2.029   3.739   0.609 -0.1352 -0.6250  0.0954
 6959TIP3    H142436   2.012   3.745   0.703 -0.6159 -2.1036  0.1392
 6959TIP3    H242437   1.956   3.786   0.569  0.8284  1.2459  0.4630
 6960TIP3   OH242438   3.310   1.723   0.369 -0.0569 -0.5706  0.0506
 6960TIP3    H142439   3.234   1.665   0.366 -0.1899 -0.6780  2.6227
 6960TIP3    H242440   3.273   1.811   0.357 -0.4162 -0.7144  0.0949
 6961TIP3   OH242441   1.756   2.136   2.607  0.0550  0.1084 -0.9021
 6961TIP3    H142442   1.822   2.134   2.676  0.2367  2.2762 -0.9638
 6961TIP3    H242443   1.729   2.044   2.597  0.9048 -0.4153  1.1790
 6962TIP3   OH242444   6.241   4.400   0.652  0.5492 -0.0348  0.2780
 6962TIP3    H142445   6.155   4.414   0.692  0.6030  0.6755  0.1680
 6962TIP3    H242446   6.270   4.315   0.684  0.7907  0.6970  2.1121
 6963TIP3   OH242447   1.307   2.919   1.083  0.0547 -0.0616 -0.0860
 6963TIP3    H142448   1.356   2.874   1.152 -0.6194 -3.0191 -1.4085
 6963TIP3    H242449   1.217   2.923   1.116  0.3714  1.9407  0.7100
 6964TIP3   OH242450   3.389   4.185   2.289  0.2631 -0.1635 -0.9681
 6964TIP3    H142451   3.377   4.151   2.378 -1.3512  0.5476 -0.8850
 6964TIP3    H242452   3.367   4.278   2.295 -1.2435 -0.3762 -2.3379
 6965TIP3   OH242453   3.243   4.709   1.817  1.2991  0.2411  0.0278
 6965TIP3    H142454   3.163   4.759   1.837  0.3654 -0.7485 -1.1234
 6965TIP3    H242455   3.248   4.710   1.722  0.2671 -3.2725 -0.1859
 6966TIP3   OH242456   3.160   6.050   7.540 -0.2673 -0.3938 -0.4286
 6966TIP3    H142457   3.170   5.959   7.510  0.8452 -0.2730 -0.4741
 6966TIP3    H242458   3.208   6.054   7.623 -1.4848 -0.1773  0.2833
 6967TIP3   OH242459   3.915   6.259   1.832 -0.1096 -0.4358 -0.8406
 6967TIP3    H142460   3.915   6.177   1.782 -0.1017 -0.8360 -0.1966
 6967TIP3    H242461   4.001   6.261   1.875 -0.8063 -1.0382  0.6450
 6968TIP3   OH242462   5.148   3.030   0.709 -0.3735  0.5253  0.3182
 6968TIP3    H142463   5.164   2.996   0.621 -0.3990  1.8977 -0.2417
 6968TIP3    H242464   5.185   3.119   0.708  0.9656  0.0671  2.1526
 6969TIP3   OH242465   4.655   3.050   7.572  0.3667 -0.2772  0.4862
 6969TIP3    H142466   4.695   3.105   7.640  2.8807  1.8632 -2.4087
 6969TIP3    H242467   4.728   2.997   7.539 -1.0591 -2.1452  0.2008
 6970TIP3   OH242468   3.713   1.162   8.312  0.0021 -0.3564 -0.1627
 6970TIP3    H142469   3.625   1.173   8.274  0.6384  0.3689 -1.4921
 6970TIP3    H242470   3.761   1.239   8.283  1.3442 -1.1745 -0.1747
 6971TIP3   OH242471   4.831   4.880   1.491 -0.3290  0.4734 -0.2237
 6971TIP3    H142472   4.863   4.881   1.582  1.3844 -0.1500 -0.7720
 6971TIP3    H242473   4.903   4.918   1.441 -0.6239 -0.5832 -1.4901
 6972TIP3   OH242474   1.104   4.076   8.633  0.0497 -0.3248 -0.2431
 6972TIP3    H142475   1.175   4.082   8.696 -0.9518 -0.7605  0.9820
 6972TIP3    H242476   1.133   4.011   8.569  0.1880 -1.5460  1.0279
 6973TIP3   OH242477   6.802   3.719   0.175 -1.1246 -0.1205 -0.3072
 6973TIP3    H142478   6.883   3.708   0.226 -1.7106 -0.9714  0.4671
 6973TIP3    H242479   6.790   3.635   0.131 -0.9045  0.4408 -1.4677
 6974TIP3   OH242480   3.016   3.097   7.608  0.6458 -0.2940 -0.5001
 6974TIP3    H142481   3.102   3.139   7.615  0.1406  0.7704 -0.4176
 6974TIP3    H242482   3.013   3.035   7.681  0.2502  1.7390  1.3208
 6975TIP3   OH242483   6.105   0.671   8.381  0.5840  0.2695  0.2750
 6975TIP3    H142484   6.163   0.610   8.336 -0.6675 -0.8357  0.0958
 6975TIP3    H242485   6.157   0.750   8.392  2.0996 -0.6613  0.0877
 6976TIP3   OH242486   5.761   4.328   2.801  0.0956  0.3300  0.0162
 6976TIP3    H142487   5.784   4.370   2.718 -1.3630  0.3772 -0.3958
 6976TIP3    H242488   5.828   4.358   2.863  0.9299  0.6736 -1.0235
 6977TIP3   OH242489   4.613   6.022   8.363 -0.8361 -0.1094  0.0866
 6977TIP3    H142490   4.618   6.117   8.375 -0.7984  0.0979 -1.3507
 6977TIP3    H242491   4.575   6.011   8.276  1.9363 -1.3322 -1.1024
 6978TIP3   OH242492   3.101   3.410   0.489  0.2085  0.1485 -1.0505
 6978TIP3    H142493   3.145   3.326   0.480  0.7251  0.2648  0.2039
 6978TIP3    H242494   3.171   3.475   0.484  0.3278  0.3185  1.3891
 6979TIP3   OH242495   5.440   0.754   2.217  0.4494  0.4257 -0.0075
 6979TIP3    H142496   5.397   0.676   2.184  0.3995  0.8606 -0.9930
 6979TIP3    H242497   5.503   0.721   2.281  0.9843 -0.4879 -0.9791
 6980TIP3   OH242498   3.437   2.824   7.349  0.0264 -0.2127 -0.3651
 6980TIP3    H142499   3.532   2.820   7.341  0.0678 -0.7666  0.3436
 6980TIP3    H242500   3.412   2.741   7.389 -0.5452  0.7170  1.2938
 6981TIP3   OH242501   0.075   1.485   0.471  0.0774 -0.4755  0.3854
 6981TIP3    H142502   0.127   1.564   0.481 -0.3105 -0.3674  1.7552
 6981TIP3    H242503   0.007   1.492   0.538 -0.3033 -1.6938  0.1560
 6982TIP3   OH242504   6.389   6.324   8.273 -0.3632  1.3182  0.0245
 6982TIP3    H142505   6.439   6.259   8.225  0.3383 -0.0320  2.4603
 6982TIP3    H242506   6.298   6.296   8.263 -0.1709  0.6879  0.0269
 6983TIP3   OH242507   1.111   4.482   7.516 -0.1656 -0.5699  0.5486
 6983TIP3    H142508   1.022   4.505   7.489 -0.0670 -0.6604  0.1433
 6983TIP3    H242509   1.136   4.551   7.578  0.2411  0.6083 -0.8765
 6984TIP3   OH242510   5.544   4.533   8.047 -0.1208  0.1927  0.1212
 6984TIP3    H142511   5.621   4.477   8.035 -1.8871 -2.4117  0.0815
 6984TIP3    H242512   5.483   4.504   7.979  0.1419  4.8691 -2.4821
 6985TIP3   OH242513   3.437   4.325   1.531 -0.2259 -0.5477  0.6739
 6985TIP3    H142514   3.408   4.258   1.469 -1.0973  0.1583  0.2809
 6985TIP3    H242515   3.419   4.287   1.617 -2.0206 -0.3196  0.4517
 6986TIP3   OH242516   2.512   6.739   7.824  0.5390  0.3622 -0.1910
 6986TIP3    H142517   2.593   6.779   7.857  0.1394  0.2461  0.9560
 6986TIP3    H242518   2.471   6.700   7.901 -0.8850  0.8899 -0.6404
 6987TIP3   OH242519   1.295   3.674   7.214 -0.2204  0.3151 -0.5819
 6987TIP3    H142520   1.238   3.637   7.282  0.6148 -0.7642 -0.4253
 6987TIP3    H242521   1.308   3.602   7.152 -0.6566  1.1708 -1.6914
 6988TIP3   OH242522   4.830   4.975   1.166  0.0535  0.7897 -0.5657
 6988TIP3    H142523   4.804   4.945   1.079 -1.3399 -1.3286  0.4806
 6988TIP3    H242524   4.751   5.014   1.203  0.9300  2.6907 -0.6012
 6989TIP3   OH242525   5.901   1.214   3.005 -0.1177  0.2672  0.6021
 6989TIP3    H142526   5.935   1.294   3.045  0.1520  0.4856 -0.0387
 6989TIP3    H242527   5.930   1.219   2.914 -1.7025  0.3709  0.0715
 6990TIP3   OH242528   3.349   4.648   2.694  0.2139  0.9096  0.4698
 6990TIP3    H142529   3.307   4.708   2.755  0.9044  3.5603 -1.4651
 6990TIP3    H242530   3.443   4.661   2.708  0.3951  1.7089 -1.1502
 6991TIP3   OH242531   5.381   4.795   1.725  0.2241  0.5983 -0.7987
 6991TIP3    H142532   5.432   4.869   1.756  0.3267  0.1643  0.1266
 6991TIP3    H242533   5.432   4.759   1.653  1.9366 -0.5883  0.8960
 6992TIP3   OH242534   4.759   3.791   8.243  0.0664 -0.2957  0.1018
 6992TIP3    H142535   4.685   3.834   8.287  0.0289 -0.4176  0.1597
 6992TIP3    H242536   4.787   3.723   8.305 -0.9552 -1.4873 -0.6833
 6993TIP3   OH242537   3.855   5.689   2.370  0.7883  0.1504 -0.3386
 6993TIP3    H142538   3.906   5.769   2.360  1.9362 -0.7096 -1.7383
 6993TIP3    H242539   3.846   5.655   2.281 -0.6589 -0.7052  0.0917
 6994TIP3   OH242540   4.074   2.540   2.180 -0.1220  0.6827  0.1571
 6994TIP3    H142541   4.155   2.519   2.133  0.3119 -0.9597  1.4906
 6994TIP3    H242542   4.020   2.587   2.117  1.1332  0.1596 -1.3763
 6995TIP3   OH242543   5.975   3.451   2.607  0.2381 -0.3924 -0.8200
 6995TIP3    H142544   5.988   3.381   2.671  2.4175 -0.4643 -1.2616
 6995TIP3    H242545   5.947   3.526   2.659  0.7254 -0.8014  0.0556
 6996TIP3   OH242546   1.664   2.582   7.323  0.2451  0.3324  0.3272
 6996TIP3    H142547   1.698   2.493   7.322  2.3576  1.0923  0.4224
 6996TIP3    H242548   1.724   2.632   7.268 -2.5343  1.1979 -2.2033
 6997TIP3   OH242549   1.834   4.026   2.975 -0.1513 -0.7228 -0.1569
 6997TIP3    H142550   1.923   4.042   3.004 -0.3265  1.2576 -0.5625
 6997TIP3    H242551   1.814   3.938   3.006  1.1350 -0.3378  1.9541
 6998TIP3   OH242552   0.356   0.685   7.970 -0.1106 -0.1434  0.1118
 6998TIP3    H142553   0.356   0.665   8.064  0.0244  1.0502  0.3896
 6998TIP3    H242554   0.310   0.612   7.929 -1.0929 -0.1762  1.2304
 6999TIP3   OH242555   4.208   6.785   8.265 -0.2372 -0.0375 -0.6095
 6999TIP3    H142556   4.143   6.829   8.320  0.8123  1.6698 -0.6849
 6999TIP3    H242557   4.156   6.741   8.198 -1.4891 -1.2637  1.0620
 7000TIP3   OH242558   0.566   6.652   3.495 -0.1006 -0.0667 -0.4726
 7000TIP3    H142559   0.570   6.727   3.555  0.0376  0.3940 -1.0498
 7000TIP3    H242560   0.654   6.615   3.497  0.0672  0.3104 -0.8459
 7001TIP3   OH242561   4.483   6.089   2.752  0.3076  0.0001 -0.0978
 7001TIP3    H142562   4.540   6.051   2.819  1.8924  1.4610 -0.5655
 7001TIP3    H242563   4.520   6.060   2.669  0.4948  1.1017 -0.4099
 7002TIP3   OH242564   4.185   5.151   1.381  0.4156  0.3061 -0.4155
 7002TIP3    H142565   4.247   5.079   1.370  0.0322  0.2846 -2.8420
 7002TIP3    H242566   4.225   5.224   1.334 -0.3287  0.9823 -0.0161
 7003TIP3   OH242567   4.506   2.691   0.565 -0.2611 -0.4393  0.4772
 7003TIP3    H142568   4.413   2.696   0.587 -0.8693 -0.7145 -1.7987
 7003TIP3    H242569   4.531   2.601   0.585 -0.6308 -0.5300  0.5363
 7004TIP3   OH242570   2.989   4.579   7.289  0.5126 -0.0634  0.3133
 7004TIP3    H142571   2.918   4.642   7.282  0.8730  0.2843 -0.2964
 7004TIP3    H242572   2.975   4.518   7.217  2.7607  2.0230 -2.0914
 7005TIP3   OH242573   1.104   6.139   2.514  0.0870 -0.5733 -0.1357
 7005TIP3    H142574   1.164   6.200   2.557 -0.2894 -0.4457  0.2238
 7005TIP3    H242575   1.050   6.195   2.457 -1.4332 -0.2728  1.4953
 7006TIP3   OH242576   1.422   6.020   1.922  0.2024  0.9426 -0.6099
 7006TIP3    H142577   1.331   6.014   1.953  0.5264 -0.9149  0.0914
 7006TIP3    H242578   1.413   6.033   1.827 -0.7680  2.1347 -0.3913
 7007TIP3   OH242579   1.796   6.092   7.848  0.6578 -0.1647 -0.0062
 7007TIP3    H142580   1.766   6.029   7.913  1.2117  0.2627  0.6689
 7007TIP3    H242581   1.836   6.039   7.779  2.1750 -0.5039  1.1026
 7008TIP3   OH242582   3.448   5.401   0.595 -0.6234  0.0826  0.5287
 7008TIP3    H142583   3.396   5.416   0.516  0.5049  1.2778 -0.0131
 7008TIP3    H242584   3.398   5.442   0.665 -0.8459  0.4361  0.1649
 7009TIP3   OH242585   5.634   5.694   2.762 -0.2998  0.0365  0.1548
 7009TIP3    H142586   5.631   5.773   2.816 -0.5781  0.0420  0.1353
 7009TIP3    H242587   5.677   5.721   2.681 -1.9250  0.6198 -0.5697
 7010TIP3   OH242588   2.320   6.342   1.693  0.2480  0.0045  0.3789
 7010TIP3    H142589   2.328   6.432   1.724 -0.0763 -0.1351  0.8911
 7010TIP3    H242590   2.232   6.337   1.656 -0.1067 -0.3531  1.2381
 7011TIP3   OH242591   3.744   5.064   0.610 -0.2740  0.5525 -0.0662
 7011TIP3    H142592   3.836   5.041   0.594  0.1852  1.6133  0.9261
 7011TIP3    H242593   3.705   5.067   0.522  0.5910 -0.0818 -0.4880
 7012TIP3   OH242594   0.566   3.845   2.912 -0.3744 -0.5077  0.1143
 7012TIP3    H142595   0.647   3.800   2.888 -0.4513 -0.3462 -0.4402
 7012TIP3    H242596   0.566   3.926   2.862  0.9182  1.3345  2.8187
 7013TIP3   OH242597   5.949   2.631   1.463 -0.1278  0.2088 -0.2141
 7013TIP3    H142598   6.017   2.584   1.415 -0.6367 -0.1962 -0.5433
 7013TIP3    H242599   5.879   2.567   1.475 -0.1439  0.3947  0.8004
 7014TIP3   OH242600   2.906   4.200   1.748  0.6924  0.1969  0.2513
 7014TIP3    H142601   2.978   4.261   1.767  2.1706 -0.9794 -1.2615
 7014TIP3    H242602   2.882   4.164   1.833  1.5632  0.9714  0.8453
 7015TIP3   OH242603   5.340   0.858   1.699  1.1226  0.2976  0.3203
 7015TIP3    H142604   5.373   0.779   1.656  0.3764 -0.1494  0.5416
 7015TIP3    H242605   5.415   0.918   1.702  1.5889 -0.2525 -0.2063
 7016TIP3   OH242606   4.070   0.650   0.817  0.2142 -0.4255 -0.2480
 7016TIP3    H142607   4.110   0.592   0.882 -0.8795 -1.6400 -0.6106
 7016TIP3    H242608   4.044   0.727   0.867 -0.3784 -1.2307  0.7313
 7017TIP3   OH242609   2.381   5.566   0.107 -0.0650 -0.0671 -0.1895
 7017TIP3    H142610   2.383   5.636   0.041 -1.1184  0.6503  0.5146
 7017TIP3    H242611   2.342   5.492   0.062 -1.3034  0.5904 -0.2334
 7018TIP3   OH242612   3.341   1.486   8.319 -0.1946 -0.2077  0.1389
 7018TIP3    H142613   3.383   1.571   8.328  0.0612 -0.2754 -0.4311
 7018TIP3    H242614   3.375   1.435   8.393  0.5392 -0.1851 -0.1745
 7019TIP3   OH242615   5.056   4.786   0.673  0.3869 -0.2203  0.3232
 7019TIP3    H142616   5.022   4.704   0.708 -0.9329  0.7777  1.4883
 7019TIP3    H242617   5.008   4.798   0.591 -0.1544 -0.1317  0.6468
 7020TIP3   OH242618   1.428   2.023   1.060 -1.1089 -0.1458  0.5020
 7020TIP3    H142619   1.424   1.953   0.994 -1.1306 -0.4956  0.8754
 7020TIP3    H242620   1.451   1.979   1.141  0.9436  0.5465  0.3417
 7021TIP3   OH242621   1.727   4.855   3.286 -0.3009  0.2268  0.1228
 7021TIP3    H142622   1.746   4.762   3.297  2.6270  0.9140  2.0410
 7021TIP3    H242623   1.666   4.858   3.213  1.8828 -2.9892 -2.1291
 7022TIP3   OH242624   6.385   6.481   0.235 -0.0704 -0.7389 -0.2421
 7022TIP3    H142625   6.441   6.409   0.265  1.7475  1.1548  1.3023
 7022TIP3    H242626   6.363   6.459   0.145  0.5039 -3.1482  0.1485
 7023TIP3   OH242627   4.276   0.259   0.797  0.3919 -0.1185  0.2173
 7023TIP3    H142628   4.262   0.168   0.771 -1.1055  0.2032 -0.2068
 7023TIP3    H242629   4.349   0.255   0.859  1.8021 -1.3113 -1.4421
 7024TIP3   OH242630   3.665   4.139   0.666 -0.5804 -0.3380  0.0836
 7024TIP3    H142631   3.632   4.223   0.699  0.9225  0.0190  0.7802
 7024TIP3    H242632   3.747   4.125   0.714 -0.6924 -2.1155 -0.1693
 7025TIP3   OH242633   6.668   2.479   8.419  0.3588  0.0040 -0.3283
 7025TIP3    H142634   6.706   2.552   8.371 -1.0636  0.5958 -0.6046
 7025TIP3    H242635   6.646   2.415   8.351  0.8032 -0.3199 -0.1743
 7026TIP3   OH242636   5.813   0.613   8.181  0.2625  0.7954  0.5575
 7026TIP3    H142637   5.819   0.695   8.133  1.9072  0.9879  1.0225
 7026TIP3    H242638   5.860   0.550   8.127 -0.0026  0.4317  0.7458
 7027TIP3   OH242639   2.242   4.872   3.322 -0.4313 -0.1722  0.2781
 7027TIP3    H142640   2.331   4.908   3.326  0.2913 -1.6038 -1.4361
 7027TIP3    H242641   2.235   4.834   3.234 -2.3128 -1.1748  0.7972
 7028TIP3   OH242642   0.756   1.663   7.719 -0.7489  0.2906 -0.2946
 7028TIP3    H142643   0.714   1.638   7.801 -0.3373 -0.1781 -0.2194
 7028TIP3    H242644   0.727   1.753   7.703 -0.3656  0.6010  0.6721
 7029TIP3   OH242645   0.328   1.623   1.384 -0.8038 -0.4918 -0.4525
 7029TIP3    H142646   0.304   1.708   1.348 -0.9386  1.1458  3.1728
 7029TIP3    H242647   0.424   1.625   1.390 -0.8719 -0.0981  0.6702
 7030TIP3   OH242648   5.596   2.509   8.146 -0.2620  0.1152 -0.4264
 7030TIP3    H142649   5.590   2.495   8.241 -0.0911 -0.1036 -0.4476
 7030TIP3    H242650   5.642   2.432   8.113  0.0273  0.3753 -0.6370
 7031TIP3   OH242651   4.876   0.290   8.201  0.0468  0.6870 -0.0733
 7031TIP3    H142652   4.853   0.217   8.259 -1.5019  0.4800 -0.8977
 7031TIP3    H242653   4.962   0.319   8.232 -0.1154 -0.3132  1.4245
 7032TIP3   OH242654   5.756   0.234   7.656 -0.3498  0.2762 -0.4554
 7032TIP3    H142655   5.691   0.211   7.590 -2.6452 -0.8820  2.0397
 7032TIP3    H242656   5.729   0.320   7.688 -1.2008 -0.5597  1.1546
 7033TIP3   OH242657   2.731   0.085   0.498  0.3135  0.2154  0.3353
 7033TIP3    H142658   2.781   0.050   0.572  0.2100 -1.8711 -0.5140
 7033TIP3    H242659   2.648   0.114   0.536  0.5195 -0.2217  1.1395
 7034TIP3   OH242660   3.074   1.104   8.393 -0.2594  0.0331  0.3439
 7034TIP3    H142661   3.020   1.059   8.458 -0.8633 -1.2618 -1.0122
 7034TIP3    H242662   3.030   1.089   8.310  2.0760 -0.9472 -0.8204
 7035TIP3   OH242663   2.371   2.549   0.288  0.5880  0.1654  0.7177
 7035TIP3    H142664   2.346   2.622   0.231 -0.1067 -1.1485 -0.7179
 7035TIP3    H242665   2.424   2.590   0.357 -1.9733  2.4456  1.4940
 7036TIP3   OH242666   1.132   6.068   1.836  0.2978  0.2085  0.3131
 7036TIP3    H142667   1.154   6.143   1.780  0.2003  1.4273  1.8357
 7036TIP3    H242668   1.037   6.059   1.827  0.3557  0.0510 -0.1403
 7037TIP3   OH242669   1.095   1.855   0.116 -0.0140 -0.2336 -0.6767
 7037TIP3    H142670   1.136   1.913   0.180 -0.3833 -1.3876  0.6517
 7037TIP3    H242671   1.042   1.913   0.062  0.4594  0.8007 -0.0680
 7038TIP3   OH242672   2.913   2.105   1.257 -0.3017  0.2227  0.3714
 7038TIP3    H142673   2.914   2.139   1.168  0.3151 -0.9772 -0.0984
 7038TIP3    H242674   3.004   2.084   1.276 -0.8172 -2.8151 -0.0551
 7039TIP3   OH242675   3.461   6.593   8.771  0.0875 -0.2980 -0.3487
 7039TIP3    H142676   3.528   6.585   8.838  0.6095 -0.0114 -0.8232
 7039TIP3    H242677   3.382   6.619   8.818  0.1524 -1.2237  0.2941
 7040TIP3   OH242678   0.983   3.705   3.468 -0.0190 -0.1188 -0.5327
 7040TIP3    H142679   0.888   3.709   3.484  0.1882  1.4689  0.5480
 7040TIP3    H242680   1.004   3.612   3.470 -1.2943 -0.4066  1.0249
 7041TIP3   OH242681   3.785   2.422   0.419  0.1296 -0.0602  0.4051
 7041TIP3    H142682   3.870   2.447   0.384  0.4690 -1.7132 -0.0588
 7041TIP3    H242683   3.805   2.369   0.497 -0.3686 -1.5257 -0.4057
 7042TIP3   OH242684   2.099   1.028   0.444 -0.1859  0.6448  0.2449
 7042TIP3    H142685   2.126   1.012   0.534 -1.5830 -1.1315  0.4075
 7042TIP3    H242686   2.149   0.965   0.392  1.8392  2.7240 -0.5241
 7043TIP3   OH242687   1.458   3.608   2.344 -0.1313  0.1887 -0.0692
 7043TIP3    H142688   1.404   3.668   2.293  2.1019  1.5527 -0.9970
 7043TIP3    H242689   1.407   3.591   2.423 -1.9200  1.3041 -0.9170
 7044TIP3   OH242690   4.909   4.983   7.462 -0.0241  0.0099  0.2135
 7044TIP3    H142691   4.931   5.052   7.400  1.1425 -0.3010  0.2601
 7044TIP3    H242692   4.902   5.028   7.546 -0.1202  0.2057  0.1005
 7045TIP3   OH242693   2.671   6.653   2.823  0.0094  0.1923 -0.2628
 7045TIP3    H142694   2.626   6.697   2.751 -2.3608 -2.4170 -0.5359
 7045TIP3    H242695   2.619   6.674   2.900  0.9677  0.7614  0.2441
 7046TIP3   OH242696   3.209   1.642   1.025 -0.0299  0.5377  0.5364
 7046TIP3    H142697   3.172   1.577   1.085 -0.4179  0.8442  0.6319
 7046TIP3    H242698   3.150   1.717   1.030  0.8851  1.2415  1.0621
 7047TIP3   OH242699   2.371   1.837   2.187  0.2006 -0.1068 -0.4415
 7047TIP3    H142700   2.325   1.830   2.104 -0.2065 -2.5333 -0.0846
 7047TIP3    H242701   2.318   1.898   2.238 -1.0965 -0.7016 -1.0257
 7048TIP3   OH242702   5.041   5.698   1.323 -0.1984  0.2795 -0.2474
 7048TIP3    H142703   5.116   5.756   1.321 -0.6511  0.8728 -0.2090
 7048TIP3    H242704   5.023   5.679   1.231  0.7804 -0.9043 -0.2212
 7049TIP3   OH242705   5.007   4.137   8.319  0.6794 -0.5017  0.5791
 7049TIP3    H142706   4.964   4.164   8.238 -0.9153  0.7099  1.7601
 7049TIP3    H242707   5.101   4.145   8.301  0.3883 -0.9899 -1.3433
 7050TIP3   OH242708   5.255   1.169   0.276 -0.0660  0.3788 -0.1076
 7050TIP3    H142709   5.278   1.125   0.194 -0.5091  0.7357 -0.4266
 7050TIP3    H242710   5.292   1.113   0.344  1.2052  0.6043 -0.5762
 7051TIP3   OH242711   5.074   4.161   1.580 -0.6080 -0.1017 -0.1367
 7051TIP3    H142712   5.025   4.144   1.661  0.7252  0.4084  0.8160
 7051TIP3    H242713   5.109   4.249   1.592  0.1809 -0.2901 -0.9723
 7052TIP3   OH242714   6.522   3.324   1.916 -0.1279 -0.3943 -0.2435
 7052TIP3    H142715   6.512   3.391   1.983  0.6419  1.6658 -2.0516
 7052TIP3    H242716   6.435   3.314   1.879 -0.2707 -0.4853  0.1117
 7053TIP3   OH242717   1.324   5.336   1.979  0.0508  0.6136  0.0584
 7053TIP3    H142718   1.341   5.291   2.062  1.4014  1.0249  0.0299
 7053TIP3    H242719   1.270   5.275   1.930 -1.2204  0.5860  1.4355
 7054TIP3   OH242720   5.004   6.388   1.244  0.3260 -0.2327 -0.0452
 7054TIP3    H142721   5.069   6.352   1.183  0.0789 -0.0483 -0.4248
 7054TIP3    H242722   4.922   6.345   1.220  0.6364 -1.8452  1.6414
 7055LIG      O42723   4.395   2.358   7.288  0.1675 -0.3757  0.1703
 7055LIG      N42724   4.668   2.677   7.157 -0.1166  0.3867  0.3419
 7055LIG     C142725   4.378   2.463   7.517  0.8600  0.3195 -0.1607
 7055LIG     C242726   4.400   2.491   7.359 -0.2888  0.1584 -0.0450
 7055LIG     C342727   4.465   2.343   7.581  0.2460  0.3945 -0.1120
 7055LIG     C442728   4.399   2.585   7.608 -0.0887 -0.4398  0.0795
 7055LIG     C542729   4.531   2.564   7.312 -0.4137  0.9732 -0.0653
 7055LIG     C642730   4.446   2.325   7.735 -1.0192  0.1109 -0.4800
 7055LIG     C742731   4.379   2.563   7.762  0.1134  0.0155  0.2602
 7055LIG     C842732   4.471   2.456   7.816 -0.4212 -0.1520 -0.4565
 7055LIG     C942733   4.543   2.620   7.173 -0.0166 -0.1461  0.2696
 7055LIG    C1042734   4.272   2.586   7.313 -0.9719 -0.3068 -0.2072
 7055LIG    C1142735   4.741   2.630   7.039 -0.3953  0.0004 -0.3614
 7055LIG    C1242736   4.667   2.825   7.169 -0.0653  0.1006 -0.1532
 7055LIG    C1342737   4.682   2.689   6.913 -0.4962 -0.1761  0.4767
 7055LIG    C1442738   4.626   2.899   7.046  0.0347 -0.0253 -0.3150
 7055LIG    C1542739   4.680   2.843   6.917 -0.6890  0.4146 -0.2027
 7055LIG    C1642740   4.279   2.725   7.327  0.4472 -0.7112 -0.2903
 7055LIG    C1742741   4.151   2.535   7.255 -0.0740  0.3673 -0.6874
 7055LIG    C1842742   4.173   2.811   7.280  0.5206 -0.0987 -0.0413
 7055LIG    C1942743   4.051   2.616   7.212 -0.3224 -0.3545 -0.1829
 7055LIG    C2042744   4.057   2.755   7.222 -0.3881 -1.1830 -0.3103
 7055LIG     H142745   4.276   2.424   7.533  0.7644  1.3638  1.9957
 7055LIG     H242746   4.570   2.381   7.581  0.8711 -1.1748 -1.7134
 7055LIG     H342747   4.447   2.257   7.512 -1.2594  1.2334 -0.8032
 7055LIG     H442748   4.347   2.680   7.584  1.9853  0.9305  0.7196
 7055LIG     H542749   4.505   2.614   7.592  0.0705 -0.3341  1.1855
 7055LIG     H642750   4.614   2.495   7.337 -1.7303 -1.2143 -1.3719
 7055LIG     H742751   4.541   2.648   7.384 -1.3349  1.8569 -0.9407
 7055LIG     H842752   4.517   2.248   7.770  0.1054  0.9255 -0.8857
 7055LIG     H942753   4.341   2.295   7.751 -1.1049  1.5396  1.9995
 7055LIG    H1042754   4.277   2.528   7.791  0.7135 -3.1593 -1.0576
 7055LIG    H1142755   4.397   2.654   7.824  0.2524  0.2058 -0.0535
 7055LIG    H1242756   4.579   2.480   7.807 -0.5149  0.9598  1.0242
 7055LIG    H1342757   4.452   2.432   7.923 -1.4722  0.3678 -0.5083
 7055LIG    H1442758   4.515   2.538   7.103  2.7763 -0.0451 -1.1108
 7055LIG    H1542759   4.456   2.688   7.166 -0.0877 -0.2986 -0.4918
 7055LIG    H1642760   4.732   2.519   7.035 -0.7653  0.0475 -0.9911
 7055LIG    H1742761   4.850   2.650   7.053 -0.3854 -0.3001  0.0068
 7055LIG    H1842762   4.767   2.855   7.206 -0.7800  1.7296  0.5672
 7055LIG    H1942763   4.609   2.856   7.259  1.0550 -2.8872  1.7345
 7055LIG    H2042764   4.301   2.339   7.293 -0.1592  1.1211  0.0384
 7055LIG    H2142765   4.578   2.653   6.914 -0.5616 -0.0332 -0.4817
 7055LIG    H2242766   4.737   2.649   6.825 -0.2328 -0.0971  0.6015
 7055LIG    H2342767   4.655   3.006   7.052  1.0559 -0.3635  1.7374
 7055LIG    H2442768   4.516   2.883   7.039 -0.0479 -0.2647  1.0787
 7055LIG    H2542769   4.622   2.884   6.832 -0.0640  2.1493  0.1749
 7055LIG    H2642770   4.785   2.878   6.905 -1.1905  2.1128  0.1012
 7055LIG    H2742771   4.374   2.771   7.351  0.4018 -0.1369 -1.1486
 7055LIG    H2842772   4.122   2.431   7.254 -0.4492  0.3916  1.4346
 7055LIG    H2942773   4.181   2.919   7.289 -1.6343  0.2643 -1.5546
 7055LIG    H3042774   3.963   2.573   7.167  0.6980 -1.2453 -1.4221
 7055LIG    H3142775   3.982   2.816   7.175  0.7044  0.3978 -0.0725
   6.81044   6.81044   8.81291
